<event>
 4    1  0.2409985E+000  0.5542488E+02  0.7957747E-01  0.1418100E+00
         13   -1    0    0    0    0  0.00000000000E+00  0.00000000000E+00  0.99999944188E+02  0.10000000001E+03  0.10566000000E+00 0. -1.
         22   -1    0    0    0    0 -0.00000000000E+00 -0.00000000000E+00 -0.22672188923E+02  0.22672188923E+02  0.00000000000E+00 0.  1.
         13    1    1    2    0    0 -0.17896097661E+02 -0.15863399004E+02 -0.40069071270E+01  0.24248385683E+02  0.10566000000E+00 0.  1.
        996    1    1    2    0    0  0.17896097661E+02  0.15863399004E+02  0.81334662392E+02  0.98423803248E+02  0.50000000000E+02 0.  0.
<mgrwt>
<rscale>  0 0.55424884E+02</rscale>
<asrwt>0</asrwt>
<pdfrwt beam="1">  1       13 0.10000000E+01 0.55424884E+02</pdfrwt>
<pdfrwt beam="2">  1       22 0.22672211E+00 0.55424884E+02</pdfrwt>
<totfact> 0.35885043E-01</totfact>
</mgrwt>
</event>
<event>
 4    1  0.2409985E+000  0.5636439E+02  0.7957747E-01  0.1413755E+00
         13   -1    0    0    0    0  0.00000000000E+00  0.00000000000E+00  0.99999944173E+02  0.99999999994E+02  0.10566000000E+00 0. -1.
         22   -1    0    0    0    0 -0.00000000000E+00 -0.00000000000E+00 -0.19298523938E+02  0.19298523938E+02  0.00000000000E+00 0. -1.
         13    1    1    2    0    0  0.25984474259E+02 -0.13235002360E+01  0.46738792322E+02  0.53492713776E+02  0.10566000000E+00 0.  1.
        996    1    1    2    0    0 -0.25984474259E+02  0.13235002360E+01  0.33962627913E+02  0.65805810155E+02  0.50000000000E+02 0.  0.
<mgrwt>
<rscale>  0 0.56364391E+02</rscale>
<asrwt>0</asrwt>
<pdfrwt beam="1">  1       13 0.10000000E+01 0.56364391E+02</pdfrwt>
<pdfrwt beam="2">  1       22 0.19298546E+00 0.56364391E+02</pdfrwt>
<totfact> 0.48778634E-01</totfact>
</mgrwt>
</event>
<event>
 4    1  0.2409985E+000  0.6220718E+02  0.7957747E-01  0.1388796E+00
         13   -1    0    0    0    0  0.00000000000E+00  0.00000000000E+00  0.99999944184E+02  0.10000000000E+03  0.10566000000E+00 0.  1.
         22   -1    0    0    0    0 -0.00000000000E+00 -0.00000000000E+00 -0.50254370215E+02  0.50254370215E+02  0.00000000000E+00 0. -1.
         13    1    1    2    0    0  0.36539845734E+02 -0.58798845410E+01 -0.31032965451E+02  0.48298959380E+02  0.10566000000E+00 0. -1.
        996    1    1    2    0    0 -0.36539845734E+02  0.58798845410E+01  0.80778539420E+02  0.10195541084E+03  0.50000000000E+02 0.  0.
<mgrwt>
<rscale>  0 0.62207181E+02</rscale>
<asrwt>0</asrwt>
<pdfrwt beam="1">  1       13 0.10000000E+01 0.62207181E+02</pdfrwt>
<pdfrwt beam="2">  1       22 0.50254384E+00 0.62207181E+02</pdfrwt>
<totfact> 0.72893667E-02</totfact>
</mgrwt>
</event>
<event>
 4    1  0.2409985E+000  0.5243912E+02  0.7957747E-01  0.1432613E+00
         13   -1    0    0    0    0  0.00000000000E+00  0.00000000000E+00  0.99999944179E+02  0.99999999999E+02  0.10566000000E+00 0.  1.
         22   -1    0    0    0    0 -0.00000000000E+00 -0.00000000000E+00 -0.14020833676E+02  0.14020833676E+02  0.00000000000E+00 0. -1.
         13    1    1    2    0    0 -0.67030700817E+01  0.14315392605E+02  0.33530803493E+01  0.16159081837E+02  0.10566000000E+00 0. -1.
        996    1    1    2    0    0  0.67030700817E+01 -0.14315392605E+02  0.82626030153E+02  0.97861751838E+02  0.50000000000E+02 0.  0.
<mgrwt>
<rscale>  0 0.52439123E+02</rscale>
<asrwt>0</asrwt>
<pdfrwt beam="1">  1       13 0.10000000E+01 0.52439123E+02</pdfrwt>
<pdfrwt beam="2">  1       22 0.14020858E+00 0.52439123E+02</pdfrwt>
<totfact> 0.84201860E-01</totfact>
</mgrwt>
</event>
<event>
 4    1  0.2409985E+000  0.5120664E+02  0.7957747E-01  0.1438940E+00
         13   -1    0    0    0    0  0.00000000000E+00  0.00000000000E+00  0.99999944172E+02  0.99999999992E+02  0.10566000000E+00 0. -1.
         22   -1    0    0    0    0 -0.00000000000E+00 -0.00000000000E+00 -0.17934446325E+02  0.17934446325E+02  0.00000000000E+00 0.  1.
         13    1    1    2    0    0 -0.10441370243E+02 -0.36191133271E+01 -0.84681066437E+01  0.13922650179E+02  0.10566000000E+00 0.  1.
        996    1    1    2    0    0  0.10441370243E+02  0.36191133271E+01  0.90533604491E+02  0.10401179614E+03  0.50000000000E+02 0.  0.
<mgrwt>
<rscale>  0 0.51206642E+02</rscale>
<asrwt>0</asrwt>
<pdfrwt beam="1">  1       13 0.10000000E+01 0.51206642E+02</pdfrwt>
<pdfrwt beam="2">  1       22 0.17934469E+00 0.51206642E+02</pdfrwt>
<totfact> 0.55217092E-01</totfact>
</mgrwt>
</event>
<event>
 4    1  0.2409985E+000  0.5208791E+02  0.7957747E-01  0.1434395E+00
         13   -1    0    0    0    0  0.00000000000E+00  0.00000000000E+00  0.99999944179E+02  0.99999999999E+02  0.10566000000E+00 0. -1.
         22   -1    0    0    0    0 -0.00000000000E+00 -0.00000000000E+00 -0.15935293164E+02  0.15935293164E+02  0.00000000000E+00 0.  1.
         13    1    1    2    0    0 -0.12152353422E+02 -0.80913916142E+01 -0.25924248023E+01  0.14828423461E+02  0.10566000000E+00 0.  1.
        996    1    1    2    0    0  0.12152353422E+02  0.80913916142E+01  0.86657075817E+02  0.10110686970E+03  0.50000000000E+02 0.  0.
<mgrwt>
<rscale>  0 0.52087909E+02</rscale>
<asrwt>0</asrwt>
<pdfrwt beam="1">  1       13 0.10000000E+01 0.52087909E+02</pdfrwt>
<pdfrwt beam="2">  1       22 0.15935317E+00 0.52087909E+02</pdfrwt>
<totfact> 0.68005695E-01</totfact>
</mgrwt>
</event>
<event>
 4    1  0.2409985E+000  0.5191906E+02  0.7957747E-01  0.1435257E+00
         13   -1    0    0    0    0  0.00000000000E+00  0.00000000000E+00  0.99999944176E+02  0.99999999996E+02  0.10566000000E+00 0.  1.
         22   -1    0    0    0    0 -0.00000000000E+00 -0.00000000000E+00 -0.12173705894E+02  0.12173705894E+02  0.00000000000E+00 0.  1.
         13    1    1    2    0    0 -0.40890370767E+01 -0.13374186683E+02  0.58952209848E+01  0.15177413750E+02  0.10566000000E+00 0. -1.
        996    1    1    2    0    0  0.40890370767E+01  0.13374186683E+02  0.81931017297E+02  0.96996292140E+02  0.50000000000E+02 0.  0.
<mgrwt>
<rscale>  0 0.51919063E+02</rscale>
<asrwt>0</asrwt>
<pdfrwt beam="1">  1       13 0.10000000E+01 0.51919063E+02</pdfrwt>
<pdfrwt beam="2">  1       22 0.12173730E+00 0.51919063E+02</pdfrwt>
<totfact> 0.10512869E+00</totfact>
</mgrwt>
</event>
<event>
 4    1  0.2409985E+000  0.5460235E+02  0.7957747E-01  0.1421989E+00
         13   -1    0    0    0    0  0.00000000000E+00  0.00000000000E+00  0.99999944180E+02  0.10000000000E+03  0.10566000000E+00 0.  1.
         22   -1    0    0    0    0 -0.00000000000E+00 -0.00000000000E+00 -0.25186407194E+02  0.25186407194E+02  0.00000000000E+00 0. -1.
         13    1    1    2    0    0  0.67943820966E+01 -0.20862714763E+02 -0.10161788455E+02  0.24180355746E+02  0.10566000000E+00 0. -1.
        996    1    1    2    0    0 -0.67943820966E+01  0.20862714763E+02  0.84975325441E+02  0.10100605145E+03  0.50000000000E+02 0.  0.
<mgrwt>
<rscale>  0 0.54602349E+02</rscale>
<asrwt>0</asrwt>
<pdfrwt beam="1">  1       13 0.10000000E+01 0.54602349E+02</pdfrwt>
<pdfrwt beam="2">  1       22 0.25186428E+00 0.54602349E+02</pdfrwt>
<totfact> 0.29166810E-01</totfact>
</mgrwt>
</event>
<event>
 4    1  0.2409985E+000  0.5140065E+02  0.7957747E-01  0.1437930E+00
         13   -1    0    0    0    0  0.00000000000E+00  0.00000000000E+00  0.99999944175E+02  0.99999999995E+02  0.10566000000E+00 0. -1.
         22   -1    0    0    0    0 -0.00000000000E+00 -0.00000000000E+00 -0.14093823631E+02  0.14093823631E+02  0.00000000000E+00 0. -1.
         13    1    1    2    0    0  0.84944706943E+00 -0.11887182308E+02 -0.21722276951E+01  0.12114305623E+02  0.10566000000E+00 0.  1.
        996    1    1    2    0    0 -0.84944706943E+00  0.11887182308E+02  0.88078348239E+02  0.10197951800E+03  0.50000000000E+02 0.  0.
<mgrwt>
<rscale>  0 0.51400648E+02</rscale>
<asrwt>0</asrwt>
<pdfrwt beam="1">  1       13 0.10000000E+01 0.51400648E+02</pdfrwt>
<pdfrwt beam="2">  1       22 0.14093848E+00 0.51400648E+02</pdfrwt>
<totfact> 0.83313131E-01</totfact>
</mgrwt>
</event>
<event>
 4    1  0.2409985E+000  0.6963037E+02  0.7957747E-01  0.1361355E+00
         13   -1    0    0    0    0  0.00000000000E+00  0.00000000000E+00  0.99999944179E+02  0.99999999999E+02  0.10566000000E+00 0.  1.
         22   -1    0    0    0    0 -0.00000000000E+00 -0.00000000000E+00 -0.61393118380E+02  0.61393118380E+02  0.00000000000E+00 0. -1.
         13    1    1    2    0    0  0.34622545449E+01 -0.48336327574E+02 -0.35222421363E+02  0.59908412603E+02  0.10566000000E+00 0. -1.
        996    1    1    2    0    0 -0.34622545449E+01  0.48336327574E+02  0.73829247162E+02  0.10148470578E+03  0.50000000000E+02 0.  0.
<mgrwt>
<rscale>  0 0.69630365E+02</rscale>
<asrwt>0</asrwt>
<pdfrwt beam="1">  1       13 0.10000000E+01 0.69630365E+02</pdfrwt>
<pdfrwt beam="2">  1       22 0.61393129E+00 0.69630365E+02</pdfrwt>
<totfact> 0.69536060E-02</totfact>
</mgrwt>
</event>
<event>
 4    1  0.2409985E+000  0.5172792E+02  0.7957747E-01  0.1436238E+00
         13   -1    0    0    0    0  0.00000000000E+00  0.00000000000E+00  0.99999944175E+02  0.99999999996E+02  0.10566000000E+00 0.  1.
         22   -1    0    0    0    0 -0.00000000000E+00 -0.00000000000E+00 -0.44077743750E+02  0.44077743750E+02  0.00000000000E+00 0. -1.
         13    1    1    2    0    0 -0.13114657973E+02  0.19450238159E+01 -0.36130653627E+02  0.38486525784E+02  0.10566000000E+00 0. -1.
        996    1    1    2    0    0  0.13114657973E+02 -0.19450238159E+01  0.92052854052E+02  0.10559121796E+03  0.50000000000E+02 0.  0.
<mgrwt>
<rscale>  0 0.51727917E+02</rscale>
<asrwt>0</asrwt>
<pdfrwt beam="1">  1       13 0.10000000E+01 0.51727917E+02</pdfrwt>
<pdfrwt beam="2">  1       22 0.44077759E+00 0.51727917E+02</pdfrwt>
<totfact> 0.10129645E-01</totfact>
</mgrwt>
</event>
<event>
 4    1  0.2409985E+000  0.5178729E+02  0.7957747E-01  0.1435933E+00
         13   -1    0    0    0    0  0.00000000000E+00  0.00000000000E+00  0.99999944178E+02  0.99999999998E+02  0.10566000000E+00 0. -1.
         22   -1    0    0    0    0 -0.00000000000E+00 -0.00000000000E+00 -0.17844591630E+02  0.17844591630E+02  0.00000000000E+00 0.  1.
         13    1    1    2    0    0 -0.13413959693E+02  0.14103800732E+01 -0.66528813210E+01  0.15039796558E+02  0.10566000000E+00 0.  1.
        996    1    1    2    0    0  0.13413959693E+02 -0.14103800732E+01  0.88808233868E+02  0.10280479507E+03  0.50000000000E+02 0.  0.
<mgrwt>
<rscale>  0 0.51787291E+02</rscale>
<asrwt>0</asrwt>
<pdfrwt beam="1">  1       13 0.10000000E+01 0.51787291E+02</pdfrwt>
<pdfrwt beam="2">  1       22 0.17844615E+00 0.51787291E+02</pdfrwt>
<totfact> 0.55777140E-01</totfact>
</mgrwt>
</event>
<event>
 4    1  0.2409985E+000  0.5311536E+02  0.7957747E-01  0.1429228E+00
         13   -1    0    0    0    0  0.00000000000E+00  0.00000000000E+00  0.99999944181E+02  0.10000000000E+03  0.10566000000E+00 0.  1.
         22   -1    0    0    0    0 -0.00000000000E+00 -0.00000000000E+00 -0.48961378098E+02  0.48961378098E+02  0.00000000000E+00 0. -1.
         13    1    1    2    0    0  0.10276811044E+02  0.14684307946E+02 -0.39847279802E+02  0.43692775337E+02  0.10566000000E+00 0. -1.
        996    1    1    2    0    0 -0.10276811044E+02 -0.14684307946E+02  0.90885845885E+02  0.10526860276E+03  0.50000000000E+02 0.  0.
<mgrwt>
<rscale>  0 0.53115363E+02</rscale>
<asrwt>0</asrwt>
<pdfrwt beam="1">  1       13 0.10000000E+01 0.53115363E+02</pdfrwt>
<pdfrwt beam="2">  1       22 0.48961392E+00 0.53115363E+02</pdfrwt>
<totfact> 0.78026567E-02</totfact>
</mgrwt>
</event>
<event>
 4    1  0.2409985E+000  0.5123707E+02  0.7957747E-01  0.1438781E+00
         13   -1    0    0    0    0  0.00000000000E+00  0.00000000000E+00  0.99999944190E+02  0.10000000001E+03  0.10566000000E+00 0.  1.
         22   -1    0    0    0    0 -0.00000000000E+00 -0.00000000000E+00 -0.10068376476E+02  0.10068376476E+02  0.00000000000E+00 0.  1.
         13    1    1    2    0    0 -0.11147616037E+02  0.98404107520E+00  0.93815792870E+01  0.14603522661E+02  0.10566000000E+00 0. -1.
        996    1    1    2    0    0  0.11147616037E+02 -0.98404107520E+00  0.80549988428E+02  0.95464853825E+02  0.50000000000E+02 0.  0.
<mgrwt>
<rscale>  0 0.51237073E+02</rscale>
<asrwt>0</asrwt>
<pdfrwt beam="1">  1       13 0.10000000E+01 0.51237073E+02</pdfrwt>
<pdfrwt beam="2">  1       22 0.10068402E+00 0.51237073E+02</pdfrwt>
<totfact> 0.13933584E+00</totfact>
</mgrwt>
</event>
<event>
 4    1  0.2409985E+000  0.5500477E+02  0.7957747E-01  0.1420076E+00
         13   -1    0    0    0    0  0.00000000000E+00  0.00000000000E+00  0.99999944182E+02  0.10000000000E+03  0.10566000000E+00 0.  1.
         22   -1    0    0    0    0 -0.00000000000E+00 -0.00000000000E+00 -0.16139771492E+02  0.16139771492E+02  0.00000000000E+00 0.  1.
         13    1    1    2    0    0 -0.21422981672E+02 -0.81597141301E+01  0.12726483591E+02  0.26220214092E+02  0.10566000000E+00 0. -1.
        996    1    1    2    0    0  0.21422981672E+02  0.81597141301E+01  0.71133689099E+02  0.89919557401E+02  0.50000000000E+02 0.  0.
<mgrwt>
<rscale>  0 0.55004773E+02</rscale>
<asrwt>0</asrwt>
<pdfrwt beam="1">  1       13 0.10000000E+01 0.55004773E+02</pdfrwt>
<pdfrwt beam="2">  1       22 0.16139795E+00 0.55004773E+02</pdfrwt>
<totfact> 0.66911656E-01</totfact>
</mgrwt>
</event>
<event>
 4    1  0.2409985E+000  0.5116231E+02  0.7957747E-01  0.1439171E+00
         13   -1    0    0    0    0  0.00000000000E+00  0.00000000000E+00  0.99999944175E+02  0.99999999995E+02  0.10566000000E+00 0. -1.
         22   -1    0    0    0    0 -0.00000000000E+00 -0.00000000000E+00 -0.14230063309E+02  0.14230063309E+02  0.00000000000E+00 0. -1.
         13    1    1    2    0    0  0.34876328163E+00  0.10837923422E+02  0.51550879421E+02  0.52679090283E+02  0.10566000000E+00 0.  1.
        996    1    1    2    0    0 -0.34876328163E+00 -0.10837923422E+02  0.34219001445E+02  0.61550973021E+02  0.50000000000E+02 0.  0.
<mgrwt>
<rscale>  0 0.51162312E+02</rscale>
<asrwt>0</asrwt>
<pdfrwt beam="1">  1       13 0.10000000E+01 0.51162312E+02</pdfrwt>
<pdfrwt beam="2">  1       22 0.14230087E+00 0.51162312E+02</pdfrwt>
<totfact> 0.81977596E-01</totfact>
</mgrwt>
</event>
<event>
 4    1  0.2409985E+000  0.5950807E+02  0.7957747E-01  0.1399908E+00
         13   -1    0    0    0    0  0.00000000000E+00  0.00000000000E+00  0.99999944182E+02  0.10000000000E+03  0.10566000000E+00 0. -1.
         22   -1    0    0    0    0 -0.00000000000E+00 -0.00000000000E+00 -0.23244693515E+02  0.23244693515E+02  0.00000000000E+00 0. -1.
         13    1    1    2    0    0  0.15243584870E+02  0.28440171132E+02  0.99244343404E+01  0.33759676757E+02  0.10566000000E+00 0.  1.
        996    1    1    2    0    0 -0.15243584870E+02 -0.28440171132E+02  0.66830816327E+02  0.89485016760E+02  0.50000000000E+02 0.  0.
<mgrwt>
<rscale>  0 0.59508068E+02</rscale>
<asrwt>0</asrwt>
<pdfrwt beam="1">  1       13 0.10000000E+01 0.59508068E+02</pdfrwt>
<pdfrwt beam="2">  1       22 0.23244715E+00 0.59508068E+02</pdfrwt>
<totfact> 0.34392351E-01</totfact>
</mgrwt>
</event>
<event>
 4    1  0.2409985E+000  0.5121702E+02  0.7957747E-01  0.1438886E+00
         13   -1    0    0    0    0  0.00000000000E+00  0.00000000000E+00  0.99999944176E+02  0.99999999996E+02  0.10566000000E+00 0. -1.
         22   -1    0    0    0    0 -0.00000000000E+00 -0.00000000000E+00 -0.97177238244E+01  0.97177238244E+01  0.00000000000E+00 0. -1.
         13    1    1    2    0    0  0.10992092793E+02 -0.15352184951E+01  0.17417719011E+02  0.20653597735E+02  0.10566000000E+00 0.  1.
        996    1    1    2    0    0 -0.10992092793E+02  0.15352184951E+01  0.72864501340E+02  0.89064126085E+02  0.50000000000E+02 0.  0.
<mgrwt>
<rscale>  0 0.51217019E+02</rscale>
<asrwt>0</asrwt>
<pdfrwt beam="1">  1       13 0.10000000E+01 0.51217019E+02</pdfrwt>
<pdfrwt beam="2">  1       22 0.97177490E-01 0.51217019E+02</pdfrwt>
<totfact> 0.14664599E+00</totfact>
</mgrwt>
</event>
<event>
 4    1  0.2409985E+000  0.5309595E+02  0.7957747E-01  0.1429324E+00
         13   -1    0    0    0    0  0.00000000000E+00  0.00000000000E+00  0.99999944177E+02  0.99999999998E+02  0.10566000000E+00 0.  1.
         22   -1    0    0    0    0 -0.00000000000E+00 -0.00000000000E+00 -0.12701035438E+02  0.12701035438E+02  0.00000000000E+00 0.  1.
         13    1    1    2    0    0 -0.17587385608E+02 -0.31407254786E+01  0.26772145005E+02  0.32186009402E+02  0.10566000000E+00 0. -1.
        996    1    1    2    0    0  0.17587385608E+02  0.31407254786E+01  0.60526763734E+02  0.80515026034E+02  0.50000000000E+02 0.  0.
<mgrwt>
<rscale>  0 0.53095954E+02</rscale>
<asrwt>0</asrwt>
<pdfrwt beam="1">  1       13 0.10000000E+01 0.53095954E+02</pdfrwt>
<pdfrwt beam="2">  1       22 0.12701060E+00 0.53095954E+02</pdfrwt>
<totfact> 0.98688948E-01</totfact>
</mgrwt>
</event>
<event>
 4    1  0.2409985E+000  0.5116579E+02  0.7957747E-01  0.1439153E+00
         13   -1    0    0    0    0  0.00000000000E+00  0.00000000000E+00  0.99999944176E+02  0.99999999997E+02  0.10566000000E+00 0. -1.
         22   -1    0    0    0    0 -0.00000000000E+00 -0.00000000000E+00 -0.10437641306E+02  0.10437641306E+02  0.00000000000E+00 0. -1.
         13    1    1    2    0    0  0.33586074111E+01 -0.10327522434E+02  0.58730896918E+01  0.12346753011E+02  0.10566000000E+00 0.  1.
        996    1    1    2    0    0 -0.33586074111E+01  0.10327522434E+02  0.83689213178E+02  0.98090888291E+02  0.50000000000E+02 0.  0.
<mgrwt>
<rscale>  0 0.51165789E+02</rscale>
<asrwt>0</asrwt>
<pdfrwt beam="1">  1       13 0.10000000E+01 0.51165789E+02</pdfrwt>
<pdfrwt beam="2">  1       22 0.10437666E+00 0.51165789E+02</pdfrwt>
<totfact> 0.13218595E+00</totfact>
</mgrwt>
</event>
<event>
 4    1  0.2409985E+000  0.5404895E+02  0.7957747E-01  0.1424651E+00
         13   -1    0    0    0    0  0.00000000000E+00  0.00000000000E+00  0.99999944175E+02  0.99999999995E+02  0.10566000000E+00 0. -1.
         22   -1    0    0    0    0 -0.00000000000E+00 -0.00000000000E+00 -0.13907647237E+02  0.13907647237E+02  0.00000000000E+00 0. -1.
         13    1    1    2    0    0 -0.24212984428E+01  0.20382012289E+02  0.22811000970E+02  0.30686186475E+02  0.10566000000E+00 0.  1.
        996    1    1    2    0    0  0.24212984428E+01 -0.20382012289E+02  0.63281295969E+02  0.83221460758E+02  0.50000000000E+02 0.  0.
<mgrwt>
<rscale>  0 0.54048951E+02</rscale>
<asrwt>0</asrwt>
<pdfrwt beam="1">  1       13 0.10000000E+01 0.54048951E+02</pdfrwt>
<pdfrwt beam="2">  1       22 0.13907671E+00 0.54048951E+02</pdfrwt>
<totfact> 0.85597010E-01</totfact>
</mgrwt>
</event>
<event>
 4    1  0.2409985E+000  0.5116239E+02  0.7957747E-01  0.1439171E+00
         13   -1    0    0    0    0  0.00000000000E+00  0.00000000000E+00  0.99999944182E+02  0.10000000000E+03  0.10566000000E+00 0. -1.
         22   -1    0    0    0    0 -0.00000000000E+00 -0.00000000000E+00 -0.12942413536E+02  0.12942413536E+02  0.00000000000E+00 0. -1.
         13    1    1    2    0    0  0.84986442193E+01 -0.67352559029E+01 -0.12175909844E+01  0.10912576116E+02  0.10566000000E+00 0.  1.
        996    1    1    2    0    0 -0.84986442193E+01  0.67352559029E+01  0.88275121630E+02  0.10202983742E+03  0.50000000000E+02 0.  0.
<mgrwt>
<rscale>  0 0.51162395E+02</rscale>
<asrwt>0</asrwt>
<pdfrwt beam="1">  1       13 0.10000000E+01 0.51162395E+02</pdfrwt>
<pdfrwt beam="2">  1       22 0.12942438E+00 0.51162395E+02</pdfrwt>
<totfact> 0.95417206E-01</totfact>
</mgrwt>
</event>
<event>
 4    1  0.2409985E+000  0.5120047E+02  0.7957747E-01  0.1438972E+00
         13   -1    0    0    0    0  0.00000000000E+00  0.00000000000E+00  0.99999944181E+02  0.10000000000E+03  0.10566000000E+00 0.  1.
         22   -1    0    0    0    0 -0.00000000000E+00 -0.00000000000E+00 -0.19635328316E+02  0.19635328316E+02  0.00000000000E+00 0. -1.
         13    1    1    2    0    0  0.38491710545E+01 -0.10328213009E+02 -0.10573612459E+02  0.15274179069E+02  0.10566000000E+00 0. -1.
        996    1    1    2    0    0 -0.38491710545E+01  0.10328213009E+02  0.90938228324E+02  0.10436114925E+03  0.50000000000E+02 0.  0.
<mgrwt>
<rscale>  0 0.51200470E+02</rscale>
<asrwt>0</asrwt>
<pdfrwt beam="1">  1       13 0.10000000E+01 0.51200470E+02</pdfrwt>
<pdfrwt beam="2">  1       22 0.19635351E+00 0.51200470E+02</pdfrwt>
<totfact> 0.46816478E-01</totfact>
</mgrwt>
</event>
<event>
 4    1  0.2409985E+000  0.6223769E+02  0.7957747E-01  0.1388674E+00
         13   -1    0    0    0    0  0.00000000000E+00  0.00000000000E+00  0.99999944180E+02  0.10000000000E+03  0.10566000000E+00 0.  1.
         22   -1    0    0    0    0 -0.00000000000E+00 -0.00000000000E+00 -0.47165383590E+02  0.47165383590E+02  0.00000000000E+00 0. -1.
         13    1    1    2    0    0  0.16958604737E+02  0.32953535505E+02 -0.27060967328E+02  0.45889398489E+02  0.10566000000E+00 0. -1.
        996    1    1    2    0    0 -0.16958604737E+02 -0.32953535505E+02  0.79895527918E+02  0.10127598510E+03  0.50000000000E+02 0.  0.
<mgrwt>
<rscale>  0 0.62237688E+02</rscale>
<asrwt>0</asrwt>
<pdfrwt beam="1">  1       13 0.10000000E+01 0.62237688E+02</pdfrwt>
<pdfrwt beam="2">  1       22 0.47165398E+00 0.62237688E+02</pdfrwt>
<totfact> 0.86525986E-02</totfact>
</mgrwt>
</event>
<event>
 4    1  0.2409985E+000  0.5220757E+02  0.7957747E-01  0.1433786E+00
         13   -1    0    0    0    0  0.00000000000E+00  0.00000000000E+00  0.99999944179E+02  0.99999999999E+02  0.10566000000E+00 0. -1.
         22   -1    0    0    0    0 -0.00000000000E+00 -0.00000000000E+00 -0.12963344663E+02  0.12963344663E+02  0.00000000000E+00 0.  1.
         13    1    1    2    0    0 -0.12803510722E+02  0.78549575494E+01  0.52078036131E+01  0.15898510227E+02  0.10566000000E+00 0.  1.
        996    1    1    2    0    0  0.12803510722E+02 -0.78549575494E+01  0.81828795903E+02  0.97064834435E+02  0.50000000000E+02 0.  0.
<mgrwt>
<rscale>  0 0.52207569E+02</rscale>
<asrwt>0</asrwt>
<pdfrwt beam="1">  1       13 0.10000000E+01 0.52207569E+02</pdfrwt>
<pdfrwt beam="2">  1       22 0.12963369E+00 0.52207569E+02</pdfrwt>
<totfact> 0.95392313E-01</totfact>
</mgrwt>
</event>
<event>
 4    1  0.2409985E+000  0.6268969E+02  0.7957747E-01  0.1386879E+00
         13   -1    0    0    0    0  0.00000000000E+00  0.00000000000E+00  0.99999944166E+02  0.99999999986E+02  0.10566000000E+00 0. -1.
         22   -1    0    0    0    0 -0.00000000000E+00 -0.00000000000E+00 -0.27717082647E+02  0.27717082647E+02  0.00000000000E+00 0.  1.
         13    1    1    2    0    0  0.23329329409E+02 -0.29761369098E+02  0.94911986140E+01  0.38988340775E+02  0.10566000000E+00 0.  1.
        996    1    1    2    0    0 -0.23329329409E+02  0.29761369098E+02  0.62791662905E+02  0.88728741858E+02  0.50000000000E+02 0.  0.
<mgrwt>
<rscale>  0 0.62689686E+02</rscale>
<asrwt>0</asrwt>
<pdfrwt beam="1">  1       13 0.10000000E+01 0.62689686E+02</pdfrwt>
<pdfrwt beam="2">  1       22 0.27717103E+00 0.62689686E+02</pdfrwt>
<totfact> 0.24417219E-01</totfact>
</mgrwt>
</event>
<event>
 4    1  0.2409985E+000  0.5985742E+02  0.7957747E-01  0.1398431E+00
         13   -1    0    0    0    0  0.00000000000E+00  0.00000000000E+00  0.99999944172E+02  0.99999999992E+02  0.10566000000E+00 0. -1.
         22   -1    0    0    0    0 -0.00000000000E+00 -0.00000000000E+00 -0.67457519516E+02  0.67457519516E+02  0.00000000000E+00 0.  1.
         13    1    1    2    0    0 -0.19672409059E+02 -0.26380049266E+02 -0.53399416758E+02  0.62724951587E+02  0.10566000000E+00 0.  1.
        996    1    1    2    0    0  0.19672409059E+02  0.26380049266E+02  0.85941841414E+02  0.10473256792E+03  0.50000000000E+02 0.  0.
<mgrwt>
<rscale>  0 0.59857420E+02</rscale>
<asrwt>0</asrwt>
<pdfrwt beam="1">  1       13 0.10000000E+01 0.59857420E+02</pdfrwt>
<pdfrwt beam="2">  1       22 0.67457529E+00 0.59857420E+02</pdfrwt>
<totfact> 0.85169537E-02</totfact>
</mgrwt>
</event>
<event>
 4    1  0.2409985E+000  0.5435457E+02  0.7957747E-01  0.1423176E+00
         13   -1    0    0    0    0  0.00000000000E+00  0.00000000000E+00  0.99999944174E+02  0.99999999994E+02  0.10566000000E+00 0.  1.
         22   -1    0    0    0    0 -0.00000000000E+00 -0.00000000000E+00 -0.14704383826E+02  0.14704383826E+02  0.00000000000E+00 0.  1.
         13    1    1    2    0    0 -0.17781354290E+02 -0.11757643802E+02  0.16104444611E+02  0.26716718519E+02  0.10566000000E+00 0. -1.
        996    1    1    2    0    0  0.17781354290E+02  0.11757643802E+02  0.69191115738E+02  0.87987665301E+02  0.50000000000E+02 0.  0.
<mgrwt>
<rscale>  0 0.54354565E+02</rscale>
<asrwt>0</asrwt>
<pdfrwt beam="1">  1       13 0.10000000E+01 0.54354565E+02</pdfrwt>
<pdfrwt beam="2">  1       22 0.14704408E+00 0.54354565E+02</pdfrwt>
<totfact> 0.78188870E-01</totfact>
</mgrwt>
</event>
<event>
 4    1  0.2409985E+000  0.5145791E+02  0.7957747E-01  0.1437633E+00
         13   -1    0    0    0    0  0.00000000000E+00  0.00000000000E+00  0.99999944180E+02  0.10000000000E+03  0.10566000000E+00 0.  1.
         22   -1    0    0    0    0 -0.00000000000E+00 -0.00000000000E+00 -0.10130787380E+02  0.10130787380E+02  0.00000000000E+00 0.  1.
         13    1    1    2    0    0  0.84101752051E+01  0.87855273311E+01  0.18698240705E+02  0.22305871581E+02  0.10566000000E+00 0. -1.
        996    1    1    2    0    0 -0.84101752051E+01 -0.87855273311E+01  0.71170916095E+02  0.87824915800E+02  0.50000000000E+02 0.  0.
<mgrwt>
<rscale>  0 0.51457910E+02</rscale>
<asrwt>0</asrwt>
<pdfrwt beam="1">  1       13 0.10000000E+01 0.51457910E+02</pdfrwt>
<pdfrwt beam="2">  1       22 0.10130812E+00 0.51457910E+02</pdfrwt>
<totfact> 0.13816503E+00</totfact>
</mgrwt>
</event>
<event>
 4    1  0.2409985E+000  0.5148908E+02  0.7957747E-01  0.1437471E+00
         13   -1    0    0    0    0  0.00000000000E+00  0.00000000000E+00  0.99999944175E+02  0.99999999995E+02  0.10566000000E+00 0. -1.
         22   -1    0    0    0    0 -0.00000000000E+00 -0.00000000000E+00 -0.61103995825E+02  0.61103995825E+02  0.00000000000E+00 0.  1.
         13    1    1    2    0    0 -0.11984135282E+02 -0.27397034608E+01 -0.53735697071E+02  0.55124058062E+02  0.10566000000E+00 0.  1.
        996    1    1    2    0    0  0.11984135282E+02  0.27397034608E+01  0.92631645422E+02  0.10597993776E+03  0.50000000000E+02 0.  0.
<mgrwt>
<rscale>  0 0.51489081E+02</rscale>
<asrwt>0</asrwt>
<pdfrwt beam="1">  1       13 0.10000000E+01 0.51489081E+02</pdfrwt>
<pdfrwt beam="2">  1       22 0.61104007E+00 0.51489081E+02</pdfrwt>
<totfact> 0.68074059E-02</totfact>
</mgrwt>
</event>
<event>
 4    1  0.2409985E+000  0.5568542E+02  0.7957747E-01  0.1416885E+00
         13   -1    0    0    0    0  0.00000000000E+00  0.00000000000E+00  0.99999944176E+02  0.99999999996E+02  0.10566000000E+00 0.  1.
         22   -1    0    0    0    0 -0.00000000000E+00 -0.00000000000E+00 -0.18116792573E+02  0.18116792573E+02  0.00000000000E+00 0.  1.
         13    1    1    2    0    0 -0.72707752072E+01 -0.23409429288E+02  0.83877692186E+01  0.25908133630E+02  0.10566000000E+00 0. -1.
        996    1    1    2    0    0  0.72707752072E+01  0.23409429288E+02  0.73495382384E+02  0.92208658940E+02  0.50000000000E+02 0.  0.
<mgrwt>
<rscale>  0 0.55685416E+02</rscale>
<asrwt>0</asrwt>
<pdfrwt beam="1">  1       13 0.10000000E+01 0.55685416E+02</pdfrwt>
<pdfrwt beam="2">  1       22 0.18116815E+00 0.55685416E+02</pdfrwt>
<totfact> 0.54670496E-01</totfact>
</mgrwt>
</event>
<event>
 4    1  0.2409985E+000  0.5259440E+02  0.7957747E-01  0.1431830E+00
         13   -1    0    0    0    0  0.00000000000E+00  0.00000000000E+00  0.99999944178E+02  0.99999999998E+02  0.10566000000E+00 0. -1.
         22   -1    0    0    0    0 -0.00000000000E+00 -0.00000000000E+00 -0.12797162286E+02  0.12797162286E+02  0.00000000000E+00 0. -1.
         13    1    1    2    0    0  0.15738754925E+02 -0.42967520943E+01  0.92317939374E+01  0.18745870705E+02  0.10566000000E+00 0.  1.
        996    1    1    2    0    0 -0.15738754925E+02  0.42967520943E+01  0.77970987954E+02  0.94051291579E+02  0.50000000000E+02 0.  0.
<mgrwt>
<rscale>  0 0.52594396E+02</rscale>
<asrwt>0</asrwt>
<pdfrwt beam="1">  1       13 0.10000000E+01 0.52594396E+02</pdfrwt>
<pdfrwt beam="2">  1       22 0.12797187E+00 0.52594396E+02</pdfrwt>
<totfact> 0.97426270E-01</totfact>
</mgrwt>
</event>
<event>
 4    1  0.2409985E+000  0.5176823E+02  0.7957747E-01  0.1436031E+00
         13   -1    0    0    0    0  0.00000000000E+00  0.00000000000E+00  0.99999944178E+02  0.99999999998E+02  0.10566000000E+00 0.  1.
         22   -1    0    0    0    0 -0.00000000000E+00 -0.00000000000E+00 -0.15803721738E+02  0.15803721738E+02  0.00000000000E+00 0. -1.
         13    1    1    2    0    0  0.12535065839E+02 -0.47771866796E+01 -0.35928419656E+01  0.13887730757E+02  0.10566000000E+00 0. -1.
        996    1    1    2    0    0 -0.12535065839E+02  0.47771866796E+01  0.87789064405E+02  0.10191599098E+03  0.50000000000E+02 0.  0.
<mgrwt>
<rscale>  0 0.51768228E+02</rscale>
<asrwt>0</asrwt>
<pdfrwt beam="1">  1       13 0.10000000E+01 0.51768228E+02</pdfrwt>
<pdfrwt beam="2">  1       22 0.15803745E+00 0.51768228E+02</pdfrwt>
<totfact> 0.68929094E-01</totfact>
</mgrwt>
</event>
<event>
 4    1  0.2409985E+000  0.5170227E+02  0.7957747E-01  0.1436370E+00
         13   -1    0    0    0    0  0.00000000000E+00  0.00000000000E+00  0.99999944183E+02  0.10000000000E+03  0.10566000000E+00 0. -1.
         22   -1    0    0    0    0 -0.00000000000E+00 -0.00000000000E+00 -0.14708204783E+02  0.14708204783E+02  0.00000000000E+00 0. -1.
         13    1    1    2    0    0 -0.45079250660E+01 -0.12361364926E+02 -0.19451472975E+01  0.13301108723E+02  0.10566000000E+00 0.  1.
        996    1    1    2    0    0  0.45079250660E+01  0.12361364926E+02  0.87236886697E+02  0.10140709606E+03  0.50000000000E+02 0.  0.
<mgrwt>
<rscale>  0 0.51702270E+02</rscale>
<asrwt>0</asrwt>
<pdfrwt beam="1">  1       13 0.10000000E+01 0.51702270E+02</pdfrwt>
<pdfrwt beam="2">  1       22 0.14708229E+00 0.51702270E+02</pdfrwt>
<totfact> 0.77738204E-01</totfact>
</mgrwt>
</event>
<event>
 4    1  0.2409985E+000  0.5424340E+02  0.7957747E-01  0.1423711E+00
         13   -1    0    0    0    0  0.00000000000E+00  0.00000000000E+00  0.99999944184E+02  0.10000000000E+03  0.10566000000E+00 0. -1.
         22   -1    0    0    0    0 -0.00000000000E+00 -0.00000000000E+00 -0.25637511109E+02  0.25637511109E+02  0.00000000000E+00 0.  1.
         13    1    1    2    0    0  0.20363273686E+02  0.52614996630E+01 -0.11579310875E+02  0.24009121148E+02  0.10566000000E+00 0.  1.
        996    1    1    2    0    0 -0.20363273686E+02 -0.52614996630E+01  0.85941743950E+02  0.10162838997E+03  0.50000000000E+02 0.  0.
<mgrwt>
<rscale>  0 0.54243399E+02</rscale>
<asrwt>0</asrwt>
<pdfrwt beam="1">  1       13 0.10000000E+01 0.54243399E+02</pdfrwt>
<pdfrwt beam="2">  1       22 0.25637532E+00 0.54243399E+02</pdfrwt>
<totfact> 0.28149104E-01</totfact>
</mgrwt>
</event>
<event>
 4    1  0.2409985E+000  0.5126689E+02  0.7957747E-01  0.1438626E+00
         13   -1    0    0    0    0  0.00000000000E+00  0.00000000000E+00  0.99999944178E+02  0.99999999998E+02  0.10566000000E+00 0. -1.
         22   -1    0    0    0    0 -0.00000000000E+00 -0.00000000000E+00 -0.98856618696E+01  0.98856618696E+01  0.00000000000E+00 0. -1.
         13    1    1    2    0    0  0.70711882536E+01 -0.88482800662E+01  0.12507249059E+02  0.16874128318E+02  0.10566000000E+00 0.  1.
        996    1    1    2    0    0 -0.70711882536E+01  0.88482800662E+01  0.77607033250E+02  0.93011533550E+02  0.50000000000E+02 0.  0.
<mgrwt>
<rscale>  0 0.51266888E+02</rscale>
<asrwt>0</asrwt>
<pdfrwt beam="1">  1       13 0.10000000E+01 0.51266888E+02</pdfrwt>
<pdfrwt beam="2">  1       22 0.98856870E-01 0.51266888E+02</pdfrwt>
<totfact> 0.14308851E+00</totfact>
</mgrwt>
</event>
<event>
 4    1  0.2409985E+000  0.5613540E+02  0.7957747E-01  0.1414805E+00
         13   -1    0    0    0    0  0.00000000000E+00  0.00000000000E+00  0.99999944169E+02  0.99999999989E+02  0.10566000000E+00 0. -1.
         22   -1    0    0    0    0 -0.00000000000E+00 -0.00000000000E+00 -0.21531655802E+02  0.21531655802E+02  0.00000000000E+00 0.  1.
         13    1    1    2    0    0 -0.17580320324E+02  0.18496375019E+02  0.58337992333E+00  0.25525184577E+02  0.10566000000E+00 0.  1.
        996    1    1    2    0    0  0.17580320324E+02 -0.18496375019E+02  0.77884908444E+02  0.96006471214E+02  0.50000000000E+02 0.  0.
<mgrwt>
<rscale>  0 0.56135404E+02</rscale>
<asrwt>0</asrwt>
<pdfrwt beam="1">  1       13 0.10000000E+01 0.56135404E+02</pdfrwt>
<pdfrwt beam="2">  1       22 0.21531678E+00 0.56135404E+02</pdfrwt>
<totfact> 0.39684541E-01</totfact>
</mgrwt>
</event>
<event>
 4    1  0.2409985E+000  0.5586978E+02  0.7957747E-01  0.1416030E+00
         13   -1    0    0    0    0  0.00000000000E+00  0.00000000000E+00  0.99999944188E+02  0.10000000001E+03  0.10566000000E+00 0.  1.
         22   -1    0    0    0    0 -0.00000000000E+00 -0.00000000000E+00 -0.22575719820E+02  0.22575719820E+02  0.00000000000E+00 0. -1.
         13    1    1    2    0    0 -0.24518640942E+02 -0.45020238166E+01 -0.25067484606E+01  0.25054479120E+02  0.10566000000E+00 0. -1.
        996    1    1    2    0    0  0.24518640942E+02  0.45020238166E+01  0.79930972828E+02  0.97521240708E+02  0.50000000000E+02 0.  0.
<mgrwt>
<rscale>  0 0.55869777E+02</rscale>
<asrwt>0</asrwt>
<pdfrwt beam="1">  1       13 0.10000000E+01 0.55869777E+02</pdfrwt>
<pdfrwt beam="2">  1       22 0.22575741E+00 0.55869777E+02</pdfrwt>
<totfact> 0.36208231E-01</totfact>
</mgrwt>
</event>
<event>
 4    1  0.2409985E+000  0.5138689E+02  0.7957747E-01  0.1438001E+00
         13   -1    0    0    0    0  0.00000000000E+00  0.00000000000E+00  0.99999944186E+02  0.10000000001E+03  0.10566000000E+00 0.  1.
         22   -1    0    0    0    0 -0.00000000000E+00 -0.00000000000E+00 -0.17239754012E+02  0.17239754012E+02  0.00000000000E+00 0. -1.
         13    1    1    2    0    0 -0.21433909822E+01 -0.11662686617E+02 -0.70295044910E+01  0.13785408281E+02  0.10566000000E+00 0. -1.
        996    1    1    2    0    0  0.21433909822E+01  0.11662686617E+02  0.89789694665E+02  0.10345434574E+03  0.50000000000E+02 0.  0.
<mgrwt>
<rscale>  0 0.51386889E+02</rscale>
<asrwt>0</asrwt>
<pdfrwt beam="1">  1       13 0.10000000E+01 0.51386889E+02</pdfrwt>
<pdfrwt beam="2">  1       22 0.17239777E+00 0.51386889E+02</pdfrwt>
<totfact> 0.59250138E-01</totfact>
</mgrwt>
</event>
<event>
 4    1  0.2409985E+000  0.5318720E+02  0.7957747E-01  0.1428871E+00
         13   -1    0    0    0    0  0.00000000000E+00  0.00000000000E+00  0.99999944177E+02  0.99999999997E+02  0.10566000000E+00 0. -1.
         22   -1    0    0    0    0 -0.00000000000E+00 -0.00000000000E+00 -0.51340090509E+02  0.51340090509E+02  0.00000000000E+00 0.  1.
         13    1    1    2    0    0 -0.10580416218E+02 -0.14728653944E+02 -0.42270630149E+02  0.45996693268E+02  0.10566000000E+00 0.  1.
        996    1    1    2    0    0  0.10580416218E+02  0.14728653944E+02  0.90930483817E+02  0.10534339724E+03  0.50000000000E+02 0.  0.
<mgrwt>
<rscale>  0 0.53187202E+02</rscale>
<asrwt>0</asrwt>
<pdfrwt beam="1">  1       13 0.10000000E+01 0.53187202E+02</pdfrwt>
<pdfrwt beam="2">  1       22 0.51340104E+00 0.53187202E+02</pdfrwt>
<totfact> 0.68568460E-02</totfact>
</mgrwt>
</event>
<event>
 4    1  0.2409985E+000  0.5236309E+02  0.7957747E-01  0.1432997E+00
         13   -1    0    0    0    0  0.00000000000E+00  0.00000000000E+00  0.99999944177E+02  0.99999999997E+02  0.10566000000E+00 0.  1.
         22   -1    0    0    0    0 -0.00000000000E+00 -0.00000000000E+00 -0.34387891141E+02  0.34387891141E+02  0.00000000000E+00 0. -1.
         13    1    1    2    0    0  0.14383699723E+02  0.59163152759E+01 -0.25169442478E+02  0.29587254061E+02  0.10566000000E+00 0. -1.
        996    1    1    2    0    0 -0.14383699723E+02 -0.59163152759E+01  0.90781495514E+02  0.10480063708E+03  0.50000000000E+02 0.  0.
<mgrwt>
<rscale>  0 0.52363094E+02</rscale>
<asrwt>0</asrwt>
<pdfrwt beam="1">  1       13 0.10000000E+01 0.52363094E+02</pdfrwt>
<pdfrwt beam="2">  1       22 0.34387909E+00 0.52363094E+02</pdfrwt>
<totfact> 0.16211576E-01</totfact>
</mgrwt>
</event>
<event>
 4    1  0.2409985E+000  0.5292368E+02  0.7957747E-01  0.1430181E+00
         13   -1    0    0    0    0  0.00000000000E+00  0.00000000000E+00  0.99999944175E+02  0.99999999996E+02  0.10566000000E+00 0. -1.
         22   -1    0    0    0    0 -0.00000000000E+00 -0.00000000000E+00 -0.12767786115E+02  0.12767786115E+02  0.00000000000E+00 0.  1.
         13    1    1    2    0    0 -0.15579885246E+02  0.76277923506E+01  0.13366938201E+02  0.21899822860E+02  0.10566000000E+00 0.  1.
        996    1    1    2    0    0  0.15579885246E+02 -0.76277923506E+01  0.73865219860E+02  0.90867963251E+02  0.50000000000E+02 0.  0.
<mgrwt>
<rscale>  0 0.52923681E+02</rscale>
<asrwt>0</asrwt>
<pdfrwt beam="1">  1       13 0.10000000E+01 0.52923681E+02</pdfrwt>
<pdfrwt beam="2">  1       22 0.12767810E+00 0.52923681E+02</pdfrwt>
<totfact> 0.97846788E-01</totfact>
</mgrwt>
</event>
<event>
 4    1  0.2409985E+000  0.5348618E+02  0.7957747E-01  0.1427397E+00
         13   -1    0    0    0    0  0.00000000000E+00  0.00000000000E+00  0.99999944179E+02  0.99999999999E+02  0.10566000000E+00 0.  1.
         22   -1    0    0    0    0 -0.00000000000E+00 -0.00000000000E+00 -0.15267976551E+02  0.15267976551E+02  0.00000000000E+00 0. -1.
         13    1    1    2    0    0 -0.18913283984E+02 -0.17490895910E+01  0.56867088457E+01  0.19827290460E+02  0.10566000000E+00 0. -1.
        996    1    1    2    0    0  0.18913283984E+02  0.17490895910E+01  0.79045258782E+02  0.95440686090E+02  0.50000000000E+02 0.  0.
<mgrwt>
<rscale>  0 0.53486182E+02</rscale>
<asrwt>0</asrwt>
<pdfrwt beam="1">  1       13 0.10000000E+01 0.53486182E+02</pdfrwt>
<pdfrwt beam="2">  1       22 0.15268000E+00 0.53486182E+02</pdfrwt>
<totfact> 0.73314664E-01</totfact>
</mgrwt>
</event>
<event>
 4    1  0.2409985E+000  0.5135601E+02  0.7957747E-01  0.1438162E+00
         13   -1    0    0    0    0  0.00000000000E+00  0.00000000000E+00  0.99999944176E+02  0.99999999996E+02  0.10566000000E+00 0. -1.
         22   -1    0    0    0    0 -0.00000000000E+00 -0.00000000000E+00 -0.14201006233E+02  0.14201006233E+02  0.00000000000E+00 0.  1.
         13    1    1    2    0    0  0.45032621489E+01 -0.10824078935E+02 -0.25611921243E+01  0.12000455154E+02  0.10566000000E+00 0.  1.
        996    1    1    2    0    0 -0.45032621489E+01  0.10824078935E+02  0.88360130067E+02  0.10220055108E+03  0.50000000000E+02 0.  0.
<mgrwt>
<rscale>  0 0.51356013E+02</rscale>
<asrwt>0</asrwt>
<pdfrwt beam="1">  1       13 0.10000000E+01 0.51356013E+02</pdfrwt>
<pdfrwt beam="2">  1       22 0.14201030E+00 0.51356013E+02</pdfrwt>
<totfact> 0.82284909E-01</totfact>
</mgrwt>
</event>
<event>
 4    1  0.2409985E+000  0.5102280E+02  0.7957747E-01  0.1439902E+00
         13   -1    0    0    0    0  0.00000000000E+00  0.00000000000E+00  0.99999944182E+02  0.10000000000E+03  0.10566000000E+00 0.  1.
         22   -1    0    0    0    0 -0.00000000000E+00 -0.00000000000E+00 -0.14855899850E+02  0.14855899850E+02  0.00000000000E+00 0. -1.
         13    1    1    2    0    0 -0.10089895850E+02 -0.12328229701E+01 -0.49580908077E+01  0.11310158232E+02  0.10566000000E+00 0. -1.
        996    1    1    2    0    0  0.10089895850E+02  0.12328229701E+01  0.90102135140E+02  0.10354574162E+03  0.50000000000E+02 0.  0.
<mgrwt>
<rscale>  0 0.51022797E+02</rscale>
<asrwt>0</asrwt>
<pdfrwt beam="1">  1       13 0.10000000E+01 0.51022797E+02</pdfrwt>
<pdfrwt beam="2">  1       22 0.14855924E+00 0.51022797E+02</pdfrwt>
<totfact> 0.76355282E-01</totfact>
</mgrwt>
</event>
<event>
 4    1  0.2409985E+000  0.5517198E+02  0.7957747E-01  0.1419287E+00
         13   -1    0    0    0    0  0.00000000000E+00  0.00000000000E+00  0.99999944180E+02  0.10000000000E+03  0.10566000000E+00 0. -1.
         22   -1    0    0    0    0 -0.00000000000E+00 -0.00000000000E+00 -0.23071326660E+02  0.23071326660E+02  0.00000000000E+00 0.  1.
         13    1    1    2    0    0  0.28173435157E+01 -0.23151892148E+02 -0.54243030977E+01  0.23945391261E+02  0.10566000000E+00 0.  1.
        996    1    1    2    0    0 -0.28173435157E+01  0.23151892148E+02  0.82352920617E+02  0.99125935399E+02  0.50000000000E+02 0.  0.
<mgrwt>
<rscale>  0 0.55171981E+02</rscale>
<asrwt>0</asrwt>
<pdfrwt beam="1">  1       13 0.10000000E+01 0.55171981E+02</pdfrwt>
<pdfrwt beam="2">  1       22 0.23071348E+00 0.55171981E+02</pdfrwt>
<totfact> 0.34673987E-01</totfact>
</mgrwt>
</event>
<event>
 4    1  0.2409985E+000  0.7416612E+02  0.7957747E-01  0.1346473E+00
         13   -1    0    0    0    0  0.00000000000E+00  0.00000000000E+00  0.99999944188E+02  0.10000000001E+03  0.10566000000E+00 0. -1.
         22   -1    0    0    0    0 -0.00000000000E+00 -0.00000000000E+00 -0.67569868143E+02  0.67569868143E+02  0.00000000000E+00 0.  1.
         13    1    1    2    0    0  0.53799500679E+02  0.10306627692E+02 -0.36898324966E+02  0.66046274664E+02  0.10566000000E+00 0.  1.
        996    1    1    2    0    0 -0.53799500679E+02 -0.10306627692E+02  0.69328401012E+02  0.10152359349E+03  0.50000000000E+02 0.  0.
<mgrwt>
<rscale>  0 0.74166117E+02</rscale>
<asrwt>0</asrwt>
<pdfrwt beam="1">  1       13 0.10000000E+01 0.74166117E+02</pdfrwt>
<pdfrwt beam="2">  1       22 0.67569877E+00 0.74166117E+02</pdfrwt>
<totfact> 0.84844459E-02</totfact>
</mgrwt>
</event>
<event>
 4    1  0.2409985E+000  0.5106219E+02  0.7957747E-01  0.1439695E+00
         13   -1    0    0    0    0  0.00000000000E+00  0.00000000000E+00  0.99999944179E+02  0.99999999999E+02  0.10566000000E+00 0.  1.
         22   -1    0    0    0    0 -0.00000000000E+00 -0.00000000000E+00 -0.15954156969E+02  0.15954156969E+02  0.00000000000E+00 0. -1.
         13    1    1    2    0    0 -0.90736265500E+01 -0.50016530179E+01 -0.63363701574E+01  0.12145286431E+02  0.10566000000E+00 0. -1.
        996    1    1    2    0    0  0.90736265500E+01  0.50016530179E+01  0.90382157368E+02  0.10380887054E+03  0.50000000000E+02 0.  0.
<mgrwt>
<rscale>  0 0.51062190E+02</rscale>
<asrwt>0</asrwt>
<pdfrwt beam="1">  1       13 0.10000000E+01 0.51062190E+02</pdfrwt>
<pdfrwt beam="2">  1       22 0.15954180E+00 0.51062190E+02</pdfrwt>
<totfact> 0.67728796E-01</totfact>
</mgrwt>
</event>
<event>
 4    1  0.2409985E+000  0.6328313E+02  0.7957747E-01  0.1384549E+00
         13   -1    0    0    0    0  0.00000000000E+00  0.00000000000E+00  0.99999944184E+02  0.10000000000E+03  0.10566000000E+00 0. -1.
         22   -1    0    0    0    0 -0.00000000000E+00 -0.00000000000E+00 -0.33856648677E+02  0.33856648677E+02  0.00000000000E+00 0.  1.
         13    1    1    2    0    0  0.31415080080E+02  0.22756250960E+02 -0.44558072243E+01  0.39046377504E+02  0.10566000000E+00 0.  1.
        996    1    1    2    0    0 -0.31415080080E+02 -0.22756250960E+02  0.70599102731E+02  0.94810271177E+02  0.50000000000E+02 0.  0.
<mgrwt>
<rscale>  0 0.63283127E+02</rscale>
<asrwt>0</asrwt>
<pdfrwt beam="1">  1       13 0.10000000E+01 0.63283127E+02</pdfrwt>
<pdfrwt beam="2">  1       22 0.33856667E+00 0.63283127E+02</pdfrwt>
<totfact> 0.16839723E-01</totfact>
</mgrwt>
</event>
<event>
 4    1  0.2409985E+000  0.5107629E+02  0.7957747E-01  0.1439621E+00
         13   -1    0    0    0    0  0.00000000000E+00  0.00000000000E+00  0.99999944180E+02  0.10000000000E+03  0.10566000000E+00 0. -1.
         22   -1    0    0    0    0 -0.00000000000E+00 -0.00000000000E+00 -0.14771795027E+02  0.14771795027E+02  0.00000000000E+00 0. -1.
         13    1    1    2    0    0 -0.81187059749E+01  0.65477949977E+01  0.53797882492E+02  0.54799729294E+02  0.10566000000E+00 0.  1.
        996    1    1    2    0    0  0.81187059749E+01 -0.65477949977E+01  0.31430266661E+02  0.59972065734E+02  0.50000000000E+02 0.  0.
<mgrwt>
<rscale>  0 0.51076286E+02</rscale>
<asrwt>0</asrwt>
<pdfrwt beam="1">  1       13 0.10000000E+01 0.51076286E+02</pdfrwt>
<pdfrwt beam="2">  1       22 0.14771819E+00 0.51076286E+02</pdfrwt>
<totfact> 0.77085190E-01</totfact>
</mgrwt>
</event>
<event>
 4    1  0.2409985E+000  0.5460556E+02  0.7957747E-01  0.1421973E+00
         13   -1    0    0    0    0  0.00000000000E+00  0.00000000000E+00  0.99999944177E+02  0.99999999997E+02  0.10566000000E+00 0. -1.
         22   -1    0    0    0    0 -0.00000000000E+00 -0.00000000000E+00 -0.15252772315E+02  0.15252772315E+02  0.00000000000E+00 0. -1.
         13    1    1    2    0    0  0.78357866398E+01  0.20502866591E+02  0.35402891654E+02  0.41655047620E+02  0.10566000000E+00 0.  1.
        996    1    1    2    0    0 -0.78357866398E+01 -0.20502866591E+02  0.49344280207E+02  0.73597724692E+02  0.50000000000E+02 0.  0.
<mgrwt>
<rscale>  0 0.54605559E+02</rscale>
<asrwt>0</asrwt>
<pdfrwt beam="1">  1       13 0.10000000E+01 0.54605559E+02</pdfrwt>
<pdfrwt beam="2">  1       22 0.15252796E+00 0.54605559E+02</pdfrwt>
<totfact> 0.73597445E-01</totfact>
</mgrwt>
</event>
<event>
 4    1  0.2409985E+000  0.5146089E+02  0.7957747E-01  0.1437617E+00
         13   -1    0    0    0    0  0.00000000000E+00  0.00000000000E+00  0.99999944180E+02  0.10000000000E+03  0.10566000000E+00 0. -1.
         22   -1    0    0    0    0 -0.00000000000E+00 -0.00000000000E+00 -0.10273390351E+02  0.10273390351E+02  0.00000000000E+00 0. -1.
         13    1    1    2    0    0  0.61442950278E+00 -0.12159191470E+02  0.12313411787E+02  0.17316314119E+02  0.10566000000E+00 0.  1.
        996    1    1    2    0    0 -0.61442950278E+00  0.12159191470E+02  0.77413142042E+02  0.92957076232E+02  0.50000000000E+02 0.  0.
<mgrwt>
<rscale>  0 0.51460893E+02</rscale>
<asrwt>0</asrwt>
<pdfrwt beam="1">  1       13 0.10000000E+01 0.51460893E+02</pdfrwt>
<pdfrwt beam="2">  1       22 0.10273415E+00 0.51460893E+02</pdfrwt>
<totfact> 0.13538249E+00</totfact>
</mgrwt>
</event>
<event>
 4    1  0.2409985E+000  0.6062170E+02  0.7957747E-01  0.1395241E+00
         13   -1    0    0    0    0  0.00000000000E+00  0.00000000000E+00  0.99999944176E+02  0.99999999996E+02  0.10566000000E+00 0. -1.
         22   -1    0    0    0    0 -0.00000000000E+00 -0.00000000000E+00 -0.22558742638E+02  0.22558742638E+02  0.00000000000E+00 0.  1.
         13    1    1    2    0    0 -0.28492374629E+01  0.34159516377E+02  0.25400495970E+02  0.42663650486E+02  0.10566000000E+00 0.  1.
        996    1    1    2    0    0  0.28492374629E+01 -0.34159516377E+02  0.52040705568E+02  0.79895092147E+02  0.50000000000E+02 0.  0.
<mgrwt>
<rscale>  0 0.60621702E+02</rscale>
<asrwt>0</asrwt>
<pdfrwt beam="1">  1       13 0.10000000E+01 0.60621702E+02</pdfrwt>
<pdfrwt beam="2">  1       22 0.22558764E+00 0.60621702E+02</pdfrwt>
<totfact> 0.36518330E-01</totfact>
</mgrwt>
</event>
<event>
 4    1  0.2409985E+000  0.5189453E+02  0.7957747E-01  0.1435383E+00
         13   -1    0    0    0    0  0.00000000000E+00  0.00000000000E+00  0.99999944184E+02  0.10000000000E+03  0.10566000000E+00 0. -1.
         22   -1    0    0    0    0 -0.00000000000E+00 -0.00000000000E+00 -0.22479068818E+02  0.22479068818E+02  0.00000000000E+00 0.  1.
         13    1    1    2    0    0 -0.25352471713E+01  0.13660694334E+02 -0.12422918721E+02  0.18638189866E+02  0.10566000000E+00 0.  1.
        996    1    1    2    0    0  0.25352471713E+01 -0.13660694334E+02  0.89943794086E+02  0.10384087896E+03  0.50000000000E+02 0.  0.
<mgrwt>
<rscale>  0 0.51894528E+02</rscale>
<asrwt>0</asrwt>
<pdfrwt beam="1">  1       13 0.10000000E+01 0.51894528E+02</pdfrwt>
<pdfrwt beam="2">  1       22 0.22479090E+00 0.51894528E+02</pdfrwt>
<totfact> 0.36275876E-01</totfact>
</mgrwt>
</event>
<event>
 4    1  0.2409985E+000  0.5405300E+02  0.7957747E-01  0.1424631E+00
         13   -1    0    0    0    0  0.00000000000E+00  0.00000000000E+00  0.99999944177E+02  0.99999999997E+02  0.10566000000E+00 0.  1.
         22   -1    0    0    0    0 -0.00000000000E+00 -0.00000000000E+00 -0.14500450766E+02  0.14500450766E+02  0.00000000000E+00 0.  1.
         13    1    1    2    0    0  0.13707398091E+02  0.15291617817E+02  0.34707448151E+02  0.40327961256E+02  0.10566000000E+00 0. -1.
        996    1    1    2    0    0 -0.13707398091E+02 -0.15291617817E+02  0.50792045260E+02  0.74172489507E+02  0.50000000000E+02 0.  0.
<mgrwt>
<rscale>  0 0.54052996E+02</rscale>
<asrwt>0</asrwt>
<pdfrwt beam="1">  1       13 0.10000000E+01 0.54052996E+02</pdfrwt>
<pdfrwt beam="2">  1       22 0.14500475E+00 0.54052996E+02</pdfrwt>
<totfact> 0.79963095E-01</totfact>
</mgrwt>
</event>
<event>
 4    1  0.2409985E+000  0.5214710E+02  0.7957747E-01  0.1434093E+00
         13   -1    0    0    0    0  0.00000000000E+00  0.00000000000E+00  0.99999944187E+02  0.10000000001E+03  0.10566000000E+00 0. -1.
         22   -1    0    0    0    0 -0.00000000000E+00 -0.00000000000E+00 -0.18895689199E+02  0.18895689199E+02  0.00000000000E+00 0.  1.
         13    1    1    2    0    0  0.12447559715E+02 -0.80235794102E+01 -0.71044555434E+01  0.16425712223E+02  0.10566000000E+00 0.  1.
        996    1    1    2    0    0 -0.12447559715E+02  0.80235794102E+01  0.88208710531E+02  0.10246997698E+03  0.50000000000E+02 0.  0.
<mgrwt>
<rscale>  0 0.52147096E+02</rscale>
<asrwt>0</asrwt>
<pdfrwt beam="1">  1       13 0.10000000E+01 0.52147096E+02</pdfrwt>
<pdfrwt beam="2">  1       22 0.18895712E+00 0.52147096E+02</pdfrwt>
<totfact> 0.50331079E-01</totfact>
</mgrwt>
</event>
<event>
 4    1  0.2409985E+000  0.5123549E+02  0.7957747E-01  0.1438789E+00
         13   -1    0    0    0    0  0.00000000000E+00  0.00000000000E+00  0.99999944181E+02  0.10000000000E+03  0.10566000000E+00 0.  1.
         22   -1    0    0    0    0 -0.00000000000E+00 -0.00000000000E+00 -0.97635269370E+01  0.97635269370E+01  0.00000000000E+00 0.  1.
         13    1    1    2    0    0 -0.34656091162E+00  0.11178341852E+02  0.18281499105E+02  0.21431280983E+02  0.10566000000E+00 0. -1.
        996    1    1    2    0    0  0.34656091162E+00 -0.11178341852E+02  0.71954918139E+02  0.88332245955E+02  0.50000000000E+02 0.  0.
<mgrwt>
<rscale>  0 0.51235490E+02</rscale>
<asrwt>0</asrwt>
<pdfrwt beam="1">  1       13 0.10000000E+01 0.51235490E+02</pdfrwt>
<pdfrwt beam="2">  1       22 0.97635521E-01 0.51235490E+02</pdfrwt>
<totfact> 0.14566430E+00</totfact>
</mgrwt>
</event>
<event>
 4    1  0.2409985E+000  0.5516088E+02  0.7957747E-01  0.1419340E+00
         13   -1    0    0    0    0  0.00000000000E+00  0.00000000000E+00  0.99999944177E+02  0.99999999997E+02  0.10566000000E+00 0.  1.
         22   -1    0    0    0    0 -0.00000000000E+00 -0.00000000000E+00 -0.15967610398E+02  0.15967610398E+02  0.00000000000E+00 0.  1.
         13    1    1    2    0    0  0.23187133719E+02 -0.22538181031E+01  0.15447406146E+02  0.27952752759E+02  0.10566000000E+00 0. -1.
        996    1    1    2    0    0 -0.23187133719E+02  0.22538181031E+01  0.68584927633E+02  0.88014857636E+02  0.50000000000E+02 0.  0.
<mgrwt>
<rscale>  0 0.55160882E+02</rscale>
<asrwt>0</asrwt>
<pdfrwt beam="1">  1       13 0.10000000E+01 0.55160882E+02</pdfrwt>
<pdfrwt beam="2">  1       22 0.15967634E+00 0.55160882E+02</pdfrwt>
<totfact> 0.68173098E-01</totfact>
</mgrwt>
</event>
<event>
 4    1  0.2409985E+000  0.5234009E+02  0.7957747E-01  0.1433113E+00
         13   -1    0    0    0    0  0.00000000000E+00  0.00000000000E+00  0.99999944178E+02  0.99999999999E+02  0.10566000000E+00 0.  1.
         22   -1    0    0    0    0 -0.00000000000E+00 -0.00000000000E+00 -0.42319919282E+02  0.42319919282E+02  0.00000000000E+00 0. -1.
         13    1    1    2    0    0  0.15096716186E+02  0.34020438222E+01 -0.33659653836E+02  0.37046837951E+02  0.10566000000E+00 0. -1.
        996    1    1    2    0    0 -0.15096716186E+02 -0.34020438222E+01  0.91339678732E+02  0.10527308133E+03  0.50000000000E+02 0.  0.
<mgrwt>
<rscale>  0 0.52340087E+02</rscale>
<asrwt>0</asrwt>
<pdfrwt beam="1">  1       13 0.10000000E+01 0.52340087E+02</pdfrwt>
<pdfrwt beam="2">  1       22 0.42319935E+00 0.52340087E+02</pdfrwt>
<totfact> 0.11063607E-01</totfact>
</mgrwt>
</event>
<event>
 4    1  0.2409985E+000  0.5178763E+02  0.7957747E-01  0.1435931E+00
         13   -1    0    0    0    0  0.00000000000E+00  0.00000000000E+00  0.99999944182E+02  0.10000000000E+03  0.10566000000E+00 0.  1.
         22   -1    0    0    0    0 -0.00000000000E+00 -0.00000000000E+00 -0.11677808199E+02  0.11677808199E+02  0.00000000000E+00 0.  1.
         13    1    1    2    0    0 -0.12900288796E+02 -0.39422269623E+01  0.34228179441E+02  0.36790461214E+02  0.10566000000E+00 0. -1.
        996    1    1    2    0    0  0.12900288796E+02  0.39422269623E+01  0.54093956541E+02  0.74887346987E+02  0.50000000000E+02 0.  0.
<mgrwt>
<rscale>  0 0.51787630E+02</rscale>
<asrwt>0</asrwt>
<pdfrwt beam="1">  1       13 0.10000000E+01 0.51787630E+02</pdfrwt>
<pdfrwt beam="2">  1       22 0.11677833E+00 0.51787630E+02</pdfrwt>
<totfact> 0.11199193E+00</totfact>
</mgrwt>
</event>
<event>
 4    1  0.2409985E+000  0.5105333E+02  0.7957747E-01  0.1439742E+00
         13   -1    0    0    0    0  0.00000000000E+00  0.00000000000E+00  0.99999944183E+02  0.10000000000E+03  0.10566000000E+00 0.  1.
         22   -1    0    0    0    0 -0.00000000000E+00 -0.00000000000E+00 -0.12979120302E+02  0.12979120302E+02  0.00000000000E+00 0. -1.
         13    1    1    2    0    0  0.43461630371E+01  0.93570193297E+01 -0.18553814173E+01  0.10483155447E+02  0.10566000000E+00 0. -1.
        996    1    1    2    0    0 -0.43461630371E+01 -0.93570193297E+01  0.88876205299E+02  0.10249596486E+03  0.50000000000E+02 0.  0.
<mgrwt>
<rscale>  0 0.51053334E+02</rscale>
<asrwt>0</asrwt>
<pdfrwt beam="1">  1       13 0.10000000E+01 0.51053334E+02</pdfrwt>
<pdfrwt beam="2">  1       22 0.12979145E+00 0.51053334E+02</pdfrwt>
<totfact> 0.94970200E-01</totfact>
</mgrwt>
</event>
<event>
 4    1  0.2409985E+000  0.5228692E+02  0.7957747E-01  0.1433383E+00
         13   -1    0    0    0    0  0.00000000000E+00  0.00000000000E+00  0.99999944182E+02  0.10000000000E+03  0.10566000000E+00 0. -1.
         22   -1    0    0    0    0 -0.00000000000E+00 -0.00000000000E+00 -0.24098853674E+02  0.24098853674E+02  0.00000000000E+00 0.  1.
         13    1    1    2    0    0  0.14710642052E+02  0.41855485138E+01 -0.13584905710E+02  0.20456848075E+02  0.10566000000E+00 0.  1.
        996    1    1    2    0    0 -0.14710642052E+02 -0.41855485138E+01  0.89485996218E+02  0.10364200560E+03  0.50000000000E+02 0.  0.
<mgrwt>
<rscale>  0 0.52286918E+02</rscale>
<asrwt>0</asrwt>
<pdfrwt beam="1">  1       13 0.10000000E+01 0.52286918E+02</pdfrwt>
<pdfrwt beam="2">  1       22 0.24098875E+00 0.52286918E+02</pdfrwt>
<totfact> 0.31697974E-01</totfact>
</mgrwt>
</event>
<event>
 4    1  0.2409985E+000  0.5146257E+02  0.7957747E-01  0.1437609E+00
         13   -1    0    0    0    0  0.00000000000E+00  0.00000000000E+00  0.99999944182E+02  0.10000000000E+03  0.10566000000E+00 0. -1.
         22   -1    0    0    0    0 -0.00000000000E+00 -0.00000000000E+00 -0.15656101259E+02  0.15656101259E+02  0.00000000000E+00 0.  1.
         13    1    1    2    0    0 -0.24781699270E+01  0.11927079490E+02 -0.44974060791E+01  0.12985929956E+02  0.10566000000E+00 0.  1.
        996    1    1    2    0    0  0.24781699270E+01 -0.11927079490E+02  0.88841249003E+02  0.10267017130E+03  0.50000000000E+02 0.  0.
<mgrwt>
<rscale>  0 0.51462574E+02</rscale>
<asrwt>0</asrwt>
<pdfrwt beam="1">  1       13 0.10000000E+01 0.51462574E+02</pdfrwt>
<pdfrwt beam="2">  1       22 0.15656125E+00 0.51462574E+02</pdfrwt>
<totfact> 0.69992751E-01</totfact>
</mgrwt>
</event>
<event>
 4    1  0.2409985E+000  0.5154818E+02  0.7957747E-01  0.1437166E+00
         13   -1    0    0    0    0  0.00000000000E+00  0.00000000000E+00  0.99999944183E+02  0.10000000000E+03  0.10566000000E+00 0. -1.
         22   -1    0    0    0    0 -0.00000000000E+00 -0.00000000000E+00 -0.10425707079E+02  0.10425707079E+02  0.00000000000E+00 0. -1.
         13    1    1    2    0    0 -0.81144809772E+01 -0.95587645565E+01  0.12524622812E+02  0.17722644328E+02  0.10566000000E+00 0.  1.
        996    1    1    2    0    0  0.81144809772E+01  0.95587645565E+01  0.77049614293E+02  0.92703062754E+02  0.50000000000E+02 0.  0.
<mgrwt>
<rscale>  0 0.51548179E+02</rscale>
<asrwt>0</asrwt>
<pdfrwt beam="1">  1       13 0.10000000E+01 0.51548179E+02</pdfrwt>
<pdfrwt beam="2">  1       22 0.10425732E+00 0.51548179E+02</pdfrwt>
<totfact> 0.13252865E+00</totfact>
</mgrwt>
</event>
<event>
 4    1  0.2409985E+000  0.5512573E+02  0.7957747E-01  0.1419505E+00
         13   -1    0    0    0    0  0.00000000000E+00  0.00000000000E+00  0.99999944177E+02  0.99999999997E+02  0.10566000000E+00 0. -1.
         22   -1    0    0    0    0 -0.00000000000E+00 -0.00000000000E+00 -0.62105460618E+02  0.62105460618E+02  0.00000000000E+00 0.  1.
         13    1    1    2    0    0  0.41830109902E+01  0.22833054817E+02 -0.51834918958E+02  0.56795386790E+02  0.10566000000E+00 0.  1.
        996    1    1    2    0    0 -0.41830109902E+01 -0.22833054817E+02  0.89729402516E+02  0.10531007383E+03  0.50000000000E+02 0.  0.
<mgrwt>
<rscale>  0 0.55125729E+02</rscale>
<asrwt>0</asrwt>
<pdfrwt beam="1">  1       13 0.10000000E+01 0.55125729E+02</pdfrwt>
<pdfrwt beam="2">  1       22 0.62105471E+00 0.55125729E+02</pdfrwt>
<totfact> 0.73548073E-02</totfact>
</mgrwt>
</event>
<event>
 4    1  0.2409985E+000  0.5137751E+02  0.7957747E-01  0.1438050E+00
         13   -1    0    0    0    0  0.00000000000E+00  0.00000000000E+00  0.99999944183E+02  0.10000000000E+03  0.10566000000E+00 0. -1.
         22   -1    0    0    0    0 -0.00000000000E+00 -0.00000000000E+00 -0.11646297734E+02  0.11646297734E+02  0.00000000000E+00 0. -1.
         13    1    1    2    0    0 -0.11114183169E+02  0.40154585673E+01  0.32837386142E+01  0.12265523973E+02  0.10566000000E+00 0.  1.
        996    1    1    2    0    0  0.11114183169E+02 -0.40154585673E+01  0.85069907835E+02  0.99380773765E+02  0.50000000000E+02 0.  0.
<mgrwt>
<rscale>  0 0.51377514E+02</rscale>
<asrwt>0</asrwt>
<pdfrwt beam="1">  1       13 0.10000000E+01 0.51377514E+02</pdfrwt>
<pdfrwt beam="2">  1       22 0.11646322E+00 0.51377514E+02</pdfrwt>
<totfact> 0.11234627E+00</totfact>
</mgrwt>
</event>
<event>
 4    1  0.2409985E+000  0.5629896E+02  0.7957747E-01  0.1414054E+00
         13   -1    0    0    0    0  0.00000000000E+00  0.00000000000E+00  0.99999944179E+02  0.99999999999E+02  0.10566000000E+00 0. -1.
         22   -1    0    0    0    0 -0.00000000000E+00 -0.00000000000E+00 -0.39803400032E+02  0.39803400032E+02  0.00000000000E+00 0.  1.
         13    1    1    2    0    0 -0.19690703418E+01 -0.25801088187E+02 -0.26108419781E+02  0.36759136784E+02  0.10566000000E+00 0.  1.
        996    1    1    2    0    0  0.19690703418E+01  0.25801088187E+02  0.86304963928E+02  0.10304426325E+03  0.50000000000E+02 0.  0.
<mgrwt>
<rscale>  0 0.56298964E+02</rscale>
<asrwt>0</asrwt>
<pdfrwt beam="1">  1       13 0.10000000E+01 0.56298964E+02</pdfrwt>
<pdfrwt beam="2">  1       22 0.39803417E+00 0.56298964E+02</pdfrwt>
<totfact> 0.12524594E-01</totfact>
</mgrwt>
</event>
<event>
 4    1  0.2409985E+000  0.5152843E+02  0.7957747E-01  0.1437268E+00
         13   -1    0    0    0    0  0.00000000000E+00  0.00000000000E+00  0.99999944176E+02  0.99999999996E+02  0.10566000000E+00 0. -1.
         22   -1    0    0    0    0 -0.00000000000E+00 -0.00000000000E+00 -0.63116566917E+02  0.63116566917E+02  0.00000000000E+00 0.  1.
         13    1    1    2    0    0  0.62804300385E+00 -0.12441255111E+02 -0.55745190484E+02  0.57120195141E+02  0.10566000000E+00 0.  1.
        996    1    1    2    0    0 -0.62804300385E+00  0.12441255111E+02  0.92628567743E+02  0.10599637177E+03  0.50000000000E+02 0.  0.
<mgrwt>
<rscale>  0 0.51528432E+02</rscale>
<asrwt>0</asrwt>
<pdfrwt beam="1">  1       13 0.10000000E+01 0.51528432E+02</pdfrwt>
<pdfrwt beam="2">  1       22 0.63116577E+00 0.51528432E+02</pdfrwt>
<totfact> 0.79345617E-02</totfact>
</mgrwt>
</event>
<event>
 4    1  0.2409985E+000  0.5141736E+02  0.7957747E-01  0.1437843E+00
         13   -1    0    0    0    0  0.00000000000E+00  0.00000000000E+00  0.99999944174E+02  0.99999999994E+02  0.10566000000E+00 0.  1.
         22   -1    0    0    0    0 -0.00000000000E+00 -0.00000000000E+00 -0.19859750895E+02  0.19859750895E+02  0.00000000000E+00 0. -1.
         13    1    1    2    0    0  0.10256967093E+02  0.62080442828E+01 -0.10312318366E+02  0.15814558542E+02  0.10566000000E+00 0. -1.
        996    1    1    2    0    0 -0.10256967093E+02 -0.62080442828E+01  0.90452511645E+02  0.10404519235E+03  0.50000000000E+02 0.  0.
<mgrwt>
<rscale>  0 0.51417363E+02</rscale>
<asrwt>0</asrwt>
<pdfrwt beam="1">  1       13 0.10000000E+01 0.51417363E+02</pdfrwt>
<pdfrwt beam="2">  1       22 0.19859773E+00 0.51417363E+02</pdfrwt>
<totfact> 0.45857360E-01</totfact>
</mgrwt>
</event>
<event>
 4    1  0.2409985E+000  0.5110249E+02  0.7957747E-01  0.1439484E+00
         13   -1    0    0    0    0  0.00000000000E+00  0.00000000000E+00  0.99999944172E+02  0.99999999992E+02  0.10566000000E+00 0.  1.
         22   -1    0    0    0    0 -0.00000000000E+00 -0.00000000000E+00 -0.34426141781E+02  0.34426141781E+02  0.00000000000E+00 0. -1.
         13    1    1    2    0    0 -0.98936727034E+01  0.36851189278E+01 -0.26830121047E+02  0.28832818462E+02  0.10566000000E+00 0. -1.
        996    1    1    2    0    0  0.98936727034E+01 -0.36851189278E+01  0.92403923438E+02  0.10559332331E+03  0.50000000000E+02 0.  0.
<mgrwt>
<rscale>  0 0.51102494E+02</rscale>
<asrwt>0</asrwt>
<pdfrwt beam="1">  1       13 0.10000000E+01 0.51102494E+02</pdfrwt>
<pdfrwt beam="2">  1       22 0.34426160E+00 0.51102494E+02</pdfrwt>
<totfact> 0.16158219E-01</totfact>
</mgrwt>
</event>
<event>
 4    1  0.2409985E+000  0.5526707E+02  0.7957747E-01  0.1418840E+00
         13   -1    0    0    0    0  0.00000000000E+00  0.00000000000E+00  0.99999944189E+02  0.10000000001E+03  0.10566000000E+00 0. -1.
         22   -1    0    0    0    0 -0.00000000000E+00 -0.00000000000E+00 -0.23783899064E+02  0.23783899064E+02  0.00000000000E+00 0. -1.
         13    1    1    2    0    0 -0.21644733431E+02  0.92711865667E+01 -0.63864357413E+01  0.24397686595E+02  0.10566000000E+00 0.  1.
        996    1    1    2    0    0  0.21644733431E+02 -0.92711865667E+01  0.82602480866E+02  0.99386212479E+02  0.50000000000E+02 0.  0.
<mgrwt>
<rscale>  0 0.55267073E+02</rscale>
<asrwt>0</asrwt>
<pdfrwt beam="1">  1       13 0.10000000E+01 0.55267073E+02</pdfrwt>
<pdfrwt beam="2">  1       22 0.23783920E+00 0.55267073E+02</pdfrwt>
<totfact> 0.32677689E-01</totfact>
</mgrwt>
</event>
<event>
 4    1  0.2409985E+000  0.7373389E+02  0.7957747E-01  0.1347837E+00
         13   -1    0    0    0    0  0.00000000000E+00  0.00000000000E+00  0.99999944179E+02  0.99999999999E+02  0.10566000000E+00 0. -1.
         22   -1    0    0    0    0 -0.00000000000E+00 -0.00000000000E+00 -0.63367720370E+02  0.63367720370E+02  0.00000000000E+00 0.  1.
         13    1    1    2    0    0  0.54179737182E+02 -0.11148288166E+01 -0.31748226951E+02  0.62806431542E+02  0.10566000000E+00 0.  1.
        996    1    1    2    0    0 -0.54179737182E+02  0.11148288166E+01  0.68380450760E+02  0.10056128883E+03  0.50000000000E+02 0.  0.
<mgrwt>
<rscale>  0 0.73733892E+02</rscale>
<asrwt>0</asrwt>
<pdfrwt beam="1">  1       13 0.10000000E+01 0.73733892E+02</pdfrwt>
<pdfrwt beam="2">  1       22 0.63367731E+00 0.73733892E+02</pdfrwt>
<totfact> 0.80687350E-02</totfact>
</mgrwt>
</event>
<event>
 4    1  0.2409985E+000  0.6462175E+02  0.7957747E-01  0.1379400E+00
         13   -1    0    0    0    0  0.00000000000E+00  0.00000000000E+00  0.99999944178E+02  0.99999999998E+02  0.10566000000E+00 0. -1.
         22   -1    0    0    0    0 -0.00000000000E+00 -0.00000000000E+00 -0.27896391703E+02  0.27896391703E+02  0.00000000000E+00 0.  1.
         13    1    1    2    0    0  0.48750173897E+01  0.40647321246E+02  0.30300683868E+02  0.50932436874E+02  0.10566000000E+00 0.  1.
        996    1    1    2    0    0 -0.48750173897E+01 -0.40647321246E+02  0.41802868607E+02  0.76963954828E+02  0.50000000000E+02 0.  0.
<mgrwt>
<rscale>  0 0.64621750E+02</rscale>
<asrwt>0</asrwt>
<pdfrwt beam="1">  1       13 0.10000000E+01 0.64621750E+02</pdfrwt>
<pdfrwt beam="2">  1       22 0.27896412E+00 0.64621750E+02</pdfrwt>
<totfact> 0.24165308E-01</totfact>
</mgrwt>
</event>
<event>
 4    1  0.2409985E+000  0.5227990E+02  0.7957747E-01  0.1433418E+00
         13   -1    0    0    0    0  0.00000000000E+00  0.00000000000E+00  0.99999944188E+02  0.10000000001E+03  0.10566000000E+00 0.  1.
         22   -1    0    0    0    0 -0.00000000000E+00 -0.00000000000E+00 -0.28417265228E+02  0.28417265228E+02  0.00000000000E+00 0. -1.
         13    1    1    2    0    0  0.14336329843E+02  0.52590824023E+01 -0.18667693527E+02  0.24118089616E+02  0.10566000000E+00 0. -1.
        996    1    1    2    0    0 -0.14336329843E+02 -0.52590824023E+01  0.90250372487E+02  0.10429917562E+03  0.50000000000E+02 0.  0.
<mgrwt>
<rscale>  0 0.52279903E+02</rscale>
<asrwt>0</asrwt>
<pdfrwt beam="1">  1       13 0.10000000E+01 0.52279903E+02</pdfrwt>
<pdfrwt beam="2">  1       22 0.28417285E+00 0.52279903E+02</pdfrwt>
<totfact> 0.22955268E-01</totfact>
</mgrwt>
</event>
<event>
 4    1  0.2409985E+000  0.5485970E+02  0.7957747E-01  0.1420764E+00
         13   -1    0    0    0    0  0.00000000000E+00  0.00000000000E+00  0.99999944184E+02  0.10000000000E+03  0.10566000000E+00 0.  1.
         22   -1    0    0    0    0 -0.00000000000E+00 -0.00000000000E+00 -0.75152999735E+02  0.75152999735E+02  0.00000000000E+00 0. -1.
         13    1    1    2    0    0 -0.94993650387E+01 -0.20478011660E+02 -0.65596444928E+02  0.69372124437E+02  0.10566000000E+00 0. -1.
        996    1    1    2    0    0  0.94993650387E+01  0.20478011660E+02  0.90443389377E+02  0.10578087530E+03  0.50000000000E+02 0.  0.
<mgrwt>
<rscale>  0 0.54859702E+02</rscale>
<asrwt>0</asrwt>
<pdfrwt beam="1">  1       13 0.10000000E+01 0.54859702E+02</pdfrwt>
<pdfrwt beam="2">  1       22 0.75153007E+00 0.54859702E+02</pdfrwt>
<totfact> 0.48340846E-02</totfact>
</mgrwt>
</event>
<event>
 4    1  0.2409985E+000  0.5127135E+02  0.7957747E-01  0.1438602E+00
         13   -1    0    0    0    0  0.00000000000E+00  0.00000000000E+00  0.99999944181E+02  0.10000000000E+03  0.10566000000E+00 0.  1.
         22   -1    0    0    0    0 -0.00000000000E+00 -0.00000000000E+00 -0.10223071397E+02  0.10223071397E+02  0.00000000000E+00 0. -1.
         13    1    1    2    0    0 -0.96378047832E+01  0.59887018273E+01  0.87160380151E+01  0.14308469986E+02  0.10566000000E+00 0. -1.
        996    1    1    2    0    0  0.96378047832E+01 -0.59887018273E+01  0.81060834769E+02  0.95914601412E+02  0.50000000000E+02 0.  0.
<mgrwt>
<rscale>  0 0.51271355E+02</rscale>
<asrwt>0</asrwt>
<pdfrwt beam="1">  1       13 0.10000000E+01 0.51271355E+02</pdfrwt>
<pdfrwt beam="2">  1       22 0.10223096E+00 0.51271355E+02</pdfrwt>
<totfact> 0.13629283E+00</totfact>
</mgrwt>
</event>
<event>
 4    1  0.2409985E+000  0.5213930E+02  0.7957747E-01  0.1434133E+00
         13   -1    0    0    0    0  0.00000000000E+00  0.00000000000E+00  0.99999944174E+02  0.99999999994E+02  0.10566000000E+00 0. -1.
         22   -1    0    0    0    0 -0.00000000000E+00 -0.00000000000E+00 -0.11286318490E+02  0.11286318490E+02  0.00000000000E+00 0. -1.
         13    1    1    2    0    0  0.10352415088E+02  0.10551485621E+02  0.15661697112E+02  0.21536161855E+02  0.10566000000E+00 0.  1.
        996    1    1    2    0    0 -0.10352415088E+02 -0.10551485621E+02  0.73051928571E+02  0.89750156629E+02  0.50000000000E+02 0.  0.
<mgrwt>
<rscale>  0 0.52139298E+02</rscale>
<asrwt>0</asrwt>
<pdfrwt beam="1">  1       13 0.10000000E+01 0.52139298E+02</pdfrwt>
<pdfrwt beam="2">  1       22 0.11286343E+00 0.52139298E+02</pdfrwt>
<totfact> 0.11799442E+00</totfact>
</mgrwt>
</event>
<event>
 4    1  0.2409985E+000  0.5154494E+02  0.7957747E-01  0.1437182E+00
         13   -1    0    0    0    0  0.00000000000E+00  0.00000000000E+00  0.99999944175E+02  0.99999999995E+02  0.10566000000E+00 0. -1.
         22   -1    0    0    0    0 -0.00000000000E+00 -0.00000000000E+00 -0.11177237493E+02  0.11177237493E+02  0.00000000000E+00 0. -1.
         13    1    1    2    0    0  0.12388921360E+02 -0.18428112571E+01  0.66644942158E+01  0.14188304091E+02  0.10566000000E+00 0.  1.
        996    1    1    2    0    0 -0.12388921360E+02  0.18428112571E+01  0.82158212467E+02  0.96988933397E+02  0.50000000000E+02 0.  0.
<mgrwt>
<rscale>  0 0.51544945E+02</rscale>
<asrwt>0</asrwt>
<pdfrwt beam="1">  1       13 0.10000000E+01 0.51544945E+02</pdfrwt>
<pdfrwt beam="2">  1       22 0.11177262E+00 0.51544945E+02</pdfrwt>
<totfact> 0.11955916E+00</totfact>
</mgrwt>
</event>
<event>
 4    1  0.2409985E+000  0.5514505E+02  0.7957747E-01  0.1419414E+00
         13   -1    0    0    0    0  0.00000000000E+00  0.00000000000E+00  0.99999944175E+02  0.99999999995E+02  0.10566000000E+00 0. -1.
         22   -1    0    0    0    0 -0.00000000000E+00 -0.00000000000E+00 -0.16265986459E+02  0.16265986459E+02  0.00000000000E+00 0.  1.
         13    1    1    2    0    0  0.16613156583E+02  0.16278207347E+02  0.13233952750E+02  0.26760524574E+02  0.10566000000E+00 0.  1.
        996    1    1    2    0    0 -0.16613156583E+02 -0.16278207347E+02  0.70500004966E+02  0.89505461879E+02  0.50000000000E+02 0.  0.
<mgrwt>
<rscale>  0 0.55145054E+02</rscale>
<asrwt>0</asrwt>
<pdfrwt beam="1">  1       13 0.10000000E+01 0.55145054E+02</pdfrwt>
<pdfrwt beam="2">  1       22 0.16266010E+00 0.55145054E+02</pdfrwt>
<totfact> 0.66037895E-01</totfact>
</mgrwt>
</event>
<event>
 4    1  0.2409985E+000  0.5205990E+02  0.7957747E-01  0.1434537E+00
         13   -1    0    0    0    0  0.00000000000E+00  0.00000000000E+00  0.99999944178E+02  0.99999999998E+02  0.10566000000E+00 0.  1.
         22   -1    0    0    0    0 -0.00000000000E+00 -0.00000000000E+00 -0.11751363816E+02  0.11751363816E+02  0.00000000000E+00 0.  1.
         13    1    1    2    0    0  0.19930313076E+01  0.14361780335E+02  0.94461358411E+01  0.17305304232E+02  0.10566000000E+00 0. -1.
        996    1    1    2    0    0 -0.19930313076E+01 -0.14361780335E+02  0.78802444521E+02  0.94446059583E+02  0.50000000000E+02 0.  0.
<mgrwt>
<rscale>  0 0.52059897E+02</rscale>
<asrwt>0</asrwt>
<pdfrwt beam="1">  1       13 0.10000000E+01 0.52059897E+02</pdfrwt>
<pdfrwt beam="2">  1       22 0.11751388E+00 0.52059897E+02</pdfrwt>
<totfact> 0.11099823E+00</totfact>
</mgrwt>
</event>
<event>
 4    1  0.2409985E+000  0.5228078E+02  0.7957747E-01  0.1433414E+00
         13   -1    0    0    0    0  0.00000000000E+00  0.00000000000E+00  0.99999944176E+02  0.99999999996E+02  0.10566000000E+00 0. -1.
         22   -1    0    0    0    0 -0.00000000000E+00 -0.00000000000E+00 -0.11786780038E+02  0.11786780038E+02  0.00000000000E+00 0. -1.
         13    1    1    2    0    0  0.14213336134E+02  0.55911815799E+01  0.12290827411E+02  0.19604995231E+02  0.10566000000E+00 0.  1.
        996    1    1    2    0    0 -0.14213336134E+02 -0.55911815799E+01  0.75922336727E+02  0.92181784803E+02  0.50000000000E+02 0.  0.
<mgrwt>
<rscale>  0 0.52280783E+02</rscale>
<asrwt>0</asrwt>
<pdfrwt beam="1">  1       13 0.10000000E+01 0.52280783E+02</pdfrwt>
<pdfrwt beam="2">  1       22 0.11786805E+00 0.52280783E+02</pdfrwt>
<totfact> 0.11054647E+00</totfact>
</mgrwt>
</event>
<event>
 4    1  0.2409985E+000  0.5226579E+02  0.7957747E-01  0.1433490E+00
         13   -1    0    0    0    0  0.00000000000E+00  0.00000000000E+00  0.99999944182E+02  0.10000000000E+03  0.10566000000E+00 0.  1.
         22   -1    0    0    0    0 -0.00000000000E+00 -0.00000000000E+00 -0.12182479143E+02  0.12182479143E+02  0.00000000000E+00 0.  1.
         13    1    1    2    0    0 -0.14103453786E+02  0.57275990962E+01  0.33533627241E+02  0.36827002594E+02  0.10566000000E+00 0. -1.
        996    1    1    2    0    0  0.14103453786E+02 -0.57275990962E+01  0.54283837798E+02  0.75355476551E+02  0.50000000000E+02 0.  0.
<mgrwt>
<rscale>  0 0.52265790E+02</rscale>
<asrwt>0</asrwt>
<pdfrwt beam="1">  1       13 0.10000000E+01 0.52265790E+02</pdfrwt>
<pdfrwt beam="2">  1       22 0.12182504E+00 0.52265790E+02</pdfrwt>
<totfact> 0.10509297E+00</totfact>
</mgrwt>
</event>
<event>
 4    1  0.2409985E+000  0.5538693E+02  0.7957747E-01  0.1418278E+00
         13   -1    0    0    0    0  0.00000000000E+00  0.00000000000E+00  0.99999944184E+02  0.10000000000E+03  0.10566000000E+00 0.  1.
         22   -1    0    0    0    0 -0.00000000000E+00 -0.00000000000E+00 -0.49218847648E+02  0.49218847648E+02  0.00000000000E+00 0. -1.
         13    1    1    2    0    0 -0.23784124347E+02  0.14240249774E+01 -0.37837949330E+02  0.44715030936E+02  0.10566000000E+00 0. -1.
        996    1    1    2    0    0  0.23784124347E+02 -0.14240249774E+01  0.88619045866E+02  0.10450381672E+03  0.50000000000E+02 0.  0.
<mgrwt>
<rscale>  0 0.55386934E+02</rscale>
<asrwt>0</asrwt>
<pdfrwt beam="1">  1       13 0.10000000E+01 0.55386934E+02</pdfrwt>
<pdfrwt beam="2">  1       22 0.49218862E+00 0.55386934E+02</pdfrwt>
<totfact> 0.76991457E-02</totfact>
</mgrwt>
</event>
<event>
 4    1  0.2409985E+000  0.5100617E+02  0.7957747E-01  0.1439989E+00
         13   -1    0    0    0    0  0.00000000000E+00  0.00000000000E+00  0.99999944176E+02  0.99999999996E+02  0.10566000000E+00 0. -1.
         22   -1    0    0    0    0 -0.00000000000E+00 -0.00000000000E+00 -0.95065451542E+01  0.95065451542E+01  0.00000000000E+00 0. -1.
         13    1    1    2    0    0 -0.52486318341E+01 -0.86070326548E+01  0.21092582193E+02  0.23378137968E+02  0.10566000000E+00 0.  1.
        996    1    1    2    0    0  0.52486318341E+01  0.86070326548E+01  0.69400816829E+02  0.86128407182E+02  0.50000000000E+02 0.  0.
<mgrwt>
<rscale>  0 0.51006168E+02</rscale>
<asrwt>0</asrwt>
<pdfrwt beam="1">  1       13 0.10000000E+01 0.51006168E+02</pdfrwt>
<pdfrwt beam="2">  1       22 0.95065704E-01 0.51006168E+02</pdfrwt>
<totfact> 0.15125751E+00</totfact>
</mgrwt>
</event>
<event>
 4    1  0.2409985E+000  0.5176409E+02  0.7957747E-01  0.1436052E+00
         13   -1    0    0    0    0  0.00000000000E+00  0.00000000000E+00  0.99999944174E+02  0.99999999994E+02  0.10566000000E+00 0.  1.
         22   -1    0    0    0    0 -0.00000000000E+00 -0.00000000000E+00 -0.19268975867E+02  0.19268975867E+02  0.00000000000E+00 0. -1.
         13    1    1    2    0    0 -0.13398270372E+02  0.83283695444E-01 -0.86728392117E+01  0.15960886227E+02  0.10566000000E+00 0. -1.
        996    1    1    2    0    0  0.13398270372E+02 -0.83283695444E-01  0.89403807519E+02  0.10330808963E+03  0.50000000000E+02 0.  0.
<mgrwt>
<rscale>  0 0.51764086E+02</rscale>
<asrwt>0</asrwt>
<pdfrwt beam="1">  1       13 0.10000000E+01 0.51764086E+02</pdfrwt>
<pdfrwt beam="2">  1       22 0.19268998E+00 0.51764086E+02</pdfrwt>
<totfact> 0.48523392E-01</totfact>
</mgrwt>
</event>
<event>
 4    1  0.2409985E+000  0.6658399E+02  0.7957747E-01  0.1372110E+00
         13   -1    0    0    0    0  0.00000000000E+00  0.00000000000E+00  0.99999944175E+02  0.99999999995E+02  0.10566000000E+00 0.  1.
         22   -1    0    0    0    0 -0.00000000000E+00 -0.00000000000E+00 -0.61380916683E+02  0.61380916683E+02  0.00000000000E+00 0. -1.
         13    1    1    2    0    0 -0.28639534964E+02  0.33364715231E+02 -0.39239712798E+02  0.58933805324E+02  0.10566000000E+00 0. -1.
        996    1    1    2    0    0  0.28639534964E+02 -0.33364715231E+02  0.77858740289E+02  0.10244711135E+03  0.50000000000E+02 0.  0.
<mgrwt>
<rscale>  0 0.66583986E+02</rscale>
<asrwt>0</asrwt>
<pdfrwt beam="1">  1       13 0.10000000E+01 0.66583986E+02</pdfrwt>
<pdfrwt beam="2">  1       22 0.61380927E+00 0.66583986E+02</pdfrwt>
<totfact> 0.69463000E-02</totfact>
</mgrwt>
</event>
<event>
 4    1  0.2409985E+000  0.5986346E+02  0.7957747E-01  0.1398406E+00
         13   -1    0    0    0    0  0.00000000000E+00  0.00000000000E+00  0.99999944172E+02  0.99999999992E+02  0.10566000000E+00 0. -1.
         22   -1    0    0    0    0 -0.00000000000E+00 -0.00000000000E+00 -0.31287160980E+02  0.31287160980E+02  0.00000000000E+00 0.  1.
         13    1    1    2    0    0 -0.21927138034E+02  0.24552687257E+02 -0.81014605642E+01  0.33901012687E+02  0.10566000000E+00 0.  1.
        996    1    1    2    0    0  0.21927138034E+02 -0.24552687257E+02  0.76814243757E+02  0.97386148285E+02  0.50000000000E+02 0.  0.
<mgrwt>
<rscale>  0 0.59863460E+02</rscale>
<asrwt>0</asrwt>
<pdfrwt beam="1">  1       13 0.10000000E+01 0.59863460E+02</pdfrwt>
<pdfrwt beam="2">  1       22 0.31287180E+00 0.59863460E+02</pdfrwt>
<totfact> 0.19336593E-01</totfact>
</mgrwt>
</event>
<event>
 4    1  0.2409985E+000  0.5230639E+02  0.7957747E-01  0.1433284E+00
         13   -1    0    0    0    0  0.00000000000E+00  0.00000000000E+00  0.99999944176E+02  0.99999999997E+02  0.10566000000E+00 0. -1.
         22   -1    0    0    0    0 -0.00000000000E+00 -0.00000000000E+00 -0.15274490774E+02  0.15274490774E+02  0.00000000000E+00 0.  1.
         13    1    1    2    0    0 -0.13322966665E+02  0.76457123412E+01 -0.39603327057E+00  0.15366403754E+02  0.10566000000E+00 0.  1.
        996    1    1    2    0    0  0.13322966665E+02 -0.76457123412E+01  0.85121486673E+02  0.99908087017E+02  0.50000000000E+02 0.  0.
<mgrwt>
<rscale>  0 0.52306389E+02</rscale>
<asrwt>0</asrwt>
<pdfrwt beam="1">  1       13 0.10000000E+01 0.52306389E+02</pdfrwt>
<pdfrwt beam="2">  1       22 0.15274514E+00 0.52306389E+02</pdfrwt>
<totfact> 0.73090276E-01</totfact>
</mgrwt>
</event>
<event>
 4    1  0.2409985E+000  0.5764805E+02  0.7957747E-01  0.1407975E+00
         13   -1    0    0    0    0  0.00000000000E+00  0.00000000000E+00  0.99999944178E+02  0.99999999998E+02  0.10566000000E+00 0.  1.
         22   -1    0    0    0    0 -0.00000000000E+00 -0.00000000000E+00 -0.18971572245E+02  0.18971572245E+02  0.00000000000E+00 0.  1.
         13    1    1    2    0    0 -0.11220196061E+02  0.26408417389E+02  0.34616959755E+02  0.44962677582E+02  0.10566000000E+00 0. -1.
        996    1    1    2    0    0  0.11220196061E+02 -0.26408417389E+02  0.46411412177E+02  0.74008894661E+02  0.50000000000E+02 0.  0.
<mgrwt>
<rscale>  0 0.57648047E+02</rscale>
<asrwt>0</asrwt>
<pdfrwt beam="1">  1       13 0.10000000E+01 0.57648047E+02</pdfrwt>
<pdfrwt beam="2">  1       22 0.18971595E+00 0.57648047E+02</pdfrwt>
<totfact> 0.50443857E-01</totfact>
</mgrwt>
</event>
<event>
 4    1  0.2409985E+000  0.5107102E+02  0.7957747E-01  0.1439649E+00
         13   -1    0    0    0    0  0.00000000000E+00  0.00000000000E+00  0.99999944177E+02  0.99999999998E+02  0.10566000000E+00 0. -1.
         22   -1    0    0    0    0 -0.00000000000E+00 -0.00000000000E+00 -0.45989581369E+02  0.45989581369E+02  0.00000000000E+00 0.  1.
         13    1    1    2    0    0  0.95726691790E+01 -0.40759777887E+01 -0.38737391688E+02  0.40110425938E+02  0.10566000000E+00 0.  1.
        996    1    1    2    0    0 -0.95726691790E+01  0.40759777887E+01  0.92747754496E+02  0.10587915543E+03  0.50000000000E+02 0.  0.
<mgrwt>
<rscale>  0 0.51071025E+02</rscale>
<asrwt>0</asrwt>
<pdfrwt beam="1">  1       13 0.10000000E+01 0.51071025E+02</pdfrwt>
<pdfrwt beam="2">  1       22 0.45989596E+00 0.51071025E+02</pdfrwt>
<totfact> 0.91673338E-02</totfact>
</mgrwt>
</event>
<event>
 4    1  0.2409985E+000  0.5682862E+02  0.7957747E-01  0.1411644E+00
         13   -1    0    0    0    0  0.00000000000E+00  0.00000000000E+00  0.99999944171E+02  0.99999999992E+02  0.10566000000E+00 0. -1.
         22   -1    0    0    0    0 -0.00000000000E+00 -0.00000000000E+00 -0.17605865263E+02  0.17605865263E+02  0.00000000000E+00 0. -1.
         13    1    1    2    0    0 -0.34227434783E+01 -0.26791352185E+02  0.24160721654E+02  0.36238699751E+02  0.10566000000E+00 0.  1.
        996    1    1    2    0    0  0.34227434783E+01  0.26791352185E+02  0.58233357255E+02  0.81367165503E+02  0.50000000000E+02 0.  0.
<mgrwt>
<rscale>  0 0.56828617E+02</rscale>
<asrwt>0</asrwt>
<pdfrwt beam="1">  1       13 0.10000000E+01 0.56828617E+02</pdfrwt>
<pdfrwt beam="2">  1       22 0.17605888E+00 0.56828617E+02</pdfrwt>
<totfact> 0.57658778E-01</totfact>
</mgrwt>
</event>
<event>
 4    1  0.2409985E+000  0.5830486E+02  0.7957747E-01  0.1405086E+00
         13   -1    0    0    0    0  0.00000000000E+00  0.00000000000E+00  0.99999944184E+02  0.10000000000E+03  0.10566000000E+00 0. -1.
         22   -1    0    0    0    0 -0.00000000000E+00 -0.00000000000E+00 -0.19520755831E+02  0.19520755831E+02  0.00000000000E+00 0. -1.
         13    1    1    2    0    0 -0.13118245955E+02  0.26969770583E+02  0.29587162158E+02  0.42129185025E+02  0.10566000000E+00 0.  1.
        996    1    1    2    0    0  0.13118245955E+02 -0.26969770583E+02  0.50892026195E+02  0.77391570811E+02  0.50000000000E+02 0.  0.
<mgrwt>
<rscale>  0 0.58304862E+02</rscale>
<asrwt>0</asrwt>
<pdfrwt beam="1">  1       13 0.10000000E+01 0.58304862E+02</pdfrwt>
<pdfrwt beam="2">  1       22 0.19520778E+00 0.58304862E+02</pdfrwt>
<totfact> 0.47908484E-01</totfact>
</mgrwt>
</event>
<event>
 4    1  0.2409985E+000  0.5539335E+02  0.7957747E-01  0.1418248E+00
         13   -1    0    0    0    0  0.00000000000E+00  0.00000000000E+00  0.99999944180E+02  0.10000000000E+03  0.10566000000E+00 0. -1.
         22   -1    0    0    0    0 -0.00000000000E+00 -0.00000000000E+00 -0.46762450821E+02  0.46762450821E+02  0.00000000000E+00 0.  1.
         13    1    1    2    0    0  0.12264967753E+02  0.20444884680E+02 -0.35137166210E+02  0.42462387555E+02  0.10566000000E+00 0.  1.
        996    1    1    2    0    0 -0.12264967753E+02 -0.20444884680E+02  0.88374659569E+02  0.10430006327E+03  0.50000000000E+02 0.  0.
<mgrwt>
<rscale>  0 0.55393346E+02</rscale>
<asrwt>0</asrwt>
<pdfrwt beam="1">  1       13 0.10000000E+01 0.55393346E+02</pdfrwt>
<pdfrwt beam="2">  1       22 0.46762466E+00 0.55393346E+02</pdfrwt>
<totfact> 0.88160198E-02</totfact>
</mgrwt>
</event>
<event>
 4    1  0.2409985E+000  0.5119811E+02  0.7957747E-01  0.1438984E+00
         13   -1    0    0    0    0  0.00000000000E+00  0.00000000000E+00  0.99999944178E+02  0.99999999999E+02  0.10566000000E+00 0. -1.
         22   -1    0    0    0    0 -0.00000000000E+00 -0.00000000000E+00 -0.35609527881E+02  0.35609527881E+02  0.00000000000E+00 0.  1.
         13    1    1    2    0    0 -0.10047466629E+02 -0.45049382481E+01 -0.27941400115E+02  0.30032966199E+02  0.10566000000E+00 0.  1.
        996    1    1    2    0    0  0.10047466629E+02  0.45049382481E+01  0.92331816412E+02  0.10557656168E+03  0.50000000000E+02 0.  0.
<mgrwt>
<rscale>  0 0.51198106E+02</rscale>
<asrwt>0</asrwt>
<pdfrwt beam="1">  1       13 0.10000000E+01 0.51198106E+02</pdfrwt>
<pdfrwt beam="2">  1       22 0.35609546E+00 0.51198106E+02</pdfrwt>
<totfact> 0.15235990E-01</totfact>
</mgrwt>
</event>
<event>
 4    1  0.2409985E+000  0.5158167E+02  0.7957747E-01  0.1436993E+00
         13   -1    0    0    0    0  0.00000000000E+00  0.00000000000E+00  0.99999944173E+02  0.99999999994E+02  0.10566000000E+00 0.  1.
         22   -1    0    0    0    0 -0.00000000000E+00 -0.00000000000E+00 -0.10740789005E+02  0.10740789005E+02  0.00000000000E+00 0.  1.
         13    1    1    2    0    0  0.11413474349E+02 -0.55136985632E+01  0.27453147797E+02  0.30238299498E+02  0.10566000000E+00 0. -1.
        996    1    1    2    0    0 -0.11413474349E+02  0.55136985632E+01  0.61806007371E+02  0.80502489500E+02  0.50000000000E+02 0.  0.
<mgrwt>
<rscale>  0 0.51581666E+02</rscale>
<asrwt>0</asrwt>
<pdfrwt beam="1">  1       13 0.10000000E+01 0.51581666E+02</pdfrwt>
<pdfrwt beam="2">  1       22 0.10740814E+00 0.51581666E+02</pdfrwt>
<totfact> 0.12685967E+00</totfact>
</mgrwt>
</event>
<event>
 4    1  0.2409985E+000  0.5144777E+02  0.7957747E-01  0.1437686E+00
         13   -1    0    0    0    0  0.00000000000E+00  0.00000000000E+00  0.99999944178E+02  0.99999999998E+02  0.10566000000E+00 0. -1.
         22   -1    0    0    0    0 -0.00000000000E+00 -0.00000000000E+00 -0.10140619995E+02  0.10140619995E+02  0.00000000000E+00 0.  1.
         13    1    1    2    0    0 -0.10165995327E+02 -0.65974128880E+01  0.14565019835E+02  0.18947936157E+02  0.10566000000E+00 0.  1.
        996    1    1    2    0    0  0.10165995327E+02  0.65974128880E+01  0.75294304348E+02  0.91192683835E+02  0.50000000000E+02 0.  0.
<mgrwt>
<rscale>  0 0.51447773E+02</rscale>
<asrwt>0</asrwt>
<pdfrwt beam="1">  1       13 0.10000000E+01 0.51447773E+02</pdfrwt>
<pdfrwt beam="2">  1       22 0.10140645E+00 0.51447773E+02</pdfrwt>
<totfact> 0.13796699E+00</totfact>
</mgrwt>
</event>
<event>
 4    1  0.2409985E+000  0.5367628E+02  0.7957747E-01  0.1426465E+00
         13   -1    0    0    0    0  0.00000000000E+00  0.00000000000E+00  0.99999944177E+02  0.99999999997E+02  0.10566000000E+00 0.  1.
         22   -1    0    0    0    0 -0.00000000000E+00 -0.00000000000E+00 -0.18391140681E+02  0.18391140681E+02  0.00000000000E+00 0. -1.
         13    1    1    2    0    0  0.19377582299E+02 -0.23773716437E+01 -0.13631148295E+01  0.19570688229E+02  0.10566000000E+00 0. -1.
        996    1    1    2    0    0 -0.19377582299E+02  0.23773716437E+01  0.82971918325E+02  0.98820452449E+02  0.50000000000E+02 0.  0.
<mgrwt>
<rscale>  0 0.53676276E+02</rscale>
<asrwt>0</asrwt>
<pdfrwt beam="1">  1       13 0.10000000E+01 0.53676276E+02</pdfrwt>
<pdfrwt beam="2">  1       22 0.18391163E+00 0.53676276E+02</pdfrwt>
<totfact> 0.53017667E-01</totfact>
</mgrwt>
</event>
<event>
 4    1  0.2409985E+000  0.5274902E+02  0.7957747E-01  0.1431054E+00
         13   -1    0    0    0    0  0.00000000000E+00  0.00000000000E+00  0.99999944187E+02  0.10000000001E+03  0.10566000000E+00 0. -1.
         22   -1    0    0    0    0 -0.00000000000E+00 -0.00000000000E+00 -0.58450449875E+02  0.58450449875E+02  0.00000000000E+00 0.  1.
         13    1    1    2    0    0  0.14619612661E+02  0.82901152199E+01 -0.50023471123E+02  0.52771373982E+02  0.10566000000E+00 0.  1.
        996    1    1    2    0    0 -0.14619612661E+02 -0.82901152199E+01  0.91572965435E+02  0.10567907590E+03  0.50000000000E+02 0.  0.
<mgrwt>
<rscale>  0 0.52749020E+02</rscale>
<asrwt>0</asrwt>
<pdfrwt beam="1">  1       13 0.10000000E+01 0.52749020E+02</pdfrwt>
<pdfrwt beam="2">  1       22 0.58450462E+00 0.52749020E+02</pdfrwt>
<totfact> 0.59111108E-02</totfact>
</mgrwt>
</event>
<event>
 4    1  0.2409985E+000  0.5237841E+02  0.7957747E-01  0.1432920E+00
         13   -1    0    0    0    0  0.00000000000E+00  0.00000000000E+00  0.99999944186E+02  0.10000000001E+03  0.10566000000E+00 0.  1.
         22   -1    0    0    0    0 -0.00000000000E+00 -0.00000000000E+00 -0.17842891701E+02  0.17842891701E+02  0.00000000000E+00 0. -1.
         13    1    1    2    0    0 -0.14165240454E+02 -0.65455539702E+01 -0.48024927222E+01  0.16327076109E+02  0.10566000000E+00 0. -1.
        996    1    1    2    0    0  0.14165240454E+02  0.65455539702E+01  0.86959545207E+02  0.10151581560E+03  0.50000000000E+02 0.  0.
<mgrwt>
<rscale>  0 0.52378415E+02</rscale>
<asrwt>0</asrwt>
<pdfrwt beam="1">  1       13 0.10000000E+01 0.52378415E+02</pdfrwt>
<pdfrwt beam="2">  1       22 0.17842915E+00 0.52378415E+02</pdfrwt>
<totfact> 0.55849120E-01</totfact>
</mgrwt>
</event>
<event>
 4    1  0.2409985E+000  0.6997506E+02  0.7957747E-01  0.1360178E+00
         13   -1    0    0    0    0  0.00000000000E+00  0.00000000000E+00  0.99999944185E+02  0.10000000001E+03  0.10566000000E+00 0.  1.
         22   -1    0    0    0    0 -0.00000000000E+00 -0.00000000000E+00 -0.68643448879E+02  0.68643448879E+02  0.00000000000E+00 0. -1.
         13    1    1    2    0    0 -0.14981423725E+02 -0.46605435238E+02 -0.43990153375E+02  0.65815305275E+02  0.10566000000E+00 0. -1.
        996    1    1    2    0    0  0.14981423725E+02  0.46605435238E+02  0.75346648682E+02  0.10282814361E+03  0.50000000000E+02 0.  0.
<mgrwt>
<rscale>  0 0.69975064E+02</rscale>
<asrwt>0</asrwt>
<pdfrwt beam="1">  1       13 0.10000000E+01 0.69975064E+02</pdfrwt>
<pdfrwt beam="2">  1       22 0.68643458E+00 0.69975064E+02</pdfrwt>
<totfact> 0.80984592E-02</totfact>
</mgrwt>
</event>
<event>
 4    1  0.2409985E+000  0.5431168E+02  0.7957747E-01  0.1423382E+00
         13   -1    0    0    0    0  0.00000000000E+00  0.00000000000E+00  0.99999944179E+02  0.99999999999E+02  0.10566000000E+00 0. -1.
         22   -1    0    0    0    0 -0.00000000000E+00 -0.00000000000E+00 -0.19850319776E+02  0.19850319776E+02  0.00000000000E+00 0.  1.
         13    1    1    2    0    0  0.32290233747E+01 -0.20960241009E+02 -0.20735685332E+01  0.21308898273E+02  0.10566000000E+00 0.  1.
        996    1    1    2    0    0 -0.32290233747E+01  0.20960241009E+02  0.82223192936E+02  0.98541421502E+02  0.50000000000E+02 0.  0.
<mgrwt>
<rscale>  0 0.54311677E+02</rscale>
<asrwt>0</asrwt>
<pdfrwt beam="1">  1       13 0.10000000E+01 0.54311677E+02</pdfrwt>
<pdfrwt beam="2">  1       22 0.19850342E+00 0.54311677E+02</pdfrwt>
<totfact> 0.46133808E-01</totfact>
</mgrwt>
</event>
<event>
 4    1  0.2409985E+000  0.5163916E+02  0.7957747E-01  0.1436696E+00
         13   -1    0    0    0    0  0.00000000000E+00  0.00000000000E+00  0.99999944181E+02  0.10000000000E+03  0.10566000000E+00 0.  1.
         22   -1    0    0    0    0 -0.00000000000E+00 -0.00000000000E+00 -0.10454135772E+02  0.10454135772E+02  0.00000000000E+00 0.  1.
         13    1    1    2    0    0 -0.10213858129E+02 -0.78917586978E+01  0.15326910263E+02  0.20038165971E+02  0.10566000000E+00 0. -1.
        996    1    1    2    0    0  0.10213858129E+02  0.78917586978E+01  0.74218898146E+02  0.90415969802E+02  0.50000000000E+02 0.  0.
<mgrwt>
<rscale>  0 0.51639159E+02</rscale>
<asrwt>0</asrwt>
<pdfrwt beam="1">  1       13 0.10000000E+01 0.51639159E+02</pdfrwt>
<pdfrwt beam="2">  1       22 0.10454161E+00 0.51639159E+02</pdfrwt>
<totfact> 0.13202940E+00</totfact>
</mgrwt>
</event>
<event>
 4    1  0.2409985E+000  0.5205192E+02  0.7957747E-01  0.1434578E+00
         13   -1    0    0    0    0  0.00000000000E+00  0.00000000000E+00  0.99999944185E+02  0.10000000001E+03  0.10566000000E+00 0. -1.
         22   -1    0    0    0    0 -0.00000000000E+00 -0.00000000000E+00 -0.15069296057E+02  0.15069296057E+02  0.00000000000E+00 0. -1.
         13    1    1    2    0    0  0.14458852090E+02  0.58673497169E+00 -0.11048934984E+01  0.14513256539E+02  0.10566000000E+00 0.  1.
        996    1    1    2    0    0 -0.14458852090E+02 -0.58673497169E+00  0.86035541627E+02  0.10055603952E+03  0.50000000000E+02 0.  0.
<mgrwt>
<rscale>  0 0.52051923E+02</rscale>
<asrwt>0</asrwt>
<pdfrwt beam="1">  1       13 0.10000000E+01 0.52051923E+02</pdfrwt>
<pdfrwt beam="2">  1       22 0.15069320E+00 0.52051923E+02</pdfrwt>
<totfact> 0.74724206E-01</totfact>
</mgrwt>
</event>
<event>
 4    1  0.2409985E+000  0.5318923E+02  0.7957747E-01  0.1428861E+00
         13   -1    0    0    0    0  0.00000000000E+00  0.00000000000E+00  0.99999944170E+02  0.99999999990E+02  0.10566000000E+00 0. -1.
         22   -1    0    0    0    0 -0.00000000000E+00 -0.00000000000E+00 -0.16996861324E+02  0.16996861324E+02  0.00000000000E+00 0. -1.
         13    1    1    2    0    0  0.16837669227E+02 -0.67518484860E+01 -0.32022933131E+00  0.18144097493E+02  0.10566000000E+00 0.  1.
        996    1    1    2    0    0 -0.16837669227E+02  0.67518484860E+01  0.83323312177E+02  0.98852763821E+02  0.50000000000E+02 0.  0.
<mgrwt>
<rscale>  0 0.53189234E+02</rscale>
<asrwt>0</asrwt>
<pdfrwt beam="1">  1       13 0.10000000E+01 0.53189234E+02</pdfrwt>
<pdfrwt beam="2">  1       22 0.16996884E+00 0.53189234E+02</pdfrwt>
<totfact> 0.60956769E-01</totfact>
</mgrwt>
</event>
<event>
 4    1  0.2409985E+000  0.5160923E+02  0.7957747E-01  0.1436850E+00
         13   -1    0    0    0    0  0.00000000000E+00  0.00000000000E+00  0.99999944181E+02  0.10000000000E+03  0.10566000000E+00 0.  1.
         22   -1    0    0    0    0 -0.00000000000E+00 -0.00000000000E+00 -0.43453767118E+02  0.43453767118E+02  0.00000000000E+00 0. -1.
         13    1    1    2    0    0  0.46047339687E+01 -0.11929335784E+02 -0.35606729524E+02  0.37833358013E+02  0.10566000000E+00 0. -1.
        996    1    1    2    0    0 -0.46047339687E+01  0.11929335784E+02  0.92152906587E+02  0.10562040911E+03  0.50000000000E+02 0.  0.
<mgrwt>
<rscale>  0 0.51609230E+02</rscale>
<asrwt>0</asrwt>
<pdfrwt beam="1">  1       13 0.10000000E+01 0.51609230E+02</pdfrwt>
<pdfrwt beam="2">  1       22 0.43453783E+00 0.51609230E+02</pdfrwt>
<totfact> 0.10453495E-01</totfact>
</mgrwt>
</event>
<event>
 4    1  0.2409985E+000  0.5314902E+02  0.7957747E-01  0.1429061E+00
         13   -1    0    0    0    0  0.00000000000E+00  0.00000000000E+00  0.99999944175E+02  0.99999999995E+02  0.10566000000E+00 0.  1.
         22   -1    0    0    0    0 -0.00000000000E+00 -0.00000000000E+00 -0.25658257211E+02  0.25658257211E+02  0.00000000000E+00 0. -1.
         13    1    1    2    0    0 -0.17782689730E+02 -0.29316229243E+01 -0.13822283986E+02  0.22713105592E+02  0.10566000000E+00 0. -1.
        996    1    1    2    0    0  0.17782689730E+02  0.29316229243E+01  0.88163970950E+02  0.10294515161E+03  0.50000000000E+02 0.  0.
<mgrwt>
<rscale>  0 0.53149021E+02</rscale>
<asrwt>0</asrwt>
<pdfrwt beam="1">  1       13 0.10000000E+01 0.53149021E+02</pdfrwt>
<pdfrwt beam="2">  1       22 0.25658278E+00 0.53149021E+02</pdfrwt>
<totfact> 0.28058562E-01</totfact>
</mgrwt>
</event>
<event>
 4    1  0.2409985E+000  0.5174795E+02  0.7957747E-01  0.1436135E+00
         13   -1    0    0    0    0  0.00000000000E+00  0.00000000000E+00  0.99999944178E+02  0.99999999998E+02  0.10566000000E+00 0. -1.
         22   -1    0    0    0    0 -0.00000000000E+00 -0.00000000000E+00 -0.10622598120E+02  0.10622598120E+02  0.00000000000E+00 0. -1.
         13    1    1    2    0    0 -0.11714441397E+02 -0.63735251930E+01  0.20873865108E+02  0.24770534294E+02  0.10566000000E+00 0.  1.
        996    1    1    2    0    0  0.11714441397E+02  0.63735251930E+01  0.68503480950E+02  0.85852063824E+02  0.50000000000E+02 0.  0.
<mgrwt>
<rscale>  0 0.51747946E+02</rscale>
<asrwt>0</asrwt>
<pdfrwt beam="1">  1       13 0.10000000E+01 0.51747946E+02</pdfrwt>
<pdfrwt beam="2">  1       22 0.10622623E+00 0.51747946E+02</pdfrwt>
<totfact> 0.12899748E+00</totfact>
</mgrwt>
</event>
<event>
 4    1  0.2409985E+000  0.5114718E+02  0.7957747E-01  0.1439250E+00
         13   -1    0    0    0    0  0.00000000000E+00  0.00000000000E+00  0.99999944174E+02  0.99999999994E+02  0.10566000000E+00 0.  1.
         22   -1    0    0    0    0 -0.00000000000E+00 -0.00000000000E+00 -0.98432298094E+01  0.98432298094E+01  0.00000000000E+00 0.  1.
         13    1    1    2    0    0  0.10737610018E+02  0.85913553943E+00  0.96473069099E+01  0.14460846359E+02  0.10566000000E+00 0. -1.
        996    1    1    2    0    0 -0.10737610018E+02 -0.85913553943E+00  0.80509407455E+02  0.95382383444E+02  0.50000000000E+02 0.  0.
<mgrwt>
<rscale>  0 0.51147184E+02</rscale>
<asrwt>0</asrwt>
<pdfrwt beam="1">  1       13 0.10000000E+01 0.51147184E+02</pdfrwt>
<pdfrwt beam="2">  1       22 0.98432550E-01 0.51147184E+02</pdfrwt>
<totfact> 0.14393716E+00</totfact>
</mgrwt>
</event>
<event>
 4    1  0.2409985E+000  0.6224445E+02  0.7957747E-01  0.1388647E+00
         13   -1    0    0    0    0  0.00000000000E+00  0.00000000000E+00  0.99999944174E+02  0.99999999994E+02  0.10566000000E+00 0. -1.
         22   -1    0    0    0    0 -0.00000000000E+00 -0.00000000000E+00 -0.53971557880E+02  0.53971557880E+02  0.00000000000E+00 0. -1.
         13    1    1    2    0    0  0.26023180296E+02 -0.26403891488E+02 -0.35546910484E+02  0.51361127396E+02  0.10566000000E+00 0.  1.
        996    1    1    2    0    0 -0.26023180296E+02  0.26403891488E+02  0.81575296778E+02  0.10261043048E+03  0.50000000000E+02 0.  0.
<mgrwt>
<rscale>  0 0.62244449E+02</rscale>
<asrwt>0</asrwt>
<pdfrwt beam="1">  1       13 0.10000000E+01 0.62244449E+02</pdfrwt>
<pdfrwt beam="2">  1       22 0.53971571E+00 0.62244449E+02</pdfrwt>
<totfact> 0.60860790E-02</totfact>
</mgrwt>
</event>
<event>
 4    1  0.2409985E+000  0.5113899E+02  0.7957747E-01  0.1439293E+00
         13   -1    0    0    0    0  0.00000000000E+00  0.00000000000E+00  0.99999944180E+02  0.10000000000E+03  0.10566000000E+00 0. -1.
         22   -1    0    0    0    0 -0.00000000000E+00 -0.00000000000E+00 -0.10053342626E+02  0.10053342626E+02  0.00000000000E+00 0. -1.
         13    1    1    2    0    0 -0.97407868062E+01  0.45069854663E+01  0.26308946348E+02  0.28414215941E+02  0.10566000000E+00 0.  1.
        996    1    1    2    0    0  0.97407868062E+01 -0.45069854663E+01  0.63637655207E+02  0.81639126685E+02  0.50000000000E+02 0.  0.
<mgrwt>
<rscale>  0 0.51138986E+02</rscale>
<asrwt>0</asrwt>
<pdfrwt beam="1">  1       13 0.10000000E+01 0.51138986E+02</pdfrwt>
<pdfrwt beam="2">  1       22 0.10053368E+00 0.51138986E+02</pdfrwt>
<totfact> 0.13960485E+00</totfact>
</mgrwt>
</event>
<event>
 4    1  0.2409985E+000  0.5136463E+02  0.7957747E-01  0.1438117E+00
         13   -1    0    0    0    0  0.00000000000E+00  0.00000000000E+00  0.99999944174E+02  0.99999999994E+02  0.10566000000E+00 0.  1.
         22   -1    0    0    0    0 -0.00000000000E+00 -0.00000000000E+00 -0.24010031587E+02  0.24010031587E+02  0.00000000000E+00 0. -1.
         13    1    1    2    0    0  0.11318555717E+02  0.31962289541E+01 -0.15278081833E+02  0.19280988864E+02  0.10566000000E+00 0. -1.
        996    1    1    2    0    0 -0.11318555717E+02 -0.31962289541E+01  0.91267994420E+02  0.10472904272E+03  0.50000000000E+02 0.  0.
<mgrwt>
<rscale>  0 0.51364634E+02</rscale>
<asrwt>0</asrwt>
<pdfrwt beam="1">  1       13 0.10000000E+01 0.51364634E+02</pdfrwt>
<pdfrwt beam="2">  1       22 0.24010053E+00 0.51364634E+02</pdfrwt>
<totfact> 0.31880492E-01</totfact>
</mgrwt>
</event>
<event>
 4    1  0.2409985E+000  0.5553460E+02  0.7957747E-01  0.1417588E+00
         13   -1    0    0    0    0  0.00000000000E+00  0.00000000000E+00  0.99999944183E+02  0.10000000000E+03  0.10566000000E+00 0.  1.
         22   -1    0    0    0    0 -0.00000000000E+00 -0.00000000000E+00 -0.15881433138E+02  0.15881433138E+02  0.00000000000E+00 0.  1.
         13    1    1    2    0    0  0.13824290331E+02 -0.19823730333E+02  0.25365213599E+02  0.35035646311E+02  0.10566000000E+00 0. -1.
        996    1    1    2    0    0 -0.13824290331E+02  0.19823730333E+02  0.58753297446E+02  0.80845786830E+02  0.50000000000E+02 0.  0.
<mgrwt>
<rscale>  0 0.55534595E+02</rscale>
<asrwt>0</asrwt>
<pdfrwt beam="1">  1       13 0.10000000E+01 0.55534595E+02</pdfrwt>
<pdfrwt beam="2">  1       22 0.15881457E+00 0.55534595E+02</pdfrwt>
<totfact> 0.68854404E-01</totfact>
</mgrwt>
</event>
<event>
 4    1  0.2409985E+000  0.5341217E+02  0.7957747E-01  0.1427761E+00
         13   -1    0    0    0    0  0.00000000000E+00  0.00000000000E+00  0.99999944177E+02  0.99999999997E+02  0.10566000000E+00 0.  1.
         22   -1    0    0    0    0 -0.00000000000E+00 -0.00000000000E+00 -0.13255144168E+02  0.13255144168E+02  0.00000000000E+00 0.  1.
         13    1    1    2    0    0 -0.11949537976E+02  0.14493724339E+02  0.29399605216E+02  0.34888500311E+02  0.10566000000E+00 0. -1.
        996    1    1    2    0    0  0.11949537976E+02 -0.14493724339E+02  0.57345194793E+02  0.78366643854E+02  0.50000000000E+02 0.  0.
<mgrwt>
<rscale>  0 0.53412166E+02</rscale>
<asrwt>0</asrwt>
<pdfrwt beam="1">  1       13 0.10000000E+01 0.53412166E+02</pdfrwt>
<pdfrwt beam="2">  1       22 0.13255168E+00 0.53412166E+02</pdfrwt>
<totfact> 0.92329427E-01</totfact>
</mgrwt>
</event>
<event>
 4    1  0.2409985E+000  0.5710391E+02  0.7957747E-01  0.1410403E+00
         13   -1    0    0    0    0  0.00000000000E+00  0.00000000000E+00  0.99999944174E+02  0.99999999994E+02  0.10566000000E+00 0. -1.
         22   -1    0    0    0    0 -0.00000000000E+00 -0.00000000000E+00 -0.24946920043E+02  0.24946920043E+02  0.00000000000E+00 0.  1.
         13    1    1    2    0    0  0.34477738607E+01 -0.27367314382E+02 -0.35281658850E+01  0.27808562703E+02  0.10566000000E+00 0.  1.
        996    1    1    2    0    0 -0.34477738607E+01  0.27367314382E+02  0.78581190017E+02  0.97138357334E+02  0.50000000000E+02 0.  0.
<mgrwt>
<rscale>  0 0.57103914E+02</rscale>
<asrwt>0</asrwt>
<pdfrwt beam="1">  1       13 0.10000000E+01 0.57103914E+02</pdfrwt>
<pdfrwt beam="2">  1       22 0.24946941E+00 0.57103914E+02</pdfrwt>
<totfact> 0.29829559E-01</totfact>
</mgrwt>
</event>
<event>
 4    1  0.2409985E+000  0.5192654E+02  0.7957747E-01  0.1435219E+00
         13   -1    0    0    0    0  0.00000000000E+00  0.00000000000E+00  0.99999944177E+02  0.99999999997E+02  0.10566000000E+00 0. -1.
         22   -1    0    0    0    0 -0.00000000000E+00 -0.00000000000E+00 -0.13903418203E+02  0.13903418203E+02  0.00000000000E+00 0. -1.
         13    1    1    2    0    0  0.13823533673E+02  0.22969094059E+01  0.79006275101E+00  0.14035712992E+02  0.10566000000E+00 0.  1.
        996    1    1    2    0    0 -0.13823533673E+02 -0.22969094059E+01  0.85306463222E+02  0.99867705208E+02  0.50000000000E+02 0.  0.
<mgrwt>
<rscale>  0 0.51926543E+02</rscale>
<asrwt>0</asrwt>
<pdfrwt beam="1">  1       13 0.10000000E+01 0.51926543E+02</pdfrwt>
<pdfrwt beam="2">  1       22 0.13903442E+00 0.51926543E+02</pdfrwt>
<totfact> 0.85264470E-01</totfact>
</mgrwt>
</event>
<event>
 4    1  0.2409985E+000  0.6566545E+02  0.7957747E-01  0.1375486E+00
         13   -1    0    0    0    0  0.00000000000E+00  0.00000000000E+00  0.99999944176E+02  0.99999999996E+02  0.10566000000E+00 0.  1.
         22   -1    0    0    0    0 -0.00000000000E+00 -0.00000000000E+00 -0.33399751021E+02  0.33399751021E+02  0.00000000000E+00 0. -1.
         13    1    1    2    0    0 -0.40084458002E+02  0.14324388349E+02  0.41317600798E+01  0.42767212678E+02  0.10566000000E+00 0. -1.
        996    1    1    2    0    0  0.40084458002E+02 -0.14324388349E+02  0.62468433075E+02  0.90632538339E+02  0.50000000000E+02 0.  0.
<mgrwt>
<rscale>  0 0.65665454E+02</rscale>
<asrwt>0</asrwt>
<pdfrwt beam="1">  1       13 0.10000000E+01 0.65665454E+02</pdfrwt>
<pdfrwt beam="2">  1       22 0.33399770E+00 0.65665454E+02</pdfrwt>
<totfact> 0.17286961E-01</totfact>
</mgrwt>
</event>
<event>
 4    1  0.2409985E+000  0.5146207E+02  0.7957747E-01  0.1437611E+00
         13   -1    0    0    0    0  0.00000000000E+00  0.00000000000E+00  0.99999944178E+02  0.99999999998E+02  0.10566000000E+00 0.  1.
         22   -1    0    0    0    0 -0.00000000000E+00 -0.00000000000E+00 -0.11818249332E+02  0.11818249332E+02  0.00000000000E+00 0.  1.
         13    1    1    2    0    0  0.53132343311E+01  0.10959655914E+02  0.34094790760E+01  0.12648329076E+02  0.10566000000E+00 0. -1.
        996    1    1    2    0    0 -0.53132343311E+01 -0.10959655914E+02  0.84772215769E+02  0.99169920254E+02  0.50000000000E+02 0.  0.
<mgrwt>
<rscale>  0 0.51462069E+02</rscale>
<asrwt>0</asrwt>
<pdfrwt beam="1">  1       13 0.10000000E+01 0.51462069E+02</pdfrwt>
<pdfrwt beam="2">  1       22 0.11818274E+00 0.51462069E+02</pdfrwt>
<totfact> 0.10989591E+00</totfact>
</mgrwt>
</event>
<event>
 4    1  0.2409985E+000  0.5987670E+02  0.7957747E-01  0.1398350E+00
         13   -1    0    0    0    0  0.00000000000E+00  0.00000000000E+00  0.99999944182E+02  0.10000000000E+03  0.10566000000E+00 0. -1.
         22   -1    0    0    0    0 -0.00000000000E+00 -0.00000000000E+00 -0.31529045664E+02  0.31529045664E+02  0.00000000000E+00 0.  1.
         13    1    1    2    0    0  0.80597472932E+01 -0.31941505556E+02 -0.84897907871E+01  0.34019215383E+02  0.10566000000E+00 0.  1.
        996    1    1    2    0    0 -0.80597472932E+01  0.31941505556E+02  0.76960689305E+02  0.97509830283E+02  0.50000000000E+02 0.  0.
<mgrwt>
<rscale>  0 0.59876701E+02</rscale>
<asrwt>0</asrwt>
<pdfrwt beam="1">  1       13 0.10000000E+01 0.59876701E+02</pdfrwt>
<pdfrwt beam="2">  1       22 0.31529065E+00 0.59876701E+02</pdfrwt>
<totfact> 0.19066919E-01</totfact>
</mgrwt>
</event>
<event>
 4    1  0.2409985E+000  0.5596766E+02  0.7957747E-01  0.1415577E+00
         13   -1    0    0    0    0  0.00000000000E+00  0.00000000000E+00  0.99999944171E+02  0.99999999991E+02  0.10566000000E+00 0. -1.
         22   -1    0    0    0    0 -0.00000000000E+00 -0.00000000000E+00 -0.17674915453E+02  0.17674915453E+02  0.00000000000E+00 0. -1.
         13    1    1    2    0    0  0.58887577375E+01 -0.24447923640E+02  0.12190713243E+02  0.27946432535E+02  0.10566000000E+00 0.  1.
        996    1    1    2    0    0 -0.58887577375E+01  0.24447923640E+02  0.70134315475E+02  0.89728482909E+02  0.50000000000E+02 0.  0.
<mgrwt>
<rscale>  0 0.55967655E+02</rscale>
<asrwt>0</asrwt>
<pdfrwt beam="1">  1       13 0.10000000E+01 0.55967655E+02</pdfrwt>
<pdfrwt beam="2">  1       22 0.17674938E+00 0.55967655E+02</pdfrwt>
<totfact> 0.57172037E-01</totfact>
</mgrwt>
</event>
<event>
 4    1  0.2409985E+000  0.5099584E+02  0.7957747E-01  0.1440043E+00
         13   -1    0    0    0    0  0.00000000000E+00  0.00000000000E+00  0.99999944181E+02  0.10000000000E+03  0.10566000000E+00 0.  1.
         22   -1    0    0    0    0 -0.00000000000E+00 -0.00000000000E+00 -0.11462068442E+02  0.11462068442E+02  0.00000000000E+00 0. -1.
         13    1    1    2    0    0  0.38687229062E+01 -0.92524762530E+01  0.90341442345E+00  0.10069888549E+02  0.10566000000E+00 0. -1.
        996    1    1    2    0    0 -0.38687229062E+01  0.92524762530E+01  0.87634461315E+02  0.10139217989E+03  0.50000000000E+02 0.  0.
<mgrwt>
<rscale>  0 0.50995836E+02</rscale>
<asrwt>0</asrwt>
<pdfrwt beam="1">  1       13 0.10000000E+01 0.50995836E+02</pdfrwt>
<pdfrwt beam="2">  1       22 0.11462093E+00 0.50995836E+02</pdfrwt>
<totfact> 0.11498287E+00</totfact>
</mgrwt>
</event>
<event>
 4    1  0.2409985E+000  0.5544070E+02  0.7957747E-01  0.1418026E+00
         13   -1    0    0    0    0  0.00000000000E+00  0.00000000000E+00  0.99999944181E+02  0.10000000000E+03  0.10566000000E+00 0. -1.
         22   -1    0    0    0    0 -0.00000000000E+00 -0.00000000000E+00 -0.16839162516E+02  0.16839162516E+02  0.00000000000E+00 0.  1.
         13    1    1    2    0    0 -0.94814724758E+01 -0.21994845830E+02  0.12476748057E+02  0.27006517167E+02  0.10566000000E+00 0.  1.
        996    1    1    2    0    0  0.94814724758E+01  0.21994845830E+02  0.70684033608E+02  0.89832645350E+02  0.50000000000E+02 0.  0.
<mgrwt>
<rscale>  0 0.55440703E+02</rscale>
<asrwt>0</asrwt>
<pdfrwt beam="1">  1       13 0.10000000E+01 0.55440703E+02</pdfrwt>
<pdfrwt beam="2">  1       22 0.16839186E+00 0.55440703E+02</pdfrwt>
<totfact> 0.62218558E-01</totfact>
</mgrwt>
</event>
<event>
 4    1  0.2409985E+000  0.5182679E+02  0.7957747E-01  0.1435730E+00
         13   -1    0    0    0    0  0.00000000000E+00  0.00000000000E+00  0.99999944190E+02  0.10000000001E+03  0.10566000000E+00 0. -1.
         22   -1    0    0    0    0 -0.00000000000E+00 -0.00000000000E+00 -0.22018438037E+02  0.22018438037E+02  0.00000000000E+00 0.  1.
         13    1    1    2    0    0 -0.79999888569E+01 -0.11046087591E+02 -0.12007904784E+02  0.18171868756E+02  0.10566000000E+00 0.  1.
        996    1    1    2    0    0  0.79999888569E+01  0.11046087591E+02  0.89989410937E+02  0.10384656929E+03  0.50000000000E+02 0.  0.
<mgrwt>
<rscale>  0 0.51826787E+02</rscale>
<asrwt>0</asrwt>
<pdfrwt beam="1">  1       13 0.10000000E+01 0.51826787E+02</pdfrwt>
<pdfrwt beam="2">  1       22 0.22018460E+00 0.51826787E+02</pdfrwt>
<totfact> 0.37748979E-01</totfact>
</mgrwt>
</event>
<event>
 4    1  0.2409985E+000  0.5285193E+02  0.7957747E-01  0.1430539E+00
         13   -1    0    0    0    0  0.00000000000E+00  0.00000000000E+00  0.99999944180E+02  0.10000000000E+03  0.10566000000E+00 0.  1.
         22   -1    0    0    0    0 -0.00000000000E+00 -0.00000000000E+00 -0.12425149452E+02  0.12425149452E+02  0.00000000000E+00 0.  1.
         13    1    1    2    0    0  0.16429544305E+01  0.17047790081E+02  0.15888629931E+02  0.23362066925E+02  0.10566000000E+00 0. -1.
        996    1    1    2    0    0 -0.16429544305E+01 -0.17047790081E+02  0.71686164797E+02  0.89063082527E+02  0.50000000000E+02 0.  0.
<mgrwt>
<rscale>  0 0.52851929E+02</rscale>
<asrwt>0</asrwt>
<pdfrwt beam="1">  1       13 0.10000000E+01 0.52851929E+02</pdfrwt>
<pdfrwt beam="2">  1       22 0.12425174E+00 0.52851929E+02</pdfrwt>
<totfact> 0.10206854E+00</totfact>
</mgrwt>
</event>
<event>
 4    1  0.2409985E+000  0.5359759E+02  0.7957747E-01  0.1426850E+00
         13   -1    0    0    0    0  0.00000000000E+00  0.00000000000E+00  0.99999944173E+02  0.99999999993E+02  0.10566000000E+00 0.  1.
         22   -1    0    0    0    0 -0.00000000000E+00 -0.00000000000E+00 -0.13298605452E+02  0.13298605452E+02  0.00000000000E+00 0.  1.
         13    1    1    2    0    0  0.10137197300E+02 -0.16429803422E+02  0.24439988185E+02  0.31145230712E+02  0.10566000000E+00 0. -1.
        996    1    1    2    0    0 -0.10137197300E+02  0.16429803422E+02  0.62261350536E+02  0.82153374734E+02  0.50000000000E+02 0.  0.
<mgrwt>
<rscale>  0 0.53597586E+02</rscale>
<asrwt>0</asrwt>
<pdfrwt beam="1">  1       13 0.10000000E+01 0.53597586E+02</pdfrwt>
<pdfrwt beam="2">  1       22 0.13298630E+00 0.53597586E+02</pdfrwt>
<totfact> 0.91885887E-01</totfact>
</mgrwt>
</event>
<event>
 4    1  0.2409985E+000  0.5151484E+02  0.7957747E-01  0.1437338E+00
         13   -1    0    0    0    0  0.00000000000E+00  0.00000000000E+00  0.99999944176E+02  0.99999999996E+02  0.10566000000E+00 0.  1.
         22   -1    0    0    0    0 -0.00000000000E+00 -0.00000000000E+00 -0.11553200096E+02  0.11553200096E+02  0.00000000000E+00 0. -1.
         13    1    1    2    0    0 -0.36477574969E+01  0.11852124308E+02  0.47629854852E+01  0.13284433753E+02  0.10566000000E+00 0. -1.
        996    1    1    2    0    0  0.36477574969E+01 -0.11852124308E+02  0.83683758594E+02  0.98268766339E+02  0.50000000000E+02 0.  0.
<mgrwt>
<rscale>  0 0.51514842E+02</rscale>
<asrwt>0</asrwt>
<pdfrwt beam="1">  1       13 0.10000000E+01 0.51514842E+02</pdfrwt>
<pdfrwt beam="2">  1       22 0.11553225E+00 0.51514842E+02</pdfrwt>
<totfact> 0.11375383E+00</totfact>
</mgrwt>
</event>
<event>
 4    1  0.2409985E+000  0.5104140E+02  0.7957747E-01  0.1439804E+00
         13   -1    0    0    0    0  0.00000000000E+00  0.00000000000E+00  0.99999944182E+02  0.10000000000E+03  0.10566000000E+00 0.  1.
         22   -1    0    0    0    0 -0.00000000000E+00 -0.00000000000E+00 -0.94552096095E+01  0.94552096095E+01  0.00000000000E+00 0.  1.
         13    1    1    2    0    0 -0.56274259619E+01 -0.85765176739E+01  0.18638730989E+02  0.21275291661E+02  0.10566000000E+00 0. -1.
        996    1    1    2    0    0  0.56274259619E+01  0.85765176739E+01  0.71906003584E+02  0.88179917951E+02  0.50000000000E+02 0.  0.
<mgrwt>
<rscale>  0 0.51041401E+02</rscale>
<asrwt>0</asrwt>
<pdfrwt beam="1">  1       13 0.10000000E+01 0.51041401E+02</pdfrwt>
<pdfrwt beam="2">  1       22 0.94552349E-01 0.51041401E+02</pdfrwt>
<totfact> 0.15244489E+00</totfact>
</mgrwt>
</event>
<event>
 4    1  0.2409985E+000  0.5144097E+02  0.7957747E-01  0.1437721E+00
         13   -1    0    0    0    0  0.00000000000E+00  0.00000000000E+00  0.99999944179E+02  0.99999999999E+02  0.10566000000E+00 0. -1.
         22   -1    0    0    0    0 -0.00000000000E+00 -0.00000000000E+00 -0.12782710155E+02  0.12782710155E+02  0.00000000000E+00 0.  1.
         13    1    1    2    0    0 -0.93128831477E+01  0.77099987360E+01  0.67897026477E+00  0.12109749695E+02  0.10566000000E+00 0.  1.
        996    1    1    2    0    0  0.93128831477E+01 -0.77099987360E+01  0.86538263759E+02  0.10067296046E+03  0.50000000000E+02 0.  0.
<mgrwt>
<rscale>  0 0.51440975E+02</rscale>
<asrwt>0</asrwt>
<pdfrwt beam="1">  1       13 0.10000000E+01 0.51440975E+02</pdfrwt>
<pdfrwt beam="2">  1       22 0.12782735E+00 0.51440975E+02</pdfrwt>
<totfact> 0.97353874E-01</totfact>
</mgrwt>
</event>
<event>
 4    1  0.2409985E+000  0.5352651E+02  0.7957747E-01  0.1427198E+00
         13   -1    0    0    0    0  0.00000000000E+00  0.00000000000E+00  0.99999944179E+02  0.99999999999E+02  0.10566000000E+00 0.  1.
         22   -1    0    0    0    0 -0.00000000000E+00 -0.00000000000E+00 -0.14920399658E+02  0.14920399658E+02  0.00000000000E+00 0.  1.
         13    1    1    2    0    0 -0.15992320005E+02 -0.10456221938E+02  0.71978375241E+01  0.20418298299E+02  0.10566000000E+00 0. -1.
        996    1    1    2    0    0  0.15992320005E+02  0.10456221938E+02  0.77881706997E+02  0.94502101358E+02  0.50000000000E+02 0.  0.
<mgrwt>
<rscale>  0 0.53526506E+02</rscale>
<asrwt>0</asrwt>
<pdfrwt beam="1">  1       13 0.10000000E+01 0.53526506E+02</pdfrwt>
<pdfrwt beam="2">  1       22 0.14920423E+00 0.53526506E+02</pdfrwt>
<totfact> 0.76195931E-01</totfact>
</mgrwt>
</event>
<event>
 4    1  0.2409985E+000  0.5123424E+02  0.7957747E-01  0.1438796E+00
         13   -1    0    0    0    0  0.00000000000E+00  0.00000000000E+00  0.99999944179E+02  0.99999999999E+02  0.10566000000E+00 0.  1.
         22   -1    0    0    0    0 -0.00000000000E+00 -0.00000000000E+00 -0.11032200194E+02  0.11032200194E+02  0.00000000000E+00 0.  1.
         13    1    1    2    0    0 -0.10542525052E+02  0.37151460401E+01  0.41158515030E+01  0.11912117453E+02  0.10566000000E+00 0. -1.
        996    1    1    2    0    0  0.10542525052E+02 -0.37151460401E+01  0.84851892482E+02  0.99120082740E+02  0.50000000000E+02 0.  0.
<mgrwt>
<rscale>  0 0.51234238E+02</rscale>
<asrwt>0</asrwt>
<pdfrwt beam="1">  1       13 0.10000000E+01 0.51234238E+02</pdfrwt>
<pdfrwt beam="2">  1       22 0.11032225E+00 0.51234238E+02</pdfrwt>
<totfact> 0.12182307E+00</totfact>
</mgrwt>
</event>
<event>
 4    1  0.2409985E+000  0.5268845E+02  0.7957747E-01  0.1431358E+00
         13   -1    0    0    0    0  0.00000000000E+00  0.00000000000E+00  0.99999944185E+02  0.10000000001E+03  0.10566000000E+00 0.  1.
         22   -1    0    0    0    0 -0.00000000000E+00 -0.00000000000E+00 -0.15730872453E+02  0.15730872453E+02  0.00000000000E+00 0.  1.
         13    1    1    2    0    0 -0.14186626271E+02  0.86494019604E+01  0.32198466449E+00  0.16618885564E+02  0.10566000000E+00 0. -1.
        996    1    1    2    0    0  0.14186626271E+02 -0.86494019604E+01  0.83947087067E+02  0.99111986895E+02  0.50000000000E+02 0.  0.
<mgrwt>
<rscale>  0 0.52688448E+02</rscale>
<asrwt>0</asrwt>
<pdfrwt beam="1">  1       13 0.10000000E+01 0.52688448E+02</pdfrwt>
<pdfrwt beam="2">  1       22 0.15730896E+00 0.52688448E+02</pdfrwt>
<totfact> 0.69600013E-01</totfact>
</mgrwt>
</event>
<event>
 4    1  0.2409985E+000  0.5159400E+02  0.7957747E-01  0.1436929E+00
         13   -1    0    0    0    0  0.00000000000E+00  0.00000000000E+00  0.99999944181E+02  0.10000000000E+03  0.10566000000E+00 0.  1.
         22   -1    0    0    0    0 -0.00000000000E+00 -0.00000000000E+00 -0.10781151656E+02  0.10781151656E+02  0.00000000000E+00 0.  1.
         13    1    1    2    0    0 -0.12476706031E+02  0.25044237926E+01  0.97445646106E+01  0.16028350988E+02  0.10566000000E+00 0. -1.
        996    1    1    2    0    0  0.12476706031E+02 -0.25044237926E+01  0.79474227914E+02  0.94752800668E+02  0.50000000000E+02 0.  0.
<mgrwt>
<rscale>  0 0.51593995E+02</rscale>
<asrwt>0</asrwt>
<pdfrwt beam="1">  1       13 0.10000000E+01 0.51593995E+02</pdfrwt>
<pdfrwt beam="2">  1       22 0.10781177E+00 0.51593995E+02</pdfrwt>
<totfact> 0.12616198E+00</totfact>
</mgrwt>
</event>
<event>
 4    1  0.2409985E+000  0.5122056E+02  0.7957747E-01  0.1438867E+00
         13   -1    0    0    0    0  0.00000000000E+00  0.00000000000E+00  0.99999944177E+02  0.99999999997E+02  0.10566000000E+00 0.  1.
         22   -1    0    0    0    0 -0.00000000000E+00 -0.00000000000E+00 -0.14092451727E+02  0.14092451727E+02  0.00000000000E+00 0.  1.
         13    1    1    2    0    0 -0.77580600181E+01  0.79597693004E+01 -0.29757201791E+01  0.11507019474E+02  0.10566000000E+00 0. -1.
        996    1    1    2    0    0  0.77580600181E+01 -0.79597693004E+01  0.88883212630E+02  0.10258543225E+03  0.50000000000E+02 0.  0.
<mgrwt>
<rscale>  0 0.51220557E+02</rscale>
<asrwt>0</asrwt>
<pdfrwt beam="1">  1       13 0.10000000E+01 0.51220557E+02</pdfrwt>
<pdfrwt beam="2">  1       22 0.14092476E+00 0.51220557E+02</pdfrwt>
<totfact> 0.83294410E-01</totfact>
</mgrwt>
</event>
<event>
 4    1  0.2409985E+000  0.5105120E+02  0.7957747E-01  0.1439753E+00
         13   -1    0    0    0    0  0.00000000000E+00  0.00000000000E+00  0.99999944179E+02  0.99999999999E+02  0.10566000000E+00 0. -1.
         22   -1    0    0    0    0 -0.00000000000E+00 -0.00000000000E+00 -0.94836710968E+01  0.94836710968E+01  0.00000000000E+00 0. -1.
         13    1    1    2    0    0 -0.70935613940E+01 -0.74770805668E+01  0.18998750682E+02  0.21614556173E+02  0.10566000000E+00 0.  1.
        996    1    1    2    0    0  0.70935613940E+01  0.74770805668E+01  0.71517522400E+02  0.87869114923E+02  0.50000000000E+02 0.  0.
<mgrwt>
<rscale>  0 0.51051203E+02</rscale>
<asrwt>0</asrwt>
<pdfrwt beam="1">  1       13 0.10000000E+01 0.51051203E+02</pdfrwt>
<pdfrwt beam="2">  1       22 0.94836964E-01 0.51051203E+02</pdfrwt>
<totfact> 0.15179594E+00</totfact>
</mgrwt>
</event>
<event>
 4    1  0.2409985E+000  0.5302138E+02  0.7957747E-01  0.1429694E+00
         13   -1    0    0    0    0  0.00000000000E+00  0.00000000000E+00  0.99999944175E+02  0.99999999995E+02  0.10566000000E+00 0.  1.
         22   -1    0    0    0    0 -0.00000000000E+00 -0.00000000000E+00 -0.15416876407E+02  0.15416876407E+02  0.00000000000E+00 0.  1.
         13    1    1    2    0    0  0.20575972889E+01  0.17522359833E+02  0.26740357677E+01  0.17844563095E+02  0.10566000000E+00 0. -1.
        996    1    1    2    0    0 -0.20575972889E+01 -0.17522359833E+02  0.81909032001E+02  0.97572313307E+02  0.50000000000E+02 0.  0.
<mgrwt>
<rscale>  0 0.53021381E+02</rscale>
<asrwt>0</asrwt>
<pdfrwt beam="1">  1       13 0.10000000E+01 0.53021381E+02</pdfrwt>
<pdfrwt beam="2">  1       22 0.15416900E+00 0.53021381E+02</pdfrwt>
<totfact> 0.72061999E-01</totfact>
</mgrwt>
</event>
<event>
 4    1  0.2409985E+000  0.5103922E+02  0.7957747E-01  0.1439816E+00
         13   -1    0    0    0    0  0.00000000000E+00  0.00000000000E+00  0.99999944176E+02  0.99999999996E+02  0.10566000000E+00 0. -1.
         22   -1    0    0    0    0 -0.00000000000E+00 -0.00000000000E+00 -0.10819567924E+02  0.10819567924E+02  0.00000000000E+00 0. -1.
         13    1    1    2    0    0  0.89428538118E+01 -0.50027437955E+01  0.30316556516E+01  0.10686635570E+02  0.10566000000E+00 0.  1.
        996    1    1    2    0    0 -0.89428538118E+01  0.50027437955E+01  0.86148720600E+02  0.10013293235E+03  0.50000000000E+02 0.  0.
<mgrwt>
<rscale>  0 0.51039221E+02</rscale>
<asrwt>0</asrwt>
<pdfrwt beam="1">  1       13 0.10000000E+01 0.51039221E+02</pdfrwt>
<pdfrwt beam="2">  1       22 0.10819593E+00 0.51039221E+02</pdfrwt>
<totfact> 0.12533568E+00</totfact>
</mgrwt>
</event>
<event>
 4    1  0.2409985E+000  0.5185301E+02  0.7957747E-01  0.1435596E+00
         13   -1    0    0    0    0  0.00000000000E+00  0.00000000000E+00  0.99999944182E+02  0.10000000000E+03  0.10566000000E+00 0. -1.
         22   -1    0    0    0    0 -0.00000000000E+00 -0.00000000000E+00 -0.21478084404E+02  0.21478084404E+02  0.00000000000E+00 0.  1.
         13    1    1    2    0    0 -0.66800215558E+01 -0.12004680490E+02 -0.11283285077E+02  0.17778040607E+02  0.10566000000E+00 0.  1.
        996    1    1    2    0    0  0.66800215558E+01  0.12004680490E+02  0.89805144855E+02  0.10370004380E+03  0.50000000000E+02 0.  0.
<mgrwt>
<rscale>  0 0.51853014E+02</rscale>
<asrwt>0</asrwt>
<pdfrwt beam="1">  1       13 0.10000000E+01 0.51853014E+02</pdfrwt>
<pdfrwt beam="2">  1       22 0.21478106E+00 0.51853014E+02</pdfrwt>
<totfact> 0.39591478E-01</totfact>
</mgrwt>
</event>
<event>
 4    1  0.2409985E+000  0.5139107E+02  0.7957747E-01  0.1437980E+00
         13   -1    0    0    0    0  0.00000000000E+00  0.00000000000E+00  0.99999944175E+02  0.99999999996E+02  0.10566000000E+00 0. -1.
         22   -1    0    0    0    0 -0.00000000000E+00 -0.00000000000E+00 -0.58482772839E+02  0.58482772839E+02  0.00000000000E+00 0.  1.
         13    1    1    2    0    0 -0.98255623611E+01  0.66708665369E+01 -0.51154668430E+02  0.52515268278E+02  0.10566000000E+00 0.  1.
        996    1    1    2    0    0  0.98255623611E+01 -0.66708665369E+01  0.92671839767E+02  0.10596750456E+03  0.50000000000E+02 0.  0.
<mgrwt>
<rscale>  0 0.51391071E+02</rscale>
<asrwt>0</asrwt>
<pdfrwt beam="1">  1       13 0.10000000E+01 0.51391071E+02</pdfrwt>
<pdfrwt beam="2">  1       22 0.58482784E+00 0.51391071E+02</pdfrwt>
<totfact> 0.59163543E-02</totfact>
</mgrwt>
</event>
<event>
 4    1  0.2409985E+000  0.5217316E+02  0.7957747E-01  0.1433961E+00
         13   -1    0    0    0    0  0.00000000000E+00  0.00000000000E+00  0.99999944178E+02  0.99999999998E+02  0.10566000000E+00 0.  1.
         22   -1    0    0    0    0 -0.00000000000E+00 -0.00000000000E+00 -0.15974356705E+02  0.15974356705E+02  0.00000000000E+00 0. -1.
         13    1    1    2    0    0 -0.10631392554E+02  0.10440898651E+02 -0.23293112909E+01  0.15082298479E+02  0.10566000000E+00 0. -1.
        996    1    1    2    0    0  0.10631392554E+02 -0.10440898651E+02  0.86354898764E+02  0.10089205822E+03  0.50000000000E+02 0.  0.
<mgrwt>
<rscale>  0 0.52173162E+02</rscale>
<asrwt>0</asrwt>
<pdfrwt beam="1">  1       13 0.10000000E+01 0.52173162E+02</pdfrwt>
<pdfrwt beam="2">  1       22 0.15974380E+00 0.52173162E+02</pdfrwt>
<totfact> 0.67733419E-01</totfact>
</mgrwt>
</event>
<event>
 4    1  0.2409985E+000  0.5194169E+02  0.7957747E-01  0.1435141E+00
         13   -1    0    0    0    0  0.00000000000E+00  0.00000000000E+00  0.99999944181E+02  0.10000000000E+03  0.10566000000E+00 0.  1.
         22   -1    0    0    0    0 -0.00000000000E+00 -0.00000000000E+00 -0.58224352578E+02  0.58224352578E+02  0.00000000000E+00 0. -1.
         13    1    1    2    0    0 -0.87852309404E+01 -0.10989033915E+02 -0.50451446857E+02  0.52376510031E+02  0.10566000000E+00 0. -1.
        996    1    1    2    0    0  0.87852309404E+01  0.10989033915E+02  0.92227038460E+02  0.10584784255E+03  0.50000000000E+02 0.  0.
<mgrwt>
<rscale>  0 0.51941690E+02</rscale>
<asrwt>0</asrwt>
<pdfrwt beam="1">  1       13 0.10000000E+01 0.51941690E+02</pdfrwt>
<pdfrwt beam="2">  1       22 0.58224364E+00 0.51941690E+02</pdfrwt>
<totfact> 0.58667698E-02</totfact>
</mgrwt>
</event>
<event>
 4    1  0.2409985E+000  0.6455364E+02  0.7957747E-01  0.1379658E+00
         13   -1    0    0    0    0  0.00000000000E+00  0.00000000000E+00  0.99999944180E+02  0.10000000000E+03  0.10566000000E+00 0. -1.
         22   -1    0    0    0    0 -0.00000000000E+00 -0.00000000000E+00 -0.28982585700E+02  0.28982585700E+02  0.00000000000E+00 0. -1.
         13    1    1    2    0    0  0.40465675785E+02 -0.54498578469E+01  0.40745784925E+02  0.57683637372E+02  0.10566000000E+00 0.  1.
        996    1    1    2    0    0 -0.40465675785E+02  0.54498578469E+01  0.30271573554E+02  0.71298948328E+02  0.50000000000E+02 0.  0.
<mgrwt>
<rscale>  0 0.64553636E+02</rscale>
<asrwt>0</asrwt>
<pdfrwt beam="1">  1       13 0.10000000E+01 0.64553636E+02</pdfrwt>
<pdfrwt beam="2">  1       22 0.28982606E+00 0.64553636E+02</pdfrwt>
<totfact> 0.22438461E-01</totfact>
</mgrwt>
</event>
<event>
 4    1  0.2409985E+000  0.5411454E+02  0.7957747E-01  0.1424333E+00
         13   -1    0    0    0    0  0.00000000000E+00  0.00000000000E+00  0.99999944177E+02  0.99999999998E+02  0.10566000000E+00 0. -1.
         22   -1    0    0    0    0 -0.00000000000E+00 -0.00000000000E+00 -0.15895617005E+02  0.15895617005E+02  0.00000000000E+00 0.  1.
         13    1    1    2    0    0 -0.37616569181E+01 -0.20352717607E+02  0.73110162593E+01  0.21950974911E+02  0.10566000000E+00 0.  1.
        996    1    1    2    0    0  0.37616569181E+01  0.20352717607E+02  0.76793310913E+02  0.93944642092E+02  0.50000000000E+02 0.  0.
<mgrwt>
<rscale>  0 0.54114538E+02</rscale>
<asrwt>0</asrwt>
<pdfrwt beam="1">  1       13 0.10000000E+01 0.54114538E+02</pdfrwt>
<pdfrwt beam="2">  1       22 0.15895640E+00 0.54114538E+02</pdfrwt>
<totfact> 0.68565985E-01</totfact>
</mgrwt>
</event>
<event>
 4    1  0.2409985E+000  0.5295418E+02  0.7957747E-01  0.1430029E+00
         13   -1    0    0    0    0  0.00000000000E+00  0.00000000000E+00  0.99999944176E+02  0.99999999996E+02  0.10566000000E+00 0.  1.
         22   -1    0    0    0    0 -0.00000000000E+00 -0.00000000000E+00 -0.14644318088E+02  0.14644318088E+02  0.00000000000E+00 0.  1.
         13    1    1    2    0    0 -0.15085840514E+02  0.87499862279E+01  0.45338445955E+01  0.18019760094E+02  0.10566000000E+00 0. -1.
        996    1    1    2    0    0  0.15085840514E+02 -0.87499862279E+01  0.80821781493E+02  0.96624557989E+02  0.50000000000E+02 0.  0.
<mgrwt>
<rscale>  0 0.52954177E+02</rscale>
<asrwt>0</asrwt>
<pdfrwt beam="1">  1       13 0.10000000E+01 0.52954177E+02</pdfrwt>
<pdfrwt beam="2">  1       22 0.14644342E+00 0.52954177E+02</pdfrwt>
<totfact> 0.78499984E-01</totfact>
</mgrwt>
</event>
<event>
 4    1  0.2409985E+000  0.6995704E+02  0.7957747E-01  0.1360239E+00
         13   -1    0    0    0    0  0.00000000000E+00  0.00000000000E+00  0.99999944178E+02  0.99999999998E+02  0.10566000000E+00 0. -1.
         22   -1    0    0    0    0 -0.00000000000E+00 -0.00000000000E+00 -0.56854743341E+02  0.56854743341E+02  0.00000000000E+00 0.  1.
         13    1    1    2    0    0  0.93346281694E+01  0.48029695125E+02 -0.28578707154E+02  0.56663397035E+02  0.10566000000E+00 0.  1.
        996    1    1    2    0    0 -0.93346281694E+01 -0.48029695125E+02  0.71723907991E+02  0.10019134630E+03  0.50000000000E+02 0.  0.
<mgrwt>
<rscale>  0 0.69957036E+02</rscale>
<asrwt>0</asrwt>
<pdfrwt beam="1">  1       13 0.10000000E+01 0.69957036E+02</pdfrwt>
<pdfrwt beam="2">  1       22 0.56854755E+00 0.69957036E+02</pdfrwt>
<totfact> 0.58081971E-02</totfact>
</mgrwt>
</event>
<event>
 4    1  0.2409985E+000  0.5252795E+02  0.7957747E-01  0.1432165E+00
         13   -1    0    0    0    0  0.00000000000E+00  0.00000000000E+00  0.99999944176E+02  0.99999999996E+02  0.10566000000E+00 0. -1.
         22   -1    0    0    0    0 -0.00000000000E+00 -0.00000000000E+00 -0.11774978108E+02  0.11774978108E+02  0.00000000000E+00 0. -1.
         13    1    1    2    0    0 -0.92157671783E+01  0.13200589173E+02  0.21050316231E+02  0.26501186703E+02  0.10566000000E+00 0.  1.
        996    1    1    2    0    0  0.92157671783E+01 -0.13200589173E+02  0.67174649837E+02  0.85273791401E+02  0.50000000000E+02 0.  0.
<mgrwt>
<rscale>  0 0.52527954E+02</rscale>
<asrwt>0</asrwt>
<pdfrwt beam="1">  1       13 0.10000000E+01 0.52527954E+02</pdfrwt>
<pdfrwt beam="2">  1       22 0.11775003E+00 0.52527954E+02</pdfrwt>
<totfact> 0.11077612E+00</totfact>
</mgrwt>
</event>
<event>
 4    1  0.2409985E+000  0.5157400E+02  0.7957747E-01  0.1437032E+00
         13   -1    0    0    0    0  0.00000000000E+00  0.00000000000E+00  0.99999944169E+02  0.99999999990E+02  0.10566000000E+00 0. -1.
         22   -1    0    0    0    0 -0.00000000000E+00 -0.00000000000E+00 -0.21582679683E+02  0.21582679683E+02  0.00000000000E+00 0.  1.
         13    1    1    2    0    0 -0.30698968976E+01  0.12265930363E+02 -0.12037372877E+02  0.17458144931E+02  0.10566000000E+00 0.  1.
        996    1    1    2    0    0  0.30698968976E+01 -0.12265930363E+02  0.90454637363E+02  0.10412453474E+03  0.50000000000E+02 0.  0.
<mgrwt>
<rscale>  0 0.51573998E+02</rscale>
<asrwt>0</asrwt>
<pdfrwt beam="1">  1       13 0.10000000E+01 0.51573998E+02</pdfrwt>
<pdfrwt beam="2">  1       22 0.21582702E+00 0.51573998E+02</pdfrwt>
<totfact> 0.39206720E-01</totfact>
</mgrwt>
</event>
<event>
 4    1  0.2409985E+000  0.5226349E+02  0.7957747E-01  0.1433502E+00
         13   -1    0    0    0    0  0.00000000000E+00  0.00000000000E+00  0.99999944182E+02  0.10000000000E+03  0.10566000000E+00 0.  1.
         22   -1    0    0    0    0 -0.00000000000E+00 -0.00000000000E+00 -0.16182366084E+02  0.16182366084E+02  0.00000000000E+00 0. -1.
         13    1    1    2    0    0  0.12638912196E+02  0.84693741500E+01 -0.23587069920E+01  0.15396332768E+02  0.10566000000E+00 0. -1.
        996    1    1    2    0    0 -0.12638912196E+02 -0.84693741500E+01  0.86176285090E+02  0.10078603332E+03  0.50000000000E+02 0.  0.
<mgrwt>
<rscale>  0 0.52263490E+02</rscale>
<asrwt>0</asrwt>
<pdfrwt beam="1">  1       13 0.10000000E+01 0.52263490E+02</pdfrwt>
<pdfrwt beam="2">  1       22 0.16182389E+00 0.52263490E+02</pdfrwt>
<totfact> 0.66260543E-01</totfact>
</mgrwt>
</event>
<event>
 4    1  0.2409985E+000  0.5171686E+02  0.7957747E-01  0.1436295E+00
         13   -1    0    0    0    0  0.00000000000E+00  0.00000000000E+00  0.99999944180E+02  0.10000000000E+03  0.10566000000E+00 0.  1.
         22   -1    0    0    0    0 -0.00000000000E+00 -0.00000000000E+00 -0.22613368788E+02  0.22613368788E+02  0.00000000000E+00 0. -1.
         13    1    1    2    0    0  0.20506854883E+01  0.13054817746E+02 -0.12961382971E+02  0.18510596693E+02  0.10566000000E+00 0. -1.
        996    1    1    2    0    0 -0.20506854883E+01 -0.13054817746E+02  0.90347958364E+02  0.10410277210E+03  0.50000000000E+02 0.  0.
<mgrwt>
<rscale>  0 0.51716860E+02</rscale>
<asrwt>0</asrwt>
<pdfrwt beam="1">  1       13 0.10000000E+01 0.51716860E+02</pdfrwt>
<pdfrwt beam="2">  1       22 0.22613390E+00 0.51716860E+02</pdfrwt>
<totfact> 0.35849486E-01</totfact>
</mgrwt>
</event>
<event>
 4    1  0.2409985E+000  0.5331557E+02  0.7957747E-01  0.1428237E+00
         13   -1    0    0    0    0  0.00000000000E+00  0.00000000000E+00  0.99999944179E+02  0.99999999999E+02  0.10566000000E+00 0.  1.
         22   -1    0    0    0    0 -0.00000000000E+00 -0.00000000000E+00 -0.22559632134E+02  0.22559632134E+02  0.00000000000E+00 0. -1.
         13    1    1    2    0    0 -0.29497266612E+01 -0.18271550509E+02 -0.93233546357E+01  0.20724057302E+02  0.10566000000E+00 0. -1.
        996    1    1    2    0    0  0.29497266612E+01  0.18271550509E+02  0.86763666680E+02  0.10183557483E+03  0.50000000000E+02 0.  0.
<mgrwt>
<rscale>  0 0.53315574E+02</rscale>
<asrwt>0</asrwt>
<pdfrwt beam="1">  1       13 0.10000000E+01 0.53315574E+02</pdfrwt>
<pdfrwt beam="2">  1       22 0.22559654E+00 0.53315574E+02</pdfrwt>
<totfact> 0.36110861E-01</totfact>
</mgrwt>
</event>
<event>
 4    1  0.2409985E+000  0.5292899E+02  0.7957747E-01  0.1430155E+00
         13   -1    0    0    0    0  0.00000000000E+00  0.00000000000E+00  0.99999944180E+02  0.10000000000E+03  0.10566000000E+00 0.  1.
         22   -1    0    0    0    0 -0.00000000000E+00 -0.00000000000E+00 -0.12720133732E+02  0.12720133732E+02  0.00000000000E+00 0.  1.
         13    1    1    2    0    0  0.44779859304E+01 -0.16775754060E+02  0.13892675964E+02  0.22237263585E+02  0.10566000000E+00 0. -1.
        996    1    1    2    0    0 -0.44779859304E+01  0.16775754060E+02  0.73387134484E+02  0.90482870147E+02  0.50000000000E+02 0.  0.
<mgrwt>
<rscale>  0 0.52928993E+02</rscale>
<asrwt>0</asrwt>
<pdfrwt beam="1">  1       13 0.10000000E+01 0.52928993E+02</pdfrwt>
<pdfrwt beam="2">  1       22 0.12720158E+00 0.52928993E+02</pdfrwt>
<totfact> 0.98422189E-01</totfact>
</mgrwt>
</event>
<event>
 4    1  0.2409985E+000  0.5671913E+02  0.7957747E-01  0.1412140E+00
         13   -1    0    0    0    0  0.00000000000E+00  0.00000000000E+00  0.99999944174E+02  0.99999999994E+02  0.10566000000E+00 0.  1.
         22   -1    0    0    0    0 -0.00000000000E+00 -0.00000000000E+00 -0.25662260983E+02  0.25662260983E+02  0.00000000000E+00 0. -1.
         13    1    1    2    0    0 -0.13246305449E+02  0.23272186335E+02 -0.58817966763E+01  0.27416527151E+02  0.10566000000E+00 0. -1.
        996    1    1    2    0    0  0.13246305449E+02 -0.23272186335E+02  0.80219479867E+02  0.98245733826E+02  0.50000000000E+02 0.  0.
<mgrwt>
<rscale>  0 0.56719126E+02</rscale>
<asrwt>0</asrwt>
<pdfrwt beam="1">  1       13 0.10000000E+01 0.56719126E+02</pdfrwt>
<pdfrwt beam="2">  1       22 0.25662282E+00 0.56719126E+02</pdfrwt>
<totfact> 0.28195685E-01</totfact>
</mgrwt>
</event>
<event>
 4    1  0.2409985E+000  0.5216099E+02  0.7957747E-01  0.1434022E+00
         13   -1    0    0    0    0  0.00000000000E+00  0.00000000000E+00  0.99999944181E+02  0.10000000000E+03  0.10566000000E+00 0. -1.
         22   -1    0    0    0    0 -0.00000000000E+00 -0.00000000000E+00 -0.11294172292E+02  0.11294172292E+02  0.00000000000E+00 0.  1.
         13    1    1    2    0    0  0.11849856301E+02  0.89637934682E+01  0.23323728591E+02  0.27654586728E+02  0.10566000000E+00 0.  1.
        996    1    1    2    0    0 -0.11849856301E+02 -0.89637934682E+01  0.65382043298E+02  0.83639585565E+02  0.50000000000E+02 0.  0.
<mgrwt>
<rscale>  0 0.52160988E+02</rscale>
<asrwt>0</asrwt>
<pdfrwt beam="1">  1       13 0.10000000E+01 0.52160988E+02</pdfrwt>
<pdfrwt beam="2">  1       22 0.11294197E+00 0.52160988E+02</pdfrwt>
<totfact> 0.11787720E+00</totfact>
</mgrwt>
</event>
<event>
 4    1  0.2409985E+000  0.5844848E+02  0.7957747E-01  0.1404461E+00
         13   -1    0    0    0    0  0.00000000000E+00  0.00000000000E+00  0.99999944177E+02  0.99999999998E+02  0.10566000000E+00 0.  1.
         22   -1    0    0    0    0 -0.00000000000E+00 -0.00000000000E+00 -0.19838274475E+02  0.19838274475E+02  0.00000000000E+00 0. -1.
         13    1    1    2    0    0  0.18626159911E+02  0.23859814721E+02  0.32576616357E+02  0.44468772064E+02  0.10566000000E+00 0. -1.
        996    1    1    2    0    0 -0.18626159911E+02 -0.23859814721E+02  0.47585053345E+02  0.75369502409E+02  0.50000000000E+02 0.  0.
<mgrwt>
<rscale>  0 0.58448478E+02</rscale>
<asrwt>0</asrwt>
<pdfrwt beam="1">  1       13 0.10000000E+01 0.58448478E+02</pdfrwt>
<pdfrwt beam="2">  1       22 0.19838297E+00 0.58448478E+02</pdfrwt>
<totfact> 0.46502725E-01</totfact>
</mgrwt>
</event>
<event>
 4    1  0.2409985E+000  0.5245062E+02  0.7957747E-01  0.1432555E+00
         13   -1    0    0    0    0  0.00000000000E+00  0.00000000000E+00  0.99999944175E+02  0.99999999995E+02  0.10566000000E+00 0. -1.
         22   -1    0    0    0    0 -0.00000000000E+00 -0.00000000000E+00 -0.14934643840E+02  0.14934643840E+02  0.00000000000E+00 0.  1.
         13    1    1    2    0    0  0.15521789191E+02  0.31846032937E+01  0.10361893210E+01  0.15879310129E+02  0.10566000000E+00 0.  1.
        996    1    1    2    0    0 -0.15521789191E+02 -0.31846032937E+01  0.84029111014E+02  0.99055333706E+02  0.50000000000E+02 0.  0.
<mgrwt>
<rscale>  0 0.52450621E+02</rscale>
<asrwt>0</asrwt>
<pdfrwt beam="1">  1       13 0.10000000E+01 0.52450621E+02</pdfrwt>
<pdfrwt beam="2">  1       22 0.14934668E+00 0.52450621E+02</pdfrwt>
<totfact> 0.75911084E-01</totfact>
</mgrwt>
</event>
<event>
 4    1  0.2409985E+000  0.5159535E+02  0.7957747E-01  0.1436922E+00
         13   -1    0    0    0    0  0.00000000000E+00  0.00000000000E+00  0.99999944184E+02  0.10000000000E+03  0.10566000000E+00 0.  1.
         22   -1    0    0    0    0 -0.00000000000E+00 -0.00000000000E+00 -0.15631511468E+02  0.15631511468E+02  0.00000000000E+00 0. -1.
         13    1    1    2    0    0  0.12550613388E+02  0.21358833097E+01 -0.39640622920E+01  0.13334348421E+02  0.10566000000E+00 0. -1.
        996    1    1    2    0    0 -0.12550613388E+02 -0.21358833097E+01  0.88332495008E+02  0.10229716305E+03  0.50000000000E+02 0.  0.
<mgrwt>
<rscale>  0 0.51595348E+02</rscale>
<asrwt>0</asrwt>
<pdfrwt beam="1">  1       13 0.10000000E+01 0.51595348E+02</pdfrwt>
<pdfrwt beam="2">  1       22 0.15631535E+00 0.51595348E+02</pdfrwt>
<totfact> 0.70198211E-01</totfact>
</mgrwt>
</event>
<event>
 4    1  0.2409985E+000  0.5277926E+02  0.7957747E-01  0.1430903E+00
         13   -1    0    0    0    0  0.00000000000E+00  0.00000000000E+00  0.99999944178E+02  0.99999999998E+02  0.10566000000E+00 0.  1.
         22   -1    0    0    0    0 -0.00000000000E+00 -0.00000000000E+00 -0.13887089379E+02  0.13887089379E+02  0.00000000000E+00 0.  1.
         13    1    1    2    0    0 -0.26993025600E+01  0.16684245612E+02  0.41389495543E+02  0.44707401975E+02  0.10566000000E+00 0. -1.
        996    1    1    2    0    0  0.26993025600E+01 -0.16684245612E+02  0.44723359256E+02  0.69179687402E+02  0.50000000000E+02 0.  0.
<mgrwt>
<rscale>  0 0.52779260E+02</rscale>
<asrwt>0</asrwt>
<pdfrwt beam="1">  1       13 0.10000000E+01 0.52779260E+02</pdfrwt>
<pdfrwt beam="2">  1       22 0.13887113E+00 0.52779260E+02</pdfrwt>
<totfact> 0.85579234E-01</totfact>
</mgrwt>
</event>
<event>
 4    1  0.2409985E+000  0.5197033E+02  0.7957747E-01  0.1434995E+00
         13   -1    0    0    0    0  0.00000000000E+00  0.00000000000E+00  0.99999944181E+02  0.10000000000E+03  0.10566000000E+00 0. -1.
         22   -1    0    0    0    0 -0.00000000000E+00 -0.00000000000E+00 -0.15907065567E+02  0.15907065567E+02  0.00000000000E+00 0.  1.
         13    1    1    2    0    0  0.72797252196E+01  0.12162275773E+02 -0.29980173193E+01  0.14488430665E+02  0.10566000000E+00 0.  1.
        996    1    1    2    0    0 -0.72797252196E+01 -0.12162275773E+02  0.87090895933E+02  0.10141863490E+03  0.50000000000E+02 0.  0.
<mgrwt>
<rscale>  0 0.51970331E+02</rscale>
<asrwt>0</asrwt>
<pdfrwt beam="1">  1       13 0.10000000E+01 0.51970331E+02</pdfrwt>
<pdfrwt beam="2">  1       22 0.15907089E+00 0.51970331E+02</pdfrwt>
<totfact> 0.68195739E-01</totfact>
</mgrwt>
</event>
<event>
 4    1  0.2409985E+000  0.5177316E+02  0.7957747E-01  0.1436006E+00
         13   -1    0    0    0    0  0.00000000000E+00  0.00000000000E+00  0.99999944183E+02  0.10000000000E+03  0.10566000000E+00 0. -1.
         22   -1    0    0    0    0 -0.00000000000E+00 -0.00000000000E+00 -0.10824462072E+02  0.10824462072E+02  0.00000000000E+00 0. -1.
         13    1    1    2    0    0 -0.22542681798E+01  0.13243030801E+02  0.24881034499E+02  0.28276078788E+02  0.10566000000E+00 0.  1.
        996    1    1    2    0    0  0.22542681798E+01 -0.13243030801E+02  0.64294447612E+02  0.82548383288E+02  0.50000000000E+02 0.  0.
<mgrwt>
<rscale>  0 0.51773155E+02</rscale>
<asrwt>0</asrwt>
<pdfrwt beam="1">  1       13 0.10000000E+01 0.51773155E+02</pdfrwt>
<pdfrwt beam="2">  1       22 0.10824487E+00 0.51773155E+02</pdfrwt>
<totfact> 0.12546830E+00</totfact>
</mgrwt>
</event>
<event>
 4    1  0.2409985E+000  0.5321683E+02  0.7957747E-01  0.1428725E+00
         13   -1    0    0    0    0  0.00000000000E+00  0.00000000000E+00  0.99999944178E+02  0.99999999998E+02  0.10566000000E+00 0.  1.
         22   -1    0    0    0    0 -0.00000000000E+00 -0.00000000000E+00 -0.58172846698E+02  0.58172846698E+02  0.00000000000E+00 0. -1.
         13    1    1    2    0    0 -0.46696228902E+01 -0.17613227619E+02 -0.49347153556E+02  0.52604029249E+02  0.10566000000E+00 0. -1.
        996    1    1    2    0    0  0.46696228902E+01  0.17613227619E+02  0.91174251036E+02  0.10556881745E+03  0.50000000000E+02 0.  0.
<mgrwt>
<rscale>  0 0.53216832E+02</rscale>
<asrwt>0</asrwt>
<pdfrwt beam="1">  1       13 0.10000000E+01 0.53216832E+02</pdfrwt>
<pdfrwt beam="2">  1       22 0.58172858E+00 0.53216832E+02</pdfrwt>
<totfact> 0.58592331E-02</totfact>
</mgrwt>
</event>
<event>
 4    1  0.2409985E+000  0.5237526E+02  0.7957747E-01  0.1432935E+00
         13   -1    0    0    0    0  0.00000000000E+00  0.00000000000E+00  0.99999944182E+02  0.10000000000E+03  0.10566000000E+00 0.  1.
         22   -1    0    0    0    0 -0.00000000000E+00 -0.00000000000E+00 -0.25888524057E+02  0.25888524057E+02  0.00000000000E+00 0. -1.
         13    1    1    2    0    0 -0.14556085928E+02  0.55936163393E+01 -0.15567952090E+02  0.22034983041E+02  0.10566000000E+00 0. -1.
        996    1    1    2    0    0  0.14556085928E+02 -0.55936163393E+01  0.89679372215E+02  0.10385354102E+03  0.50000000000E+02 0.  0.
<mgrwt>
<rscale>  0 0.52375263E+02</rscale>
<asrwt>0</asrwt>
<pdfrwt beam="1">  1       13 0.10000000E+01 0.52375263E+02</pdfrwt>
<pdfrwt beam="2">  1       22 0.25888545E+00 0.52375263E+02</pdfrwt>
<totfact> 0.27537219E-01</totfact>
</mgrwt>
</event>
<event>
 4    1  0.2409985E+000  0.5131157E+02  0.7957747E-01  0.1438393E+00
         13   -1    0    0    0    0  0.00000000000E+00  0.00000000000E+00  0.99999944184E+02  0.10000000000E+03  0.10566000000E+00 0.  1.
         22   -1    0    0    0    0 -0.00000000000E+00 -0.00000000000E+00 -0.17090108437E+02  0.17090108437E+02  0.00000000000E+00 0. -1.
         13    1    1    2    0    0 -0.73373329034E+01 -0.88905065623E+01 -0.70591787475E+01  0.13517423190E+02  0.10566000000E+00 0. -1.
        996    1    1    2    0    0  0.73373329034E+01  0.88905065623E+01  0.89969014495E+02  0.10357268525E+03  0.50000000000E+02 0.  0.
<mgrwt>
<rscale>  0 0.51311573E+02</rscale>
<asrwt>0</asrwt>
<pdfrwt beam="1">  1       13 0.10000000E+01 0.51311573E+02</pdfrwt>
<pdfrwt beam="2">  1       22 0.17090132E+00 0.51311573E+02</pdfrwt>
<totfact> 0.60156627E-01</totfact>
</mgrwt>
</event>
<event>
 4    1  0.2409985E+000  0.5370545E+02  0.7957747E-01  0.1426322E+00
         13   -1    0    0    0    0  0.00000000000E+00  0.00000000000E+00  0.99999944185E+02  0.10000000000E+03  0.10566000000E+00 0. -1.
         22   -1    0    0    0    0 -0.00000000000E+00 -0.00000000000E+00 -0.14152866384E+02  0.14152866384E+02  0.00000000000E+00 0. -1.
         13    1    1    2    0    0 -0.19503167283E+02  0.19753335495E+01  0.35423642381E+02  0.40486060321E+02  0.10566000000E+00 0.  1.
        996    1    1    2    0    0  0.19503167283E+02 -0.19753335495E+01  0.50423435420E+02  0.73666806068E+02  0.50000000000E+02 0.  0.
<mgrwt>
<rscale>  0 0.53705451E+02</rscale>
<asrwt>0</asrwt>
<pdfrwt beam="1">  1       13 0.10000000E+01 0.53705451E+02</pdfrwt>
<pdfrwt beam="2">  1       22 0.14152890E+00 0.53705451E+02</pdfrwt>
<totfact> 0.83144482E-01</totfact>
</mgrwt>
</event>
<event>
 4    1  0.2409985E+000  0.5185206E+02  0.7957747E-01  0.1435601E+00
         13   -1    0    0    0    0  0.00000000000E+00  0.00000000000E+00  0.99999944172E+02  0.99999999992E+02  0.10566000000E+00 0. -1.
         22   -1    0    0    0    0 -0.00000000000E+00 -0.00000000000E+00 -0.13923546209E+02  0.13923546209E+02  0.00000000000E+00 0. -1.
         13    1    1    2    0    0 -0.46906411528E+01  0.12908678177E+02  0.35467991490E+00  0.13739470462E+02  0.10566000000E+00 0.  1.
        996    1    1    2    0    0  0.46906411528E+01 -0.12908678177E+02  0.85721718048E+02  0.10018407574E+03  0.50000000000E+02 0.  0.
<mgrwt>
<rscale>  0 0.51852060E+02</rscale>
<asrwt>0</asrwt>
<pdfrwt beam="1">  1       13 0.10000000E+01 0.51852060E+02</pdfrwt>
<pdfrwt beam="2">  1       22 0.13923570E+00 0.51852060E+02</pdfrwt>
<totfact> 0.85051900E-01</totfact>
</mgrwt>
</event>
<event>
 4    1  0.2409985E+000  0.5210742E+02  0.7957747E-01  0.1434295E+00
         13   -1    0    0    0    0  0.00000000000E+00  0.00000000000E+00  0.99999944179E+02  0.99999999999E+02  0.10566000000E+00 0. -1.
         22   -1    0    0    0    0 -0.00000000000E+00 -0.00000000000E+00 -0.17903986621E+02  0.17903986621E+02  0.00000000000E+00 0.  1.
         13    1    1    2    0    0  0.99713549199E+01 -0.10758950826E+02 -0.57583223905E+01  0.15759199935E+02  0.10566000000E+00 0.  1.
        996    1    1    2    0    0 -0.99713549199E+01  0.10758950826E+02  0.87854279948E+02  0.10214478668E+03  0.50000000000E+02 0.  0.
<mgrwt>
<rscale>  0 0.52107417E+02</rscale>
<asrwt>0</asrwt>
<pdfrwt beam="1">  1       13 0.10000000E+01 0.52107417E+02</pdfrwt>
<pdfrwt beam="2">  1       22 0.17904010E+00 0.52107417E+02</pdfrwt>
<totfact> 0.55480449E-01</totfact>
</mgrwt>
</event>
<event>
 4    1  0.2409985E+000  0.5151123E+02  0.7957747E-01  0.1437357E+00
         13   -1    0    0    0    0  0.00000000000E+00  0.00000000000E+00  0.99999944184E+02  0.10000000000E+03  0.10566000000E+00 0. -1.
         22   -1    0    0    0    0 -0.00000000000E+00 -0.00000000000E+00 -0.15972759701E+02  0.15972759701E+02  0.00000000000E+00 0.  1.
         13    1    1    2    0    0 -0.42023867544E+01  0.11651047317E+02 -0.48053837998E+01  0.13285700415E+02  0.10566000000E+00 0.  1.
        996    1    1    2    0    0  0.42023867544E+01 -0.11651047317E+02  0.88832568283E+02  0.10268705929E+03  0.50000000000E+02 0.  0.
<mgrwt>
<rscale>  0 0.51511231E+02</rscale>
<asrwt>0</asrwt>
<pdfrwt beam="1">  1       13 0.10000000E+01 0.51511231E+02</pdfrwt>
<pdfrwt beam="2">  1       22 0.15972783E+00 0.51511231E+02</pdfrwt>
<totfact> 0.67655502E-01</totfact>
</mgrwt>
</event>
<event>
 4    1  0.2409985E+000  0.5113295E+02  0.7957747E-01  0.1439325E+00
         13   -1    0    0    0    0  0.00000000000E+00  0.00000000000E+00  0.99999944176E+02  0.99999999997E+02  0.10566000000E+00 0.  1.
         22   -1    0    0    0    0 -0.00000000000E+00 -0.00000000000E+00 -0.13994607949E+02  0.13994607949E+02  0.00000000000E+00 0.  1.
         13    1    1    2    0    0 -0.10701246438E+02  0.24933830579E+00 -0.32007023773E+01  0.11172936259E+02  0.10566000000E+00 0. -1.
        996    1    1    2    0    0  0.10701246438E+02 -0.24933830579E+00  0.89206038605E+02  0.10282167169E+03  0.50000000000E+02 0.  0.
<mgrwt>
<rscale>  0 0.51132953E+02</rscale>
<asrwt>0</asrwt>
<pdfrwt beam="1">  1       13 0.10000000E+01 0.51132953E+02</pdfrwt>
<pdfrwt beam="2">  1       22 0.13994632E+00 0.51132953E+02</pdfrwt>
<totfact> 0.84225204E-01</totfact>
</mgrwt>
</event>
<event>
 4    1  0.2409985E+000  0.5132041E+02  0.7957747E-01  0.1438347E+00
         13   -1    0    0    0    0  0.00000000000E+00  0.00000000000E+00  0.99999944174E+02  0.99999999994E+02  0.10566000000E+00 0. -1.
         22   -1    0    0    0    0 -0.00000000000E+00 -0.00000000000E+00 -0.19885356014E+02  0.19885356014E+02  0.00000000000E+00 0.  1.
         13    1    1    2    0    0 -0.16949728889E+00 -0.11565303615E+02 -0.10581012430E+02  0.15676541873E+02  0.10566000000E+00 0.  1.
        996    1    1    2    0    0  0.16949728889E+00  0.11565303615E+02  0.90695600589E+02  0.10420881413E+03  0.50000000000E+02 0.  0.
<mgrwt>
<rscale>  0 0.51320415E+02</rscale>
<asrwt>0</asrwt>
<pdfrwt beam="1">  1       13 0.10000000E+01 0.51320415E+02</pdfrwt>
<pdfrwt beam="2">  1       22 0.19885378E+00 0.51320415E+02</pdfrwt>
<totfact> 0.45739466E-01</totfact>
</mgrwt>
</event>
<event>
 4    1  0.2409985E+000  0.5670235E+02  0.7957747E-01  0.1412216E+00
         13   -1    0    0    0    0  0.00000000000E+00  0.00000000000E+00  0.99999944172E+02  0.99999999992E+02  0.10566000000E+00 0.  1.
         22   -1    0    0    0    0 -0.00000000000E+00 -0.00000000000E+00 -0.28826603669E+02  0.28826603669E+02  0.00000000000E+00 0. -1.
         13    1    1    2    0    0  0.35500827071E+01 -0.26505728064E+02 -0.11059856681E+02  0.28939390133E+02  0.10566000000E+00 0. -1.
        996    1    1    2    0    0 -0.35500827071E+01  0.26505728064E+02  0.82233197183E+02  0.99887213528E+02  0.50000000000E+02 0.  0.
<mgrwt>
<rscale>  0 0.56702352E+02</rscale>
<asrwt>0</asrwt>
<pdfrwt beam="1">  1       13 0.10000000E+01 0.56702352E+02</pdfrwt>
<pdfrwt beam="2">  1       22 0.28826624E+00 0.56702352E+02</pdfrwt>
<totfact> 0.22464669E-01</totfact>
</mgrwt>
</event>
<event>
 4    1  0.2409985E+000  0.5663428E+02  0.7957747E-01  0.1412525E+00
         13   -1    0    0    0    0  0.00000000000E+00  0.00000000000E+00  0.99999944185E+02  0.10000000000E+03  0.10566000000E+00 0. -1.
         22   -1    0    0    0    0 -0.00000000000E+00 -0.00000000000E+00 -0.21348764226E+02  0.21348764226E+02  0.00000000000E+00 0.  1.
         13    1    1    2    0    0  0.22666380980E+02  0.13916772014E+02  0.28833475450E+01  0.26753807713E+02  0.10566000000E+00 0.  1.
        996    1    1    2    0    0 -0.22666380980E+02 -0.13916772014E+02  0.75767832414E+02  0.94594956518E+02  0.50000000000E+02 0.  0.
<mgrwt>
<rscale>  0 0.56634277E+02</rscale>
<asrwt>0</asrwt>
<pdfrwt beam="1">  1       13 0.10000000E+01 0.56634277E+02</pdfrwt>
<pdfrwt beam="2">  1       22 0.21348786E+00 0.56634277E+02</pdfrwt>
<totfact> 0.40369159E-01</totfact>
</mgrwt>
</event>
<event>
 4    1  0.2409985E+000  0.5169394E+02  0.7957747E-01  0.1436413E+00
         13   -1    0    0    0    0  0.00000000000E+00  0.00000000000E+00  0.99999944182E+02  0.10000000000E+03  0.10566000000E+00 0.  1.
         22   -1    0    0    0    0 -0.00000000000E+00 -0.00000000000E+00 -0.62073872759E+02  0.62073872759E+02  0.00000000000E+00 0. -1.
         13    1    1    2    0    0  0.10434491796E+02  0.79614528602E+01 -0.54562597718E+02  0.56119083959E+02  0.10566000000E+00 0. -1.
        996    1    1    2    0    0 -0.10434491796E+02 -0.79614528602E+01  0.92488669140E+02  0.10595478880E+03  0.50000000000E+02 0.  0.
<mgrwt>
<rscale>  0 0.51693939E+02</rscale>
<asrwt>0</asrwt>
<pdfrwt beam="1">  1       13 0.10000000E+01 0.51693939E+02</pdfrwt>
<pdfrwt beam="2">  1       22 0.62073883E+00 0.51693939E+02</pdfrwt>
<totfact> 0.73345110E-02</totfact>
</mgrwt>
</event>
<event>
 4    1  0.2409985E+000  0.5108478E+02  0.7957747E-01  0.1439577E+00
         13   -1    0    0    0    0  0.00000000000E+00  0.00000000000E+00  0.99999944183E+02  0.10000000000E+03  0.10566000000E+00 0.  1.
         22   -1    0    0    0    0 -0.00000000000E+00 -0.00000000000E+00 -0.95354413212E+01  0.95354413212E+01  0.00000000000E+00 0.  1.
         13    1    1    2    0    0  0.77210280139E+01 -0.70739345526E+01  0.18920788256E+02  0.21625499206E+02  0.10566000000E+00 0. -1.
        996    1    1    2    0    0 -0.77210280139E+01  0.70739345526E+01  0.71543714606E+02  0.87909942119E+02  0.50000000000E+02 0.  0.
<mgrwt>
<rscale>  0 0.51084781E+02</rscale>
<asrwt>0</asrwt>
<pdfrwt beam="1">  1       13 0.10000000E+01 0.51084781E+02</pdfrwt>
<pdfrwt beam="2">  1       22 0.95354666E-01 0.51084781E+02</pdfrwt>
<totfact> 0.15063218E+00</totfact>
</mgrwt>
</event>
<event>
 4    1  0.2409985E+000  0.5417526E+02  0.7957747E-01  0.1424040E+00
         13   -1    0    0    0    0  0.00000000000E+00  0.00000000000E+00  0.99999944185E+02  0.10000000000E+03  0.10566000000E+00 0. -1.
         22   -1    0    0    0    0 -0.00000000000E+00 -0.00000000000E+00 -0.17786541773E+02  0.17786541773E+02  0.00000000000E+00 0. -1.
         13    1    1    2    0    0 -0.11494854898E+02  0.17401913387E+02  0.19447567153E+01  0.20946396381E+02  0.10566000000E+00 0.  1.
        996    1    1    2    0    0  0.11494854898E+02 -0.17401913387E+02  0.80268645696E+02  0.96840145397E+02  0.50000000000E+02 0.  0.
<mgrwt>
<rscale>  0 0.54175255E+02</rscale>
<asrwt>0</asrwt>
<pdfrwt beam="1">  1       13 0.10000000E+01 0.54175255E+02</pdfrwt>
<pdfrwt beam="2">  1       22 0.17786565E+00 0.54175255E+02</pdfrwt>
<totfact> 0.56352517E-01</totfact>
</mgrwt>
</event>
<event>
 4    1  0.2409985E+000  0.7954167E+02  0.7957747E-01  0.1330357E+00
         13   -1    0    0    0    0  0.00000000000E+00  0.00000000000E+00  0.99999944169E+02  0.99999999990E+02  0.10566000000E+00 0.  1.
         22   -1    0    0    0    0 -0.00000000000E+00 -0.00000000000E+00 -0.60274539797E+02  0.60274539797E+02  0.00000000000E+00 0. -1.
         13    1    1    2    0    0 -0.43367388056E+02  0.44115159123E+02 -0.15088240069E+02  0.63675299478E+02  0.10566000000E+00 0. -1.
        996    1    1    2    0    0  0.43367388056E+02 -0.44115159123E+02  0.54813644441E+02  0.96599240308E+02  0.50000000000E+02 0.  0.
<mgrwt>
<rscale>  0 0.79541672E+02</rscale>
<asrwt>0</asrwt>
<pdfrwt beam="1">  1       13 0.10000000E+01 0.79541672E+02</pdfrwt>
<pdfrwt beam="2">  1       22 0.60274551E+00 0.79541672E+02</pdfrwt>
<totfact> 0.64758813E-02</totfact>
</mgrwt>
</event>
<event>
 4    1  0.2409985E+000  0.5195680E+02  0.7957747E-01  0.1435064E+00
         13   -1    0    0    0    0  0.00000000000E+00  0.00000000000E+00  0.99999944176E+02  0.99999999996E+02  0.10566000000E+00 0.  1.
         22   -1    0    0    0    0 -0.00000000000E+00 -0.00000000000E+00 -0.11782942259E+02  0.11782942259E+02  0.00000000000E+00 0.  1.
         13    1    1    2    0    0 -0.78742044698E+01 -0.11726306945E+02  0.80689786270E+01  0.16267419916E+02  0.10566000000E+00 0. -1.
        996    1    1    2    0    0  0.78742044698E+01  0.11726306945E+02  0.80148023289E+02  0.95515522340E+02  0.50000000000E+02 0.  0.
<mgrwt>
<rscale>  0 0.51956803E+02</rscale>
<asrwt>0</asrwt>
<pdfrwt beam="1">  1       13 0.10000000E+01 0.51956803E+02</pdfrwt>
<pdfrwt beam="2">  1       22 0.11782967E+00 0.51956803E+02</pdfrwt>
<totfact> 0.11052078E+00</totfact>
</mgrwt>
</event>
<event>
 4    1  0.2409985E+000  0.5127752E+02  0.7957747E-01  0.1438570E+00
         13   -1    0    0    0    0  0.00000000000E+00  0.00000000000E+00  0.99999944174E+02  0.99999999994E+02  0.10566000000E+00 0.  1.
         22   -1    0    0    0    0 -0.00000000000E+00 -0.00000000000E+00 -0.41825912784E+02  0.41825912784E+02  0.00000000000E+00 0. -1.
         13    1    1    2    0    0  0.11848974782E+01 -0.11312821489E+02 -0.34272272564E+02  0.36110715069E+02  0.10566000000E+00 0. -1.
        996    1    1    2    0    0 -0.11848974782E+01  0.11312821489E+02  0.92446303953E+02  0.10571519771E+03  0.50000000000E+02 0.  0.
<mgrwt>
<rscale>  0 0.51277519E+02</rscale>
<asrwt>0</asrwt>
<pdfrwt beam="1">  1       13 0.10000000E+01 0.51277519E+02</pdfrwt>
<pdfrwt beam="2">  1       22 0.41825929E+00 0.51277519E+02</pdfrwt>
<totfact> 0.11325121E-01</totfact>
</mgrwt>
</event>
<event>
 4    1  0.2409985E+000  0.5349533E+02  0.7957747E-01  0.1427352E+00
         13   -1    0    0    0    0  0.00000000000E+00  0.00000000000E+00  0.99999944176E+02  0.99999999996E+02  0.10566000000E+00 0. -1.
         22   -1    0    0    0    0 -0.00000000000E+00 -0.00000000000E+00 -0.13712276810E+02  0.13712276810E+02  0.00000000000E+00 0. -1.
         13    1    1    2    0    0 -0.82148482617E+01  0.17154195394E+02  0.13254756512E+02  0.23182965423E+02  0.10566000000E+00 0.  1.
        996    1    1    2    0    0  0.82148482617E+01 -0.17154195394E+02  0.73032910855E+02  0.90529311383E+02  0.50000000000E+02 0.  0.
<mgrwt>
<rscale>  0 0.53495328E+02</rscale>
<asrwt>0</asrwt>
<pdfrwt beam="1">  1       13 0.10000000E+01 0.53495328E+02</pdfrwt>
<pdfrwt beam="2">  1       22 0.13712301E+00 0.53495328E+02</pdfrwt>
<totfact> 0.87474781E-01</totfact>
</mgrwt>
</event>
<event>
 4    1  0.2409985E+000  0.5471003E+02  0.7957747E-01  0.1421475E+00
         13   -1    0    0    0    0  0.00000000000E+00  0.00000000000E+00  0.99999944189E+02  0.10000000001E+03  0.10566000000E+00 0.  1.
         22   -1    0    0    0    0 -0.00000000000E+00 -0.00000000000E+00 -0.47487077926E+02  0.47487077926E+02  0.00000000000E+00 0. -1.
         13    1    1    2    0    0  0.17883760955E+02  0.13166550395E+02 -0.36663955457E+02  0.42865414368E+02  0.10566000000E+00 0. -1.
        996    1    1    2    0    0 -0.17883760955E+02 -0.13166550395E+02  0.89176821721E+02  0.10462166357E+03  0.50000000000E+02 0.  0.
<mgrwt>
<rscale>  0 0.54710026E+02</rscale>
<asrwt>0</asrwt>
<pdfrwt beam="1">  1       13 0.10000000E+01 0.54710026E+02</pdfrwt>
<pdfrwt beam="2">  1       22 0.47487093E+00 0.54710026E+02</pdfrwt>
<totfact> 0.84719365E-02</totfact>
</mgrwt>
</event>
<event>
 4    1  0.2409985E+000  0.5228154E+02  0.7957747E-01  0.1433410E+00
         13   -1    0    0    0    0  0.00000000000E+00  0.00000000000E+00  0.99999944178E+02  0.99999999998E+02  0.10566000000E+00 0.  1.
         22   -1    0    0    0    0 -0.00000000000E+00 -0.00000000000E+00 -0.11896926889E+02  0.11896926889E+02  0.00000000000E+00 0.  1.
         13    1    1    2    0    0 -0.10674294804E+02 -0.10927908251E+02  0.11358793944E+02  0.19036625547E+02  0.10566000000E+00 0. -1.
        996    1    1    2    0    0  0.10674294804E+02  0.10927908251E+02  0.76744223345E+02  0.92860301341E+02  0.50000000000E+02 0.  0.
<mgrwt>
<rscale>  0 0.52281543E+02</rscale>
<asrwt>0</asrwt>
<pdfrwt beam="1">  1       13 0.10000000E+01 0.52281543E+02</pdfrwt>
<pdfrwt beam="2">  1       22 0.11896951E+00 0.52281543E+02</pdfrwt>
<totfact> 0.10899035E+00</totfact>
</mgrwt>
</event>
<event>
 4    1  0.2409985E+000  0.5559801E+02  0.7957747E-01  0.1417292E+00
         13   -1    0    0    0    0  0.00000000000E+00  0.00000000000E+00  0.99999944173E+02  0.99999999993E+02  0.10566000000E+00 0. -1.
         22   -1    0    0    0    0 -0.00000000000E+00 -0.00000000000E+00 -0.62905120374E+02  0.62905120374E+02  0.00000000000E+00 0.  1.
         13    1    1    2    0    0 -0.14686108946E+01 -0.24268954178E+02 -0.52274952305E+02  0.57652586736E+02  0.10566000000E+00 0.  1.
        996    1    1    2    0    0  0.14686108946E+01  0.24268954178E+02  0.89369776104E+02  0.10525253363E+03  0.50000000000E+02 0.  0.
<mgrwt>
<rscale>  0 0.55598012E+02</rscale>
<asrwt>0</asrwt>
<pdfrwt beam="1">  1       13 0.10000000E+01 0.55598012E+02</pdfrwt>
<pdfrwt beam="2">  1       22 0.62905131E+00 0.55598012E+02</pdfrwt>
<totfact> 0.78195911E-02</totfact>
</mgrwt>
</event>
<event>
 4    1  0.2409985E+000  0.5190517E+02  0.7957747E-01  0.1435328E+00
         13   -1    0    0    0    0  0.00000000000E+00  0.00000000000E+00  0.99999944176E+02  0.99999999997E+02  0.10566000000E+00 0. -1.
         22   -1    0    0    0    0 -0.00000000000E+00 -0.00000000000E+00 -0.12112226597E+02  0.12112226597E+02  0.00000000000E+00 0. -1.
         13    1    1    2    0    0 -0.49386789701E+01  0.13029049541E+02  0.36512736686E+02  0.39081169203E+02  0.10566000000E+00 0.  1.
        996    1    1    2    0    0  0.49386789701E+01 -0.13029049541E+02  0.51374980893E+02  0.73031057391E+02  0.50000000000E+02 0.  0.
<mgrwt>
<rscale>  0 0.51905170E+02</rscale>
<asrwt>0</asrwt>
<pdfrwt beam="1">  1       13 0.10000000E+01 0.51905170E+02</pdfrwt>
<pdfrwt beam="2">  1       22 0.12112251E+00 0.51905170E+02</pdfrwt>
<totfact> 0.10594721E+00</totfact>
</mgrwt>
</event>
<event>
 4    1  0.2409985E+000  0.5156265E+02  0.7957747E-01  0.1437091E+00
         13   -1    0    0    0    0  0.00000000000E+00  0.00000000000E+00  0.99999944180E+02  0.10000000000E+03  0.10566000000E+00 0. -1.
         22   -1    0    0    0    0 -0.00000000000E+00 -0.00000000000E+00 -0.15867602562E+02  0.15867602562E+02  0.00000000000E+00 0.  1.
         13    1    1    2    0    0 -0.42025393879E+01 -0.11876278842E+02 -0.44582648133E+01  0.13363930022E+02  0.10566000000E+00 0.  1.
        996    1    1    2    0    0  0.42025393879E+01  0.11876278842E+02  0.88590606431E+02  0.10250367254E+03  0.50000000000E+02 0.  0.
<mgrwt>
<rscale>  0 0.51562654E+02</rscale>
<asrwt>0</asrwt>
<pdfrwt beam="1">  1       13 0.10000000E+01 0.51562654E+02</pdfrwt>
<pdfrwt beam="2">  1       22 0.15867626E+00 0.51562654E+02</pdfrwt>
<totfact> 0.68429141E-01</totfact>
</mgrwt>
</event>
<event>
 4    1  0.2409985E+000  0.5403099E+02  0.7957747E-01  0.1424738E+00
         13   -1    0    0    0    0  0.00000000000E+00  0.00000000000E+00  0.99999944172E+02  0.99999999992E+02  0.10566000000E+00 0. -1.
         22   -1    0    0    0    0 -0.00000000000E+00 -0.00000000000E+00 -0.28037647850E+02  0.28037647850E+02  0.00000000000E+00 0.  1.
         13    1    1    2    0    0  0.19097103030E+02 -0.73924725830E+01 -0.15189058110E+02  0.25496404557E+02  0.10566000000E+00 0.  1.
        996    1    1    2    0    0 -0.19097103030E+02  0.73924725830E+01  0.87151354433E+02  0.10254124329E+03  0.50000000000E+02 0.  0.
<mgrwt>
<rscale>  0 0.54030991E+02</rscale>
<asrwt>0</asrwt>
<pdfrwt beam="1">  1       13 0.10000000E+01 0.54030991E+02</pdfrwt>
<pdfrwt beam="2">  1       22 0.28037668E+00 0.54030991E+02</pdfrwt>
<totfact> 0.23616256E-01</totfact>
</mgrwt>
</event>
<event>
 4    1  0.2409985E+000  0.5309796E+02  0.7957747E-01  0.1429314E+00
         13   -1    0    0    0    0  0.00000000000E+00  0.00000000000E+00  0.99999944182E+02  0.10000000000E+03  0.10566000000E+00 0.  1.
         22   -1    0    0    0    0 -0.00000000000E+00 -0.00000000000E+00 -0.12594223047E+02  0.12594223047E+02  0.00000000000E+00 0.  1.
         13    1    1    2    0    0 -0.14074115022E+02 -0.11014203702E+02  0.22696335181E+02  0.28888201597E+02  0.10566000000E+00 0. -1.
        996    1    1    2    0    0  0.14074115022E+02  0.11014203702E+02  0.64709385954E+02  0.83706021452E+02  0.50000000000E+02 0.  0.
<mgrwt>
<rscale>  0 0.53097960E+02</rscale>
<asrwt>0</asrwt>
<pdfrwt beam="1">  1       13 0.10000000E+01 0.53097960E+02</pdfrwt>
<pdfrwt beam="2">  1       22 0.12594247E+00 0.53097960E+02</pdfrwt>
<totfact> 0.99998994E-01</totfact>
</mgrwt>
</event>
<event>
 4    1  0.2409985E+000  0.5130768E+02  0.7957747E-01  0.1438413E+00
         13   -1    0    0    0    0  0.00000000000E+00  0.00000000000E+00  0.99999944181E+02  0.10000000000E+03  0.10566000000E+00 0. -1.
         22   -1    0    0    0    0 -0.00000000000E+00 -0.00000000000E+00 -0.10145661693E+02  0.10145661693E+02  0.00000000000E+00 0. -1.
         13    1    1    2    0    0  0.84957488965E+01 -0.77652986608E+01  0.10101638997E+02  0.15314433946E+02  0.10566000000E+00 0.  1.
        996    1    1    2    0    0 -0.84957488965E+01  0.77652986608E+01  0.79752643490E+02  0.94831227749E+02  0.50000000000E+02 0.  0.
<mgrwt>
<rscale>  0 0.51307676E+02</rscale>
<asrwt>0</asrwt>
<pdfrwt beam="1">  1       13 0.10000000E+01 0.51307676E+02</pdfrwt>
<pdfrwt beam="2">  1       22 0.10145687E+00 0.51307676E+02</pdfrwt>
<totfact> 0.13782075E+00</totfact>
</mgrwt>
</event>
<event>
 4    1  0.2409985E+000  0.5110546E+02  0.7957747E-01  0.1439469E+00
         13   -1    0    0    0    0  0.00000000000E+00  0.00000000000E+00  0.99999944177E+02  0.99999999997E+02  0.10566000000E+00 0. -1.
         22   -1    0    0    0    0 -0.00000000000E+00 -0.00000000000E+00 -0.95587095017E+01  0.95587095017E+01  0.00000000000E+00 0. -1.
         13    1    1    2    0    0 -0.76014707264E+01 -0.73474722990E+01  0.18593590681E+02  0.21389260970E+02  0.10566000000E+00 0.  1.
        996    1    1    2    0    0  0.76014707264E+01  0.73474722990E+01  0.71847643994E+02  0.88169448529E+02  0.50000000000E+02 0.  0.
<mgrwt>
<rscale>  0 0.51105457E+02</rscale>
<asrwt>0</asrwt>
<pdfrwt beam="1">  1       13 0.10000000E+01 0.51105457E+02</pdfrwt>
<pdfrwt beam="2">  1       22 0.95587347E-01 0.51105457E+02</pdfrwt>
<totfact> 0.15011563E+00</totfact>
</mgrwt>
</event>
<event>
 4    1  0.2409985E+000  0.5644802E+02  0.7957747E-01  0.1413373E+00
         13   -1    0    0    0    0  0.00000000000E+00  0.00000000000E+00  0.99999944174E+02  0.99999999994E+02  0.10566000000E+00 0.  1.
         22   -1    0    0    0    0 -0.00000000000E+00 -0.00000000000E+00 -0.22180175369E+02  0.22180175369E+02  0.00000000000E+00 0. -1.
         13    1    1    2    0    0  0.23262928817E+02 -0.12050545574E+02  0.19336674997E+00  0.26199772146E+02  0.10566000000E+00 0. -1.
        996    1    1    2    0    0 -0.23262928817E+02  0.12050545574E+02  0.77626402054E+02  0.95980403217E+02  0.50000000000E+02 0.  0.
<mgrwt>
<rscale>  0 0.56448025E+02</rscale>
<asrwt>0</asrwt>
<pdfrwt beam="1">  1       13 0.10000000E+01 0.56448025E+02</pdfrwt>
<pdfrwt beam="2">  1       22 0.22180197E+00 0.56448025E+02</pdfrwt>
<totfact> 0.37501868E-01</totfact>
</mgrwt>
</event>
<event>
 4    1  0.2409985E+000  0.6381274E+02  0.7957747E-01  0.1382494E+00
         13   -1    0    0    0    0  0.00000000000E+00  0.00000000000E+00  0.99999944178E+02  0.99999999998E+02  0.10566000000E+00 0. -1.
         22   -1    0    0    0    0 -0.00000000000E+00 -0.00000000000E+00 -0.36522982220E+02  0.36522982220E+02  0.00000000000E+00 0.  1.
         13    1    1    2    0    0 -0.64071750094E+01  0.39128168164E+02 -0.82710986510E+01  0.40502934121E+02  0.10566000000E+00 0.  1.
        996    1    1    2    0    0  0.64071750094E+01 -0.39128168164E+02  0.71748060609E+02  0.96020048097E+02  0.50000000000E+02 0.  0.
<mgrwt>
<rscale>  0 0.63812737E+02</rscale>
<asrwt>0</asrwt>
<pdfrwt beam="1">  1       13 0.10000000E+01 0.63812737E+02</pdfrwt>
<pdfrwt beam="2">  1       22 0.36523000E+00 0.63812737E+02</pdfrwt>
<totfact> 0.14735143E-01</totfact>
</mgrwt>
</event>
<event>
 4    1  0.2409985E+000  0.6102853E+02  0.7957747E-01  0.1393565E+00
         13   -1    0    0    0    0  0.00000000000E+00  0.00000000000E+00  0.99999944175E+02  0.99999999995E+02  0.10566000000E+00 0. -1.
         22   -1    0    0    0    0 -0.00000000000E+00 -0.00000000000E+00 -0.23575639037E+02  0.23575639037E+02  0.00000000000E+00 0. -1.
         13    1    1    2    0    0  0.18196925228E+02  0.29889012554E+02  0.19195370837E+02  0.39911835147E+02  0.10566000000E+00 0.  1.
        996    1    1    2    0    0 -0.18196925228E+02 -0.29889012554E+02  0.57228934301E+02  0.83663803885E+02  0.50000000000E+02 0.  0.
<mgrwt>
<rscale>  0 0.61028527E+02</rscale>
<asrwt>0</asrwt>
<pdfrwt beam="1">  1       13 0.10000000E+01 0.61028527E+02</pdfrwt>
<pdfrwt beam="2">  1       22 0.23575660E+00 0.61028527E+02</pdfrwt>
<totfact> 0.33524350E-01</totfact>
</mgrwt>
</event>
<event>
 4    1  0.2409985E+000  0.5150310E+02  0.7957747E-01  0.1437399E+00
         13   -1    0    0    0    0  0.00000000000E+00  0.00000000000E+00  0.99999944185E+02  0.10000000001E+03  0.10566000000E+00 0. -1.
         22   -1    0    0    0    0 -0.00000000000E+00 -0.00000000000E+00 -0.10580800309E+02  0.10580800309E+02  0.00000000000E+00 0. -1.
         13    1    1    2    0    0 -0.11776832968E+02 -0.37249802885E+01  0.98547757494E+01  0.15801805024E+02  0.10566000000E+00 0.  1.
        996    1    1    2    0    0  0.11776832968E+02  0.37249802885E+01  0.79564368127E+02  0.94778995291E+02  0.50000000000E+02 0.  0.
<mgrwt>
<rscale>  0 0.51503100E+02</rscale>
<asrwt>0</asrwt>
<pdfrwt beam="1">  1       13 0.10000000E+01 0.51503100E+02</pdfrwt>
<pdfrwt beam="2">  1       22 0.10580825E+00 0.51503100E+02</pdfrwt>
<totfact> 0.12967322E+00</totfact>
</mgrwt>
</event>
<event>
 4    1  0.2409985E+000  0.5565383E+02  0.7957747E-01  0.1417032E+00
         13   -1    0    0    0    0  0.00000000000E+00  0.00000000000E+00  0.99999944180E+02  0.10000000000E+03  0.10566000000E+00 0.  1.
         22   -1    0    0    0    0 -0.00000000000E+00 -0.00000000000E+00 -0.20633262160E+02  0.20633262160E+02  0.00000000000E+00 0. -1.
         13    1    1    2    0    0  0.17440057027E+02  0.17122891936E+02  0.93069671648E+00  0.24458666721E+02  0.10566000000E+00 0. -1.
        996    1    1    2    0    0 -0.17440057027E+02 -0.17122891936E+02  0.78435985303E+02  0.96174595439E+02  0.50000000000E+02 0.  0.
<mgrwt>
<rscale>  0 0.55653832E+02</rscale>
<asrwt>0</asrwt>
<pdfrwt beam="1">  1       13 0.10000000E+01 0.55653832E+02</pdfrwt>
<pdfrwt beam="2">  1       22 0.20633284E+00 0.55653832E+02</pdfrwt>
<totfact> 0.43001744E-01</totfact>
</mgrwt>
</event>
<event>
 4    1  0.2409985E+000  0.5180212E+02  0.7957747E-01  0.1435857E+00
         13   -1    0    0    0    0  0.00000000000E+00  0.00000000000E+00  0.99999944184E+02  0.10000000000E+03  0.10566000000E+00 0. -1.
         22   -1    0    0    0    0 -0.00000000000E+00 -0.00000000000E+00 -0.11721175580E+02  0.11721175580E+02  0.00000000000E+00 0. -1.
         13    1    1    2    0    0 -0.13265540744E+02  0.27359534846E+01  0.67668014211E+01  0.15141359854E+02  0.10566000000E+00 0.  1.
        996    1    1    2    0    0  0.13265540744E+02 -0.27359534846E+01  0.81511967183E+02  0.96579815731E+02  0.50000000000E+02 0.  0.
<mgrwt>
<rscale>  0 0.51802124E+02</rscale>
<asrwt>0</asrwt>
<pdfrwt beam="1">  1       13 0.10000000E+01 0.51802124E+02</pdfrwt>
<pdfrwt beam="2">  1       22 0.11721200E+00 0.51802124E+02</pdfrwt>
<totfact> 0.11136773E+00</totfact>
</mgrwt>
</event>
<event>
 4    1  0.2409985E+000  0.5176938E+02  0.7957747E-01  0.1436025E+00
         13   -1    0    0    0    0  0.00000000000E+00  0.00000000000E+00  0.99999944170E+02  0.99999999990E+02  0.10566000000E+00 0. -1.
         22   -1    0    0    0    0 -0.00000000000E+00 -0.00000000000E+00 -0.17124731336E+02  0.17124731336E+02  0.00000000000E+00 0.  1.
         13    1    1    2    0    0 -0.59073947071E+01 -0.12048703601E+02 -0.56604448671E+01  0.14564352743E+02  0.10566000000E+00 0.  1.
        996    1    1    2    0    0  0.59073947071E+01  0.12048703601E+02  0.88535657701E+02  0.10256037858E+03  0.50000000000E+02 0.  0.
<mgrwt>
<rscale>  0 0.51769379E+02</rscale>
<asrwt>0</asrwt>
<pdfrwt beam="1">  1       13 0.10000000E+01 0.51769379E+02</pdfrwt>
<pdfrwt beam="2">  1       22 0.17124754E+00 0.51769379E+02</pdfrwt>
<totfact> 0.59996705E-01</totfact>
</mgrwt>
</event>
<event>
 4    1  0.2409985E+000  0.5441941E+02  0.7957747E-01  0.1422865E+00
         13   -1    0    0    0    0  0.00000000000E+00  0.00000000000E+00  0.99999944177E+02  0.99999999997E+02  0.10566000000E+00 0.  1.
         22   -1    0    0    0    0 -0.00000000000E+00 -0.00000000000E+00 -0.19751617606E+02  0.19751617606E+02  0.00000000000E+00 0. -1.
         13    1    1    2    0    0  0.21143307731E+02  0.37990675970E+01 -0.15132362497E+01  0.21535399332E+02  0.10566000000E+00 0. -1.
        996    1    1    2    0    0 -0.21143307731E+02 -0.37990675970E+01  0.81761562821E+02  0.98216218270E+02  0.50000000000E+02 0.  0.
<mgrwt>
<rscale>  0 0.54419412E+02</rscale>
<asrwt>0</asrwt>
<pdfrwt beam="1">  1       13 0.10000000E+01 0.54419412E+02</pdfrwt>
<pdfrwt beam="2">  1       22 0.19751640E+00 0.54419412E+02</pdfrwt>
<totfact> 0.46572363E-01</totfact>
</mgrwt>
</event>
<event>
 4    1  0.2409985E+000  0.5271048E+02  0.7957747E-01  0.1431247E+00
         13   -1    0    0    0    0  0.00000000000E+00  0.00000000000E+00  0.99999944184E+02  0.10000000000E+03  0.10566000000E+00 0. -1.
         22   -1    0    0    0    0 -0.00000000000E+00 -0.00000000000E+00 -0.19508955466E+02  0.19508955466E+02  0.00000000000E+00 0.  1.
         13    1    1    2    0    0 -0.16354163442E+02 -0.33069316783E+01 -0.64076047740E+01  0.17873528527E+02  0.10566000000E+00 0.  1.
        996    1    1    2    0    0  0.16354163442E+02  0.33069316783E+01  0.86898593492E+02  0.10163542694E+03  0.50000000000E+02 0.  0.
<mgrwt>
<rscale>  0 0.52710478E+02</rscale>
<asrwt>0</asrwt>
<pdfrwt beam="1">  1       13 0.10000000E+01 0.52710478E+02</pdfrwt>
<pdfrwt beam="2">  1       22 0.19508978E+00 0.52710478E+02</pdfrwt>
<totfact> 0.47509519E-01</totfact>
</mgrwt>
</event>
<event>
 4    1  0.2409985E+000  0.5411032E+02  0.7957747E-01  0.1424354E+00
         13   -1    0    0    0    0  0.00000000000E+00  0.00000000000E+00  0.99999944177E+02  0.99999999997E+02  0.10566000000E+00 0. -1.
         22   -1    0    0    0    0 -0.00000000000E+00 -0.00000000000E+00 -0.14752352919E+02  0.14752352919E+02  0.00000000000E+00 0.  1.
         13    1    1    2    0    0 -0.71060080068E+01  0.19427589223E+02  0.12794813576E+02  0.24323753643E+02  0.10566000000E+00 0.  1.
        996    1    1    2    0    0  0.71060080068E+01 -0.19427589223E+02  0.72452777681E+02  0.90428599273E+02  0.50000000000E+02 0.  0.
<mgrwt>
<rscale>  0 0.54110319E+02</rscale>
<asrwt>0</asrwt>
<pdfrwt beam="1">  1       13 0.10000000E+01 0.54110319E+02</pdfrwt>
<pdfrwt beam="2">  1       22 0.14752377E+00 0.54110319E+02</pdfrwt>
<totfact> 0.77731238E-01</totfact>
</mgrwt>
</event>
<event>
 4    1  0.2409985E+000  0.5200935E+02  0.7957747E-01  0.1434795E+00
         13   -1    0    0    0    0  0.00000000000E+00  0.00000000000E+00  0.99999944177E+02  0.99999999997E+02  0.10566000000E+00 0.  1.
         22   -1    0    0    0    0 -0.00000000000E+00 -0.00000000000E+00 -0.59056121484E+02  0.59056121484E+02  0.00000000000E+00 0. -1.
         13    1    1    2    0    0  0.75209385012E+01 -0.12182268027E+02 -0.51245486299E+02  0.53207924225E+02  0.10566000000E+00 0. -1.
        996    1    1    2    0    0 -0.75209385012E+01  0.12182268027E+02  0.92189308992E+02  0.10584819726E+03  0.50000000000E+02 0.  0.
<mgrwt>
<rscale>  0 0.52009347E+02</rscale>
<asrwt>0</asrwt>
<pdfrwt beam="1">  1       13 0.10000000E+01 0.52009347E+02</pdfrwt>
<pdfrwt beam="2">  1       22 0.59056133E+00 0.52009347E+02</pdfrwt>
<totfact> 0.60568543E-02</totfact>
</mgrwt>
</event>
<event>
 4    1  0.2409985E+000  0.5133301E+02  0.7957747E-01  0.1438281E+00
         13   -1    0    0    0    0  0.00000000000E+00  0.00000000000E+00  0.99999944184E+02  0.10000000000E+03  0.10566000000E+00 0. -1.
         22   -1    0    0    0    0 -0.00000000000E+00 -0.00000000000E+00 -0.28396106410E+02  0.28396106410E+02  0.00000000000E+00 0.  1.
         13    1    1    2    0    0 -0.84286481822E+01 -0.80022059995E+01 -0.20148302788E+02  0.23260324166E+02  0.10566000000E+00 0.  1.
        996    1    1    2    0    0  0.84286481822E+01  0.80022059995E+01  0.91752140562E+02  0.10513578225E+03  0.50000000000E+02 0.  0.
<mgrwt>
<rscale>  0 0.51333005E+02</rscale>
<asrwt>0</asrwt>
<pdfrwt beam="1">  1       13 0.10000000E+01 0.51333005E+02</pdfrwt>
<pdfrwt beam="2">  1       22 0.28396126E+00 0.51333005E+02</pdfrwt>
<totfact> 0.22957525E-01</totfact>
</mgrwt>
</event>
<event>
 4    1  0.2409985E+000  0.6876943E+02  0.7957747E-01  0.1364328E+00
         13   -1    0    0    0    0  0.00000000000E+00  0.00000000000E+00  0.99999944173E+02  0.99999999993E+02  0.10566000000E+00 0.  1.
         22   -1    0    0    0    0 -0.00000000000E+00 -0.00000000000E+00 -0.37792759803E+02  0.37792759803E+02  0.00000000000E+00 0. -1.
         13    1    1    2    0    0 -0.33012072882E+02  0.33755550130E+02  0.34507380751E+01  0.47340816193E+02  0.10566000000E+00 0. -1.
        996    1    1    2    0    0  0.33012072882E+02 -0.33755550130E+02  0.58756446295E+02  0.90451943604E+02  0.50000000000E+02 0.  0.
<mgrwt>
<rscale>  0 0.68769427E+02</rscale>
<asrwt>0</asrwt>
<pdfrwt beam="1">  1       13 0.10000000E+01 0.68769427E+02</pdfrwt>
<pdfrwt beam="2">  1       22 0.37792777E+00 0.68769427E+02</pdfrwt>
<totfact> 0.13906808E-01</totfact>
</mgrwt>
</event>
<event>
 4    1  0.2409985E+000  0.5316812E+02  0.7957747E-01  0.1428966E+00
         13   -1    0    0    0    0  0.00000000000E+00  0.00000000000E+00  0.99999944180E+02  0.10000000000E+03  0.10566000000E+00 0. -1.
         22   -1    0    0    0    0 -0.00000000000E+00 -0.00000000000E+00 -0.22768993753E+02  0.22768993753E+02  0.00000000000E+00 0.  1.
         13    1    1    2    0    0 -0.74675469573E+01  0.16464639113E+02 -0.99635346633E+01  0.20642959712E+02  0.10566000000E+00 0.  1.
        996    1    1    2    0    0  0.74675469573E+01 -0.16464639113E+02  0.87194485091E+02  0.10212603404E+03  0.50000000000E+02 0.  0.
<mgrwt>
<rscale>  0 0.53168116E+02</rscale>
<asrwt>0</asrwt>
<pdfrwt beam="1">  1       13 0.10000000E+01 0.53168116E+02</pdfrwt>
<pdfrwt beam="2">  1       22 0.22769015E+00 0.53168116E+02</pdfrwt>
<totfact> 0.35461442E-01</totfact>
</mgrwt>
</event>
<event>
 4    1  0.2409985E+000  0.8193517E+02  0.7957747E-01  0.1323648E+00
         13   -1    0    0    0    0  0.00000000000E+00  0.00000000000E+00  0.99999944187E+02  0.10000000001E+03  0.10566000000E+00 0.  1.
         22   -1    0    0    0    0 -0.00000000000E+00 -0.00000000000E+00 -0.88124798133E+02  0.88124798133E+02  0.00000000000E+00 0. -1.
         13    1    1    2    0    0  0.50750442167E+02  0.40469310148E+02 -0.52853074328E+02  0.83706816174E+02  0.10566000000E+00 0. -1.
        996    1    1    2    0    0 -0.50750442167E+02 -0.40469310148E+02  0.64728220382E+02  0.10441798197E+03  0.50000000000E+02 0.  0.
<mgrwt>
<rscale>  0 0.81935172E+02</rscale>
<asrwt>0</asrwt>
<pdfrwt beam="1">  1       13 0.10000000E+01 0.81935172E+02</pdfrwt>
<pdfrwt beam="2">  1       22 0.88124801E+00 0.81935172E+02</pdfrwt>
<totfact> 0.13289890E-02</totfact>
</mgrwt>
</event>
<event>
 4    1  0.2409985E+000  0.5630073E+02  0.7957747E-01  0.1414046E+00
         13   -1    0    0    0    0  0.00000000000E+00  0.00000000000E+00  0.99999944182E+02  0.10000000000E+03  0.10566000000E+00 0. -1.
         22   -1    0    0    0    0 -0.00000000000E+00 -0.00000000000E+00 -0.27681011556E+02  0.27681011556E+02  0.00000000000E+00 0.  1.
         13    1    1    2    0    0  0.49226635851E+00 -0.25875268788E+02 -0.10172875674E+02  0.27807740371E+02  0.10566000000E+00 0.  1.
        996    1    1    2    0    0 -0.49226635851E+00  0.25875268788E+02  0.82491808300E+02  0.99873271187E+02  0.50000000000E+02 0.  0.
<mgrwt>
<rscale>  0 0.56300727E+02</rscale>
<asrwt>0</asrwt>
<pdfrwt beam="1">  1       13 0.10000000E+01 0.56300727E+02</pdfrwt>
<pdfrwt beam="2">  1       22 0.27681032E+00 0.56300727E+02</pdfrwt>
<totfact> 0.24285038E-01</totfact>
</mgrwt>
</event>
<event>
 4    1  0.2409985E+000  0.5156712E+02  0.7957747E-01  0.1437068E+00
         13   -1    0    0    0    0  0.00000000000E+00  0.00000000000E+00  0.99999944180E+02  0.10000000000E+03  0.10566000000E+00 0.  1.
         22   -1    0    0    0    0 -0.00000000000E+00 -0.00000000000E+00 -0.10300267294E+02  0.10300267294E+02  0.00000000000E+00 0.  1.
         13    1    1    2    0    0 -0.46666521164E+01  0.11721339355E+02  0.18150495625E+02  0.22104730121E+02  0.10566000000E+00 0. -1.
        996    1    1    2    0    0  0.46666521164E+01 -0.11721339355E+02  0.71549181260E+02  0.88195537173E+02  0.50000000000E+02 0.  0.
<mgrwt>
<rscale>  0 0.51567116E+02</rscale>
<asrwt>0</asrwt>
<pdfrwt beam="1">  1       13 0.10000000E+01 0.51567116E+02</pdfrwt>
<pdfrwt beam="2">  1       22 0.10300292E+00 0.51567116E+02</pdfrwt>
<totfact> 0.13490156E+00</totfact>
</mgrwt>
</event>
<event>
 4    1  0.2409985E+000  0.5702864E+02  0.7957747E-01  0.1410742E+00
         13   -1    0    0    0    0  0.00000000000E+00  0.00000000000E+00  0.99999944183E+02  0.10000000000E+03  0.10566000000E+00 0. -1.
         22   -1    0    0    0    0 -0.00000000000E+00 -0.00000000000E+00 -0.33730255879E+02  0.33730255879E+02  0.00000000000E+00 0.  1.
         13    1    1    2    0    0  0.24397648501E+02  0.12530777687E+02 -0.17394425615E+02  0.32478344298E+02  0.10566000000E+00 0.  1.
        996    1    1    2    0    0 -0.24397648501E+02 -0.12530777687E+02  0.83664113918E+02  0.10125191158E+03  0.50000000000E+02 0.  0.
<mgrwt>
<rscale>  0 0.57028639E+02</rscale>
<asrwt>0</asrwt>
<pdfrwt beam="1">  1       13 0.10000000E+01 0.57028639E+02</pdfrwt>
<pdfrwt beam="2">  1       22 0.33730274E+00 0.57028639E+02</pdfrwt>
<totfact> 0.16850871E-01</totfact>
</mgrwt>
</event>
<event>
 4    1  0.2409985E+000  0.5318928E+02  0.7957747E-01  0.1428861E+00
         13   -1    0    0    0    0  0.00000000000E+00  0.00000000000E+00  0.99999944192E+02  0.10000000001E+03  0.10566000000E+00 0. -1.
         22   -1    0    0    0    0 -0.00000000000E+00 -0.00000000000E+00 -0.71290272016E+02  0.71290272016E+02  0.00000000000E+00 0.  1.
         13    1    1    2    0    0  0.23308902654E+01 -0.17990719135E+02 -0.62842554473E+02  0.65408690868E+02  0.10566000000E+00 0.  1.
        996    1    1    2    0    0 -0.23308902654E+01  0.17990719135E+02  0.91552226649E+02  0.10588158116E+03  0.50000000000E+02 0.  0.
<mgrwt>
<rscale>  0 0.53189275E+02</rscale>
<asrwt>0</asrwt>
<pdfrwt beam="1">  1       13 0.10000000E+01 0.53189275E+02</pdfrwt>
<pdfrwt beam="2">  1       22 0.71290280E+00 0.53189275E+02</pdfrwt>
<totfact> 0.67860306E-02</totfact>
</mgrwt>
</event>
<event>
 4    1  0.2409985E+000  0.5124408E+02  0.7957747E-01  0.1438745E+00
         13   -1    0    0    0    0  0.00000000000E+00  0.00000000000E+00  0.99999944177E+02  0.99999999997E+02  0.10566000000E+00 0. -1.
         22   -1    0    0    0    0 -0.00000000000E+00 -0.00000000000E+00 -0.18546895167E+02  0.18546895167E+02  0.00000000000E+00 0. -1.
         13    1    1    2    0    0  0.68880022889E+00  0.11201825959E+02 -0.91337418671E+01  0.14470375085E+02  0.10566000000E+00 0.  1.
        996    1    1    2    0    0 -0.68880022889E+00 -0.11201825959E+02  0.90586790877E+02  0.10407652008E+03  0.50000000000E+02 0.  0.
<mgrwt>
<rscale>  0 0.51244076E+02</rscale>
<asrwt>0</asrwt>
<pdfrwt beam="1">  1       13 0.10000000E+01 0.51244076E+02</pdfrwt>
<pdfrwt beam="2">  1       22 0.18546918E+00 0.51244076E+02</pdfrwt>
<totfact> 0.51979612E-01</totfact>
</mgrwt>
</event>
<event>
 4    1  0.2409985E+000  0.5507840E+02  0.7957747E-01  0.1419729E+00
         13   -1    0    0    0    0  0.00000000000E+00  0.00000000000E+00  0.99999944178E+02  0.99999999998E+02  0.10566000000E+00 0.  1.
         22   -1    0    0    0    0 -0.00000000000E+00 -0.00000000000E+00 -0.23375202840E+02  0.23375202840E+02  0.00000000000E+00 0. -1.
         13    1    1    2    0    0  0.19912335003E+01  0.23014452212E+02 -0.61913611155E+01  0.23915980807E+02  0.10566000000E+00 0. -1.
        996    1    1    2    0    0 -0.19912335003E+01 -0.23014452212E+02  0.82816102453E+02  0.99459222031E+02  0.50000000000E+02 0.  0.
<mgrwt>
<rscale>  0 0.55078399E+02</rscale>
<asrwt>0</asrwt>
<pdfrwt beam="1">  1       13 0.10000000E+01 0.55078399E+02</pdfrwt>
<pdfrwt beam="2">  1       22 0.23375224E+00 0.55078399E+02</pdfrwt>
<totfact> 0.33795134E-01</totfact>
</mgrwt>
</event>
<event>
 4    1  0.2409985E+000  0.5829171E+02  0.7957747E-01  0.1405144E+00
         13   -1    0    0    0    0  0.00000000000E+00  0.00000000000E+00  0.99999944179E+02  0.99999999999E+02  0.10566000000E+00 0. -1.
         22   -1    0    0    0    0 -0.00000000000E+00 -0.00000000000E+00 -0.28507394164E+02  0.28507394164E+02  0.00000000000E+00 0.  1.
         13    1    1    2    0    0 -0.22552942058E+02 -0.19730392481E+02 -0.69659424083E+01  0.30764575418E+02  0.10566000000E+00 0.  1.
        996    1    1    2    0    0  0.22552942058E+02  0.19730392481E+02  0.78458492423E+02  0.97742818745E+02  0.50000000000E+02 0.  0.
<mgrwt>
<rscale>  0 0.58291711E+02</rscale>
<asrwt>0</asrwt>
<pdfrwt beam="1">  1       13 0.10000000E+01 0.58291711E+02</pdfrwt>
<pdfrwt beam="2">  1       22 0.28507414E+00 0.58291711E+02</pdfrwt>
<totfact> 0.22996539E-01</totfact>
</mgrwt>
</event>
<event>
 4    1  0.2409985E+000  0.5137567E+02  0.7957747E-01  0.1438060E+00
         13   -1    0    0    0    0  0.00000000000E+00  0.00000000000E+00  0.99999944180E+02  0.10000000000E+03  0.10566000000E+00 0. -1.
         22   -1    0    0    0    0 -0.00000000000E+00 -0.00000000000E+00 -0.40305413048E+02  0.40305413048E+02  0.00000000000E+00 0.  1.
         13    1    1    2    0    0 -0.14590280864E+00  0.11808414709E+02 -0.32601103962E+02  0.34674242445E+02  0.10566000000E+00 0.  1.
        996    1    1    2    0    0  0.14590280864E+00 -0.11808414709E+02  0.92295635094E+02  0.10563117060E+03  0.50000000000E+02 0.  0.
<mgrwt>
<rscale>  0 0.51375675E+02</rscale>
<asrwt>0</asrwt>
<pdfrwt beam="1">  1       13 0.10000000E+01 0.51375675E+02</pdfrwt>
<pdfrwt beam="2">  1       22 0.40305430E+00 0.51375675E+02</pdfrwt>
<totfact> 0.12183559E-01</totfact>
</mgrwt>
</event>
<event>
 4    1  0.2409985E+000  0.5119450E+02  0.7957747E-01  0.1439003E+00
         13   -1    0    0    0    0  0.00000000000E+00  0.00000000000E+00  0.99999944181E+02  0.10000000000E+03  0.10566000000E+00 0.  1.
         22   -1    0    0    0    0 -0.00000000000E+00 -0.00000000000E+00 -0.12628383318E+02  0.12628383318E+02  0.00000000000E+00 0.  1.
         13    1    1    2    0    0  0.79870989533E+01 -0.75553239179E+01 -0.41727302391E+00  0.11002815549E+02  0.10566000000E+00 0. -1.
        996    1    1    2    0    0 -0.79870989533E+01  0.75553239179E+01  0.87788833887E+02  0.10162556777E+03  0.50000000000E+02 0.  0.
<mgrwt>
<rscale>  0 0.51194498E+02</rscale>
<asrwt>0</asrwt>
<pdfrwt beam="1">  1       13 0.10000000E+01 0.51194498E+02</pdfrwt>
<pdfrwt beam="2">  1       22 0.12628408E+00 0.51194498E+02</pdfrwt>
<totfact> 0.99164397E-01</totfact>
</mgrwt>
</event>
<event>
 4    1  0.2409985E+000  0.5183208E+02  0.7957747E-01  0.1435703E+00
         13   -1    0    0    0    0  0.00000000000E+00  0.00000000000E+00  0.99999944175E+02  0.99999999995E+02  0.10566000000E+00 0.  1.
         22   -1    0    0    0    0 -0.00000000000E+00 -0.00000000000E+00 -0.13458137522E+02  0.13458137522E+02  0.00000000000E+00 0.  1.
         13    1    1    2    0    0 -0.13569039507E+02  0.15639121794E+01  0.13345899425E+01  0.13724319612E+02  0.10566000000E+00 0. -1.
        996    1    1    2    0    0  0.13569039507E+02 -0.15639121794E+01  0.85207216710E+02  0.99733817905E+02  0.50000000000E+02 0.  0.
<mgrwt>
<rscale>  0 0.51832081E+02</rscale>
<asrwt>0</asrwt>
<pdfrwt beam="1">  1       13 0.10000000E+01 0.51832081E+02</pdfrwt>
<pdfrwt beam="2">  1       22 0.13458162E+00 0.51832081E+02</pdfrwt>
<totfact> 0.89821892E-01</totfact>
</mgrwt>
</event>
<event>
 4    1  0.2409985E+000  0.5212638E+02  0.7957747E-01  0.1434199E+00
         13   -1    0    0    0    0  0.00000000000E+00  0.00000000000E+00  0.99999944181E+02  0.10000000000E+03  0.10566000000E+00 0. -1.
         22   -1    0    0    0    0 -0.00000000000E+00 -0.00000000000E+00 -0.11215756137E+02  0.11215756137E+02  0.00000000000E+00 0. -1.
         13    1    1    2    0    0  0.11536697997E+02  0.91686452856E+01  0.16930597186E+02  0.22445840197E+02  0.10566000000E+00 0.  1.
        996    1    1    2    0    0 -0.11536697997E+02 -0.91686452856E+01  0.71853590858E+02  0.88769915942E+02  0.50000000000E+02 0.  0.
<mgrwt>
<rscale>  0 0.52126380E+02</rscale>
<asrwt>0</asrwt>
<pdfrwt beam="1">  1       13 0.10000000E+01 0.52126380E+02</pdfrwt>
<pdfrwt beam="2">  1       22 0.11215781E+00 0.52126380E+02</pdfrwt>
<totfact> 0.11910489E+00</totfact>
</mgrwt>
</event>
<event>
 4    1  0.2409985E+000  0.5180481E+02  0.7957747E-01  0.1435843E+00
         13   -1    0    0    0    0  0.00000000000E+00  0.00000000000E+00  0.99999944183E+02  0.10000000000E+03  0.10566000000E+00 0. -1.
         22   -1    0    0    0    0 -0.00000000000E+00 -0.00000000000E+00 -0.24368690984E+02  0.24368690984E+02  0.00000000000E+00 0. -1.
         13    1    1    2    0    0 -0.96378337452E+01  0.95315408660E+01 -0.14850020707E+02  0.20106526046E+02  0.10566000000E+00 0.  1.
        996    1    1    2    0    0  0.96378337452E+01 -0.95315408660E+01  0.90481273906E+02  0.10426216494E+03  0.50000000000E+02 0.  0.
<mgrwt>
<rscale>  0 0.51804808E+02</rscale>
<asrwt>0</asrwt>
<pdfrwt beam="1">  1       13 0.10000000E+01 0.51804808E+02</pdfrwt>
<pdfrwt beam="2">  1       22 0.24368712E+00 0.51804808E+02</pdfrwt>
<totfact> 0.30989203E-01</totfact>
</mgrwt>
</event>
<event>
 4    1  0.2409985E+000  0.5159554E+02  0.7957747E-01  0.1436921E+00
         13   -1    0    0    0    0  0.00000000000E+00  0.00000000000E+00  0.99999944181E+02  0.10000000000E+03  0.10566000000E+00 0.  1.
         22   -1    0    0    0    0 -0.00000000000E+00 -0.00000000000E+00 -0.16526088632E+02  0.16526088632E+02  0.00000000000E+00 0. -1.
         13    1    1    2    0    0  0.33162241666E+01 -0.12292372119E+02 -0.53449025612E+01  0.13808653174E+02  0.10566000000E+00 0. -1.
        996    1    1    2    0    0 -0.33162241666E+01  0.12292372119E+02  0.88818758111E+02  0.10271743546E+03  0.50000000000E+02 0.  0.
<mgrwt>
<rscale>  0 0.51595540E+02</rscale>
<asrwt>0</asrwt>
<pdfrwt beam="1">  1       13 0.10000000E+01 0.51595540E+02</pdfrwt>
<pdfrwt beam="2">  1       22 0.16526112E+00 0.51595540E+02</pdfrwt>
<totfact> 0.63817336E-01</totfact>
</mgrwt>
</event>
<event>
 4    1  0.2409985E+000  0.5180970E+02  0.7957747E-01  0.1435818E+00
         13   -1    0    0    0    0  0.00000000000E+00  0.00000000000E+00  0.99999944178E+02  0.99999999998E+02  0.10566000000E+00 0. -1.
         22   -1    0    0    0    0 -0.00000000000E+00 -0.00000000000E+00 -0.84906402186E+02  0.84906402186E+02  0.00000000000E+00 0.  1.
         13    1    1    2    0    0 -0.52190547472E+01  0.12530223275E+02 -0.77566644025E+02  0.78745415468E+02  0.10566000000E+00 0.  1.
        996    1    1    2    0    0  0.52190547472E+01 -0.12530223275E+02  0.92660186018E+02  0.10616098672E+03  0.50000000000E+02 0.  0.
<mgrwt>
<rscale>  0 0.51809700E+02</rscale>
<asrwt>0</asrwt>
<pdfrwt beam="1">  1       13 0.10000000E+01 0.51809700E+02</pdfrwt>
<pdfrwt beam="2">  1       22 0.84906406E+00 0.51809700E+02</pdfrwt>
<totfact> 0.19185333E-02</totfact>
</mgrwt>
</event>
<event>
 4    1  0.2409985E+000  0.5421733E+02  0.7957747E-01  0.1423837E+00
         13   -1    0    0    0    0  0.00000000000E+00  0.00000000000E+00  0.99999944171E+02  0.99999999991E+02  0.10566000000E+00 0. -1.
         22   -1    0    0    0    0 -0.00000000000E+00 -0.00000000000E+00 -0.17971923931E+02  0.17971923931E+02  0.00000000000E+00 0.  1.
         13    1    1    2    0    0  0.60785673167E+01  0.20064150612E+02  0.16663024095E+01  0.21031092415E+02  0.10566000000E+00 0.  1.
        996    1    1    2    0    0 -0.60785673167E+01 -0.20064150612E+02  0.80361717831E+02  0.96940831507E+02  0.50000000000E+02 0.  0.
<mgrwt>
<rscale>  0 0.54217332E+02</rscale>
<asrwt>0</asrwt>
<pdfrwt beam="1">  1       13 0.10000000E+01 0.54217332E+02</pdfrwt>
<pdfrwt beam="2">  1       22 0.17971947E+00 0.54217332E+02</pdfrwt>
<totfact> 0.55320519E-01</totfact>
</mgrwt>
</event>
<event>
 4    1  0.2409985E+000  0.5267673E+02  0.7957747E-01  0.1431416E+00
         13   -1    0    0    0    0  0.00000000000E+00  0.00000000000E+00  0.99999944179E+02  0.99999999999E+02  0.10566000000E+00 0.  1.
         22   -1    0    0    0    0 -0.00000000000E+00 -0.00000000000E+00 -0.18201466187E+02  0.18201466187E+02  0.00000000000E+00 0.  1.
         13    1    1    2    0    0  0.96770986972E+01  0.13460746361E+02 -0.44261714520E+01  0.17159256672E+02  0.10566000000E+00 0. -1.
        996    1    1    2    0    0 -0.96770986972E+01 -0.13460746361E+02  0.86224649444E+02  0.10104220951E+03  0.50000000000E+02 0.  0.
<mgrwt>
<rscale>  0 0.52676730E+02</rscale>
<asrwt>0</asrwt>
<pdfrwt beam="1">  1       13 0.10000000E+01 0.52676730E+02</pdfrwt>
<pdfrwt beam="2">  1       22 0.18201489E+00 0.52676730E+02</pdfrwt>
<totfact> 0.53920602E-01</totfact>
</mgrwt>
</event>
<event>
 4    1  0.2409985E+000  0.5131325E+02  0.7957747E-01  0.1438384E+00
         13   -1    0    0    0    0  0.00000000000E+00  0.00000000000E+00  0.99999944178E+02  0.99999999998E+02  0.10566000000E+00 0.  1.
         22   -1    0    0    0    0 -0.00000000000E+00 -0.00000000000E+00 -0.10019631623E+02  0.10019631623E+02  0.00000000000E+00 0.  1.
         13    1    1    2    0    0  0.90359673481E+01 -0.71694460741E+01  0.22071829099E+02  0.24904346342E+02  0.10566000000E+00 0. -1.
        996    1    1    2    0    0 -0.90359673481E+01  0.71694460741E+01  0.67908483456E+02  0.85115285279E+02  0.50000000000E+02 0.  0.
<mgrwt>
<rscale>  0 0.51313250E+02</rscale>
<asrwt>0</asrwt>
<pdfrwt beam="1">  1       13 0.10000000E+01 0.51313250E+02</pdfrwt>
<pdfrwt beam="2">  1       22 0.10019657E+00 0.51313250E+02</pdfrwt>
<totfact> 0.14034557E+00</totfact>
</mgrwt>
</event>
<event>
 4    1  0.2409985E+000  0.5129198E+02  0.7957747E-01  0.1438495E+00
         13   -1    0    0    0    0  0.00000000000E+00  0.00000000000E+00  0.99999944177E+02  0.99999999998E+02  0.10566000000E+00 0.  1.
         22   -1    0    0    0    0 -0.00000000000E+00 -0.00000000000E+00 -0.99211695220E+01  0.99211695220E+01  0.00000000000E+00 0.  1.
         13    1    1    2    0    0 -0.43543610051E+01 -0.10578595399E+02  0.12775923012E+02  0.17149417285E+02  0.10566000000E+00 0. -1.
        996    1    1    2    0    0  0.43543610051E+01  0.10578595399E+02  0.77302851644E+02  0.92771752234E+02  0.50000000000E+02 0.  0.
<mgrwt>
<rscale>  0 0.51291979E+02</rscale>
<asrwt>0</asrwt>
<pdfrwt beam="1">  1       13 0.10000000E+01 0.51291979E+02</pdfrwt>
<pdfrwt beam="2">  1       22 0.99211947E-01 0.51291979E+02</pdfrwt>
<totfact> 0.14235812E+00</totfact>
</mgrwt>
</event>
<event>
 4    1  0.2409985E+000  0.5148658E+02  0.7957747E-01  0.1437484E+00
         13   -1    0    0    0    0  0.00000000000E+00  0.00000000000E+00  0.99999944181E+02  0.10000000000E+03  0.10566000000E+00 0.  1.
         22   -1    0    0    0    0 -0.00000000000E+00 -0.00000000000E+00 -0.45875937155E+02  0.45875937155E+02  0.00000000000E+00 0. -1.
         13    1    1    2    0    0 -0.58716256041E+01  0.10788494638E+02 -0.38221758982E+02  0.40147000230E+02  0.10566000000E+00 0. -1.
        996    1    1    2    0    0  0.58716256041E+01 -0.10788494638E+02  0.92345766008E+02  0.10572893693E+03  0.50000000000E+02 0.  0.
<mgrwt>
<rscale>  0 0.51486577E+02</rscale>
<asrwt>0</asrwt>
<pdfrwt beam="1">  1       13 0.10000000E+01 0.51486577E+02</pdfrwt>
<pdfrwt beam="2">  1       22 0.45875952E+00 0.51486577E+02</pdfrwt>
<totfact> 0.92249490E-02</totfact>
</mgrwt>
</event>
<event>
 4    1  0.2409985E+000  0.5107038E+02  0.7957747E-01  0.1439652E+00
         13   -1    0    0    0    0  0.00000000000E+00  0.00000000000E+00  0.99999944182E+02  0.10000000000E+03  0.10566000000E+00 0.  1.
         22   -1    0    0    0    0 -0.00000000000E+00 -0.00000000000E+00 -0.23111422627E+02  0.23111422627E+02  0.00000000000E+00 0. -1.
         13    1    1    2    0    0  0.21380528994E+01 -0.10179031279E+02 -0.14841106167E+02  0.18123287347E+02  0.10566000000E+00 0. -1.
        996    1    1    2    0    0 -0.21380528994E+01  0.10179031279E+02  0.91729627722E+02  0.10498813528E+03  0.50000000000E+02 0.  0.
<mgrwt>
<rscale>  0 0.51070382E+02</rscale>
<asrwt>0</asrwt>
<pdfrwt beam="1">  1       13 0.10000000E+01 0.51070382E+02</pdfrwt>
<pdfrwt beam="2">  1       22 0.23111444E+00 0.51070382E+02</pdfrwt>
<totfact> 0.34328069E-01</totfact>
</mgrwt>
</event>
<event>
 4    1  0.2409985E+000  0.5138105E+02  0.7957747E-01  0.1438032E+00
         13   -1    0    0    0    0  0.00000000000E+00  0.00000000000E+00  0.99999944178E+02  0.99999999998E+02  0.10566000000E+00 0. -1.
         22   -1    0    0    0    0 -0.00000000000E+00 -0.00000000000E+00 -0.12992720187E+02  0.12992720187E+02  0.00000000000E+00 0. -1.
         13    1    1    2    0    0 -0.46599673615E+01  0.10876439884E+02 -0.13116946160E+00  0.11833875520E+02  0.10566000000E+00 0.  1.
        996    1    1    2    0    0  0.46599673615E+01 -0.10876439884E+02  0.87138393453E+02  0.10115884466E+03  0.50000000000E+02 0.  0.
<mgrwt>
<rscale>  0 0.51381049E+02</rscale>
<asrwt>0</asrwt>
<pdfrwt beam="1">  1       13 0.10000000E+01 0.51381049E+02</pdfrwt>
<pdfrwt beam="2">  1       22 0.12992744E+00 0.51381049E+02</pdfrwt>
<totfact> 0.94882181E-01</totfact>
</mgrwt>
</event>
<event>
 4    1  0.2409985E+000  0.5815922E+02  0.7957747E-01  0.1405723E+00
         13   -1    0    0    0    0  0.00000000000E+00  0.00000000000E+00  0.99999944177E+02  0.99999999997E+02  0.10566000000E+00 0.  1.
         22   -1    0    0    0    0 -0.00000000000E+00 -0.00000000000E+00 -0.26122380255E+02  0.26122380255E+02  0.00000000000E+00 0. -1.
         13    1    1    2    0    0 -0.26022011193E+02  0.14330021778E+02 -0.28501702090E+01  0.29843411751E+02  0.10566000000E+00 0. -1.
        996    1    1    2    0    0  0.26022011193E+02 -0.14330021778E+02  0.76727734131E+02  0.96278968501E+02  0.50000000000E+02 0.  0.
<mgrwt>
<rscale>  0 0.58159218E+02</rscale>
<asrwt>0</asrwt>
<pdfrwt beam="1">  1       13 0.10000000E+01 0.58159218E+02</pdfrwt>
<pdfrwt beam="2">  1       22 0.26122401E+00 0.58159218E+02</pdfrwt>
<totfact> 0.27277952E-01</totfact>
</mgrwt>
</event>
<event>
 4    1  0.2409985E+000  0.5129446E+02  0.7957747E-01  0.1438482E+00
         13   -1    0    0    0    0  0.00000000000E+00  0.00000000000E+00  0.99999944178E+02  0.99999999998E+02  0.10566000000E+00 0.  1.
         22   -1    0    0    0    0 -0.00000000000E+00 -0.00000000000E+00 -0.34181640841E+02  0.34181640841E+02  0.00000000000E+00 0. -1.
         13    1    1    2    0    0 -0.45544584985E+01  0.10506141002E+02 -0.26333515633E+02  0.28715628160E+02  0.10566000000E+00 0. -1.
        996    1    1    2    0    0  0.45544584985E+01 -0.10506141002E+02  0.92151818970E+02  0.10546601268E+03  0.50000000000E+02 0.  0.
<mgrwt>
<rscale>  0 0.51294465E+02</rscale>
<asrwt>0</asrwt>
<pdfrwt beam="1">  1       13 0.10000000E+01 0.51294465E+02</pdfrwt>
<pdfrwt beam="2">  1       22 0.34181659E+00 0.51294465E+02</pdfrwt>
<totfact> 0.16363809E-01</totfact>
</mgrwt>
</event>
<event>
 4    1  0.2409985E+000  0.5106037E+02  0.7957747E-01  0.1439705E+00
         13   -1    0    0    0    0  0.00000000000E+00  0.00000000000E+00  0.99999944182E+02  0.10000000000E+03  0.10566000000E+00 0.  1.
         22   -1    0    0    0    0 -0.00000000000E+00 -0.00000000000E+00 -0.16542514630E+02  0.16542514630E+02  0.00000000000E+00 0.  1.
         13    1    1    2    0    0  0.10117722571E+02  0.21894205677E+01 -0.71199614925E+01  0.12564509068E+02  0.10566000000E+00 0. -1.
        996    1    1    2    0    0 -0.10117722571E+02 -0.21894205677E+01  0.90577391045E+02  0.10397800556E+03  0.50000000000E+02 0.  0.
<mgrwt>
<rscale>  0 0.51060375E+02</rscale>
<asrwt>0</asrwt>
<pdfrwt beam="1">  1       13 0.10000000E+01 0.51060375E+02</pdfrwt>
<pdfrwt beam="2">  1       22 0.16542538E+00 0.51060375E+02</pdfrwt>
<totfact> 0.63639892E-01</totfact>
</mgrwt>
</event>
<event>
 4    1  0.2409985E+000  0.5109979E+02  0.7957747E-01  0.1439498E+00
         13   -1    0    0    0    0  0.00000000000E+00  0.00000000000E+00  0.99999944178E+02  0.99999999998E+02  0.10566000000E+00 0.  1.
         22   -1    0    0    0    0 -0.00000000000E+00 -0.00000000000E+00 -0.22541714139E+02  0.22541714139E+02  0.00000000000E+00 0. -1.
         13    1    1    2    0    0  0.36775501388E+01  0.98824922006E+01 -0.14148904494E+02  0.17646265597E+02  0.10566000000E+00 0. -1.
        996    1    1    2    0    0 -0.36775501388E+01 -0.98824922006E+01  0.91607134533E+02  0.10489544854E+03  0.50000000000E+02 0.  0.
<mgrwt>
<rscale>  0 0.51099785E+02</rscale>
<asrwt>0</asrwt>
<pdfrwt beam="1">  1       13 0.10000000E+01 0.51099785E+02</pdfrwt>
<pdfrwt beam="2">  1       22 0.22541736E+00 0.51099785E+02</pdfrwt>
<totfact> 0.36032490E-01</totfact>
</mgrwt>
</event>
<event>
 4    1  0.2409985E+000  0.5129930E+02  0.7957747E-01  0.1438457E+00
         13   -1    0    0    0    0  0.00000000000E+00  0.00000000000E+00  0.99999944176E+02  0.99999999996E+02  0.10566000000E+00 0.  1.
         22   -1    0    0    0    0 -0.00000000000E+00 -0.00000000000E+00 -0.11795524896E+02  0.11795524896E+02  0.00000000000E+00 0. -1.
         13    1    1    2    0    0  0.14351332306E+01 -0.11382365876E+02  0.22422613256E+01  0.11690028238E+02  0.10566000000E+00 0. -1.
        996    1    1    2    0    0 -0.14351332306E+01  0.11382365876E+02  0.85962157954E+02  0.10010549665E+03  0.50000000000E+02 0.  0.
<mgrwt>
<rscale>  0 0.51299297E+02</rscale>
<asrwt>0</asrwt>
<pdfrwt beam="1">  1       13 0.10000000E+01 0.51299297E+02</pdfrwt>
<pdfrwt beam="2">  1       22 0.11795550E+00 0.51299297E+02</pdfrwt>
<totfact> 0.11017723E+00</totfact>
</mgrwt>
</event>
<event>
 4    1  0.2409985E+000  0.5292677E+02  0.7957747E-01  0.1430166E+00
         13   -1    0    0    0    0  0.00000000000E+00  0.00000000000E+00  0.99999944181E+02  0.10000000000E+03  0.10566000000E+00 0. -1.
         22   -1    0    0    0    0 -0.00000000000E+00 -0.00000000000E+00 -0.13075323302E+02  0.13075323302E+02  0.00000000000E+00 0. -1.
         13    1    1    2    0    0 -0.11727553226E+01  0.17316695816E+02  0.11088472416E+02  0.20596327187E+02  0.10566000000E+00 0.  1.
        996    1    1    2    0    0  0.11727553226E+01 -0.17316695816E+02  0.75836148462E+02  0.92478996116E+02  0.50000000000E+02 0.  0.
<mgrwt>
<rscale>  0 0.52926773E+02</rscale>
<asrwt>0</asrwt>
<pdfrwt beam="1">  1       13 0.10000000E+01 0.52926773E+02</pdfrwt>
<pdfrwt beam="2">  1       22 0.13075348E+00 0.52926773E+02</pdfrwt>
<totfact> 0.94252224E-01</totfact>
</mgrwt>
</event>
<event>
 4    1  0.2409985E+000  0.5190251E+02  0.7957747E-01  0.1435342E+00
         13   -1    0    0    0    0  0.00000000000E+00  0.00000000000E+00  0.99999944179E+02  0.99999999999E+02  0.10566000000E+00 0.  1.
         22   -1    0    0    0    0 -0.00000000000E+00 -0.00000000000E+00 -0.15919807180E+02  0.15919807180E+02  0.00000000000E+00 0. -1.
         13    1    1    2    0    0 -0.73564354566E+01 -0.11821737861E+02 -0.32793401109E+01  0.14305099240E+02  0.10566000000E+00 0. -1.
        996    1    1    2    0    0  0.73564354566E+01  0.11821737861E+02  0.87359477110E+02  0.10161470794E+03  0.50000000000E+02 0.  0.
<mgrwt>
<rscale>  0 0.51902511E+02</rscale>
<asrwt>0</asrwt>
<pdfrwt beam="1">  1       13 0.10000000E+01 0.51902511E+02</pdfrwt>
<pdfrwt beam="2">  1       22 0.15919831E+00 0.51902511E+02</pdfrwt>
<totfact> 0.68093440E-01</totfact>
</mgrwt>
</event>
<event>
 4    1  0.2409985E+000  0.5958081E+02  0.7957747E-01  0.1399599E+00
         13   -1    0    0    0    0  0.00000000000E+00  0.00000000000E+00  0.99999944186E+02  0.10000000001E+03  0.10566000000E+00 0.  1.
         22   -1    0    0    0    0 -0.00000000000E+00 -0.00000000000E+00 -0.26040840768E+02  0.26040840768E+02  0.00000000000E+00 0.  1.
         13    1    1    2    0    0  0.18574880101E+02 -0.26548941735E+02  0.17844218618E+01  0.32451006200E+02  0.10566000000E+00 0. -1.
        996    1    1    2    0    0 -0.18574880101E+02  0.26548941735E+02  0.72174681556E+02  0.93589834574E+02  0.50000000000E+02 0.  0.
<mgrwt>
<rscale>  0 0.59580806E+02</rscale>
<asrwt>0</asrwt>
<pdfrwt beam="1">  1       13 0.10000000E+01 0.59580806E+02</pdfrwt>
<pdfrwt beam="2">  1       22 0.26040861E+00 0.59580806E+02</pdfrwt>
<totfact> 0.27498737E-01</totfact>
</mgrwt>
</event>
<event>
 4    1  0.2409985E+000  0.5269338E+02  0.7957747E-01  0.1431333E+00
         13   -1    0    0    0    0  0.00000000000E+00  0.00000000000E+00  0.99999944181E+02  0.10000000000E+03  0.10566000000E+00 0. -1.
         22   -1    0    0    0    0 -0.00000000000E+00 -0.00000000000E+00 -0.20640859516E+02  0.20640859516E+02  0.00000000000E+00 0. -1.
         13    1    1    2    0    0 -0.15447264302E+02 -0.61623134994E+01 -0.81275018437E+01  0.18511065133E+02  0.10566000000E+00 0.  1.
        996    1    1    2    0    0  0.15447264302E+02  0.61623134994E+01  0.87486586509E+02  0.10212979438E+03  0.50000000000E+02 0.  0.
<mgrwt>
<rscale>  0 0.52693378E+02</rscale>
<asrwt>0</asrwt>
<pdfrwt beam="1">  1       13 0.10000000E+01 0.52693378E+02</pdfrwt>
<pdfrwt beam="2">  1       22 0.20640882E+00 0.52693378E+02</pdfrwt>
<totfact> 0.42757287E-01</totfact>
</mgrwt>
</event>
<event>
 4    1  0.2409985E+000  0.5249895E+02  0.7957747E-01  0.1432311E+00
         13   -1    0    0    0    0  0.00000000000E+00  0.00000000000E+00  0.99999944171E+02  0.99999999991E+02  0.10566000000E+00 0. -1.
         22   -1    0    0    0    0 -0.00000000000E+00 -0.00000000000E+00 -0.26725522268E+02  0.26725522268E+02  0.00000000000E+00 0.  1.
         13    1    1    2    0    0  0.14099577780E+02 -0.75724108125E+01 -0.16335692311E+02  0.22869313641E+02  0.10566000000E+00 0.  1.
        996    1    1    2    0    0 -0.14099577780E+02  0.75724108125E+01  0.89610114214E+02  0.10385620862E+03  0.50000000000E+02 0.  0.
<mgrwt>
<rscale>  0 0.52498948E+02</rscale>
<asrwt>0</asrwt>
<pdfrwt beam="1">  1       13 0.10000000E+01 0.52498948E+02</pdfrwt>
<pdfrwt beam="2">  1       22 0.26725543E+00 0.52498948E+02</pdfrwt>
<totfact> 0.25873426E-01</totfact>
</mgrwt>
</event>
<event>
 4    1  0.2409985E+000  0.5686006E+02  0.7957747E-01  0.1411502E+00
         13   -1    0    0    0    0  0.00000000000E+00  0.00000000000E+00  0.99999944192E+02  0.10000000001E+03  0.10566000000E+00 0. -1.
         22   -1    0    0    0    0 -0.00000000000E+00 -0.00000000000E+00 -0.68028800704E+02  0.68028800704E+02  0.00000000000E+00 0.  1.
         13    1    1    2    0    0  0.25421353108E+02  0.93177685789E+01 -0.56619789857E+02  0.62760479385E+02  0.10566000000E+00 0.  1.
        996    1    1    2    0    0 -0.25421353108E+02 -0.93177685789E+01  0.88590933344E+02  0.10526832133E+03  0.50000000000E+02 0.  0.
<mgrwt>
<rscale>  0 0.56860056E+02</rscale>
<asrwt>0</asrwt>
<pdfrwt beam="1">  1       13 0.10000000E+01 0.56860056E+02</pdfrwt>
<pdfrwt beam="2">  1       22 0.68028810E+00 0.56860056E+02</pdfrwt>
<totfact> 0.83370184E-02</totfact>
</mgrwt>
</event>
<event>
 4    1  0.2409985E+000  0.5139892E+02  0.7957747E-01  0.1437939E+00
         13   -1    0    0    0    0  0.00000000000E+00  0.00000000000E+00  0.99999944172E+02  0.99999999992E+02  0.10566000000E+00 0. -1.
         22   -1    0    0    0    0 -0.00000000000E+00 -0.00000000000E+00 -0.17882865655E+02  0.17882865655E+02  0.00000000000E+00 0.  1.
         13    1    1    2    0    0  0.90075264821E+01  0.77918590378E+01 -0.78527078367E+01  0.14266211305E+02  0.10566000000E+00 0.  1.
        996    1    1    2    0    0 -0.90075264821E+01 -0.77918590378E+01  0.89969786353E+02  0.10361665434E+03  0.50000000000E+02 0.  0.
<mgrwt>
<rscale>  0 0.51398916E+02</rscale>
<asrwt>0</asrwt>
<pdfrwt beam="1">  1       13 0.10000000E+01 0.51398916E+02</pdfrwt>
<pdfrwt beam="2">  1       22 0.17882889E+00 0.51398916E+02</pdfrwt>
<totfact> 0.55522777E-01</totfact>
</mgrwt>
</event>
<event>
 4    1  0.2409985E+000  0.5282138E+02  0.7957747E-01  0.1430692E+00
         13   -1    0    0    0    0  0.00000000000E+00  0.00000000000E+00  0.99999944181E+02  0.10000000000E+03  0.10566000000E+00 0. -1.
         22   -1    0    0    0    0 -0.00000000000E+00 -0.00000000000E+00 -0.73732150765E+02  0.73732150765E+02  0.00000000000E+00 0.  1.
         13    1    1    2    0    0  0.34648687740E+01 -0.16676123731E+02 -0.65592537626E+02  0.67767917000E+02  0.10566000000E+00 0.  1.
        996    1    1    2    0    0 -0.34648687740E+01  0.16676123731E+02  0.91860331043E+02  0.10596423377E+03  0.50000000000E+02 0.  0.
<mgrwt>
<rscale>  0 0.52821382E+02</rscale>
<asrwt>0</asrwt>
<pdfrwt beam="1">  1       13 0.10000000E+01 0.52821382E+02</pdfrwt>
<pdfrwt beam="2">  1       22 0.73732158E+00 0.52821382E+02</pdfrwt>
<totfact> 0.55055866E-02</totfact>
</mgrwt>
</event>
<event>
 4    1  0.2409985E+000  0.5175960E+02  0.7957747E-01  0.1436075E+00
         13   -1    0    0    0    0  0.00000000000E+00  0.00000000000E+00  0.99999944170E+02  0.99999999990E+02  0.10566000000E+00 0.  1.
         22   -1    0    0    0    0 -0.00000000000E+00 -0.00000000000E+00 -0.37587188380E+02  0.37587188380E+02  0.00000000000E+00 0. -1.
         13    1    1    2    0    0 -0.67189450819E+01  0.11572038178E+02 -0.29336853798E+02  0.32244665379E+02  0.10566000000E+00 0. -1.
        996    1    1    2    0    0  0.67189450819E+01 -0.11572038178E+02  0.91749609588E+02  0.10534252299E+03  0.50000000000E+02 0.  0.
<mgrwt>
<rscale>  0 0.51759601E+02</rscale>
<asrwt>0</asrwt>
<pdfrwt beam="1">  1       13 0.10000000E+01 0.51759601E+02</pdfrwt>
<pdfrwt beam="2">  1       22 0.37587206E+00 0.51759601E+02</pdfrwt>
<totfact> 0.13860375E-01</totfact>
</mgrwt>
</event>
<event>
 4    1  0.2409985E+000  0.5273695E+02  0.7957747E-01  0.1431114E+00
         13   -1    0    0    0    0  0.00000000000E+00  0.00000000000E+00  0.99999944174E+02  0.99999999994E+02  0.10566000000E+00 0.  1.
         22   -1    0    0    0    0 -0.00000000000E+00 -0.00000000000E+00 -0.13127383982E+02  0.13127383982E+02  0.00000000000E+00 0. -1.
         13    1    1    2    0    0 -0.54721418696E+01  0.15850603549E+02  0.88705532749E+01  0.18970604865E+02  0.10566000000E+00 0. -1.
        996    1    1    2    0    0  0.54721418696E+01 -0.15850603549E+02  0.78002006917E+02  0.94156779111E+02  0.50000000000E+02 0.  0.
<mgrwt>
<rscale>  0 0.52736951E+02</rscale>
<asrwt>0</asrwt>
<pdfrwt beam="1">  1       13 0.10000000E+01 0.52736951E+02</pdfrwt>
<pdfrwt beam="2">  1       22 0.13127408E+00 0.52736951E+02</pdfrwt>
<totfact> 0.93624355E-01</totfact>
</mgrwt>
</event>
<event>
 4    1  0.2409985E+000  0.5540583E+02  0.7957747E-01  0.1418189E+00
         13   -1    0    0    0    0  0.00000000000E+00  0.00000000000E+00  0.99999944184E+02  0.10000000000E+03  0.10566000000E+00 0.  1.
         22   -1    0    0    0    0 -0.00000000000E+00 -0.00000000000E+00 -0.37385288959E+02  0.37385288959E+02  0.00000000000E+00 0. -1.
         13    1    1    2    0    0 -0.71461961481E+01 -0.22775810839E+02 -0.24460079207E+02  0.34177658164E+02  0.10566000000E+00 0. -1.
        996    1    1    2    0    0  0.71461961481E+01  0.22775810839E+02  0.87074734432E+02  0.10320763080E+03  0.50000000000E+02 0.  0.
<mgrwt>
<rscale>  0 0.55405827E+02</rscale>
<asrwt>0</asrwt>
<pdfrwt beam="1">  1       13 0.10000000E+01 0.55405827E+02</pdfrwt>
<pdfrwt beam="2">  1       22 0.37385306E+00 0.55405827E+02</pdfrwt>
<totfact> 0.14039195E-01</totfact>
</mgrwt>
</event>
<event>
 4    1  0.2409985E+000  0.5352145E+02  0.7957747E-01  0.1427223E+00
         13   -1    0    0    0    0  0.00000000000E+00  0.00000000000E+00  0.99999944171E+02  0.99999999991E+02  0.10566000000E+00 0. -1.
         22   -1    0    0    0    0 -0.00000000000E+00 -0.00000000000E+00 -0.37535690636E+02  0.37535690636E+02  0.00000000000E+00 0.  1.
         13    1    1    2    0    0 -0.90033880741E+01  0.16837000794E+02 -0.27128390549E+02  0.33173880243E+02  0.10566000000E+00 0.  1.
        996    1    1    2    0    0  0.90033880741E+01 -0.16837000794E+02  0.89592644084E+02  0.10436181038E+03  0.50000000000E+02 0.  0.
<mgrwt>
<rscale>  0 0.53521450E+02</rscale>
<asrwt>0</asrwt>
<pdfrwt beam="1">  1       13 0.10000000E+01 0.53521450E+02</pdfrwt>
<pdfrwt beam="2">  1       22 0.37535708E+00 0.53521450E+02</pdfrwt>
<totfact> 0.13916209E-01</totfact>
</mgrwt>
</event>
<event>
 4    1  0.2409985E+000  0.6298541E+02  0.7957747E-01  0.1385714E+00
         13   -1    0    0    0    0  0.00000000000E+00  0.00000000000E+00  0.99999944178E+02  0.99999999998E+02  0.10566000000E+00 0.  1.
         22   -1    0    0    0    0 -0.00000000000E+00 -0.00000000000E+00 -0.28532419071E+02  0.28532419071E+02  0.00000000000E+00 0. -1.
         13    1    1    2    0    0  0.24028620901E+02 -0.29829297425E+02  0.80280435119E+01  0.39135945804E+02  0.10566000000E+00 0. -1.
        996    1    1    2    0    0 -0.24028620901E+02  0.29829297425E+02  0.63439481595E+02  0.89396473266E+02  0.50000000000E+02 0.  0.
<mgrwt>
<rscale>  0 0.62985408E+02</rscale>
<asrwt>0</asrwt>
<pdfrwt beam="1">  1       13 0.10000000E+01 0.62985408E+02</pdfrwt>
<pdfrwt beam="2">  1       22 0.28532439E+00 0.62985408E+02</pdfrwt>
<totfact> 0.23085794E-01</totfact>
</mgrwt>
</event>
<event>
 4    1  0.2409985E+000  0.5148755E+02  0.7957747E-01  0.1437479E+00
         13   -1    0    0    0    0  0.00000000000E+00  0.00000000000E+00  0.99999944179E+02  0.99999999999E+02  0.10566000000E+00 0. -1.
         22   -1    0    0    0    0 -0.00000000000E+00 -0.00000000000E+00 -0.10195051351E+02  0.10195051351E+02  0.00000000000E+00 0. -1.
         13    1    1    2    0    0  0.11902086275E+02 -0.30508995956E+01  0.15137829356E+02  0.19496991760E+02  0.10566000000E+00 0.  1.
        996    1    1    2    0    0 -0.11902086275E+02  0.30508995956E+01  0.74667063472E+02  0.90698059591E+02  0.50000000000E+02 0.  0.
<mgrwt>
<rscale>  0 0.51487548E+02</rscale>
<asrwt>0</asrwt>
<pdfrwt beam="1">  1       13 0.10000000E+01 0.51487548E+02</pdfrwt>
<pdfrwt beam="2">  1       22 0.10195076E+00 0.51487548E+02</pdfrwt>
<totfact> 0.13690987E+00</totfact>
</mgrwt>
</event>
<event>
 4    1  0.2409985E+000  0.5172687E+02  0.7957747E-01  0.1436244E+00
         13   -1    0    0    0    0  0.00000000000E+00  0.00000000000E+00  0.99999944182E+02  0.10000000000E+03  0.10566000000E+00 0. -1.
         22   -1    0    0    0    0 -0.00000000000E+00 -0.00000000000E+00 -0.10935703986E+02  0.10935703986E+02  0.00000000000E+00 0. -1.
         13    1    1    2    0    0  0.12458184149E+02 -0.45235327679E+01  0.10678450997E+02  0.17020845476E+02  0.10566000000E+00 0.  1.
        996    1    1    2    0    0 -0.12458184149E+02  0.45235327679E+01  0.78385789198E+02  0.93914858512E+02  0.50000000000E+02 0.  0.
<mgrwt>
<rscale>  0 0.51726866E+02</rscale>
<asrwt>0</asrwt>
<pdfrwt beam="1">  1       13 0.10000000E+01 0.51726866E+02</pdfrwt>
<pdfrwt beam="2">  1       22 0.10935729E+00 0.51726866E+02</pdfrwt>
<totfact> 0.12356695E+00</totfact>
</mgrwt>
</event>
<event>
 4    1  0.2409985E+000  0.5236027E+02  0.7957747E-01  0.1433011E+00
         13   -1    0    0    0    0  0.00000000000E+00  0.00000000000E+00  0.99999944181E+02  0.10000000000E+03  0.10566000000E+00 0.  1.
         22   -1    0    0    0    0 -0.00000000000E+00 -0.00000000000E+00 -0.13088788019E+02  0.13088788019E+02  0.00000000000E+00 0. -1.
         13    1    1    2    0    0 -0.15649504954E+01 -0.15464441282E+02  0.58926146263E+01  0.16623239317E+02  0.10566000000E+00 0. -1.
        996    1    1    2    0    0  0.15649504954E+01  0.15464441282E+02  0.81018541535E+02  0.96465548704E+02  0.50000000000E+02 0.  0.
<mgrwt>
<rscale>  0 0.52360271E+02</rscale>
<asrwt>0</asrwt>
<pdfrwt beam="1">  1       13 0.10000000E+01 0.52360271E+02</pdfrwt>
<pdfrwt beam="2">  1       22 0.13088812E+00 0.52360271E+02</pdfrwt>
<totfact> 0.93985534E-01</totfact>
</mgrwt>
</event>
<event>
 4    1  0.2409985E+000  0.5167468E+02  0.7957747E-01  0.1436513E+00
         13   -1    0    0    0    0  0.00000000000E+00  0.00000000000E+00  0.99999944178E+02  0.99999999998E+02  0.10566000000E+00 0.  1.
         22   -1    0    0    0    0 -0.00000000000E+00 -0.00000000000E+00 -0.19702476936E+02  0.19702476936E+02  0.00000000000E+00 0. -1.
         13    1    1    2    0    0  0.52422717767E+01  0.11949524809E+02 -0.94705001070E+01  0.16123712130E+02  0.10566000000E+00 0. -1.
        996    1    1    2    0    0 -0.52422717767E+01 -0.11949524809E+02  0.89767967348E+02  0.10357876480E+03  0.50000000000E+02 0.  0.
<mgrwt>
<rscale>  0 0.51674680E+02</rscale>
<asrwt>0</asrwt>
<pdfrwt beam="1">  1       13 0.10000000E+01 0.51674680E+02</pdfrwt>
<pdfrwt beam="2">  1       22 0.19702499E+00 0.51674680E+02</pdfrwt>
<totfact> 0.46561527E-01</totfact>
</mgrwt>
</event>
<event>
 4    1  0.2409985E+000  0.5302350E+02  0.7957747E-01  0.1429684E+00
         13   -1    0    0    0    0  0.00000000000E+00  0.00000000000E+00  0.99999944178E+02  0.99999999998E+02  0.10566000000E+00 0. -1.
         22   -1    0    0    0    0 -0.00000000000E+00 -0.00000000000E+00 -0.56301840806E+02  0.56301840806E+02  0.00000000000E+00 0.  1.
         13    1    1    2    0    0 -0.14999345239E+02  0.93011370576E+01 -0.47575875102E+02  0.50744128369E+02  0.10566000000E+00 0.  1.
        996    1    1    2    0    0  0.14999345239E+02 -0.93011370576E+01  0.91273978473E+02  0.10555771244E+03  0.50000000000E+02 0.  0.
<mgrwt>
<rscale>  0 0.53023500E+02</rscale>
<asrwt>0</asrwt>
<pdfrwt beam="1">  1       13 0.10000000E+01 0.53023500E+02</pdfrwt>
<pdfrwt beam="2">  1       22 0.56301853E+00 0.53023500E+02</pdfrwt>
<totfact> 0.58213292E-02</totfact>
</mgrwt>
</event>
<event>
 4    1  0.2409985E+000  0.5266015E+02  0.7957747E-01  0.1431500E+00
         13   -1    0    0    0    0  0.00000000000E+00  0.00000000000E+00  0.99999944181E+02  0.10000000000E+03  0.10566000000E+00 0. -1.
         22   -1    0    0    0    0 -0.00000000000E+00 -0.00000000000E+00 -0.35635474940E+02  0.35635474940E+02  0.00000000000E+00 0.  1.
         13    1    1    2    0    0  0.15663741900E+02 -0.52667718968E+01 -0.26139928309E+02  0.30925696638E+02  0.10566000000E+00 0.  1.
        996    1    1    2    0    0 -0.15663741900E+02  0.52667718968E+01  0.90504397549E+02  0.10470977830E+03  0.50000000000E+02 0.  0.
<mgrwt>
<rscale>  0 0.52660153E+02</rscale>
<asrwt>0</asrwt>
<pdfrwt beam="1">  1       13 0.10000000E+01 0.52660153E+02</pdfrwt>
<pdfrwt beam="2">  1       22 0.35635493E+00 0.52660153E+02</pdfrwt>
<totfact> 0.15239031E-01</totfact>
</mgrwt>
</event>
<event>
 4    1  0.2409985E+000  0.5622853E+02  0.7957747E-01  0.1414377E+00
         13   -1    0    0    0    0  0.00000000000E+00  0.00000000000E+00  0.99999944179E+02  0.10000000000E+03  0.10566000000E+00 0.  1.
         22   -1    0    0    0    0 -0.00000000000E+00 -0.00000000000E+00 -0.28616620607E+02  0.28616620607E+02  0.00000000000E+00 0. -1.
         13    1    1    2    0    0 -0.69428781786E+01  0.24767791674E+02 -0.11729062006E+02  0.28270640625E+02  0.10566000000E+00 0. -1.
        996    1    1    2    0    0  0.69428781786E+01 -0.24767791674E+02  0.83112385579E+02  0.10034597998E+03  0.50000000000E+02 0.  0.
<mgrwt>
<rscale>  0 0.56228525E+02</rscale>
<asrwt>0</asrwt>
<pdfrwt beam="1">  1       13 0.10000000E+01 0.56228525E+02</pdfrwt>
<pdfrwt beam="2">  1       22 0.28616641E+00 0.56228525E+02</pdfrwt>
<totfact> 0.22768569E-01</totfact>
</mgrwt>
</event>
<event>
 4    1  0.2409985E+000  0.5334635E+02  0.7957747E-01  0.1428085E+00
         13   -1    0    0    0    0  0.00000000000E+00  0.00000000000E+00  0.99999944178E+02  0.99999999999E+02  0.10566000000E+00 0.  1.
         22   -1    0    0    0    0 -0.00000000000E+00 -0.00000000000E+00 -0.14791629008E+02  0.14791629008E+02  0.00000000000E+00 0.  1.
         13    1    1    2    0    0  0.18392533976E+01  0.18505421949E+02  0.64835037836E+01  0.19694681514E+02  0.10566000000E+00 0. -1.
        996    1    1    2    0    0 -0.18392533976E+01 -0.18505421949E+02  0.78724811387E+02  0.95096947493E+02  0.50000000000E+02 0.  0.
<mgrwt>
<rscale>  0 0.53346354E+02</rscale>
<asrwt>0</asrwt>
<pdfrwt beam="1">  1       13 0.10000000E+01 0.53346354E+02</pdfrwt>
<pdfrwt beam="2">  1       22 0.14791653E+00 0.53346354E+02</pdfrwt>
<totfact> 0.77272418E-01</totfact>
</mgrwt>
</event>
<event>
 4    1  0.2409985E+000  0.5570125E+02  0.7957747E-01  0.1416811E+00
         13   -1    0    0    0    0  0.00000000000E+00  0.00000000000E+00  0.99999944185E+02  0.10000000001E+03  0.10566000000E+00 0. -1.
         22   -1    0    0    0    0 -0.00000000000E+00 -0.00000000000E+00 -0.29846223616E+02  0.29846223616E+02  0.00000000000E+00 0.  1.
         13    1    1    2    0    0 -0.74134725262E+01 -0.23402333285E+02 -0.14499635775E+02  0.28511039611E+02  0.10566000000E+00 0.  1.
        996    1    1    2    0    0  0.74134725262E+01  0.23402333285E+02  0.84653356344E+02  0.10133518401E+03  0.50000000000E+02 0.  0.
<mgrwt>
<rscale>  0 0.55701246E+02</rscale>
<asrwt>0</asrwt>
<pdfrwt beam="1">  1       13 0.10000000E+01 0.55701246E+02</pdfrwt>
<pdfrwt beam="2">  1       22 0.29846243E+00 0.55701246E+02</pdfrwt>
<totfact> 0.21002558E-01</totfact>
</mgrwt>
</event>
<event>
 4    1  0.2409985E+000  0.6103992E+02  0.7957747E-01  0.1393519E+00
         13   -1    0    0    0    0  0.00000000000E+00  0.00000000000E+00  0.99999944178E+02  0.99999999999E+02  0.10566000000E+00 0. -1.
         22   -1    0    0    0    0 -0.00000000000E+00 -0.00000000000E+00 -0.61902589904E+02  0.61902589904E+02  0.00000000000E+00 0.  1.
         13    1    1    2    0    0 -0.23311632404E+02  0.26123548034E+02 -0.46111488738E+02  0.57897776510E+02  0.10566000000E+00 0.  1.
        996    1    1    2    0    0  0.23311632404E+02 -0.26123548034E+02  0.84208843012E+02  0.10400481339E+03  0.50000000000E+02 0.  0.
<mgrwt>
<rscale>  0 0.61039921E+02</rscale>
<asrwt>0</asrwt>
<pdfrwt beam="1">  1       13 0.10000000E+01 0.61039921E+02</pdfrwt>
<pdfrwt beam="2">  1       22 0.61902601E+00 0.61039921E+02</pdfrwt>
<totfact> 0.72382388E-02</totfact>
</mgrwt>
</event>
<event>
 4    1  0.2409985E+000  0.5603567E+02  0.7957747E-01  0.1415264E+00
         13   -1    0    0    0    0  0.00000000000E+00  0.00000000000E+00  0.99999944184E+02  0.10000000000E+03  0.10566000000E+00 0. -1.
         22   -1    0    0    0    0 -0.00000000000E+00 -0.00000000000E+00 -0.26909330488E+02  0.26909330488E+02  0.00000000000E+00 0.  1.
         13    1    1    2    0    0 -0.18437678519E+02  0.17321917348E+02 -0.95679521022E+01  0.27047249051E+02  0.10566000000E+00 0.  1.
        996    1    1    2    0    0  0.18437678519E+02 -0.17321917348E+02  0.82658565799E+02  0.99862081441E+02  0.50000000000E+02 0.  0.
<mgrwt>
<rscale>  0 0.56035674E+02</rscale>
<asrwt>0</asrwt>
<pdfrwt beam="1">  1       13 0.10000000E+01 0.56035674E+02</pdfrwt>
<pdfrwt beam="2">  1       22 0.26909351E+00 0.56035674E+02</pdfrwt>
<totfact> 0.25656406E-01</totfact>
</mgrwt>
</event>
<event>
 4    1  0.2409985E+000  0.5115960E+02  0.7957747E-01  0.1439185E+00
         13   -1    0    0    0    0  0.00000000000E+00  0.00000000000E+00  0.99999944180E+02  0.10000000000E+03  0.10566000000E+00 0. -1.
         22   -1    0    0    0    0 -0.00000000000E+00 -0.00000000000E+00 -0.10369822692E+02  0.10369822692E+02  0.00000000000E+00 0. -1.
         13    1    1    2    0    0  0.58474902033E+00  0.10814947307E+02  0.61359984872E+01  0.12448560484E+02  0.10566000000E+00 0.  1.
        996    1    1    2    0    0 -0.58474902033E+00 -0.10814947307E+02  0.83494123001E+02  0.97921262207E+02  0.50000000000E+02 0.  0.
<mgrwt>
<rscale>  0 0.51159603E+02</rscale>
<asrwt>0</asrwt>
<pdfrwt beam="1">  1       13 0.10000000E+01 0.51159603E+02</pdfrwt>
<pdfrwt beam="2">  1       22 0.10369848E+00 0.51159603E+02</pdfrwt>
<totfact> 0.13345114E+00</totfact>
</mgrwt>
</event>
<event>
 4    1  0.2409985E+000  0.6086959E+02  0.7957747E-01  0.1394218E+00
         13   -1    0    0    0    0  0.00000000000E+00  0.00000000000E+00  0.99999944178E+02  0.99999999998E+02  0.10566000000E+00 0.  1.
         22   -1    0    0    0    0 -0.00000000000E+00 -0.00000000000E+00 -0.23590410365E+02  0.23590410365E+02  0.00000000000E+00 0. -1.
         13    1    1    2    0    0 -0.29892734355E+02  0.17650259994E+02  0.17475096533E+02  0.38865118139E+02  0.10566000000E+00 0. -1.
        996    1    1    2    0    0  0.29892734355E+02 -0.17650259994E+02  0.58934437279E+02  0.84725292224E+02  0.50000000000E+02 0.  0.
<mgrwt>
<rscale>  0 0.60869592E+02</rscale>
<asrwt>0</asrwt>
<pdfrwt beam="1">  1       13 0.10000000E+01 0.60869592E+02</pdfrwt>
<pdfrwt beam="2">  1       22 0.23590432E+00 0.60869592E+02</pdfrwt>
<totfact> 0.33475847E-01</totfact>
</mgrwt>
</event>
<event>
 4    1  0.2409985E+000  0.5199145E+02  0.7957747E-01  0.1434887E+00
         13   -1    0    0    0    0  0.00000000000E+00  0.00000000000E+00  0.99999944178E+02  0.99999999998E+02  0.10566000000E+00 0. -1.
         22   -1    0    0    0    0 -0.00000000000E+00 -0.00000000000E+00 -0.14123378602E+02  0.14123378602E+02  0.00000000000E+00 0.  1.
         13    1    1    2    0    0  0.10743430658E+02 -0.93642814346E+01  0.62131084275E+00  0.14265632138E+02  0.10566000000E+00 0.  1.
        996    1    1    2    0    0 -0.10743430658E+02  0.93642814346E+01  0.85255254733E+02  0.99857746463E+02  0.50000000000E+02 0.  0.
<mgrwt>
<rscale>  0 0.51991452E+02</rscale>
<asrwt>0</asrwt>
<pdfrwt beam="1">  1       13 0.10000000E+01 0.51991452E+02</pdfrwt>
<pdfrwt beam="2">  1       22 0.14123403E+00 0.51991452E+02</pdfrwt>
<totfact> 0.83133458E-01</totfact>
</mgrwt>
</event>
<event>
 4    1  0.2409985E+000  0.5296443E+02  0.7957747E-01  0.1429978E+00
         13   -1    0    0    0    0  0.00000000000E+00  0.00000000000E+00  0.99999944170E+02  0.99999999991E+02  0.10566000000E+00 0.  1.
         22   -1    0    0    0    0 -0.00000000000E+00 -0.00000000000E+00 -0.13515405496E+02  0.13515405496E+02  0.00000000000E+00 0.  1.
         13    1    1    2    0    0  0.15456961538E+02  0.81432979978E+01  0.89846787009E+01  0.19646032110E+02  0.10566000000E+00 0. -1.
        996    1    1    2    0    0 -0.15456961538E+02 -0.81432979978E+01  0.77499859973E+02  0.93869373377E+02  0.50000000000E+02 0.  0.
<mgrwt>
<rscale>  0 0.52964431E+02</rscale>
<asrwt>0</asrwt>
<pdfrwt beam="1">  1       13 0.10000000E+01 0.52964431E+02</pdfrwt>
<pdfrwt beam="2">  1       22 0.13515430E+00 0.52964431E+02</pdfrwt>
<totfact> 0.89428864E-01</totfact>
</mgrwt>
</event>
<event>
 4    1  0.2409985E+000  0.9085243E+02  0.7957747E-01  0.1300800E+00
         13   -1    0    0    0    0  0.00000000000E+00  0.00000000000E+00  0.99999944183E+02  0.10000000000E+03  0.10566000000E+00 0. -1.
         22   -1    0    0    0    0 -0.00000000000E+00 -0.00000000000E+00 -0.76142918676E+02  0.76142918676E+02  0.00000000000E+00 0.  1.
         13    1    1    2    0    0  0.67187165379E+02  0.35214316909E+02 -0.15007971298E+02  0.77326668579E+02  0.10566000000E+00 0.  1.
        996    1    1    2    0    0 -0.67187165379E+02 -0.35214316909E+02  0.38864996805E+02  0.98816250099E+02  0.50000000000E+02 0.  0.
<mgrwt>
<rscale>  0 0.90852426E+02</rscale>
<asrwt>0</asrwt>
<pdfrwt beam="1">  1       13 0.10000000E+01 0.90852426E+02</pdfrwt>
<pdfrwt beam="2">  1       22 0.76142925E+00 0.90852426E+02</pdfrwt>
<totfact> 0.44059288E-02</totfact>
</mgrwt>
</event>
<event>
 4    1  0.2409985E+000  0.5116834E+02  0.7957747E-01  0.1439140E+00
         13   -1    0    0    0    0  0.00000000000E+00  0.00000000000E+00  0.99999944182E+02  0.10000000000E+03  0.10566000000E+00 0.  1.
         22   -1    0    0    0    0 -0.00000000000E+00 -0.00000000000E+00 -0.12929814255E+02  0.12929814255E+02  0.00000000000E+00 0. -1.
         13    1    1    2    0    0 -0.71051475867E+01  0.82289705927E+01 -0.11618104662E+01  0.10934351688E+02  0.10566000000E+00 0. -1.
        996    1    1    2    0    0  0.71051475867E+01 -0.82289705927E+01  0.88231940393E+02  0.10199546257E+03  0.50000000000E+02 0.  0.
<mgrwt>
<rscale>  0 0.51168341E+02</rscale>
<asrwt>0</asrwt>
<pdfrwt beam="1">  1       13 0.10000000E+01 0.51168341E+02</pdfrwt>
<pdfrwt beam="2">  1       22 0.12929839E+00 0.51168341E+02</pdfrwt>
<totfact> 0.95564659E-01</totfact>
</mgrwt>
</event>
<event>
 4    1  0.2409985E+000  0.5200669E+02  0.7957747E-01  0.1434809E+00
         13   -1    0    0    0    0  0.00000000000E+00  0.00000000000E+00  0.99999944185E+02  0.10000000001E+03  0.10566000000E+00 0. -1.
         22   -1    0    0    0    0 -0.00000000000E+00 -0.00000000000E+00 -0.15705146826E+02  0.15705146826E+02  0.00000000000E+00 0.  1.
         13    1    1    2    0    0  0.11026449171E+02 -0.91166594861E+01 -0.24976841761E+01  0.14523968183E+02  0.10566000000E+00 0.  1.
        996    1    1    2    0    0 -0.11026449171E+02  0.91166594861E+01  0.86792481535E+02  0.10118117865E+03  0.50000000000E+02 0.  0.
<mgrwt>
<rscale>  0 0.52006692E+02</rscale>
<asrwt>0</asrwt>
<pdfrwt beam="1">  1       13 0.10000000E+01 0.52006692E+02</pdfrwt>
<pdfrwt beam="2">  1       22 0.15705170E+00 0.52006692E+02</pdfrwt>
<totfact> 0.69699015E-01</totfact>
</mgrwt>
</event>
<event>
 4    1  0.2409985E+000  0.5125520E+02  0.7957747E-01  0.1438687E+00
         13   -1    0    0    0    0  0.00000000000E+00  0.00000000000E+00  0.99999944174E+02  0.99999999995E+02  0.10566000000E+00 0. -1.
         22   -1    0    0    0    0 -0.00000000000E+00 -0.00000000000E+00 -0.20460013532E+02  0.20460013532E+02  0.00000000000E+00 0. -1.
         13    1    1    2    0    0  0.79301639784E+01  0.80129719962E+01  0.66666218737E+02  0.67612802823E+02  0.10566000000E+00 0.  1.
        996    1    1    2    0    0 -0.79301639784E+01 -0.80129719962E+01  0.12873711905E+02  0.52847210704E+02  0.50000000000E+02 0.  0.
<mgrwt>
<rscale>  0 0.51255197E+02</rscale>
<asrwt>0</asrwt>
<pdfrwt beam="1">  1       13 0.10000000E+01 0.51255197E+02</pdfrwt>
<pdfrwt beam="2">  1       22 0.20460036E+00 0.51255197E+02</pdfrwt>
<totfact> 0.43361024E-01</totfact>
</mgrwt>
</event>
<event>
 4    1  0.2409985E+000  0.5113702E+02  0.7957747E-01  0.1439304E+00
         13   -1    0    0    0    0  0.00000000000E+00  0.00000000000E+00  0.99999944186E+02  0.10000000001E+03  0.10566000000E+00 0.  1.
         22   -1    0    0    0    0 -0.00000000000E+00 -0.00000000000E+00 -0.10800032990E+02  0.10800032990E+02  0.00000000000E+00 0. -1.
         13    1    1    2    0    0  0.10188702359E+02  0.33444049978E+01  0.40273205632E+01  0.11455355757E+02  0.10566000000E+00 0. -1.
        996    1    1    2    0    0 -0.10188702359E+02 -0.33444049978E+01  0.85172590633E+02  0.99344677239E+02  0.50000000000E+02 0.  0.
<mgrwt>
<rscale>  0 0.51137019E+02</rscale>
<asrwt>0</asrwt>
<pdfrwt beam="1">  1       13 0.10000000E+01 0.51137019E+02</pdfrwt>
<pdfrwt beam="2">  1       22 0.10800058E+00 0.51137019E+02</pdfrwt>
<totfact> 0.12570038E+00</totfact>
</mgrwt>
</event>
<event>
 4    1  0.2409985E+000  0.5387010E+02  0.7957747E-01  0.1425519E+00
         13   -1    0    0    0    0  0.00000000000E+00  0.00000000000E+00  0.99999944185E+02  0.10000000000E+03  0.10566000000E+00 0. -1.
         22   -1    0    0    0    0 -0.00000000000E+00 -0.00000000000E+00 -0.47570433993E+02  0.47570433993E+02  0.00000000000E+00 0.  1.
         13    1    1    2    0    0  0.20032780625E+02  0.82191206122E+00 -0.37624719830E+02  0.42633537800E+02  0.10566000000E+00 0.  1.
        996    1    1    2    0    0 -0.20032780625E+02 -0.82191206122E+00  0.90054230022E+02  0.10493689620E+03  0.50000000000E+02 0.  0.
<mgrwt>
<rscale>  0 0.53870102E+02</rscale>
<asrwt>0</asrwt>
<pdfrwt beam="1">  1       13 0.10000000E+01 0.53870102E+02</pdfrwt>
<pdfrwt beam="2">  1       22 0.47570449E+00 0.53870102E+02</pdfrwt>
<totfact> 0.84298320E-02</totfact>
</mgrwt>
</event>
<event>
 4    1  0.2409985E+000  0.5426194E+02  0.7957747E-01  0.1423622E+00
         13   -1    0    0    0    0  0.00000000000E+00  0.00000000000E+00  0.99999944179E+02  0.99999999999E+02  0.10566000000E+00 0. -1.
         22   -1    0    0    0    0 -0.00000000000E+00 -0.00000000000E+00 -0.38539697390E+02  0.38539697390E+02  0.00000000000E+00 0.  1.
         13    1    1    2    0    0  0.16332015084E+02  0.13327526432E+02 -0.27309649745E+02  0.34499069708E+02  0.10566000000E+00 0.  1.
        996    1    1    2    0    0 -0.16332015084E+02 -0.13327526432E+02  0.88769896534E+02  0.10404062768E+03  0.50000000000E+02 0.  0.
<mgrwt>
<rscale>  0 0.54261936E+02</rscale>
<asrwt>0</asrwt>
<pdfrwt beam="1">  1       13 0.10000000E+01 0.54261936E+02</pdfrwt>
<pdfrwt beam="2">  1       22 0.38539715E+00 0.54261936E+02</pdfrwt>
<totfact> 0.13277052E-01</totfact>
</mgrwt>
</event>
<event>
 4    1  0.2409985E+000  0.5584897E+02  0.7957747E-01  0.1416126E+00
         13   -1    0    0    0    0  0.00000000000E+00  0.00000000000E+00  0.99999944175E+02  0.99999999995E+02  0.10566000000E+00 0.  1.
         22   -1    0    0    0    0 -0.00000000000E+00 -0.00000000000E+00 -0.27619493034E+02  0.27619493034E+02  0.00000000000E+00 0. -1.
         13    1    1    2    0    0 -0.43214956474E+01  0.24503712605E+02 -0.11046907333E+02  0.27224117648E+02  0.10566000000E+00 0. -1.
        996    1    1    2    0    0  0.43214956474E+01 -0.24503712605E+02  0.83427358474E+02  0.10039537538E+03  0.50000000000E+02 0.  0.
<mgrwt>
<rscale>  0 0.55848968E+02</rscale>
<asrwt>0</asrwt>
<pdfrwt beam="1">  1       13 0.10000000E+01 0.55848968E+02</pdfrwt>
<pdfrwt beam="2">  1       22 0.27619513E+00 0.55848968E+02</pdfrwt>
<totfact> 0.24375913E-01</totfact>
</mgrwt>
</event>
<event>
 4    1  0.2409985E+000  0.5739846E+02  0.7957747E-01  0.1409085E+00
         13   -1    0    0    0    0  0.00000000000E+00  0.00000000000E+00  0.99999944172E+02  0.99999999992E+02  0.10566000000E+00 0.  1.
         22   -1    0    0    0    0 -0.00000000000E+00 -0.00000000000E+00 -0.24142861556E+02  0.24142861556E+02  0.00000000000E+00 0. -1.
         13    1    1    2    0    0  0.22359996676E+01 -0.28099530057E+02 -0.10139029855E+01  0.28206780164E+02  0.10566000000E+00 0. -1.
        996    1    1    2    0    0 -0.22359996676E+01  0.28099530057E+02  0.76870985602E+02  0.95936081384E+02  0.50000000000E+02 0.  0.
<mgrwt>
<rscale>  0 0.57398461E+02</rscale>
<asrwt>0</asrwt>
<pdfrwt beam="1">  1       13 0.10000000E+01 0.57398461E+02</pdfrwt>
<pdfrwt beam="2">  1       22 0.24142883E+00 0.57398461E+02</pdfrwt>
<totfact> 0.31831347E-01</totfact>
</mgrwt>
</event>
<event>
 4    1  0.2409985E+000  0.5139470E+02  0.7957747E-01  0.1437961E+00
         13   -1    0    0    0    0  0.00000000000E+00  0.00000000000E+00  0.99999944174E+02  0.99999999994E+02  0.10566000000E+00 0.  1.
         22   -1    0    0    0    0 -0.00000000000E+00 -0.00000000000E+00 -0.22097582934E+02  0.22097582934E+02  0.00000000000E+00 0. -1.
         13    1    1    2    0    0 -0.79242790443E+01  0.88668767054E+01 -0.13033125157E+02  0.17643390158E+02  0.10566000000E+00 0. -1.
        996    1    1    2    0    0  0.79242790443E+01 -0.88668767054E+01  0.90935486397E+02  0.10445419277E+03  0.50000000000E+02 0.  0.
<mgrwt>
<rscale>  0 0.51394705E+02</rscale>
<asrwt>0</asrwt>
<pdfrwt beam="1">  1       13 0.10000000E+01 0.51394705E+02</pdfrwt>
<pdfrwt beam="2">  1       22 0.22097605E+00 0.51394705E+02</pdfrwt>
<totfact> 0.37461555E-01</totfact>
</mgrwt>
</event>
<event>
 4    1  0.2409985E+000  0.5216644E+02  0.7957747E-01  0.1433995E+00
         13   -1    0    0    0    0  0.00000000000E+00  0.00000000000E+00  0.99999944176E+02  0.99999999996E+02  0.10566000000E+00 0. -1.
         22   -1    0    0    0    0 -0.00000000000E+00 -0.00000000000E+00 -0.14898473331E+02  0.14898473331E+02  0.00000000000E+00 0.  1.
         13    1    1    2    0    0  0.14757759230E+02  0.18830059380E+01 -0.23567568792E+00  0.14879646364E+02  0.10566000000E+00 0.  1.
        996    1    1    2    0    0 -0.14757759230E+02 -0.18830059380E+01  0.85337146533E+02  0.10001882696E+03  0.50000000000E+02 0.  0.
<mgrwt>
<rscale>  0 0.52166437E+02</rscale>
<asrwt>0</asrwt>
<pdfrwt beam="1">  1       13 0.10000000E+01 0.52166437E+02</pdfrwt>
<pdfrwt beam="2">  1       22 0.14898497E+00 0.52166437E+02</pdfrwt>
<totfact> 0.76173479E-01</totfact>
</mgrwt>
</event>
<event>
 4    1  0.2409985E+000  0.5310652E+02  0.7957747E-01  0.1429271E+00
         13   -1    0    0    0    0  0.00000000000E+00  0.00000000000E+00  0.99999944180E+02  0.10000000000E+03  0.10566000000E+00 0.  1.
         22   -1    0    0    0    0 -0.00000000000E+00 -0.00000000000E+00 -0.13803044244E+02  0.13803044244E+02  0.00000000000E+00 0. -1.
         13    1    1    2    0    0  0.17186602753E+02 -0.49923431572E+01  0.88141807948E+01  0.19950031367E+02  0.10566000000E+00 0. -1.
        996    1    1    2    0    0 -0.17186602753E+02  0.49923431572E+01  0.77382719142E+02  0.93853012877E+02  0.50000000000E+02 0.  0.
<mgrwt>
<rscale>  0 0.53106523E+02</rscale>
<asrwt>0</asrwt>
<pdfrwt beam="1">  1       13 0.10000000E+01 0.53106523E+02</pdfrwt>
<pdfrwt beam="2">  1       22 0.13803068E+00 0.53106523E+02</pdfrwt>
<totfact> 0.86480691E-01</totfact>
</mgrwt>
</event>
<event>
 4    1  0.2409985E+000  0.5254001E+02  0.7957747E-01  0.1432104E+00
         13   -1    0    0    0    0  0.00000000000E+00  0.00000000000E+00  0.99999944182E+02  0.10000000000E+03  0.10566000000E+00 0. -1.
         22   -1    0    0    0    0 -0.00000000000E+00 -0.00000000000E+00 -0.17910959438E+02  0.17910959438E+02  0.00000000000E+00 0. -1.
         13    1    1    2    0    0  0.10081456724E+02  0.12602256565E+02 -0.43876499928E+01  0.16724690631E+02  0.10566000000E+00 0.  1.
        996    1    1    2    0    0 -0.10081456724E+02 -0.12602256565E+02  0.86476634737E+02  0.10118626881E+03  0.50000000000E+02 0.  0.
<mgrwt>
<rscale>  0 0.52540010E+02</rscale>
<asrwt>0</asrwt>
<pdfrwt beam="1">  1       13 0.10000000E+01 0.52540010E+02</pdfrwt>
<pdfrwt beam="2">  1       22 0.17910982E+00 0.52540010E+02</pdfrwt>
<totfact> 0.55486939E-01</totfact>
</mgrwt>
</event>
<event>
 4    1  0.2409985E+000  0.5156739E+02  0.7957747E-01  0.1437066E+00
         13   -1    0    0    0    0  0.00000000000E+00  0.00000000000E+00  0.99999944166E+02  0.99999999986E+02  0.10566000000E+00 0. -1.
         22   -1    0    0    0    0 -0.00000000000E+00 -0.00000000000E+00 -0.18319732854E+02  0.18319732854E+02  0.00000000000E+00 0. -1.
         13    1    1    2    0    0 -0.79675790213E+01  0.97833417198E+01 -0.79503351591E+01  0.14913587223E+02  0.10566000000E+00 0.  1.
        996    1    1    2    0    0  0.79675790213E+01 -0.97833417198E+01  0.89630546471E+02  0.10340614562E+03  0.50000000000E+02 0.  0.
<mgrwt>
<rscale>  0 0.51567394E+02</rscale>
<asrwt>0</asrwt>
<pdfrwt beam="1">  1       13 0.10000000E+01 0.51567394E+02</pdfrwt>
<pdfrwt beam="2">  1       22 0.18319756E+00 0.51567394E+02</pdfrwt>
<totfact> 0.53184014E-01</totfact>
</mgrwt>
</event>
<event>
 4    1  0.2409985E+000  0.6773081E+02  0.7957747E-01  0.1367984E+00
         13   -1    0    0    0    0  0.00000000000E+00  0.00000000000E+00  0.99999944176E+02  0.99999999997E+02  0.10566000000E+00 0. -1.
         22   -1    0    0    0    0 -0.00000000000E+00 -0.00000000000E+00 -0.51614832628E+02  0.51614832628E+02  0.00000000000E+00 0.  1.
         13    1    1    2    0    0 -0.13665390606E+02 -0.43597242950E+02 -0.24727215449E+02  0.51951023485E+02  0.10566000000E+00 0.  1.
        996    1    1    2    0    0  0.13665390606E+02  0.43597242950E+02  0.73112326997E+02  0.99663809139E+02  0.50000000000E+02 0.  0.
<mgrwt>
<rscale>  0 0.67730809E+02</rscale>
<asrwt>0</asrwt>
<pdfrwt beam="1">  1       13 0.10000000E+01 0.67730809E+02</pdfrwt>
<pdfrwt beam="2">  1       22 0.51614846E+00 0.67730809E+02</pdfrwt>
<totfact> 0.67958812E-02</totfact>
</mgrwt>
</event>
<event>
 4    1  0.2409985E+000  0.5203695E+02  0.7957747E-01  0.1434655E+00
         13   -1    0    0    0    0  0.00000000000E+00  0.00000000000E+00  0.99999944179E+02  0.99999999999E+02  0.10566000000E+00 0.  1.
         22   -1    0    0    0    0 -0.00000000000E+00 -0.00000000000E+00 -0.11412449759E+02  0.11412449759E+02  0.00000000000E+00 0.  1.
         13    1    1    2    0    0  0.29480650624E+01 -0.14112161835E+02  0.28391749926E+02  0.31842531733E+02  0.10566000000E+00 0. -1.
        996    1    1    2    0    0 -0.29480650624E+01  0.14112161835E+02  0.60195744494E+02  0.79569918025E+02  0.50000000000E+02 0.  0.
<mgrwt>
<rscale>  0 0.52036950E+02</rscale>
<asrwt>0</asrwt>
<pdfrwt beam="1">  1       13 0.10000000E+01 0.52036950E+02</pdfrwt>
<pdfrwt beam="2">  1       22 0.11412474E+00 0.52036950E+02</pdfrwt>
<totfact> 0.11601367E+00</totfact>
</mgrwt>
</event>
<event>
 4    1  0.2409985E+000  0.5145582E+02  0.7957747E-01  0.1437644E+00
         13   -1    0    0    0    0  0.00000000000E+00  0.00000000000E+00  0.99999944178E+02  0.99999999998E+02  0.10566000000E+00 0. -1.
         22   -1    0    0    0    0 -0.00000000000E+00 -0.00000000000E+00 -0.26731514638E+02  0.26731514638E+02  0.00000000000E+00 0.  1.
         13    1    1    2    0    0  0.80959738881E+01  0.90640289567E+01 -0.18140147246E+02  0.21835235750E+02  0.10566000000E+00 0.  1.
        996    1    1    2    0    0 -0.80959738881E+01 -0.90640289567E+01  0.91408576785E+02  0.10489627889E+03  0.50000000000E+02 0.  0.
<mgrwt>
<rscale>  0 0.51455820E+02</rscale>
<asrwt>0</asrwt>
<pdfrwt beam="1">  1       13 0.10000000E+01 0.51455820E+02</pdfrwt>
<pdfrwt beam="2">  1       22 0.26731535E+00 0.51455820E+02</pdfrwt>
<totfact> 0.25821941E-01</totfact>
</mgrwt>
</event>
<event>
 4    1  0.2409985E+000  0.5816539E+02  0.7957747E-01  0.1405696E+00
         13   -1    0    0    0    0  0.00000000000E+00  0.00000000000E+00  0.99999944180E+02  0.10000000000E+03  0.10566000000E+00 0.  1.
         22   -1    0    0    0    0 -0.00000000000E+00 -0.00000000000E+00 -0.20509084660E+02  0.20509084660E+02  0.00000000000E+00 0. -1.
         13    1    1    2    0    0 -0.18492443965E+02  0.23264615330E+02  0.13796441523E+02  0.32765313565E+02  0.10566000000E+00 0. -1.
        996    1    1    2    0    0  0.18492443965E+02 -0.23264615330E+02  0.65694417997E+02  0.87743771096E+02  0.50000000000E+02 0.  0.
<mgrwt>
<rscale>  0 0.58165392E+02</rscale>
<asrwt>0</asrwt>
<pdfrwt beam="1">  1       13 0.10000000E+01 0.58165392E+02</pdfrwt>
<pdfrwt beam="2">  1       22 0.20509107E+00 0.58165392E+02</pdfrwt>
<totfact> 0.43670273E-01</totfact>
</mgrwt>
</event>
<event>
 4    1  0.2409985E+000  0.5263578E+02  0.7957747E-01  0.1431622E+00
         13   -1    0    0    0    0  0.00000000000E+00  0.00000000000E+00  0.99999944178E+02  0.99999999998E+02  0.10566000000E+00 0.  1.
         22   -1    0    0    0    0 -0.00000000000E+00 -0.00000000000E+00 -0.48156931090E+02  0.48156931090E+02  0.00000000000E+00 0. -1.
         13    1    1    2    0    0 -0.15919455226E+02  0.41347669751E+01 -0.39469792744E+02  0.42759806547E+02  0.10566000000E+00 0. -1.
        996    1    1    2    0    0  0.15919455226E+02 -0.41347669751E+01  0.91312805832E+02  0.10539712454E+03  0.50000000000E+02 0.  0.
<mgrwt>
<rscale>  0 0.52635780E+02</rscale>
<asrwt>0</asrwt>
<pdfrwt beam="1">  1       13 0.10000000E+01 0.52635780E+02</pdfrwt>
<pdfrwt beam="2">  1       22 0.48156946E+00 0.52635780E+02</pdfrwt>
<totfact> 0.81573120E-02</totfact>
</mgrwt>
</event>
<event>
 4    1  0.2409985E+000  0.5111005E+02  0.7957747E-01  0.1439445E+00
         13   -1    0    0    0    0  0.00000000000E+00  0.00000000000E+00  0.99999944177E+02  0.99999999997E+02  0.10566000000E+00 0.  1.
         22   -1    0    0    0    0 -0.00000000000E+00 -0.00000000000E+00 -0.17219297629E+02  0.17219297629E+02  0.00000000000E+00 0.  1.
         13    1    1    2    0    0  0.65485461037E+01  0.83278991376E+01 -0.78394193639E+01  0.13179720032E+02  0.10566000000E+00 0. -1.
        996    1    1    2    0    0 -0.65485461037E+01 -0.83278991376E+01  0.90620065912E+02  0.10403957759E+03  0.50000000000E+02 0.  0.
<mgrwt>
<rscale>  0 0.51110051E+02</rscale>
<asrwt>0</asrwt>
<pdfrwt beam="1">  1       13 0.10000000E+01 0.51110051E+02</pdfrwt>
<pdfrwt beam="2">  1       22 0.17219321E+00 0.51110051E+02</pdfrwt>
<totfact> 0.59342019E-01</totfact>
</mgrwt>
</event>
<event>
 4    1  0.2409985E+000  0.5235140E+02  0.7957747E-01  0.1433056E+00
         13   -1    0    0    0    0  0.00000000000E+00  0.00000000000E+00  0.99999944185E+02  0.10000000001E+03  0.10566000000E+00 0. -1.
         22   -1    0    0    0    0 -0.00000000000E+00 -0.00000000000E+00 -0.32325679650E+02  0.32325679650E+02  0.00000000000E+00 0.  1.
         13    1    1    2    0    0  0.74597794741E+01  0.13602228876E+02 -0.22929572134E+02  0.27684749999E+02  0.10566000000E+00 0.  1.
        996    1    1    2    0    0 -0.74597794741E+01 -0.13602228876E+02  0.90603836669E+02  0.10464092966E+03  0.50000000000E+02 0.  0.
<mgrwt>
<rscale>  0 0.52351399E+02</rscale>
<asrwt>0</asrwt>
<pdfrwt beam="1">  1       13 0.10000000E+01 0.52351399E+02</pdfrwt>
<pdfrwt beam="2">  1       22 0.32325699E+00 0.52351399E+02</pdfrwt>
<totfact> 0.18075726E-01</totfact>
</mgrwt>
</event>
<event>
 4    1  0.2409985E+000  0.5163137E+02  0.7957747E-01  0.1436736E+00
         13   -1    0    0    0    0  0.00000000000E+00  0.00000000000E+00  0.99999944180E+02  0.10000000000E+03  0.10566000000E+00 0. -1.
         22   -1    0    0    0    0 -0.00000000000E+00 -0.00000000000E+00 -0.10825069447E+02  0.10825069447E+02  0.00000000000E+00 0. -1.
         13    1    1    2    0    0 -0.12725428700E+00  0.12875654833E+02  0.27684997430E+02  0.30533079238E+02  0.10566000000E+00 0.  1.
        996    1    1    2    0    0  0.12725428700E+00 -0.12875654833E+02  0.61489877303E+02  0.80291990210E+02  0.50000000000E+02 0.  0.
<mgrwt>
<rscale>  0 0.51631373E+02</rscale>
<asrwt>0</asrwt>
<pdfrwt beam="1">  1       13 0.10000000E+01 0.51631373E+02</pdfrwt>
<pdfrwt beam="2">  1       22 0.10825094E+00 0.51631373E+02</pdfrwt>
<totfact> 0.12541630E+00</totfact>
</mgrwt>
</event>
<event>
 4    1  0.2409985E+000  0.5348573E+02  0.7957747E-01  0.1427399E+00
         13   -1    0    0    0    0  0.00000000000E+00  0.00000000000E+00  0.99999944177E+02  0.99999999997E+02  0.10566000000E+00 0. -1.
         22   -1    0    0    0    0 -0.00000000000E+00 -0.00000000000E+00 -0.13220903914E+02  0.13220903914E+02  0.00000000000E+00 0. -1.
         13    1    1    2    0    0  0.18897362151E+02 -0.19007053548E+01  0.18811582142E+02  0.26732185915E+02  0.10566000000E+00 0.  1.
        996    1    1    2    0    0 -0.18897362151E+02  0.19007053548E+01  0.67967458121E+02  0.86488717995E+02  0.50000000000E+02 0.  0.
<mgrwt>
<rscale>  0 0.53485727E+02</rscale>
<asrwt>0</asrwt>
<pdfrwt beam="1">  1       13 0.10000000E+01 0.53485727E+02</pdfrwt>
<pdfrwt beam="2">  1       22 0.13220928E+00 0.53485727E+02</pdfrwt>
<totfact> 0.92723475E-01</totfact>
</mgrwt>
</event>
<event>
 4    1  0.2409985E+000  0.5120223E+02  0.7957747E-01  0.1438963E+00
         13   -1    0    0    0    0  0.00000000000E+00  0.00000000000E+00  0.99999944189E+02  0.10000000001E+03  0.10566000000E+00 0. -1.
         22   -1    0    0    0    0 -0.00000000000E+00 -0.00000000000E+00 -0.17377520336E+02  0.17377520336E+02  0.00000000000E+00 0.  1.
         13    1    1    2    0    0  0.82422854283E+01 -0.73302843476E+01 -0.77686736024E+01  0.13491915775E+02  0.10566000000E+00 0.  1.
        996    1    1    2    0    0 -0.82422854283E+01  0.73302843476E+01  0.90391097456E+02  0.10388560457E+03  0.50000000000E+02 0.  0.
<mgrwt>
<rscale>  0 0.51202230E+02</rscale>
<asrwt>0</asrwt>
<pdfrwt beam="1">  1       13 0.10000000E+01 0.51202230E+02</pdfrwt>
<pdfrwt beam="2">  1       22 0.17377543E+00 0.51202230E+02</pdfrwt>
<totfact> 0.58402849E-01</totfact>
</mgrwt>
</event>
<event>
 4    1  0.2409985E+000  0.5113927E+02  0.7957747E-01  0.1439292E+00
         13   -1    0    0    0    0  0.00000000000E+00  0.00000000000E+00  0.99999944183E+02  0.10000000000E+03  0.10566000000E+00 0.  1.
         22   -1    0    0    0    0 -0.00000000000E+00 -0.00000000000E+00 -0.15938044513E+02  0.15938044513E+02  0.00000000000E+00 0. -1.
         13    1    1    2    0    0 -0.10171064245E+02  0.34313343534E+01 -0.60530151787E+01  0.12323747811E+02  0.10566000000E+00 0. -1.
        996    1    1    2    0    0  0.10171064245E+02 -0.34313343534E+01  0.90114914849E+02  0.10361429670E+03  0.50000000000E+02 0.  0.
<mgrwt>
<rscale>  0 0.51139267E+02</rscale>
<asrwt>0</asrwt>
<pdfrwt beam="1">  1       13 0.10000000E+01 0.51139267E+02</pdfrwt>
<pdfrwt beam="2">  1       22 0.15938068E+00 0.51139267E+02</pdfrwt>
<totfact> 0.67856288E-01</totfact>
</mgrwt>
</event>
<event>
 4    1  0.2409985E+000  0.5276606E+02  0.7957747E-01  0.1430969E+00
         13   -1    0    0    0    0  0.00000000000E+00  0.00000000000E+00  0.99999944182E+02  0.10000000000E+03  0.10566000000E+00 0. -1.
         22   -1    0    0    0    0 -0.00000000000E+00 -0.00000000000E+00 -0.12291102453E+02  0.12291102453E+02  0.00000000000E+00 0. -1.
         13    1    1    2    0    0  0.16659585129E+02 -0.25914575447E+01  0.15857083774E+02  0.23145533019E+02  0.10566000000E+00 0.  1.
        996    1    1    2    0    0 -0.16659585129E+02  0.25914575447E+01  0.71851757955E+02  0.89145569436E+02  0.50000000000E+02 0.  0.
<mgrwt>
<rscale>  0 0.52766063E+02</rscale>
<asrwt>0</asrwt>
<pdfrwt beam="1">  1       13 0.10000000E+01 0.52766063E+02</pdfrwt>
<pdfrwt beam="2">  1       22 0.12291127E+00 0.52766063E+02</pdfrwt>
<totfact> 0.10377760E+00</totfact>
</mgrwt>
</event>
<event>
 4    1  0.2409985E+000  0.5821836E+02  0.7957747E-01  0.1405464E+00
         13   -1    0    0    0    0  0.00000000000E+00  0.00000000000E+00  0.99999944178E+02  0.99999999998E+02  0.10566000000E+00 0. -1.
         22   -1    0    0    0    0 -0.00000000000E+00 -0.00000000000E+00 -0.21652710510E+02  0.21652710510E+02  0.00000000000E+00 0.  1.
         13    1    1    2    0    0 -0.15213862065E+02  0.25649872906E+02  0.90914135743E+01  0.31177596826E+02  0.10566000000E+00 0.  1.
        996    1    1    2    0    0  0.15213862065E+02 -0.25649872906E+02  0.69255820094E+02  0.90475113683E+02  0.50000000000E+02 0.  0.
<mgrwt>
<rscale>  0 0.58218361E+02</rscale>
<asrwt>0</asrwt>
<pdfrwt beam="1">  1       13 0.10000000E+01 0.58218361E+02</pdfrwt>
<pdfrwt beam="2">  1       22 0.21652732E+00 0.58218361E+02</pdfrwt>
<totfact> 0.39387727E-01</totfact>
</mgrwt>
</event>
<event>
 4    1  0.2409985E+000  0.5360933E+02  0.7957747E-01  0.1426792E+00
         13   -1    0    0    0    0  0.00000000000E+00  0.00000000000E+00  0.99999944178E+02  0.99999999999E+02  0.10566000000E+00 0.  1.
         22   -1    0    0    0    0 -0.00000000000E+00 -0.00000000000E+00 -0.30644667114E+02  0.30644667114E+02  0.00000000000E+00 0. -1.
         13    1    1    2    0    0  0.67423824133E+01 -0.18124585974E+02 -0.19120256796E+02  0.27194773787E+02  0.10566000000E+00 0. -1.
        996    1    1    2    0    0 -0.67423824133E+01  0.18124585974E+02  0.88475533860E+02  0.10344989333E+03  0.50000000000E+02 0.  0.
<mgrwt>
<rscale>  0 0.53609331E+02</rscale>
<asrwt>0</asrwt>
<pdfrwt beam="1">  1       13 0.10000000E+01 0.53609331E+02</pdfrwt>
<pdfrwt beam="2">  1       22 0.30644686E+00 0.53609331E+02</pdfrwt>
<totfact> 0.19943071E-01</totfact>
</mgrwt>
</event>
<event>
 4    1  0.2409985E+000  0.5116840E+02  0.7957747E-01  0.1439140E+00
         13   -1    0    0    0    0  0.00000000000E+00  0.00000000000E+00  0.99999944178E+02  0.99999999998E+02  0.10566000000E+00 0. -1.
         22   -1    0    0    0    0 -0.00000000000E+00 -0.00000000000E+00 -0.10433264568E+02  0.10433264568E+02  0.00000000000E+00 0. -1.
         13    1    1    2    0    0 -0.97315059225E+01 -0.48479790944E+01  0.59270200076E+01  0.12383288700E+02  0.10566000000E+00 0.  1.
        996    1    1    2    0    0  0.97315059225E+01  0.48479790944E+01  0.83639659602E+02  0.98049975866E+02  0.50000000000E+02 0.  0.
<mgrwt>
<rscale>  0 0.51168400E+02</rscale>
<asrwt>0</asrwt>
<pdfrwt beam="1">  1       13 0.10000000E+01 0.51168400E+02</pdfrwt>
<pdfrwt beam="2">  1       22 0.10433290E+00 0.51168400E+02</pdfrwt>
<totfact> 0.13226801E+00</totfact>
</mgrwt>
</event>
<event>
 4    1  0.2409985E+000  0.5268718E+02  0.7957747E-01  0.1431364E+00
         13   -1    0    0    0    0  0.00000000000E+00  0.00000000000E+00  0.99999944175E+02  0.99999999996E+02  0.10566000000E+00 0.  1.
         22   -1    0    0    0    0 -0.00000000000E+00 -0.00000000000E+00 -0.18756942930E+02  0.18756942930E+02  0.00000000000E+00 0. -1.
         13    1    1    2    0    0  0.15259853961E+02 -0.65632228481E+01 -0.53006463175E+01  0.17436945044E+02  0.10566000000E+00 0. -1.
        996    1    1    2    0    0 -0.15259853961E+02  0.65632228481E+01  0.86543647563E+02  0.10131999788E+03  0.50000000000E+02 0.  0.
<mgrwt>
<rscale>  0 0.52687181E+02</rscale>
<asrwt>0</asrwt>
<pdfrwt beam="1">  1       13 0.10000000E+01 0.52687181E+02</pdfrwt>
<pdfrwt beam="2">  1       22 0.18756966E+00 0.52687181E+02</pdfrwt>
<totfact> 0.51063095E-01</totfact>
</mgrwt>
</event>
<event>
 4    1  0.2409985E+000  0.5621751E+02  0.7957747E-01  0.1414427E+00
         13   -1    0    0    0    0  0.00000000000E+00  0.00000000000E+00  0.99999944177E+02  0.99999999997E+02  0.10566000000E+00 0.  1.
         22   -1    0    0    0    0 -0.00000000000E+00 -0.00000000000E+00 -0.31173270847E+02  0.31173270847E+02  0.00000000000E+00 0. -1.
         13    1    1    2    0    0  0.17251582405E+02  0.19047085313E+02 -0.15362035396E+02  0.29940137774E+02  0.10566000000E+00 0. -1.
        996    1    1    2    0    0 -0.17251582405E+02 -0.19047085313E+02  0.84188708725E+02  0.10123313307E+03  0.50000000000E+02 0.  0.
<mgrwt>
<rscale>  0 0.56217511E+02</rscale>
<asrwt>0</asrwt>
<pdfrwt beam="1">  1       13 0.10000000E+01 0.56217511E+02</pdfrwt>
<pdfrwt beam="2">  1       22 0.31173290E+00 0.56217511E+02</pdfrwt>
<totfact> 0.19387152E-01</totfact>
</mgrwt>
</event>
<event>
 4    1  0.2409985E+000  0.5123043E+02  0.7957747E-01  0.1438816E+00
         13   -1    0    0    0    0  0.00000000000E+00  0.00000000000E+00  0.99999944180E+02  0.10000000000E+03  0.10566000000E+00 0.  1.
         22   -1    0    0    0    0 -0.00000000000E+00 -0.00000000000E+00 -0.18104978965E+02  0.18104978965E+02  0.00000000000E+00 0. -1.
         13    1    1    2    0    0 -0.10343128868E+02 -0.41924541131E+01 -0.86169443893E+01  0.14100350383E+02  0.10566000000E+00 0. -1.
        996    1    1    2    0    0  0.10343128868E+02  0.41924541131E+01  0.90511909604E+02  0.10400462858E+03  0.50000000000E+02 0.  0.
<mgrwt>
<rscale>  0 0.51230430E+02</rscale>
<asrwt>0</asrwt>
<pdfrwt beam="1">  1       13 0.10000000E+01 0.51230430E+02</pdfrwt>
<pdfrwt beam="2">  1       22 0.18105002E+00 0.51230430E+02</pdfrwt>
<totfact> 0.54290544E-01</totfact>
</mgrwt>
</event>
<event>
 4    1  0.2409985E+000  0.5115741E+02  0.7957747E-01  0.1439197E+00
         13   -1    0    0    0    0  0.00000000000E+00  0.00000000000E+00  0.99999944181E+02  0.10000000000E+03  0.10566000000E+00 0.  1.
         22   -1    0    0    0    0 -0.00000000000E+00 -0.00000000000E+00 -0.14229499197E+02  0.14229499197E+02  0.00000000000E+00 0. -1.
         13    1    1    2    0    0 -0.59235558747E+01  0.90549704922E+01 -0.34718238484E+01  0.11364230272E+02  0.10566000000E+00 0. -1.
        996    1    1    2    0    0  0.59235558747E+01 -0.90549704922E+01  0.89242268833E+02  0.10286526893E+03  0.50000000000E+02 0.  0.
<mgrwt>
<rscale>  0 0.51157414E+02</rscale>
<asrwt>0</asrwt>
<pdfrwt beam="1">  1       13 0.10000000E+01 0.51157414E+02</pdfrwt>
<pdfrwt beam="2">  1       22 0.14229523E+00 0.51157414E+02</pdfrwt>
<totfact> 0.81982041E-01</totfact>
</mgrwt>
</event>
<event>
 4    1  0.2409985E+000  0.5637552E+02  0.7957747E-01  0.1413704E+00
         13   -1    0    0    0    0  0.00000000000E+00  0.00000000000E+00  0.99999944192E+02  0.10000000001E+03  0.10566000000E+00 0.  1.
         22   -1    0    0    0    0 -0.00000000000E+00 -0.00000000000E+00 -0.17484033360E+02  0.17484033360E+02  0.00000000000E+00 0. -1.
         13    1    1    2    0    0 -0.23903629930E+02  0.10335143962E+02  0.17231554937E+02  0.31227173649E+02  0.10566000000E+00 0. -1.
        996    1    1    2    0    0  0.23903629930E+02 -0.10335143962E+02  0.65284355895E+02  0.86256859722E+02  0.50000000000E+02 0.  0.
<mgrwt>
<rscale>  0 0.56375515E+02</rscale>
<asrwt>0</asrwt>
<pdfrwt beam="1">  1       13 0.10000000E+01 0.56375515E+02</pdfrwt>
<pdfrwt beam="2">  1       22 0.17484056E+00 0.56375515E+02</pdfrwt>
<totfact> 0.58329202E-01</totfact>
</mgrwt>
</event>
<event>
 4    1  0.2409985E+000  0.5474369E+02  0.7957747E-01  0.1421315E+00
         13   -1    0    0    0    0  0.00000000000E+00  0.00000000000E+00  0.99999944182E+02  0.10000000000E+03  0.10566000000E+00 0.  1.
         22   -1    0    0    0    0 -0.00000000000E+00 -0.00000000000E+00 -0.24325755203E+02  0.24325755203E+02  0.00000000000E+00 0. -1.
         13    1    1    2    0    0  0.21334390454E+02  0.64587473959E+01 -0.85495681142E+01  0.23874210206E+02  0.10566000000E+00 0. -1.
        996    1    1    2    0    0 -0.21334390454E+02 -0.64587473959E+01  0.84223757093E+02  0.10045154500E+03  0.50000000000E+02 0.  0.
<mgrwt>
<rscale>  0 0.54743690E+02</rscale>
<asrwt>0</asrwt>
<pdfrwt beam="1">  1       13 0.10000000E+01 0.54743690E+02</pdfrwt>
<pdfrwt beam="2">  1       22 0.24325776E+00 0.54743690E+02</pdfrwt>
<totfact> 0.31239595E-01</totfact>
</mgrwt>
</event>
<event>
 4    1  0.2409985E+000  0.5104675E+02  0.7957747E-01  0.1439776E+00
         13   -1    0    0    0    0  0.00000000000E+00  0.00000000000E+00  0.99999944179E+02  0.99999999999E+02  0.10566000000E+00 0. -1.
         22   -1    0    0    0    0 -0.00000000000E+00 -0.00000000000E+00 -0.15633390892E+02  0.15633390892E+02  0.00000000000E+00 0.  1.
         13    1    1    2    0    0  0.85485328412E+01  0.57178336952E+01 -0.59551867600E+01  0.11884714943E+02  0.10566000000E+00 0.  1.
        996    1    1    2    0    0 -0.85485328412E+01 -0.57178336952E+01  0.90321740047E+02  0.10374867595E+03  0.50000000000E+02 0.  0.
<mgrwt>
<rscale>  0 0.51046753E+02</rscale>
<asrwt>0</asrwt>
<pdfrwt beam="1">  1       13 0.10000000E+01 0.51046753E+02</pdfrwt>
<pdfrwt beam="2">  1       22 0.15633414E+00 0.51046753E+02</pdfrwt>
<totfact> 0.70105570E-01</totfact>
</mgrwt>
</event>
<event>
 4    1  0.2409985E+000  0.5239461E+02  0.7957747E-01  0.1432838E+00
         13   -1    0    0    0    0  0.00000000000E+00  0.00000000000E+00  0.99999944174E+02  0.99999999995E+02  0.10566000000E+00 0. -1.
         22   -1    0    0    0    0 -0.00000000000E+00 -0.00000000000E+00 -0.11579708219E+02  0.11579708219E+02  0.00000000000E+00 0. -1.
         13    1    1    2    0    0  0.10359696663E+02  0.11741889676E+02  0.20878352447E+02  0.26098123554E+02  0.10566000000E+00 0.  1.
        996    1    1    2    0    0 -0.10359696663E+02 -0.11741889676E+02  0.67541883508E+02  0.85481584660E+02  0.50000000000E+02 0.  0.
<mgrwt>
<rscale>  0 0.52394611E+02</rscale>
<asrwt>0</asrwt>
<pdfrwt beam="1">  1       13 0.10000000E+01 0.52394611E+02</pdfrwt>
<pdfrwt beam="2">  1       22 0.11579733E+00 0.52394611E+02</pdfrwt>
<totfact> 0.11358707E+00</totfact>
</mgrwt>
</event>
<event>
 4    1  0.2409985E+000  0.5173769E+02  0.7957747E-01  0.1436188E+00
         13   -1    0    0    0    0  0.00000000000E+00  0.00000000000E+00  0.99999944179E+02  0.99999999999E+02  0.10566000000E+00 0.  1.
         22   -1    0    0    0    0 -0.00000000000E+00 -0.00000000000E+00 -0.15692110281E+02  0.15692110281E+02  0.00000000000E+00 0.  1.
         13    1    1    2    0    0  0.11719982825E+02 -0.62793645070E+01 -0.35232128827E+01  0.13755457429E+02  0.10566000000E+00 0. -1.
        996    1    1    2    0    0 -0.11719982825E+02  0.62793645070E+01  0.87831046780E+02  0.10193665285E+03  0.50000000000E+02 0.  0.
<mgrwt>
<rscale>  0 0.51737689E+02</rscale>
<asrwt>0</asrwt>
<pdfrwt beam="1">  1       13 0.10000000E+01 0.51737689E+02</pdfrwt>
<pdfrwt beam="2">  1       22 0.15692134E+00 0.51737689E+02</pdfrwt>
<totfact> 0.69759519E-01</totfact>
</mgrwt>
</event>
<event>
 4    1  0.2409985E+000  0.5243824E+02  0.7957747E-01  0.1432617E+00
         13   -1    0    0    0    0  0.00000000000E+00  0.00000000000E+00  0.99999944182E+02  0.10000000000E+03  0.10566000000E+00 0.  1.
         22   -1    0    0    0    0 -0.00000000000E+00 -0.00000000000E+00 -0.15321874124E+02  0.15321874124E+02  0.00000000000E+00 0. -1.
         13    1    1    2    0    0 -0.10558321016E+02  0.11759698648E+02  0.97371803650E-01  0.15804723986E+02  0.10566000000E+00 0. -1.
        996    1    1    2    0    0  0.10558321016E+02 -0.11759698648E+02  0.84580698255E+02  0.99517150141E+02  0.50000000000E+02 0.  0.
<mgrwt>
<rscale>  0 0.52438237E+02</rscale>
<asrwt>0</asrwt>
<pdfrwt beam="1">  1       13 0.10000000E+01 0.52438237E+02</pdfrwt>
<pdfrwt beam="2">  1       22 0.15321898E+00 0.52438237E+02</pdfrwt>
<totfact> 0.72730552E-01</totfact>
</mgrwt>
</event>
<event>
 4    1  0.2409985E+000  0.7214244E+02  0.7957747E-01  0.1352955E+00
         13   -1    0    0    0    0  0.00000000000E+00  0.00000000000E+00  0.99999944173E+02  0.99999999993E+02  0.10566000000E+00 0. -1.
         22   -1    0    0    0    0 -0.00000000000E+00 -0.00000000000E+00 -0.70366009215E+02  0.70366009215E+02  0.00000000000E+00 0.  1.
         13    1    1    2    0    0 -0.41416373864E+02 -0.31451793086E+02 -0.43380283577E+02  0.67722902179E+02  0.10566000000E+00 0.  1.
        996    1    1    2    0    0  0.41416373864E+02  0.31451793086E+02  0.73014218535E+02  0.10264310703E+03  0.50000000000E+02 0.  0.
<mgrwt>
<rscale>  0 0.72142438E+02</rscale>
<asrwt>0</asrwt>
<pdfrwt beam="1">  1       13 0.10000000E+01 0.72142438E+02</pdfrwt>
<pdfrwt beam="2">  1       22 0.70366018E+00 0.72142438E+02</pdfrwt>
<totfact> 0.72736425E-02</totfact>
</mgrwt>
</event>
<event>
 4    1  0.2409985E+000  0.5931749E+02  0.7957747E-01  0.1400718E+00
         13   -1    0    0    0    0  0.00000000000E+00  0.00000000000E+00  0.99999944180E+02  0.10000000000E+03  0.10566000000E+00 0. -1.
         22   -1    0    0    0    0 -0.00000000000E+00 -0.00000000000E+00 -0.21257448179E+02  0.21257448179E+02  0.00000000000E+00 0. -1.
         13    1    1    2    0    0 -0.22623377275E+02 -0.22511062113E+02  0.19382362363E+02  0.37339687353E+02  0.10566000000E+00 0.  1.
        996    1    1    2    0    0  0.22623377275E+02  0.22511062113E+02  0.59360133638E+02  0.83917760827E+02  0.50000000000E+02 0.  0.
<mgrwt>
<rscale>  0 0.59317494E+02</rscale>
<asrwt>0</asrwt>
<pdfrwt beam="1">  1       13 0.10000000E+01 0.59317494E+02</pdfrwt>
<pdfrwt beam="2">  1       22 0.21257470E+00 0.59317494E+02</pdfrwt>
<totfact> 0.40869996E-01</totfact>
</mgrwt>
</event>
<event>
 4    1  0.2409985E+000  0.5135303E+02  0.7957747E-01  0.1438177E+00
         13   -1    0    0    0    0  0.00000000000E+00  0.00000000000E+00  0.99999944181E+02  0.10000000000E+03  0.10566000000E+00 0. -1.
         22   -1    0    0    0    0 -0.00000000000E+00 -0.00000000000E+00 -0.12369276083E+02  0.12369276083E+02  0.00000000000E+00 0.  1.
         13    1    1    2    0    0  0.10462423195E+02 -0.52603362444E+01  0.11191552961E+01  0.11764230069E+02  0.10566000000E+00 0.  1.
        996    1    1    2    0    0 -0.10462423195E+02  0.52603362444E+01  0.86511512801E+02  0.10060504601E+03  0.50000000000E+02 0.  0.
<mgrwt>
<rscale>  0 0.51353028E+02</rscale>
<asrwt>0</asrwt>
<pdfrwt beam="1">  1       13 0.10000000E+01 0.51353028E+02</pdfrwt>
<pdfrwt beam="2">  1       22 0.12369301E+00 0.51353028E+02</pdfrwt>
<totfact> 0.10244501E+00</totfact>
</mgrwt>
</event>
<event>
 4    1  0.2409985E+000  0.5250397E+02  0.7957747E-01  0.1432285E+00
         13   -1    0    0    0    0  0.00000000000E+00  0.00000000000E+00  0.99999944177E+02  0.99999999997E+02  0.10566000000E+00 0. -1.
         22   -1    0    0    0    0 -0.00000000000E+00 -0.00000000000E+00 -0.47878382719E+02  0.47878382719E+02  0.00000000000E+00 0.  1.
         13    1    1    2    0    0  0.15857848216E+02 -0.22793537899E+01 -0.39307003465E+02  0.42446654629E+02  0.10566000000E+00 0.  1.
        996    1    1    2    0    0 -0.15857848216E+02  0.22793537899E+01  0.91428564922E+02  0.10543172809E+03  0.50000000000E+02 0.  0.
<mgrwt>
<rscale>  0 0.52503969E+02</rscale>
<asrwt>0</asrwt>
<pdfrwt beam="1">  1       13 0.10000000E+01 0.52503969E+02</pdfrwt>
<pdfrwt beam="2">  1       22 0.47878397E+00 0.52503969E+02</pdfrwt>
<totfact> 0.82828609E-02</totfact>
</mgrwt>
</event>
<event>
 4    1  0.2409985E+000  0.5150537E+02  0.7957747E-01  0.1437387E+00
         13   -1    0    0    0    0  0.00000000000E+00  0.00000000000E+00  0.99999944179E+02  0.10000000000E+03  0.10566000000E+00 0. -1.
         22   -1    0    0    0    0 -0.00000000000E+00 -0.00000000000E+00 -0.10675127090E+02  0.10675127090E+02  0.00000000000E+00 0. -1.
         13    1    1    2    0    0 -0.91504696030E+01  0.83109714477E+01  0.91414375186E+01  0.15374666966E+02  0.10566000000E+00 0.  1.
        996    1    1    2    0    0  0.91504696030E+01 -0.83109714477E+01  0.80183379571E+02  0.95300460124E+02  0.50000000000E+02 0.  0.
<mgrwt>
<rscale>  0 0.51505372E+02</rscale>
<asrwt>0</asrwt>
<pdfrwt beam="1">  1       13 0.10000000E+01 0.51505372E+02</pdfrwt>
<pdfrwt beam="2">  1       22 0.10675152E+00 0.51505372E+02</pdfrwt>
<totfact> 0.12799000E+00</totfact>
</mgrwt>
</event>
<event>
 4    1  0.2409985E+000  0.5102168E+02  0.7957747E-01  0.1439908E+00
         13   -1    0    0    0    0  0.00000000000E+00  0.00000000000E+00  0.99999944179E+02  0.99999999999E+02  0.10566000000E+00 0.  1.
         22   -1    0    0    0    0 -0.00000000000E+00 -0.00000000000E+00 -0.11368449718E+02  0.11368449718E+02  0.00000000000E+00 0.  1.
         13    1    1    2    0    0 -0.10075314836E+02  0.13038988722E+01  0.38581008374E+02  0.39896334324E+02  0.10566000000E+00 0. -1.
        996    1    1    2    0    0  0.10075314836E+02 -0.13038988722E+01  0.50050486087E+02  0.71472115394E+02  0.50000000000E+02 0.  0.
<mgrwt>
<rscale>  0 0.51021683E+02</rscale>
<asrwt>0</asrwt>
<pdfrwt beam="1">  1       13 0.10000000E+01 0.51021683E+02</pdfrwt>
<pdfrwt beam="2">  1       22 0.11368474E+00 0.51021683E+02</pdfrwt>
<totfact> 0.11641699E+00</totfact>
</mgrwt>
</event>
<event>
 4    1  0.2409985E+000  0.5556442E+02  0.7957747E-01  0.1417448E+00
         13   -1    0    0    0    0  0.00000000000E+00  0.00000000000E+00  0.99999944180E+02  0.10000000000E+03  0.10566000000E+00 0. -1.
         22   -1    0    0    0    0 -0.00000000000E+00 -0.00000000000E+00 -0.21664806978E+02  0.21664806978E+02  0.00000000000E+00 0. -1.
         13    1    1    2    0    0 -0.19583450912E+02  0.14279131817E+02 -0.16285411583E+01  0.24291324901E+02  0.10566000000E+00 0.  1.
        996    1    1    2    0    0  0.19583450912E+02 -0.14279131817E+02  0.79963678360E+02  0.97373482078E+02  0.50000000000E+02 0.  0.
<mgrwt>
<rscale>  0 0.55564423E+02</rscale>
<asrwt>0</asrwt>
<pdfrwt beam="1">  1       13 0.10000000E+01 0.55564423E+02</pdfrwt>
<pdfrwt beam="2">  1       22 0.21664829E+00 0.55564423E+02</pdfrwt>
<totfact> 0.39182805E-01</totfact>
</mgrwt>
</event>
<event>
 4    1  0.2409985E+000  0.5126137E+02  0.7957747E-01  0.1438654E+00
         13   -1    0    0    0    0  0.00000000000E+00  0.00000000000E+00  0.99999944178E+02  0.99999999998E+02  0.10566000000E+00 0.  1.
         22   -1    0    0    0    0 -0.00000000000E+00 -0.00000000000E+00 -0.11652838097E+02  0.11652838097E+02  0.00000000000E+00 0.  1.
         13    1    1    2    0    0 -0.17757828409E+01  0.11161304957E+02  0.23609229377E+01  0.11546135899E+02  0.10566000000E+00 0. -1.
        996    1    1    2    0    0  0.17757828409E+01 -0.11161304957E+02  0.85986183143E+02  0.10010670220E+03  0.50000000000E+02 0.  0.
<mgrwt>
<rscale>  0 0.51261371E+02</rscale>
<asrwt>0</asrwt>
<pdfrwt beam="1">  1       13 0.10000000E+01 0.51261371E+02</pdfrwt>
<pdfrwt beam="2">  1       22 0.11652863E+00 0.51261371E+02</pdfrwt>
<totfact> 0.11222093E+00</totfact>
</mgrwt>
</event>
<event>
 4    1  0.2409985E+000  0.5765372E+02  0.7957747E-01  0.1407950E+00
         13   -1    0    0    0    0  0.00000000000E+00  0.00000000000E+00  0.99999944177E+02  0.99999999997E+02  0.10566000000E+00 0. -1.
         22   -1    0    0    0    0 -0.00000000000E+00 -0.00000000000E+00 -0.32704377089E+02  0.32704377089E+02  0.00000000000E+00 0.  1.
         13    1    1    2    0    0 -0.19470952275E+02 -0.21091068315E+02 -0.14871358825E+02  0.32328309923E+02  0.10566000000E+00 0.  1.
        996    1    1    2    0    0  0.19470952275E+02  0.21091068315E+02  0.82166925913E+02  0.10037606716E+03  0.50000000000E+02 0.  0.
<mgrwt>
<rscale>  0 0.57653718E+02</rscale>
<asrwt>0</asrwt>
<pdfrwt beam="1">  1       13 0.10000000E+01 0.57653718E+02</pdfrwt>
<pdfrwt beam="2">  1       22 0.32704396E+00 0.57653718E+02</pdfrwt>
<totfact> 0.17809020E-01</totfact>
</mgrwt>
</event>
<event>
 4    1  0.2409985E+000  0.5187903E+02  0.7957747E-01  0.1435462E+00
         13   -1    0    0    0    0  0.00000000000E+00  0.00000000000E+00  0.99999944173E+02  0.99999999993E+02  0.10566000000E+00 0.  1.
         22   -1    0    0    0    0 -0.00000000000E+00 -0.00000000000E+00 -0.11119525267E+02  0.11119525267E+02  0.00000000000E+00 0.  1.
         13    1    1    2    0    0 -0.28673825300E+01  0.13535590410E+02  0.11680887050E+02  0.18107688330E+02  0.10566000000E+00 0. -1.
        996    1    1    2    0    0  0.28673825300E+01 -0.13535590410E+02  0.77199531856E+02  0.93011836930E+02  0.50000000000E+02 0.  0.
<mgrwt>
<rscale>  0 0.51879033E+02</rscale>
<asrwt>0</asrwt>
<pdfrwt beam="1">  1       13 0.10000000E+01 0.51879033E+02</pdfrwt>
<pdfrwt beam="2">  1       22 0.11119550E+00 0.51879033E+02</pdfrwt>
<totfact> 0.12058036E+00</totfact>
</mgrwt>
</event>
<event>
 4    1  0.2409985E+000  0.5981074E+02  0.7957747E-01  0.1398628E+00
         13   -1    0    0    0    0  0.00000000000E+00  0.00000000000E+00  0.99999944175E+02  0.99999999995E+02  0.10566000000E+00 0. -1.
         22   -1    0    0    0    0 -0.00000000000E+00 -0.00000000000E+00 -0.66920941681E+02  0.66920941681E+02  0.00000000000E+00 0.  1.
         13    1    1    2    0    0  0.31400687159E+02 -0.95562379118E+01 -0.52857527501E+02  0.62219403843E+02  0.10566000000E+00 0.  1.
        996    1    1    2    0    0 -0.31400687159E+02  0.95562379118E+01  0.85936529994E+02  0.10470153783E+03  0.50000000000E+02 0.  0.
<mgrwt>
<rscale>  0 0.59810742E+02</rscale>
<asrwt>0</asrwt>
<pdfrwt beam="1">  1       13 0.10000000E+01 0.59810742E+02</pdfrwt>
<pdfrwt beam="2">  1       22 0.66920951E+00 0.59810742E+02</pdfrwt>
<totfact> 0.86424988E-02</totfact>
</mgrwt>
</event>
<event>
 4    1  0.2409985E+000  0.5409088E+02  0.7957747E-01  0.1424448E+00
         13   -1    0    0    0    0  0.00000000000E+00  0.00000000000E+00  0.99999944181E+02  0.10000000000E+03  0.10566000000E+00 0. -1.
         22   -1    0    0    0    0 -0.00000000000E+00 -0.00000000000E+00 -0.17151702647E+02  0.17151702647E+02  0.00000000000E+00 0.  1.
         13    1    1    2    0    0  0.20204387901E+02  0.41960094567E+01  0.32145630650E+01  0.20884644252E+02  0.10566000000E+00 0.  1.
        996    1    1    2    0    0 -0.20204387901E+02 -0.41960094567E+01  0.79633678468E+02  0.96267058396E+02  0.50000000000E+02 0.  0.
<mgrwt>
<rscale>  0 0.54090884E+02</rscale>
<asrwt>0</asrwt>
<pdfrwt beam="1">  1       13 0.10000000E+01 0.54090884E+02</pdfrwt>
<pdfrwt beam="2">  1       22 0.17151726E+00 0.54090884E+02</pdfrwt>
<totfact> 0.60094618E-01</totfact>
</mgrwt>
</event>
<event>
 4    1  0.2409985E+000  0.5128561E+02  0.7957747E-01  0.1438528E+00
         13   -1    0    0    0    0  0.00000000000E+00  0.00000000000E+00  0.99999944176E+02  0.99999999996E+02  0.10566000000E+00 0.  1.
         22   -1    0    0    0    0 -0.00000000000E+00 -0.00000000000E+00 -0.13862719509E+02  0.13862719509E+02  0.00000000000E+00 0.  1.
         13    1    1    2    0    0 -0.92594047921E+01  0.66690872366E+01 -0.22903765860E+01  0.11639170529E+02  0.10566000000E+00 0. -1.
        996    1    1    2    0    0  0.92594047921E+01 -0.66690872366E+01  0.88427601253E+02  0.10222354897E+03  0.50000000000E+02 0.  0.
<mgrwt>
<rscale>  0 0.51285605E+02</rscale>
<asrwt>0</asrwt>
<pdfrwt beam="1">  1       13 0.10000000E+01 0.51285605E+02</pdfrwt>
<pdfrwt beam="2">  1       22 0.13862744E+00 0.51285605E+02</pdfrwt>
<totfact> 0.85552474E-01</totfact>
</mgrwt>
</event>
<event>
 4    1  0.2409985E+000  0.5391889E+02  0.7957747E-01  0.1425282E+00
         13   -1    0    0    0    0  0.00000000000E+00  0.00000000000E+00  0.99999944180E+02  0.10000000000E+03  0.10566000000E+00 0. -1.
         22   -1    0    0    0    0 -0.00000000000E+00 -0.00000000000E+00 -0.15149308039E+02  0.15149308039E+02  0.00000000000E+00 0. -1.
         13    1    1    2    0    0  0.89251735659E+00 -0.20160609980E+02  0.90231108759E+01  0.22105982808E+02  0.10566000000E+00 0.  1.
        996    1    1    2    0    0 -0.89251735659E+00  0.20160609980E+02  0.75827525265E+02  0.93043325230E+02  0.50000000000E+02 0.  0.
<mgrwt>
<rscale>  0 0.53918891E+02</rscale>
<asrwt>0</asrwt>
<pdfrwt beam="1">  1       13 0.10000000E+01 0.53918891E+02</pdfrwt>
<pdfrwt beam="2">  1       22 0.15149332E+00 0.53918891E+02</pdfrwt>
<totfact> 0.74342637E-01</totfact>
</mgrwt>
</event>
<event>
 4    1  0.2409985E+000  0.6511289E+02  0.7957747E-01  0.1377547E+00
         13   -1    0    0    0    0  0.00000000000E+00  0.00000000000E+00  0.99999944170E+02  0.99999999990E+02  0.10566000000E+00 0. -1.
         22   -1    0    0    0    0 -0.00000000000E+00 -0.00000000000E+00 -0.32630498123E+02  0.32630498123E+02  0.00000000000E+00 0.  1.
         13    1    1    2    0    0  0.20100244570E+02  0.36546792096E+02  0.42165212674E+01  0.41922285958E+02  0.10566000000E+00 0.  1.
        996    1    1    2    0    0 -0.20100244570E+02 -0.36546792096E+02  0.63152924779E+02  0.90708212155E+02  0.50000000000E+02 0.  0.
<mgrwt>
<rscale>  0 0.65112885E+02</rscale>
<asrwt>0</asrwt>
<pdfrwt beam="1">  1       13 0.10000000E+01 0.65112885E+02</pdfrwt>
<pdfrwt beam="2">  1       22 0.32630517E+00 0.65112885E+02</pdfrwt>
<totfact> 0.18012723E-01</totfact>
</mgrwt>
</event>
<event>
 4    1  0.2409985E+000  0.5110908E+02  0.7957747E-01  0.1439450E+00
         13   -1    0    0    0    0  0.00000000000E+00  0.00000000000E+00  0.99999944176E+02  0.99999999996E+02  0.10566000000E+00 0. -1.
         22   -1    0    0    0    0 -0.00000000000E+00 -0.00000000000E+00 -0.11879246558E+02  0.11879246558E+02  0.00000000000E+00 0. -1.
         13    1    1    2    0    0  0.76017359021E+01 -0.73723650993E+01  0.69812831891E+00  0.10613044006E+02  0.10566000000E+00 0.  1.
        996    1    1    2    0    0 -0.76017359021E+01  0.73723650993E+01  0.87422569299E+02  0.10126620255E+03  0.50000000000E+02 0.  0.
<mgrwt>
<rscale>  0 0.51109081E+02</rscale>
<asrwt>0</asrwt>
<pdfrwt beam="1">  1       13 0.10000000E+01 0.51109081E+02</pdfrwt>
<pdfrwt beam="2">  1       22 0.11879271E+00 0.51109081E+02</pdfrwt>
<totfact> 0.10894940E+00</totfact>
</mgrwt>
</event>
<event>
 4    1  0.2409985E+000  0.5536904E+02  0.7957747E-01  0.1418362E+00
         13   -1    0    0    0    0  0.00000000000E+00  0.00000000000E+00  0.99999944183E+02  0.10000000000E+03  0.10566000000E+00 0. -1.
         22   -1    0    0    0    0 -0.00000000000E+00 -0.00000000000E+00 -0.15964441541E+02  0.15964441541E+02  0.00000000000E+00 0. -1.
         13    1    1    2    0    0  0.20549378732E+02  0.11977208200E+02  0.18255559295E+02  0.29983446963E+02  0.10566000000E+00 0.  1.
        996    1    1    2    0    0 -0.20549378732E+02 -0.11977208200E+02  0.65779943346E+02  0.85980994581E+02  0.50000000000E+02 0.  0.
<mgrwt>
<rscale>  0 0.55369039E+02</rscale>
<asrwt>0</asrwt>
<pdfrwt beam="1">  1       13 0.10000000E+01 0.55369039E+02</pdfrwt>
<pdfrwt beam="2">  1       22 0.15964465E+00 0.55369039E+02</pdfrwt>
<totfact> 0.68222692E-01</totfact>
</mgrwt>
</event>
<event>
 4    1  0.2409985E+000  0.5442621E+02  0.7957747E-01  0.1422832E+00
         13   -1    0    0    0    0  0.00000000000E+00  0.00000000000E+00  0.99999944176E+02  0.99999999996E+02  0.10566000000E+00 0. -1.
         22   -1    0    0    0    0 -0.00000000000E+00 -0.00000000000E+00 -0.15159408551E+02  0.15159408551E+02  0.00000000000E+00 0. -1.
         13    1    1    2    0    0  0.21473732891E+02 -0.10446326606E+01  0.13342957057E+02  0.25303322484E+02  0.10566000000E+00 0.  1.
        996    1    1    2    0    0 -0.21473732891E+02  0.10446326606E+01  0.71497578568E+02  0.89856086064E+02  0.50000000000E+02 0.  0.
<mgrwt>
<rscale>  0 0.54426211E+02</rscale>
<asrwt>0</asrwt>
<pdfrwt beam="1">  1       13 0.10000000E+01 0.54426211E+02</pdfrwt>
<pdfrwt beam="2">  1       22 0.15159432E+00 0.54426211E+02</pdfrwt>
<totfact> 0.74333096E-01</totfact>
</mgrwt>
</event>
<event>
 4    1  0.2409985E+000  0.5550036E+02  0.7957747E-01  0.1417747E+00
         13   -1    0    0    0    0  0.00000000000E+00  0.00000000000E+00  0.99999944175E+02  0.99999999995E+02  0.10566000000E+00 0. -1.
         22   -1    0    0    0    0 -0.00000000000E+00 -0.00000000000E+00 -0.16874492649E+02  0.16874492649E+02  0.00000000000E+00 0. -1.
         13    1    1    2    0    0  0.63115734808E+01 -0.23247666634E+02  0.39562250877E+02  0.46319248938E+02  0.10566000000E+00 0.  1.
        996    1    1    2    0    0 -0.63115734808E+01  0.23247666634E+02  0.43563200648E+02  0.70555243706E+02  0.50000000000E+02 0.  0.
<mgrwt>
<rscale>  0 0.55500360E+02</rscale>
<asrwt>0</asrwt>
<pdfrwt beam="1">  1       13 0.10000000E+01 0.55500360E+02</pdfrwt>
<pdfrwt beam="2">  1       22 0.16874516E+00 0.55500360E+02</pdfrwt>
<totfact> 0.61997596E-01</totfact>
</mgrwt>
</event>
<event>
 4    1  0.2409985E+000  0.5099306E+02  0.7957747E-01  0.1440058E+00
         13   -1    0    0    0    0  0.00000000000E+00  0.00000000000E+00  0.99999944178E+02  0.99999999998E+02  0.10566000000E+00 0.  1.
         22   -1    0    0    0    0 -0.00000000000E+00 -0.00000000000E+00 -0.93724761639E+01  0.93724761639E+01  0.00000000000E+00 0.  1.
         13    1    1    2    0    0 -0.95855426761E+01 -0.28999860578E+01  0.18544712005E+02  0.21076291298E+02  0.10566000000E+00 0. -1.
        996    1    1    2    0    0  0.95855426761E+01  0.28999860578E+01  0.72082756010E+02  0.88296184864E+02  0.50000000000E+02 0.  0.
<mgrwt>
<rscale>  0 0.50993064E+02</rscale>
<asrwt>0</asrwt>
<pdfrwt beam="1">  1       13 0.10000000E+01 0.50993064E+02</pdfrwt>
<pdfrwt beam="2">  1       22 0.93725015E-01 0.50993064E+02</pdfrwt>
<totfact> 0.15434784E+00</totfact>
</mgrwt>
</event>
<event>
 4    1  0.2409985E+000  0.5154229E+02  0.7957747E-01  0.1437196E+00
         13   -1    0    0    0    0  0.00000000000E+00  0.00000000000E+00  0.99999944180E+02  0.10000000000E+03  0.10566000000E+00 0.  1.
         22   -1    0    0    0    0 -0.00000000000E+00 -0.00000000000E+00 -0.16706602987E+02  0.16706602987E+02  0.00000000000E+00 0. -1.
         13    1    1    2    0    0 -0.71862873367E+01 -0.10245243721E+02 -0.57882431231E+01  0.13788497636E+02  0.10566000000E+00 0. -1.
        996    1    1    2    0    0  0.71862873367E+01  0.10245243721E+02  0.89081584316E+02  0.10291810535E+03  0.50000000000E+02 0.  0.
<mgrwt>
<rscale>  0 0.51542291E+02</rscale>
<asrwt>0</asrwt>
<pdfrwt beam="1">  1       13 0.10000000E+01 0.51542291E+02</pdfrwt>
<pdfrwt beam="2">  1       22 0.16706626E+00 0.51542291E+02</pdfrwt>
<totfact> 0.62618694E-01</totfact>
</mgrwt>
</event>
<event>
 4    1  0.2409985E+000  0.5099729E+02  0.7957747E-01  0.1440036E+00
         13   -1    0    0    0    0  0.00000000000E+00  0.00000000000E+00  0.99999944183E+02  0.10000000000E+03  0.10566000000E+00 0. -1.
         22   -1    0    0    0    0 -0.00000000000E+00 -0.00000000000E+00 -0.93146287803E+01  0.93146287803E+01  0.00000000000E+00 0.  1.
         13    1    1    2    0    0  0.96664570271E+01  0.26986929971E+01  0.15481516123E+02  0.18450253138E+02  0.10566000000E+00 0.  1.
        996    1    1    2    0    0 -0.96664570271E+01 -0.26986929971E+01  0.75203799280E+02  0.90864375645E+02  0.50000000000E+02 0.  0.
<mgrwt>
<rscale>  0 0.50997288E+02</rscale>
<asrwt>0</asrwt>
<pdfrwt beam="1">  1       13 0.10000000E+01 0.50997288E+02</pdfrwt>
<pdfrwt beam="2">  1       22 0.93146541E-01 0.50997288E+02</pdfrwt>
<totfact> 0.15571493E+00</totfact>
</mgrwt>
</event>
<event>
 4    1  0.2409985E+000  0.5216671E+02  0.7957747E-01  0.1433993E+00
         13   -1    0    0    0    0  0.00000000000E+00  0.00000000000E+00  0.99999944182E+02  0.10000000000E+03  0.10566000000E+00 0. -1.
         22   -1    0    0    0    0 -0.00000000000E+00 -0.00000000000E+00 -0.11375562028E+02  0.11375562028E+02  0.00000000000E+00 0. -1.
         13    1    1    2    0    0  0.10995014739E+02  0.10023740591E+02  0.25074789591E+02  0.29156851024E+02  0.10566000000E+00 0.  1.
        996    1    1    2    0    0 -0.10995014739E+02 -0.10023740591E+02  0.63549592564E+02  0.82218711006E+02  0.50000000000E+02 0.  0.
<mgrwt>
<rscale>  0 0.52166711E+02</rscale>
<asrwt>0</asrwt>
<pdfrwt beam="1">  1       13 0.10000000E+01 0.52166711E+02</pdfrwt>
<pdfrwt beam="2">  1       22 0.11375587E+00 0.52166711E+02</pdfrwt>
<totfact> 0.11661443E+00</totfact>
</mgrwt>
</event>
<event>
 4    1  0.2409985E+000  0.5356707E+02  0.7957747E-01  0.1426999E+00
         13   -1    0    0    0    0  0.00000000000E+00  0.00000000000E+00  0.99999944186E+02  0.10000000001E+03  0.10566000000E+00 0.  1.
         22   -1    0    0    0    0 -0.00000000000E+00 -0.00000000000E+00 -0.16815203544E+02  0.16815203544E+02  0.00000000000E+00 0. -1.
         13    1    1    2    0    0  0.24058495223E+01 -0.19069414740E+02  0.16943737281E+01  0.19295407661E+02  0.10566000000E+00 0. -1.
        996    1    1    2    0    0 -0.24058495223E+01  0.19069414740E+02  0.81490366914E+02  0.97519795889E+02  0.50000000000E+02 0.  0.
<mgrwt>
<rscale>  0 0.53567067E+02</rscale>
<asrwt>0</asrwt>
<pdfrwt beam="1">  1       13 0.10000000E+01 0.53567067E+02</pdfrwt>
<pdfrwt beam="2">  1       22 0.16815227E+00 0.53567067E+02</pdfrwt>
<totfact> 0.62157787E-01</totfact>
</mgrwt>
</event>
<event>
 4    1  0.2409985E+000  0.5430014E+02  0.7957747E-01  0.1423438E+00
         13   -1    0    0    0    0  0.00000000000E+00  0.00000000000E+00  0.99999944183E+02  0.10000000000E+03  0.10566000000E+00 0. -1.
         22   -1    0    0    0    0 -0.00000000000E+00 -0.00000000000E+00 -0.37925929298E+02  0.37925929298E+02  0.00000000000E+00 0.  1.
         13    1    1    2    0    0  0.76665306290E+01  0.19741562986E+02 -0.26566990705E+02  0.33975302209E+02  0.10566000000E+00 0.  1.
        996    1    1    2    0    0 -0.76665306290E+01 -0.19741562986E+02  0.88641005590E+02  0.10395062709E+03  0.50000000000E+02 0.  0.
<mgrwt>
<rscale>  0 0.54300138E+02</rscale>
<asrwt>0</asrwt>
<pdfrwt beam="1">  1       13 0.10000000E+01 0.54300138E+02</pdfrwt>
<pdfrwt beam="2">  1       22 0.37925947E+00 0.54300138E+02</pdfrwt>
<totfact> 0.13669536E-01</totfact>
</mgrwt>
</event>
<event>
 4    1  0.2409985E+000  0.5575825E+02  0.7957747E-01  0.1416547E+00
         13   -1    0    0    0    0  0.00000000000E+00  0.00000000000E+00  0.99999944177E+02  0.99999999998E+02  0.10566000000E+00 0.  1.
         22   -1    0    0    0    0 -0.00000000000E+00 -0.00000000000E+00 -0.20205424398E+02  0.20205424398E+02  0.00000000000E+00 0. -1.
         13    1    1    2    0    0 -0.75415919943E+01  0.23496948593E+02  0.23677302891E+01  0.24791117639E+02  0.10566000000E+00 0. -1.
        996    1    1    2    0    0  0.75415919943E+01 -0.23496948593E+02  0.77426789491E+02  0.95414306757E+02  0.50000000000E+02 0.  0.
<mgrwt>
<rscale>  0 0.55758248E+02</rscale>
<asrwt>0</asrwt>
<pdfrwt beam="1">  1       13 0.10000000E+01 0.55758248E+02</pdfrwt>
<pdfrwt beam="2">  1       22 0.20205447E+00 0.55758248E+02</pdfrwt>
<totfact> 0.44739138E-01</totfact>
</mgrwt>
</event>
<event>
 4    1  0.2409985E+000  0.5109748E+02  0.7957747E-01  0.1439510E+00
         13   -1    0    0    0    0  0.00000000000E+00  0.00000000000E+00  0.99999944179E+02  0.10000000000E+03  0.10566000000E+00 0.  1.
         22   -1    0    0    0    0 -0.00000000000E+00 -0.00000000000E+00 -0.41152683575E+02  0.41152683575E+02  0.00000000000E+00 0. -1.
         13    1    1    2    0    0  0.13631561463E+01  0.10444808679E+02 -0.33770134380E+02  0.35374925626E+02  0.10566000000E+00 0. -1.
        996    1    1    2    0    0 -0.13631561463E+01 -0.10444808679E+02  0.92617394984E+02  0.10577775795E+03  0.50000000000E+02 0.  0.
<mgrwt>
<rscale>  0 0.51097478E+02</rscale>
<asrwt>0</asrwt>
<pdfrwt beam="1">  1       13 0.10000000E+01 0.51097478E+02</pdfrwt>
<pdfrwt beam="2">  1       22 0.41152700E+00 0.51097478E+02</pdfrwt>
<totfact> 0.11697950E-01</totfact>
</mgrwt>
</event>
<event>
 4    1  0.2409985E+000  0.5185974E+02  0.7957747E-01  0.1435561E+00
         13   -1    0    0    0    0  0.00000000000E+00  0.00000000000E+00  0.99999944174E+02  0.99999999995E+02  0.10566000000E+00 0. -1.
         22   -1    0    0    0    0 -0.00000000000E+00 -0.00000000000E+00 -0.16513156743E+02  0.16513156743E+02  0.00000000000E+00 0.  1.
         13    1    1    2    0    0  0.44600004505E+01 -0.13020806724E+02 -0.44140976965E+01  0.14454356930E+02  0.10566000000E+00 0.  1.
        996    1    1    2    0    0 -0.44600004505E+01  0.13020806724E+02  0.87900885128E+02  0.10205879981E+03  0.50000000000E+02 0.  0.
<mgrwt>
<rscale>  0 0.51859744E+02</rscale>
<asrwt>0</asrwt>
<pdfrwt beam="1">  1       13 0.10000000E+01 0.51859744E+02</pdfrwt>
<pdfrwt beam="2">  1       22 0.16513180E+00 0.51859744E+02</pdfrwt>
<totfact> 0.63937212E-01</totfact>
</mgrwt>
</event>
<event>
 4    1  0.2409985E+000  0.5516955E+02  0.7957747E-01  0.1419299E+00
         13   -1    0    0    0    0  0.00000000000E+00  0.00000000000E+00  0.99999944174E+02  0.99999999994E+02  0.10566000000E+00 0.  1.
         22   -1    0    0    0    0 -0.00000000000E+00 -0.00000000000E+00 -0.30375938553E+02  0.30375938553E+02  0.00000000000E+00 0. -1.
         13    1    1    2    0    0 -0.10829858144E+02  0.20649283159E+02 -0.16169430432E+02  0.28374995452E+02  0.10566000000E+00 0. -1.
        996    1    1    2    0    0  0.10829858144E+02 -0.20649283159E+02  0.85793436054E+02  0.10200094310E+03  0.50000000000E+02 0.  0.
<mgrwt>
<rscale>  0 0.55169545E+02</rscale>
<asrwt>0</asrwt>
<pdfrwt beam="1">  1       13 0.10000000E+01 0.55169545E+02</pdfrwt>
<pdfrwt beam="2">  1       22 0.30375958E+00 0.55169545E+02</pdfrwt>
<totfact> 0.20309630E-01</totfact>
</mgrwt>
</event>
<event>
 4    1  0.2409985E+000  0.5463212E+02  0.7957747E-01  0.1421847E+00
         13   -1    0    0    0    0  0.00000000000E+00  0.00000000000E+00  0.99999944181E+02  0.10000000000E+03  0.10566000000E+00 0.  1.
         22   -1    0    0    0    0 -0.00000000000E+00 -0.00000000000E+00 -0.17141575217E+02  0.17141575217E+02  0.00000000000E+00 0.  1.
         13    1    1    2    0    0  0.47538023793E+01  0.21495811162E+02  0.59522466719E+01  0.22805897023E+02  0.10566000000E+00 0. -1.
        996    1    1    2    0    0 -0.47538023793E+01 -0.21495811162E+02  0.76906122291E+02  0.94335678195E+02  0.50000000000E+02 0.  0.
<mgrwt>
<rscale>  0 0.54632120E+02</rscale>
<asrwt>0</asrwt>
<pdfrwt beam="1">  1       13 0.10000000E+01 0.54632120E+02</pdfrwt>
<pdfrwt beam="2">  1       22 0.17141598E+00 0.54632120E+02</pdfrwt>
<totfact> 0.60217039E-01</totfact>
</mgrwt>
</event>
<event>
 4    1  0.2409985E+000  0.5110818E+02  0.7957747E-01  0.1439454E+00
         13   -1    0    0    0    0  0.00000000000E+00  0.00000000000E+00  0.99999944180E+02  0.10000000000E+03  0.10566000000E+00 0.  1.
         22   -1    0    0    0    0 -0.00000000000E+00 -0.00000000000E+00 -0.13600827353E+02  0.13600827353E+02  0.00000000000E+00 0.  1.
         13    1    1    2    0    0  0.92331068235E+01 -0.51764286158E+01 -0.26637343651E+01  0.10915691441E+02  0.10566000000E+00 0. -1.
        996    1    1    2    0    0 -0.92331068235E+01  0.51764286158E+01  0.89062851192E+02  0.10268513591E+03  0.50000000000E+02 0.  0.
<mgrwt>
<rscale>  0 0.51108176E+02</rscale>
<asrwt>0</asrwt>
<pdfrwt beam="1">  1       13 0.10000000E+01 0.51108176E+02</pdfrwt>
<pdfrwt beam="2">  1       22 0.13600851E+00 0.51108176E+02</pdfrwt>
<totfact> 0.88182749E-01</totfact>
</mgrwt>
</event>
<event>
 4    1  0.2409985E+000  0.5180485E+02  0.7957747E-01  0.1435843E+00
         13   -1    0    0    0    0  0.00000000000E+00  0.00000000000E+00  0.99999944181E+02  0.10000000000E+03  0.10566000000E+00 0.  1.
         22   -1    0    0    0    0 -0.00000000000E+00 -0.00000000000E+00 -0.10737479968E+02  0.10737479968E+02  0.00000000000E+00 0.  1.
         13    1    1    2    0    0 -0.65711400373E+01 -0.11855928843E+02  0.21943874902E+02  0.25793172350E+02  0.10566000000E+00 0. -1.
        996    1    1    2    0    0  0.65711400373E+01  0.11855928843E+02  0.67318589311E+02  0.84944307619E+02  0.50000000000E+02 0.  0.
<mgrwt>
<rscale>  0 0.51804854E+02</rscale>
<asrwt>0</asrwt>
<pdfrwt beam="1">  1       13 0.10000000E+01 0.51804854E+02</pdfrwt>
<pdfrwt beam="2">  1       22 0.10737505E+00 0.51804854E+02</pdfrwt>
<totfact> 0.12698389E+00</totfact>
</mgrwt>
</event>
<event>
 4    1  0.2409985E+000  0.5215980E+02  0.7957747E-01  0.1434029E+00
         13   -1    0    0    0    0  0.00000000000E+00  0.00000000000E+00  0.99999944174E+02  0.99999999994E+02  0.10566000000E+00 0.  1.
         22   -1    0    0    0    0 -0.00000000000E+00 -0.00000000000E+00 -0.44299419729E+02  0.44299419729E+02  0.00000000000E+00 0. -1.
         13    1    1    2    0    0 -0.12808777554E+02 -0.75219805243E+01 -0.35920866270E+02  0.38871130303E+02  0.10566000000E+00 0. -1.
        996    1    1    2    0    0  0.12808777554E+02  0.75219805243E+01  0.91621390715E+02  0.10542828942E+03  0.50000000000E+02 0.  0.
<mgrwt>
<rscale>  0 0.52159802E+02</rscale>
<asrwt>0</asrwt>
<pdfrwt beam="1">  1       13 0.10000000E+01 0.52159802E+02</pdfrwt>
<pdfrwt beam="2">  1       22 0.44299435E+00 0.52159802E+02</pdfrwt>
<totfact> 0.10018399E-01</totfact>
</mgrwt>
</event>
<event>
 4    1  0.2409985E+000  0.5268127E+02  0.7957747E-01  0.1431394E+00
         13   -1    0    0    0    0  0.00000000000E+00  0.00000000000E+00  0.99999944178E+02  0.99999999999E+02  0.10566000000E+00 0.  1.
         22   -1    0    0    0    0 -0.00000000000E+00 -0.00000000000E+00 -0.13198477087E+02  0.13198477087E+02  0.00000000000E+00 0. -1.
         13    1    1    2    0    0 -0.59262750025E+01 -0.15498237592E+02  0.80290996302E+01  0.18433494210E+02  0.10566000000E+00 0. -1.
        996    1    1    2    0    0  0.59262750025E+01  0.15498237592E+02  0.78772367462E+02  0.94764982875E+02  0.50000000000E+02 0.  0.
<mgrwt>
<rscale>  0 0.52681269E+02</rscale>
<asrwt>0</asrwt>
<pdfrwt beam="1">  1       13 0.10000000E+01 0.52681269E+02</pdfrwt>
<pdfrwt beam="2">  1       22 0.13198501E+00 0.52681269E+02</pdfrwt>
<totfact> 0.92816187E-01</totfact>
</mgrwt>
</event>
<event>
 4    1  0.2409985E+000  0.5172026E+02  0.7957747E-01  0.1436278E+00
         13   -1    0    0    0    0  0.00000000000E+00  0.00000000000E+00  0.99999944187E+02  0.10000000001E+03  0.10566000000E+00 0.  1.
         22   -1    0    0    0    0 -0.00000000000E+00 -0.00000000000E+00 -0.17427485567E+02  0.17427485567E+02  0.00000000000E+00 0. -1.
         13    1    1    2    0    0  0.90531927176E+01  0.96449714829E+01 -0.62603553979E+01  0.14635196857E+02  0.10566000000E+00 0. -1.
        996    1    1    2    0    0 -0.90531927176E+01 -0.96449714829E+01  0.88832814019E+02  0.10279228872E+03  0.50000000000E+02 0.  0.
<mgrwt>
<rscale>  0 0.51720265E+02</rscale>
<asrwt>0</asrwt>
<pdfrwt beam="1">  1       13 0.10000000E+01 0.51720265E+02</pdfrwt>
<pdfrwt beam="2">  1       22 0.17427509E+00 0.51720265E+02</pdfrwt>
<totfact> 0.58165432E-01</totfact>
</mgrwt>
</event>
<event>
 4    1  0.2409985E+000  0.5376505E+02  0.7957747E-01  0.1426031E+00
         13   -1    0    0    0    0  0.00000000000E+00  0.00000000000E+00  0.99999944178E+02  0.99999999998E+02  0.10566000000E+00 0. -1.
         22   -1    0    0    0    0 -0.00000000000E+00 -0.00000000000E+00 -0.18849008273E+02  0.18849008273E+02  0.00000000000E+00 0.  1.
         13    1    1    2    0    0 -0.21290263726E+01 -0.19650640930E+02 -0.19608045015E+01  0.19862939374E+02  0.10566000000E+00 0.  1.
        996    1    1    2    0    0  0.21290263726E+01  0.19650640930E+02  0.83111740406E+02  0.98986068897E+02  0.50000000000E+02 0.  0.
<mgrwt>
<rscale>  0 0.53765049E+02</rscale>
<asrwt>0</asrwt>
<pdfrwt beam="1">  1       13 0.10000000E+01 0.53765049E+02</pdfrwt>
<pdfrwt beam="2">  1       22 0.18849031E+00 0.53765049E+02</pdfrwt>
<totfact> 0.50707484E-01</totfact>
</mgrwt>
</event>
<event>
 4    1  0.2409985E+000  0.5380281E+02  0.7957747E-01  0.1425847E+00
         13   -1    0    0    0    0  0.00000000000E+00  0.00000000000E+00  0.99999944180E+02  0.10000000000E+03  0.10566000000E+00 0.  1.
         22   -1    0    0    0    0 -0.00000000000E+00 -0.00000000000E+00 -0.56721438481E+02  0.56721438481E+02  0.00000000000E+00 0. -1.
         13    1    1    2    0    0  0.10545219329E+02  0.16838668037E+02 -0.47336599171E+02  0.51337190974E+02  0.10566000000E+00 0. -1.
        996    1    1    2    0    0 -0.10545219329E+02 -0.16838668037E+02  0.90615104871E+02  0.10538424751E+03  0.50000000000E+02 0.  0.
<mgrwt>
<rscale>  0 0.53802810E+02</rscale>
<asrwt>0</asrwt>
<pdfrwt beam="1">  1       13 0.10000000E+01 0.53802810E+02</pdfrwt>
<pdfrwt beam="2">  1       22 0.56721451E+00 0.53802810E+02</pdfrwt>
<totfact> 0.57947823E-02</totfact>
</mgrwt>
</event>
<event>
 4    1  0.2409985E+000  0.5099268E+02  0.7957747E-01  0.1440060E+00
         13   -1    0    0    0    0  0.00000000000E+00  0.00000000000E+00  0.99999944184E+02  0.10000000000E+03  0.10566000000E+00 0.  1.
         22   -1    0    0    0    0 -0.00000000000E+00 -0.00000000000E+00 -0.94307446684E+01  0.94307446684E+01  0.00000000000E+00 0.  1.
         13    1    1    2    0    0  0.72566975047E+01  0.68987994901E+01  0.10553767967E+02  0.14548067756E+02  0.10566000000E+00 0. -1.
        996    1    1    2    0    0 -0.72566975047E+01 -0.68987994901E+01  0.80015431548E+02  0.94882676917E+02  0.50000000000E+02 0.  0.
<mgrwt>
<rscale>  0 0.50992677E+02</rscale>
<asrwt>0</asrwt>
<pdfrwt beam="1">  1       13 0.10000000E+01 0.50992677E+02</pdfrwt>
<pdfrwt beam="2">  1       22 0.94307700E-01 0.50992677E+02</pdfrwt>
<totfact> 0.15299069E+00</totfact>
</mgrwt>
</event>
<event>
 4    1  0.2409985E+000  0.5594491E+02  0.7957747E-01  0.1415682E+00
         13   -1    0    0    0    0  0.00000000000E+00  0.00000000000E+00  0.99999944177E+02  0.99999999997E+02  0.10566000000E+00 0. -1.
         22   -1    0    0    0    0 -0.00000000000E+00 -0.00000000000E+00 -0.73567115553E+02  0.73567115553E+02  0.00000000000E+00 0.  1.
         13    1    1    2    0    0 -0.25026156234E+02  0.18772918324E+01 -0.63147823378E+02  0.67952126397E+02  0.10566000000E+00 0.  1.
        996    1    1    2    0    0  0.25026156234E+02 -0.18772918324E+01  0.89580652002E+02  0.10561498915E+03  0.50000000000E+02 0.  0.
<mgrwt>
<rscale>  0 0.55944908E+02</rscale>
<asrwt>0</asrwt>
<pdfrwt beam="1">  1       13 0.10000000E+01 0.55944908E+02</pdfrwt>
<pdfrwt beam="2">  1       22 0.73567123E+00 0.55944908E+02</pdfrwt>
<totfact> 0.55877406E-02</totfact>
</mgrwt>
</event>
<event>
 4    1  0.2409985E+000  0.5107449E+02  0.7957747E-01  0.1439631E+00
         13   -1    0    0    0    0  0.00000000000E+00  0.00000000000E+00  0.99999944179E+02  0.99999999999E+02  0.10566000000E+00 0. -1.
         22   -1    0    0    0    0 -0.00000000000E+00 -0.00000000000E+00 -0.94989949695E+01  0.94989949695E+01  0.00000000000E+00 0. -1.
         13    1    1    2    0    0  0.33646945603E+01 -0.98631804317E+01  0.12659839768E+02  0.16397749989E+02  0.10566000000E+00 0.  1.
        996    1    1    2    0    0 -0.33646945603E+01  0.98631804317E+01  0.77841109441E+02  0.93101244979E+02  0.50000000000E+02 0.  0.
<mgrwt>
<rscale>  0 0.51074490E+02</rscale>
<asrwt>0</asrwt>
<pdfrwt beam="1">  1       13 0.10000000E+01 0.51074490E+02</pdfrwt>
<pdfrwt beam="2">  1       22 0.94990202E-01 0.51074490E+02</pdfrwt>
<totfact> 0.15145507E+00</totfact>
</mgrwt>
</event>
<event>
 4    1  0.2409985E+000  0.6094461E+02  0.7957747E-01  0.1393910E+00
         13   -1    0    0    0    0  0.00000000000E+00  0.00000000000E+00  0.99999944171E+02  0.99999999991E+02  0.10566000000E+00 0.  1.
         22   -1    0    0    0    0 -0.00000000000E+00 -0.00000000000E+00 -0.35575478694E+02  0.35575478694E+02  0.00000000000E+00 0. -1.
         13    1    1    2    0    0  0.27534012772E+02 -0.21357063866E+02 -0.12867753814E+02  0.37146147695E+02  0.10566000000E+00 0. -1.
        996    1    1    2    0    0 -0.27534012772E+02  0.21357063866E+02  0.77292219291E+02  0.98429330990E+02  0.50000000000E+02 0.  0.
<mgrwt>
<rscale>  0 0.60944614E+02</rscale>
<asrwt>0</asrwt>
<pdfrwt beam="1">  1       13 0.10000000E+01 0.60944614E+02</pdfrwt>
<pdfrwt beam="2">  1       22 0.35575497E+00 0.60944614E+02</pdfrwt>
<totfact> 0.15400823E-01</totfact>
</mgrwt>
</event>
<event>
 4    1  0.2409985E+000  0.5719342E+02  0.7957747E-01  0.1410002E+00
         13   -1    0    0    0    0  0.00000000000E+00  0.00000000000E+00  0.99999944179E+02  0.99999999999E+02  0.10566000000E+00 0.  1.
         22   -1    0    0    0    0 -0.00000000000E+00 -0.00000000000E+00 -0.23795261326E+02  0.23795261326E+02  0.00000000000E+00 0. -1.
         13    1    1    2    0    0  0.27709602942E+02  0.18070391835E+01 -0.91300946284E+00  0.27783668515E+02  0.10566000000E+00 0. -1.
        996    1    1    2    0    0 -0.27709602942E+02 -0.18070391835E+01  0.77117692315E+02  0.96011592810E+02  0.50000000000E+02 0.  0.
<mgrwt>
<rscale>  0 0.57193422E+02</rscale>
<asrwt>0</asrwt>
<pdfrwt beam="1">  1       13 0.10000000E+01 0.57193422E+02</pdfrwt>
<pdfrwt beam="2">  1       22 0.23795283E+00 0.57193422E+02</pdfrwt>
<totfact> 0.32741211E-01</totfact>
</mgrwt>
</event>
<event>
 4    1  0.2409985E+000  0.5308495E+02  0.7957747E-01  0.1429379E+00
         13   -1    0    0    0    0  0.00000000000E+00  0.00000000000E+00  0.99999944181E+02  0.10000000000E+03  0.10566000000E+00 0. -1.
         22   -1    0    0    0    0 -0.00000000000E+00 -0.00000000000E+00 -0.20474814055E+02  0.20474814055E+02  0.00000000000E+00 0.  1.
         13    1    1    2    0    0  0.15242991095E+02 -0.92554657957E+01 -0.68396295071E+01  0.19099846085E+02  0.10566000000E+00 0.  1.
        996    1    1    2    0    0 -0.15242991095E+02  0.92554657957E+01  0.86364759633E+02  0.10137496797E+03  0.50000000000E+02 0.  0.
<mgrwt>
<rscale>  0 0.53084955E+02</rscale>
<asrwt>0</asrwt>
<pdfrwt beam="1">  1       13 0.10000000E+01 0.53084955E+02</pdfrwt>
<pdfrwt beam="2">  1       22 0.20474836E+00 0.53084955E+02</pdfrwt>
<totfact> 0.43442459E-01</totfact>
</mgrwt>
</event>
<event>
 4    1  0.2409985E+000  0.5299291E+02  0.7957747E-01  0.1429836E+00
         13   -1    0    0    0    0  0.00000000000E+00  0.00000000000E+00  0.99999944189E+02  0.10000000001E+03  0.10566000000E+00 0. -1.
         22   -1    0    0    0    0 -0.00000000000E+00 -0.00000000000E+00 -0.46094299643E+02  0.46094299643E+02  0.00000000000E+00 0.  1.
         13    1    1    2    0    0 -0.99729751642E+01 -0.14449515716E+02 -0.36952445174E+02  0.40911405579E+02  0.10566000000E+00 0.  1.
        996    1    1    2    0    0  0.99729751642E+01  0.14449515716E+02  0.90858089721E+02  0.10518289407E+03  0.50000000000E+02 0.  0.
<mgrwt>
<rscale>  0 0.52992912E+02</rscale>
<asrwt>0</asrwt>
<pdfrwt beam="1">  1       13 0.10000000E+01 0.52992912E+02</pdfrwt>
<pdfrwt beam="2">  1       22 0.46094315E+00 0.52992912E+02</pdfrwt>
<totfact> 0.91262515E-02</totfact>
</mgrwt>
</event>
<event>
 4    1  0.2409985E+000  0.5200555E+02  0.7957747E-01  0.1434815E+00
         13   -1    0    0    0    0  0.00000000000E+00  0.00000000000E+00  0.99999944181E+02  0.10000000000E+03  0.10566000000E+00 0. -1.
         22   -1    0    0    0    0 -0.00000000000E+00 -0.00000000000E+00 -0.32194868121E+02  0.32194868121E+02  0.00000000000E+00 0.  1.
         13    1    1    2    0    0  0.57190577160E+01 -0.13109923618E+02 -0.23271787180E+02  0.27316020226E+02  0.10566000000E+00 0.  1.
        996    1    1    2    0    0 -0.57190577160E+01  0.13109923618E+02  0.91076863240E+02  0.10487884790E+03  0.50000000000E+02 0.  0.
<mgrwt>
<rscale>  0 0.52005555E+02</rscale>
<asrwt>0</asrwt>
<pdfrwt beam="1">  1       13 0.10000000E+01 0.52005555E+02</pdfrwt>
<pdfrwt beam="2">  1       22 0.32194887E+00 0.52005555E+02</pdfrwt>
<totfact> 0.18199506E-01</totfact>
</mgrwt>
</event>
<event>
 4    1  0.2409985E+000  0.5109820E+02  0.7957747E-01  0.1439507E+00
         13   -1    0    0    0    0  0.00000000000E+00  0.00000000000E+00  0.99999944179E+02  0.99999999999E+02  0.10566000000E+00 0.  1.
         22   -1    0    0    0    0 -0.00000000000E+00 -0.00000000000E+00 -0.53557870058E+02  0.53557870058E+02  0.00000000000E+00 0. -1.
         13    1    1    2    0    0 -0.94659144947E+01 -0.46284835783E+01 -0.46400808939E+02  0.47582272242E+02  0.10566000000E+00 0. -1.
        996    1    1    2    0    0  0.94659144947E+01  0.46284835783E+01  0.92842883060E+02  0.10597559782E+03  0.50000000000E+02 0.  0.
<mgrwt>
<rscale>  0 0.51098203E+02</rscale>
<asrwt>0</asrwt>
<pdfrwt beam="1">  1       13 0.10000000E+01 0.51098203E+02</pdfrwt>
<pdfrwt beam="2">  1       22 0.53557883E+00 0.51098203E+02</pdfrwt>
<totfact> 0.61611525E-02</totfact>
</mgrwt>
</event>
<event>
 4    1  0.2409985E+000  0.5149467E+02  0.7957747E-01  0.1437442E+00
         13   -1    0    0    0    0  0.00000000000E+00  0.00000000000E+00  0.99999944175E+02  0.99999999995E+02  0.10566000000E+00 0. -1.
         22   -1    0    0    0    0 -0.00000000000E+00 -0.00000000000E+00 -0.13461902707E+02  0.13461902707E+02  0.00000000000E+00 0. -1.
         13    1    1    2    0    0  0.71213147585E+01  0.10049292522E+02 -0.50484742128E+00  0.12327507414E+02  0.10566000000E+00 0.  1.
        996    1    1    2    0    0 -0.71213147585E+01 -0.10049292522E+02  0.87042888889E+02  0.10113439529E+03  0.50000000000E+02 0.  0.
<mgrwt>
<rscale>  0 0.51494674E+02</rscale>
<asrwt>0</asrwt>
<pdfrwt beam="1">  1       13 0.10000000E+01 0.51494674E+02</pdfrwt>
<pdfrwt beam="2">  1       22 0.13461927E+00 0.51494674E+02</pdfrwt>
<totfact> 0.89716720E-01</totfact>
</mgrwt>
</event>
<event>
 4    1  0.2409985E+000  0.7996243E+02  0.7957747E-01  0.1329158E+00
         13   -1    0    0    0    0  0.00000000000E+00  0.00000000000E+00  0.99999944173E+02  0.99999999993E+02  0.10566000000E+00 0.  1.
         22   -1    0    0    0    0 -0.00000000000E+00 -0.00000000000E+00 -0.50680174432E+02  0.50680174432E+02  0.00000000000E+00 0. -1.
         13    1    1    2    0    0 -0.24099830879E+02  0.57560300802E+02  0.22728199397E+02  0.66412139618E+02  0.10566000000E+00 0. -1.
        996    1    1    2    0    0  0.24099830879E+02 -0.57560300802E+02  0.26591570343E+02  0.84268034807E+02  0.50000000000E+02 0.  0.
<mgrwt>
<rscale>  0 0.79962429E+02</rscale>
<asrwt>0</asrwt>
<pdfrwt beam="1">  1       13 0.10000000E+01 0.79962429E+02</pdfrwt>
<pdfrwt beam="2">  1       22 0.50680188E+00 0.79962429E+02</pdfrwt>
<totfact> 0.71632552E-02</totfact>
</mgrwt>
</event>
<event>
 4    1  0.2409985E+000  0.5263704E+02  0.7957747E-01  0.1431616E+00
         13   -1    0    0    0    0  0.00000000000E+00  0.00000000000E+00  0.99999944177E+02  0.99999999997E+02  0.10566000000E+00 0. -1.
         22   -1    0    0    0    0 -0.00000000000E+00 -0.00000000000E+00 -0.12122389053E+02  0.12122389053E+02  0.00000000000E+00 0. -1.
         13    1    1    2    0    0  0.44202540812E+01 -0.15846735728E+02  0.15301800775E+02  0.22468065123E+02  0.10566000000E+00 0.  1.
        996    1    1    2    0    0 -0.44202540812E+01  0.15846735728E+02  0.72575754350E+02  0.89654323927E+02  0.50000000000E+02 0.  0.
<mgrwt>
<rscale>  0 0.52637037E+02</rscale>
<asrwt>0</asrwt>
<pdfrwt beam="1">  1       13 0.10000000E+01 0.52637037E+02</pdfrwt>
<pdfrwt beam="2">  1       22 0.12122414E+00 0.52637037E+02</pdfrwt>
<totfact> 0.10598235E+00</totfact>
</mgrwt>
</event>
<event>
 4    1  0.2409985E+000  0.5492811E+02  0.7957747E-01  0.1420439E+00
         13   -1    0    0    0    0  0.00000000000E+00  0.00000000000E+00  0.99999944181E+02  0.10000000000E+03  0.10566000000E+00 0.  1.
         22   -1    0    0    0    0 -0.00000000000E+00 -0.00000000000E+00 -0.28661487375E+02  0.28661487375E+02  0.00000000000E+00 0. -1.
         13    1    1    2    0    0 -0.10576795897E+02 -0.20130293959E+02 -0.14342792944E+02  0.26885390452E+02  0.10566000000E+00 0. -1.
        996    1    1    2    0    0  0.10576795897E+02  0.20130293959E+02  0.85681249750E+02  0.10177609692E+03  0.50000000000E+02 0.  0.
<mgrwt>
<rscale>  0 0.54928111E+02</rscale>
<asrwt>0</asrwt>
<pdfrwt beam="1">  1       13 0.10000000E+01 0.54928111E+02</pdfrwt>
<pdfrwt beam="2">  1       22 0.28661507E+00 0.54928111E+02</pdfrwt>
<totfact> 0.22661908E-01</totfact>
</mgrwt>
</event>
<event>
 4    1  0.2409985E+000  0.5175728E+02  0.7957747E-01  0.1436087E+00
         13   -1    0    0    0    0  0.00000000000E+00  0.00000000000E+00  0.99999944181E+02  0.10000000000E+03  0.10566000000E+00 0.  1.
         22   -1    0    0    0    0 -0.00000000000E+00 -0.00000000000E+00 -0.28678400208E+02  0.28678400208E+02  0.00000000000E+00 0. -1.
         13    1    1    2    0    0 -0.68128018719E+01 -0.11506583744E+02 -0.19794566152E+02  0.23888318316E+02  0.10566000000E+00 0. -1.
        996    1    1    2    0    0  0.68128018719E+01  0.11506583744E+02  0.91116110125E+02  0.10479008189E+03  0.50000000000E+02 0.  0.
<mgrwt>
<rscale>  0 0.51757277E+02</rscale>
<asrwt>0</asrwt>
<pdfrwt beam="1">  1       13 0.10000000E+01 0.51757277E+02</pdfrwt>
<pdfrwt beam="2">  1       22 0.28678420E+00 0.51757277E+02</pdfrwt>
<totfact> 0.22539380E-01</totfact>
</mgrwt>
</event>
<event>
 4    1  0.2409985E+000  0.5308026E+02  0.7957747E-01  0.1429402E+00
         13   -1    0    0    0    0  0.00000000000E+00  0.00000000000E+00  0.99999944180E+02  0.10000000000E+03  0.10566000000E+00 0. -1.
         22   -1    0    0    0    0 -0.00000000000E+00 -0.00000000000E+00 -0.16224262273E+02  0.16224262273E+02  0.00000000000E+00 0. -1.
         13    1    1    2    0    0  0.17771540430E+02  0.12986094486E+01  0.94380460384E+00  0.17844213822E+02  0.10566000000E+00 0.  1.
        996    1    1    2    0    0 -0.17771540430E+02 -0.12986094486E+01  0.82831877304E+02  0.98380048452E+02  0.50000000000E+02 0.  0.
<mgrwt>
<rscale>  0 0.53080260E+02</rscale>
<asrwt>0</asrwt>
<pdfrwt beam="1">  1       13 0.10000000E+01 0.53080260E+02</pdfrwt>
<pdfrwt beam="2">  1       22 0.16224286E+00 0.53080260E+02</pdfrwt>
<totfact> 0.66071925E-01</totfact>
</mgrwt>
</event>
<event>
 4    1  0.2409985E+000  0.5259984E+02  0.7957747E-01  0.1431803E+00
         13   -1    0    0    0    0  0.00000000000E+00  0.00000000000E+00  0.99999944174E+02  0.99999999994E+02  0.10566000000E+00 0.  1.
         22   -1    0    0    0    0 -0.00000000000E+00 -0.00000000000E+00 -0.12240181014E+02  0.12240181014E+02  0.00000000000E+00 0.  1.
         13    1    1    2    0    0  0.12517592209E+02  0.10490599002E+02  0.13232178524E+02  0.21020097399E+02  0.10566000000E+00 0. -1.
        996    1    1    2    0    0 -0.12517592209E+02 -0.10490599002E+02  0.74527584635E+02  0.91220083609E+02  0.50000000000E+02 0.  0.
<mgrwt>
<rscale>  0 0.52599836E+02</rscale>
<asrwt>0</asrwt>
<pdfrwt beam="1">  1       13 0.10000000E+01 0.52599836E+02</pdfrwt>
<pdfrwt beam="2">  1       22 0.12240206E+00 0.52599836E+02</pdfrwt>
<totfact> 0.10440701E+00</totfact>
</mgrwt>
</event>
<event>
 4    1  0.2409985E+000  0.5270141E+02  0.7957747E-01  0.1431293E+00
         13   -1    0    0    0    0  0.00000000000E+00  0.00000000000E+00  0.99999944185E+02  0.10000000001E+03  0.10566000000E+00 0.  1.
         22   -1    0    0    0    0 -0.00000000000E+00 -0.00000000000E+00 -0.21455849205E+02  0.21455849205E+02  0.00000000000E+00 0. -1.
         13    1    1    2    0    0  0.35927595673E+01  0.16264403203E+02 -0.92540917522E+01  0.19054871058E+02  0.10566000000E+00 0. -1.
        996    1    1    2    0    0 -0.35927595673E+01 -0.16264403203E+02  0.87798186733E+02  0.10240097815E+03  0.50000000000E+02 0.  0.
<mgrwt>
<rscale>  0 0.52701411E+02</rscale>
<asrwt>0</asrwt>
<pdfrwt beam="1">  1       13 0.10000000E+01 0.52701411E+02</pdfrwt>
<pdfrwt beam="2">  1       22 0.21455871E+00 0.52701411E+02</pdfrwt>
<totfact> 0.39727808E-01</totfact>
</mgrwt>
</event>
<event>
 4    1  0.2409985E+000  0.5125817E+02  0.7957747E-01  0.1438671E+00
         13   -1    0    0    0    0  0.00000000000E+00  0.00000000000E+00  0.99999944181E+02  0.10000000000E+03  0.10566000000E+00 0.  1.
         22   -1    0    0    0    0 -0.00000000000E+00 -0.00000000000E+00 -0.11799611816E+02  0.11799611816E+02  0.00000000000E+00 0.  1.
         13    1    1    2    0    0 -0.11170035364E+02  0.16216711542E+01  0.19315499838E+01  0.11451705408E+02  0.10566000000E+00 0. -1.
        996    1    1    2    0    0  0.11170035364E+02 -0.16216711542E+01  0.86268782381E+02  0.10034790641E+03  0.50000000000E+02 0.  0.
<mgrwt>
<rscale>  0 0.51258165E+02</rscale>
<asrwt>0</asrwt>
<pdfrwt beam="1">  1       13 0.10000000E+01 0.51258165E+02</pdfrwt>
<pdfrwt beam="2">  1       22 0.11799636E+00 0.51258165E+02</pdfrwt>
<totfact> 0.11010888E+00</totfact>
</mgrwt>
</event>
<event>
 4    1  0.2409985E+000  0.5154592E+02  0.7957747E-01  0.1437177E+00
         13   -1    0    0    0    0  0.00000000000E+00  0.00000000000E+00  0.99999944167E+02  0.99999999987E+02  0.10566000000E+00 0.  1.
         22   -1    0    0    0    0 -0.00000000000E+00 -0.00000000000E+00 -0.19105593065E+02  0.19105593065E+02  0.00000000000E+00 0. -1.
         13    1    1    2    0    0  0.63597259188E+01 -0.10795166545E+02 -0.90374505642E+01  0.15448896764E+02  0.10566000000E+00 0. -1.
        996    1    1    2    0    0 -0.63597259188E+01  0.10795166545E+02  0.89931801666E+02  0.10365669629E+03  0.50000000000E+02 0.  0.
<mgrwt>
<rscale>  0 0.51545919E+02</rscale>
<asrwt>0</asrwt>
<pdfrwt beam="1">  1       13 0.10000000E+01 0.51545919E+02</pdfrwt>
<pdfrwt beam="2">  1       22 0.19105616E+00 0.51545919E+02</pdfrwt>
<totfact> 0.49268645E-01</totfact>
</mgrwt>
</event>
<event>
 4    1  0.2409985E+000  0.5241994E+02  0.7957747E-01  0.1432710E+00
         13   -1    0    0    0    0  0.00000000000E+00  0.00000000000E+00  0.99999944185E+02  0.10000000001E+03  0.10566000000E+00 0.  1.
         22   -1    0    0    0    0 -0.00000000000E+00 -0.00000000000E+00 -0.18243137590E+02  0.18243137590E+02  0.00000000000E+00 0. -1.
         13    1    1    2    0    0  0.15630342862E+02  0.18822880058E+01 -0.53091675100E+01  0.16614723886E+02  0.10566000000E+00 0. -1.
        996    1    1    2    0    0 -0.15630342862E+02 -0.18822880058E+01  0.87065974106E+02  0.10162841371E+03  0.50000000000E+02 0.  0.
<mgrwt>
<rscale>  0 0.52419945E+02</rscale>
<asrwt>0</asrwt>
<pdfrwt beam="1">  1       13 0.10000000E+01 0.52419945E+02</pdfrwt>
<pdfrwt beam="2">  1       22 0.18243160E+00 0.52419945E+02</pdfrwt>
<totfact> 0.53673249E-01</totfact>
</mgrwt>
</event>
<event>
 4    1  0.2409985E+000  0.5191286E+02  0.7957747E-01  0.1435289E+00
         13   -1    0    0    0    0  0.00000000000E+00  0.00000000000E+00  0.99999944179E+02  0.10000000000E+03  0.10566000000E+00 0.  1.
         22   -1    0    0    0    0 -0.00000000000E+00 -0.00000000000E+00 -0.14311742494E+02  0.14311742494E+02  0.00000000000E+00 0.  1.
         13    1    1    2    0    0 -0.15350740378E+01  0.13877619826E+02 -0.18809757024E+00  0.13963929571E+02  0.10566000000E+00 0. -1.
        996    1    1    2    0    0  0.15350740378E+01 -0.13877619826E+02  0.85876299256E+02  0.10034781292E+03  0.50000000000E+02 0.  0.
<mgrwt>
<rscale>  0 0.51912858E+02</rscale>
<asrwt>0</asrwt>
<pdfrwt beam="1">  1       13 0.10000000E+01 0.51912858E+02</pdfrwt>
<pdfrwt beam="2">  1       22 0.14311766E+00 0.51912858E+02</pdfrwt>
<totfact> 0.81343712E-01</totfact>
</mgrwt>
</event>
<event>
 4    1  0.2409985E+000  0.5168636E+02  0.7957747E-01  0.1436452E+00
         13   -1    0    0    0    0  0.00000000000E+00  0.00000000000E+00  0.99999944179E+02  0.99999999999E+02  0.10566000000E+00 0.  1.
         22   -1    0    0    0    0 -0.00000000000E+00 -0.00000000000E+00 -0.10892832962E+02  0.10892832962E+02  0.00000000000E+00 0.  1.
         13    1    1    2    0    0 -0.12014529204E+02 -0.52087275638E+01  0.10357675419E+02  0.16696477441E+02  0.10566000000E+00 0. -1.
        996    1    1    2    0    0  0.12014529204E+02  0.52087275638E+01  0.78749435798E+02  0.94196355520E+02  0.50000000000E+02 0.  0.
<mgrwt>
<rscale>  0 0.51686359E+02</rscale>
<asrwt>0</asrwt>
<pdfrwt beam="1">  1       13 0.10000000E+01 0.51686359E+02</pdfrwt>
<pdfrwt beam="2">  1       22 0.10892858E+00 0.51686359E+02</pdfrwt>
<totfact> 0.12427774E+00</totfact>
</mgrwt>
</event>
<event>
 4    1  0.2409985E+000  0.5326006E+02  0.7957747E-01  0.1428511E+00
         13   -1    0    0    0    0  0.00000000000E+00  0.00000000000E+00  0.99999944180E+02  0.10000000000E+03  0.10566000000E+00 0. -1.
         22   -1    0    0    0    0 -0.00000000000E+00 -0.00000000000E+00 -0.14705262245E+02  0.14705262245E+02  0.00000000000E+00 0. -1.
         13    1    1    2    0    0 -0.10553283585E+02  0.15008728927E+02  0.62334012723E+01  0.19377827378E+02  0.10566000000E+00 0.  1.
        996    1    1    2    0    0  0.10553283585E+02 -0.15008728927E+02  0.79061280662E+02  0.95327434867E+02  0.50000000000E+02 0.  0.
<mgrwt>
<rscale>  0 0.53260058E+02</rscale>
<asrwt>0</asrwt>
<pdfrwt beam="1">  1       13 0.10000000E+01 0.53260058E+02</pdfrwt>
<pdfrwt beam="2">  1       22 0.14705286E+00 0.53260058E+02</pdfrwt>
<totfact> 0.78011476E-01</totfact>
</mgrwt>
</event>
<event>
 4    1  0.2409985E+000  0.5577813E+02  0.7957747E-01  0.1416455E+00
         13   -1    0    0    0    0  0.00000000000E+00  0.00000000000E+00  0.99999944179E+02  0.99999999999E+02  0.10566000000E+00 0. -1.
         22   -1    0    0    0    0 -0.00000000000E+00 -0.00000000000E+00 -0.16288441955E+02  0.16288441955E+02  0.00000000000E+00 0.  1.
         13    1    1    2    0    0 -0.22936041655E+02  0.92269835404E+01  0.21861471129E+02  0.33002035029E+02  0.10566000000E+00 0.  1.
        996    1    1    2    0    0  0.22936041655E+02 -0.92269835404E+01  0.61850031095E+02  0.83286406925E+02  0.50000000000E+02 0.  0.
<mgrwt>
<rscale>  0 0.55778125E+02</rscale>
<asrwt>0</asrwt>
<pdfrwt beam="1">  1       13 0.10000000E+01 0.55778125E+02</pdfrwt>
<pdfrwt beam="2">  1       22 0.16288465E+00 0.55778125E+02</pdfrwt>
<totfact> 0.65957768E-01</totfact>
</mgrwt>
</event>
<event>
 4    1  0.2409985E+000  0.5164981E+02  0.7957747E-01  0.1436641E+00
         13   -1    0    0    0    0  0.00000000000E+00  0.00000000000E+00  0.99999944178E+02  0.99999999999E+02  0.10566000000E+00 0.  1.
         22   -1    0    0    0    0 -0.00000000000E+00 -0.00000000000E+00 -0.15534246672E+02  0.15534246672E+02  0.00000000000E+00 0. -1.
         13    1    1    2    0    0 -0.22372190645E+01 -0.12755309957E+02 -0.35985109159E+01  0.13441113275E+02  0.10566000000E+00 0. -1.
        996    1    1    2    0    0  0.22372190645E+01  0.12755309957E+02  0.88064208423E+02  0.10209313339E+03  0.50000000000E+02 0.  0.
<mgrwt>
<rscale>  0 0.51649812E+02</rscale>
<asrwt>0</asrwt>
<pdfrwt beam="1">  1       13 0.10000000E+01 0.51649812E+02</pdfrwt>
<pdfrwt beam="2">  1       22 0.15534270E+00 0.51649812E+02</pdfrwt>
<totfact> 0.70950894E-01</totfact>
</mgrwt>
</event>
<event>
 4    1  0.2409985E+000  0.6111038E+02  0.7957747E-01  0.1393230E+00
         13   -1    0    0    0    0  0.00000000000E+00  0.00000000000E+00  0.99999944174E+02  0.99999999995E+02  0.10566000000E+00 0. -1.
         22   -1    0    0    0    0 -0.00000000000E+00 -0.00000000000E+00 -0.62408861615E+02  0.62408861615E+02  0.00000000000E+00 0.  1.
         13    1    1    2    0    0  0.31196019187E+02 -0.16164388169E+02 -0.46609749797E+02  0.58369161363E+02  0.10566000000E+00 0.  1.
        996    1    1    2    0    0 -0.31196019187E+02  0.16164388169E+02  0.84200832356E+02  0.10403970025E+03  0.50000000000E+02 0.  0.
<mgrwt>
<rscale>  0 0.61110384E+02</rscale>
<asrwt>0</asrwt>
<pdfrwt beam="1">  1       13 0.10000000E+01 0.61110384E+02</pdfrwt>
<pdfrwt beam="2">  1       22 0.62408872E+00 0.61110384E+02</pdfrwt>
<totfact> 0.75360521E-02</totfact>
</mgrwt>
</event>
<event>
 4    1  0.2409985E+000  0.5922520E+02  0.7957747E-01  0.1401112E+00
         13   -1    0    0    0    0  0.00000000000E+00  0.00000000000E+00  0.99999944178E+02  0.99999999998E+02  0.10566000000E+00 0. -1.
         22   -1    0    0    0    0 -0.00000000000E+00 -0.00000000000E+00 -0.39010229548E+02  0.39010229548E+02  0.00000000000E+00 0. -1.
         13    1    1    2    0    0  0.25234519244E+02 -0.19257284413E+02 -0.20857541101E+02  0.37982524261E+02  0.10566000000E+00 0.  1.
        996    1    1    2    0    0 -0.25234519244E+02  0.19257284413E+02  0.81847255731E+02  0.10102770529E+03  0.50000000000E+02 0.  0.
<mgrwt>
<rscale>  0 0.59225197E+02</rscale>
<asrwt>0</asrwt>
<pdfrwt beam="1">  1       13 0.10000000E+01 0.59225197E+02</pdfrwt>
<pdfrwt beam="2">  1       22 0.39010247E+00 0.59225197E+02</pdfrwt>
<totfact> 0.13033763E-01</totfact>
</mgrwt>
</event>
<event>
 4    1  0.2409985E+000  0.5239762E+02  0.7957747E-01  0.1432822E+00
         13   -1    0    0    0    0  0.00000000000E+00  0.00000000000E+00  0.99999944181E+02  0.10000000000E+03  0.10566000000E+00 0.  1.
         22   -1    0    0    0    0 -0.00000000000E+00 -0.00000000000E+00 -0.28500082823E+02  0.28500082823E+02  0.00000000000E+00 0. -1.
         13    1    1    2    0    0 -0.94836787263E+01 -0.12472806729E+02 -0.18570274462E+02  0.24297681525E+02  0.10566000000E+00 0. -1.
        996    1    1    2    0    0  0.94836787263E+01  0.12472806729E+02  0.90070135819E+02  0.10420240130E+03  0.50000000000E+02 0.  0.
<mgrwt>
<rscale>  0 0.52397625E+02</rscale>
<asrwt>0</asrwt>
<pdfrwt beam="1">  1       13 0.10000000E+01 0.52397625E+02</pdfrwt>
<pdfrwt beam="2">  1       22 0.28500103E+00 0.52397625E+02</pdfrwt>
<totfact> 0.22830967E-01</totfact>
</mgrwt>
</event>
<event>
 4    1  0.2409985E+000  0.5363209E+02  0.7957747E-01  0.1426681E+00
         13   -1    0    0    0    0  0.00000000000E+00  0.00000000000E+00  0.99999944171E+02  0.99999999991E+02  0.10566000000E+00 0.  1.
         22   -1    0    0    0    0 -0.00000000000E+00 -0.00000000000E+00 -0.32249391380E+02  0.32249391380E+02  0.00000000000E+00 0. -1.
         13    1    1    2    0    0 -0.11784908617E+01 -0.19365228097E+02 -0.20976104560E+02  0.28572872213E+02  0.10566000000E+00 0. -1.
        996    1    1    2    0    0  0.11784908617E+01  0.19365228097E+02  0.88726657351E+02  0.10367651916E+03  0.50000000000E+02 0.  0.
<mgrwt>
<rscale>  0 0.53632088E+02</rscale>
<asrwt>0</asrwt>
<pdfrwt beam="1">  1       13 0.10000000E+01 0.53632088E+02</pdfrwt>
<pdfrwt beam="2">  1       22 0.32249410E+00 0.53632088E+02</pdfrwt>
<totfact> 0.18179284E-01</totfact>
</mgrwt>
</event>
<event>
 4    1  0.2409985E+000  0.5102114E+02  0.7957747E-01  0.1439910E+00
         13   -1    0    0    0    0  0.00000000000E+00  0.00000000000E+00  0.99999944181E+02  0.10000000000E+03  0.10566000000E+00 0.  1.
         22   -1    0    0    0    0 -0.00000000000E+00 -0.00000000000E+00 -0.21598212895E+02  0.21598212895E+02  0.00000000000E+00 0. -1.
         13    1    1    2    0    0 -0.46821494797E+01  0.90130047473E+01 -0.13254118753E+02  0.16698491138E+02  0.10566000000E+00 0. -1.
        996    1    1    2    0    0  0.46821494797E+01 -0.90130047473E+01  0.91655850039E+02  0.10489972176E+03  0.50000000000E+02 0.  0.
<mgrwt>
<rscale>  0 0.51021141E+02</rscale>
<asrwt>0</asrwt>
<pdfrwt beam="1">  1       13 0.10000000E+01 0.51021141E+02</pdfrwt>
<pdfrwt beam="2">  1       22 0.21598235E+00 0.51021141E+02</pdfrwt>
<totfact> 0.39115005E-01</totfact>
</mgrwt>
</event>
<event>
 4    1  0.2409985E+000  0.5330429E+02  0.7957747E-01  0.1428292E+00
         13   -1    0    0    0    0  0.00000000000E+00  0.00000000000E+00  0.99999944180E+02  0.10000000000E+03  0.10566000000E+00 0.  1.
         22   -1    0    0    0    0 -0.00000000000E+00 -0.00000000000E+00 -0.34185205263E+02  0.34185205263E+02  0.00000000000E+00 0. -1.
         13    1    1    2    0    0  0.60875965922E+01  0.17443867971E+02 -0.23670124224E+02  0.30027209442E+02  0.10566000000E+00 0. -1.
        996    1    1    2    0    0 -0.60875965922E+01 -0.17443867971E+02  0.89484863141E+02  0.10415799582E+03  0.50000000000E+02 0.  0.
<mgrwt>
<rscale>  0 0.53304290E+02</rscale>
<asrwt>0</asrwt>
<pdfrwt beam="1">  1       13 0.10000000E+01 0.53304290E+02</pdfrwt>
<pdfrwt beam="2">  1       22 0.34185224E+00 0.53304290E+02</pdfrwt>
<totfact> 0.16396286E-01</totfact>
</mgrwt>
</event>
<event>
 4    1  0.2409985E+000  0.5114995E+02  0.7957747E-01  0.1439236E+00
         13   -1    0    0    0    0  0.00000000000E+00  0.00000000000E+00  0.99999944173E+02  0.99999999993E+02  0.10566000000E+00 0. -1.
         22   -1    0    0    0    0 -0.00000000000E+00 -0.00000000000E+00 -0.28019635018E+02  0.28019635018E+02  0.00000000000E+00 0.  1.
         13    1    1    2    0    0  0.83541477233E+01  0.68209509202E+01 -0.20029014352E+02  0.22748400726E+02  0.10566000000E+00 0.  1.
        996    1    1    2    0    0 -0.83541477233E+01 -0.68209509202E+01  0.92009323507E+02  0.10527123428E+03  0.50000000000E+02 0.  0.
<mgrwt>
<rscale>  0 0.51149948E+02</rscale>
<asrwt>0</asrwt>
<pdfrwt beam="1">  1       13 0.10000000E+01 0.51149948E+02</pdfrwt>
<pdfrwt beam="2">  1       22 0.28019655E+00 0.51149948E+02</pdfrwt>
<totfact> 0.23550053E-01</totfact>
</mgrwt>
</event>
<event>
 4    1  0.2409985E+000  0.5142898E+02  0.7957747E-01  0.1437783E+00
         13   -1    0    0    0    0  0.00000000000E+00  0.00000000000E+00  0.99999944171E+02  0.99999999991E+02  0.10566000000E+00 0.  1.
         22   -1    0    0    0    0 -0.00000000000E+00 -0.00000000000E+00 -0.10072859575E+02  0.10072859575E+02  0.00000000000E+00 0.  1.
         13    1    1    2    0    0 -0.11765092271E+02 -0.25539953796E+01  0.16421360736E+02  0.20362036760E+02  0.10566000000E+00 0. -1.
        996    1    1    2    0    0  0.11765092271E+02  0.25539953796E+01  0.73505723860E+02  0.89710822807E+02  0.50000000000E+02 0.  0.
<mgrwt>
<rscale>  0 0.51428983E+02</rscale>
<asrwt>0</asrwt>
<pdfrwt beam="1">  1       13 0.10000000E+01 0.51428983E+02</pdfrwt>
<pdfrwt beam="2">  1       22 0.10072885E+00 0.51428983E+02</pdfrwt>
<totfact> 0.13931061E+00</totfact>
</mgrwt>
</event>
<event>
 4    1  0.2409985E+000  0.5170086E+02  0.7957747E-01  0.1436378E+00
         13   -1    0    0    0    0  0.00000000000E+00  0.00000000000E+00  0.99999944175E+02  0.99999999995E+02  0.10566000000E+00 0.  1.
         22   -1    0    0    0    0 -0.00000000000E+00 -0.00000000000E+00 -0.14510043643E+02  0.14510043643E+02  0.00000000000E+00 0.  1.
         13    1    1    2    0    0 -0.66150169881E+00 -0.13135492218E+02 -0.15801638840E+01  0.13247143928E+02  0.10566000000E+00 0. -1.
        996    1    1    2    0    0  0.66150169881E+00  0.13135492218E+02  0.87070064415E+02  0.10126289971E+03  0.50000000000E+02 0.  0.
<mgrwt>
<rscale>  0 0.51700858E+02</rscale>
<asrwt>0</asrwt>
<pdfrwt beam="1">  1       13 0.10000000E+01 0.51700858E+02</pdfrwt>
<pdfrwt beam="2">  1       22 0.14510068E+00 0.51700858E+02</pdfrwt>
<totfact> 0.79494745E-01</totfact>
</mgrwt>
</event>
<event>
 4    1  0.2409985E+000  0.5709929E+02  0.7957747E-01  0.1410424E+00
         13   -1    0    0    0    0  0.00000000000E+00  0.00000000000E+00  0.99999944187E+02  0.10000000001E+03  0.10566000000E+00 0. -1.
         22   -1    0    0    0    0 -0.00000000000E+00 -0.00000000000E+00 -0.23103769969E+02  0.23103769969E+02  0.00000000000E+00 0.  1.
         13    1    1    2    0    0 -0.16252202870E+02  0.22275432245E+02  0.31144251042E+00  0.27576024737E+02  0.10566000000E+00 0.  1.
        996    1    1    2    0    0  0.16252202870E+02 -0.22275432245E+02  0.76584731707E+02  0.95527745239E+02  0.50000000000E+02 0.  0.
<mgrwt>
<rscale>  0 0.57099291E+02</rscale>
<asrwt>0</asrwt>
<pdfrwt beam="1">  1       13 0.10000000E+01 0.57099291E+02</pdfrwt>
<pdfrwt beam="2">  1       22 0.23103791E+00 0.57099291E+02</pdfrwt>
<totfact> 0.34680976E-01</totfact>
</mgrwt>
</event>
<event>
 4    1  0.2409985E+000  0.5288368E+02  0.7957747E-01  0.1430381E+00
         13   -1    0    0    0    0  0.00000000000E+00  0.00000000000E+00  0.99999944180E+02  0.10000000000E+03  0.10566000000E+00 0. -1.
         22   -1    0    0    0    0 -0.00000000000E+00 -0.00000000000E+00 -0.18608533063E+02  0.18608533063E+02  0.00000000000E+00 0.  1.
         13    1    1    2    0    0 -0.15642356923E+02  0.72110876942E+01 -0.44449289043E+01  0.17789088589E+02  0.10566000000E+00 0.  1.
        996    1    1    2    0    0  0.15642356923E+02 -0.72110876942E+01  0.85836340021E+02  0.10081944447E+03  0.50000000000E+02 0.  0.
<mgrwt>
<rscale>  0 0.52883675E+02</rscale>
<asrwt>0</asrwt>
<pdfrwt beam="1">  1       13 0.10000000E+01 0.52883675E+02</pdfrwt>
<pdfrwt beam="2">  1       22 0.18608556E+00 0.52883675E+02</pdfrwt>
<totfact> 0.51825219E-01</totfact>
</mgrwt>
</event>
<event>
 4    1  0.2409985E+000  0.5249447E+02  0.7957747E-01  0.1432333E+00
         13   -1    0    0    0    0  0.00000000000E+00  0.00000000000E+00  0.99999944177E+02  0.99999999997E+02  0.10566000000E+00 0. -1.
         22   -1    0    0    0    0 -0.00000000000E+00 -0.00000000000E+00 -0.14937515982E+02  0.14937515982E+02  0.00000000000E+00 0.  1.
         13    1    1    2    0    0  0.81095076265E+01 -0.13780609560E+02  0.12449793090E+01  0.16038405510E+02  0.10566000000E+00 0.  1.
        996    1    1    2    0    0 -0.81095076265E+01  0.13780609560E+02  0.83817448886E+02  0.98899110469E+02  0.50000000000E+02 0.  0.
<mgrwt>
<rscale>  0 0.52494469E+02</rscale>
<asrwt>0</asrwt>
<pdfrwt beam="1">  1       13 0.10000000E+01 0.52494469E+02</pdfrwt>
<pdfrwt beam="2">  1       22 0.14937540E+00 0.52494469E+02</pdfrwt>
<totfact> 0.75893565E-01</totfact>
</mgrwt>
</event>
<event>
 4    1  0.2409985E+000  0.5259252E+02  0.7957747E-01  0.1431840E+00
         13   -1    0    0    0    0  0.00000000000E+00  0.00000000000E+00  0.99999944173E+02  0.99999999994E+02  0.10566000000E+00 0. -1.
         22   -1    0    0    0    0 -0.00000000000E+00 -0.00000000000E+00 -0.15529507166E+02  0.15529507166E+02  0.00000000000E+00 0. -1.
         13    1    1    2    0    0  0.13926275708E+01  0.16249118270E+02  0.50135285631E+02  0.52721260279E+02  0.10566000000E+00 0.  1.
        996    1    1    2    0    0 -0.13926275708E+01 -0.16249118270E+02  0.34335151377E+02  0.62808246880E+02  0.50000000000E+02 0.  0.
<mgrwt>
<rscale>  0 0.52592521E+02</rscale>
<asrwt>0</asrwt>
<pdfrwt beam="1">  1       13 0.10000000E+01 0.52592521E+02</pdfrwt>
<pdfrwt beam="2">  1       22 0.15529531E+00 0.52592521E+02</pdfrwt>
<totfact> 0.71122084E-01</totfact>
</mgrwt>
</event>
<event>
 4    1  0.2409985E+000  0.5175181E+02  0.7957747E-01  0.1436115E+00
         13   -1    0    0    0    0  0.00000000000E+00  0.00000000000E+00  0.99999944183E+02  0.10000000000E+03  0.10566000000E+00 0.  1.
         22   -1    0    0    0    0 -0.00000000000E+00 -0.00000000000E+00 -0.13886202921E+02  0.13886202921E+02  0.00000000000E+00 0.  1.
         13    1    1    2    0    0  0.26325860325E+00  0.13348436401E+02 -0.77564201028E-01  0.13351675538E+02  0.10566000000E+00 0. -1.
        996    1    1    2    0    0 -0.26325860325E+00 -0.13348436401E+02  0.86191305462E+02  0.10053452739E+03  0.50000000000E+02 0.  0.
<mgrwt>
<rscale>  0 0.51751812E+02</rscale>
<asrwt>0</asrwt>
<pdfrwt beam="1">  1       13 0.10000000E+01 0.51751812E+02</pdfrwt>
<pdfrwt beam="2">  1       22 0.13886227E+00 0.51751812E+02</pdfrwt>
<totfact> 0.85403749E-01</totfact>
</mgrwt>
</event>
<event>
 4    1  0.2409985E+000  0.5439839E+02  0.7957747E-01  0.1422966E+00
         13   -1    0    0    0    0  0.00000000000E+00  0.00000000000E+00  0.99999944179E+02  0.10000000000E+03  0.10566000000E+00 0.  1.
         22   -1    0    0    0    0 -0.00000000000E+00 -0.00000000000E+00 -0.24100523201E+02  0.24100523201E+02  0.00000000000E+00 0. -1.
         13    1    1    2    0    0  0.68495593468E+01  0.20304390467E+02 -0.90214596310E+01  0.23250432972E+02  0.10566000000E+00 0. -1.
        996    1    1    2    0    0 -0.68495593468E+01 -0.20304390467E+02  0.84920880610E+02  0.10085009023E+03  0.50000000000E+02 0.  0.
<mgrwt>
<rscale>  0 0.54398389E+02</rscale>
<asrwt>0</asrwt>
<pdfrwt beam="1">  1       13 0.10000000E+01 0.54398389E+02</pdfrwt>
<pdfrwt beam="2">  1       22 0.24100544E+00 0.54398389E+02</pdfrwt>
<totfact> 0.31798804E-01</totfact>
</mgrwt>
</event>
<event>
 4    1  0.2409985E+000  0.5225731E+02  0.7957747E-01  0.1433533E+00
         13   -1    0    0    0    0  0.00000000000E+00  0.00000000000E+00  0.99999944182E+02  0.10000000000E+03  0.10566000000E+00 0. -1.
         22   -1    0    0    0    0 -0.00000000000E+00 -0.00000000000E+00 -0.15930057786E+02  0.15930057786E+02  0.00000000000E+00 0.  1.
         13    1    1    2    0    0  0.11221286224E+02 -0.10242496695E+02 -0.19122488881E+01  0.15313192446E+02  0.10566000000E+00 0.  1.
        996    1    1    2    0    0 -0.11221286224E+02  0.10242496695E+02  0.85982135284E+02  0.10061686534E+03  0.50000000000E+02 0.  0.
<mgrwt>
<rscale>  0 0.52257306E+02</rscale>
<asrwt>0</asrwt>
<pdfrwt beam="1">  1       13 0.10000000E+01 0.52257306E+02</pdfrwt>
<pdfrwt beam="2">  1       22 0.15930081E+00 0.52257306E+02</pdfrwt>
<totfact> 0.68066744E-01</totfact>
</mgrwt>
</event>
<event>
 4    1  0.2409985E+000  0.5171429E+02  0.7957747E-01  0.1436309E+00
         13   -1    0    0    0    0  0.00000000000E+00  0.00000000000E+00  0.99999944181E+02  0.10000000000E+03  0.10566000000E+00 0. -1.
         22   -1    0    0    0    0 -0.00000000000E+00 -0.00000000000E+00 -0.12628321190E+02  0.12628321190E+02  0.00000000000E+00 0. -1.
         13    1    1    2    0    0  0.64516136998E+01  0.11521468379E+02  0.41329424579E+02  0.43387786911E+02  0.10566000000E+00 0.  1.
        996    1    1    2    0    0 -0.64516136998E+01 -0.11521468379E+02  0.46042198412E+02  0.69240534281E+02  0.50000000000E+02 0.  0.
<mgrwt>
<rscale>  0 0.51714288E+02</rscale>
<asrwt>0</asrwt>
<pdfrwt beam="1">  1       13 0.10000000E+01 0.51714288E+02</pdfrwt>
<pdfrwt beam="2">  1       22 0.12628346E+00 0.51714288E+02</pdfrwt>
<totfact> 0.99279358E-01</totfact>
</mgrwt>
</event>
<event>
 4    1  0.2409985E+000  0.5429138E+02  0.7957747E-01  0.1423480E+00
         13   -1    0    0    0    0  0.00000000000E+00  0.00000000000E+00  0.99999944174E+02  0.99999999994E+02  0.10566000000E+00 0.  1.
         22   -1    0    0    0    0 -0.00000000000E+00 -0.00000000000E+00 -0.21776285575E+02  0.21776285575E+02  0.00000000000E+00 0. -1.
         13    1    1    2    0    0 -0.34401689437E+01  0.20873891655E+02 -0.56202701262E+01  0.21889557225E+02  0.10566000000E+00 0. -1.
        996    1    1    2    0    0  0.34401689437E+01 -0.20873891655E+02  0.83843928725E+02  0.99886728344E+02  0.50000000000E+02 0.  0.
<mgrwt>
<rscale>  0 0.54291382E+02</rscale>
<asrwt>0</asrwt>
<pdfrwt beam="1">  1       13 0.10000000E+01 0.54291382E+02</pdfrwt>
<pdfrwt beam="2">  1       22 0.21776307E+00 0.54291382E+02</pdfrwt>
<totfact> 0.38718976E-01</totfact>
</mgrwt>
</event>
<event>
 4    1  0.2409985E+000  0.5110669E+02  0.7957747E-01  0.1439462E+00
         13   -1    0    0    0    0  0.00000000000E+00  0.00000000000E+00  0.99999944180E+02  0.10000000000E+03  0.10566000000E+00 0. -1.
         22   -1    0    0    0    0 -0.00000000000E+00 -0.00000000000E+00 -0.10672252307E+02  0.10672252307E+02  0.00000000000E+00 0. -1.
         13    1    1    2    0    0 -0.52517363736E+01 -0.91822399783E+01  0.42002555582E+01  0.11381896887E+02  0.10566000000E+00 0.  1.
        996    1    1    2    0    0  0.52517363736E+01  0.91822399783E+01  0.85127436314E+02  0.99290355420E+02  0.50000000000E+02 0.  0.
<mgrwt>
<rscale>  0 0.51106695E+02</rscale>
<asrwt>0</asrwt>
<pdfrwt beam="1">  1       13 0.10000000E+01 0.51106695E+02</pdfrwt>
<pdfrwt beam="2">  1       22 0.10672277E+00 0.51106695E+02</pdfrwt>
<totfact> 0.12791988E+00</totfact>
</mgrwt>
</event>
<event>
 4    1  0.2409985E+000  0.5679224E+02  0.7957747E-01  0.1411808E+00
         13   -1    0    0    0    0  0.00000000000E+00  0.00000000000E+00  0.99999944191E+02  0.10000000001E+03  0.10566000000E+00 0.  1.
         22   -1    0    0    0    0 -0.00000000000E+00 -0.00000000000E+00 -0.18463557140E+02  0.18463557140E+02  0.00000000000E+00 0.  1.
         13    1    1    2    0    0 -0.23552880169E+02 -0.13062185533E+02  0.14443177681E+02  0.30561011120E+02  0.10566000000E+00 0. -1.
        996    1    1    2    0    0  0.23552880169E+02  0.13062185533E+02  0.67093209370E+02  0.87902546031E+02  0.50000000000E+02 0.  0.
<mgrwt>
<rscale>  0 0.56792243E+02</rscale>
<asrwt>0</asrwt>
<pdfrwt beam="1">  1       13 0.10000000E+01 0.56792243E+02</pdfrwt>
<pdfrwt beam="2">  1       22 0.18463580E+00 0.56792243E+02</pdfrwt>
<totfact> 0.52929287E-01</totfact>
</mgrwt>
</event>
<event>
 4    1  0.2409985E+000  0.5872636E+02  0.7957747E-01  0.1403256E+00
         13   -1    0    0    0    0  0.00000000000E+00  0.00000000000E+00  0.99999944176E+02  0.99999999996E+02  0.10566000000E+00 0. -1.
         22   -1    0    0    0    0 -0.00000000000E+00 -0.00000000000E+00 -0.73407162823E+02  0.73407162823E+02  0.00000000000E+00 0.  1.
         13    1    1    2    0    0 -0.29671996878E+02 -0.82678793498E+01 -0.60775785533E+02  0.68135838579E+02  0.10566000000E+00 0.  1.
        996    1    1    2    0    0  0.29671996878E+02  0.82678793498E+01  0.87368566885E+02  0.10527132424E+03  0.50000000000E+02 0.  0.
<mgrwt>
<rscale>  0 0.58726359E+02</rscale>
<asrwt>0</asrwt>
<pdfrwt beam="1">  1       13 0.10000000E+01 0.58726359E+02</pdfrwt>
<pdfrwt beam="2">  1       22 0.73407170E+00 0.58726359E+02</pdfrwt>
<totfact> 0.56681210E-02</totfact>
</mgrwt>
</event>
<event>
 4    1  0.2409985E+000  0.5409342E+02  0.7957747E-01  0.1424435E+00
         13   -1    0    0    0    0  0.00000000000E+00  0.00000000000E+00  0.99999944186E+02  0.10000000001E+03  0.10566000000E+00 0. -1.
         22   -1    0    0    0    0 -0.00000000000E+00 -0.00000000000E+00 -0.21998724890E+02  0.21998724890E+02  0.00000000000E+00 0.  1.
         13    1    1    2    0    0  0.20263767312E+02 -0.39341288524E+01 -0.65217920457E+01  0.21648153987E+02  0.10566000000E+00 0.  1.
        996    1    1    2    0    0 -0.20263767312E+02  0.39341288524E+01  0.84523011342E+02  0.10035057091E+03  0.50000000000E+02 0.  0.
<mgrwt>
<rscale>  0 0.54093416E+02</rscale>
<asrwt>0</asrwt>
<pdfrwt beam="1">  1       13 0.10000000E+01 0.54093416E+02</pdfrwt>
<pdfrwt beam="2">  1       22 0.21998747E+00 0.54093416E+02</pdfrwt>
<totfact> 0.37957747E-01</totfact>
</mgrwt>
</event>
<event>
 4    1  0.2409985E+000  0.5273609E+02  0.7957747E-01  0.1431119E+00
         13   -1    0    0    0    0  0.00000000000E+00  0.00000000000E+00  0.99999944178E+02  0.99999999998E+02  0.10566000000E+00 0. -1.
         22   -1    0    0    0    0 -0.00000000000E+00 -0.00000000000E+00 -0.21228318773E+02  0.21228318773E+02  0.00000000000E+00 0.  1.
         13    1    1    2    0    0  0.11862739076E+01  0.16723885686E+02 -0.88516492487E+01  0.18959389671E+02  0.10566000000E+00 0.  1.
        996    1    1    2    0    0 -0.11862739076E+01 -0.16723885686E+02  0.87623274654E+02  0.10226892910E+03  0.50000000000E+02 0.  0.
<mgrwt>
<rscale>  0 0.52736094E+02</rscale>
<asrwt>0</asrwt>
<pdfrwt beam="1">  1       13 0.10000000E+01 0.52736094E+02</pdfrwt>
<pdfrwt beam="2">  1       22 0.21228341E+00 0.52736094E+02</pdfrwt>
<totfact> 0.40545931E-01</totfact>
</mgrwt>
</event>
<event>
 4    1  0.2409985E+000  0.5145643E+02  0.7957747E-01  0.1437641E+00
         13   -1    0    0    0    0  0.00000000000E+00  0.00000000000E+00  0.99999944178E+02  0.99999999998E+02  0.10566000000E+00 0.  1.
         22   -1    0    0    0    0 -0.00000000000E+00 -0.00000000000E+00 -0.10218063483E+02  0.10218063483E+02  0.00000000000E+00 0.  1.
         13    1    1    2    0    0  0.11732029906E+02  0.31816932656E+01  0.21768466529E+02  0.24932729430E+02  0.10566000000E+00 0. -1.
        996    1    1    2    0    0 -0.11732029906E+02 -0.31816932656E+01  0.68013414166E+02  0.85285334051E+02  0.50000000000E+02 0.  0.
<mgrwt>
<rscale>  0 0.51456425E+02</rscale>
<asrwt>0</asrwt>
<pdfrwt beam="1">  1       13 0.10000000E+01 0.51456425E+02</pdfrwt>
<pdfrwt beam="2">  1       22 0.10218089E+00 0.51456425E+02</pdfrwt>
<totfact> 0.13645090E+00</totfact>
</mgrwt>
</event>
<event>
 4    1  0.2409985E+000  0.5142628E+02  0.7957747E-01  0.1437797E+00
         13   -1    0    0    0    0  0.00000000000E+00  0.00000000000E+00  0.99999944180E+02  0.10000000000E+03  0.10566000000E+00 0. -1.
         22   -1    0    0    0    0 -0.00000000000E+00 -0.00000000000E+00 -0.10255589556E+02  0.10255589556E+02  0.00000000000E+00 0. -1.
         13    1    1    2    0    0 -0.53346014767E+01  0.10779795517E+02  0.11618038249E+02  0.16722797048E+02  0.10566000000E+00 0.  1.
        996    1    1    2    0    0  0.53346014767E+01 -0.10779795517E+02  0.78126316375E+02  0.93532792509E+02  0.50000000000E+02 0.  0.
<mgrwt>
<rscale>  0 0.51426277E+02</rscale>
<asrwt>0</asrwt>
<pdfrwt beam="1">  1       13 0.10000000E+01 0.51426277E+02</pdfrwt>
<pdfrwt beam="2">  1       22 0.10255615E+00 0.51426277E+02</pdfrwt>
<totfact> 0.13571406E+00</totfact>
</mgrwt>
</event>
<event>
 4    1  0.2409985E+000  0.5290631E+02  0.7957747E-01  0.1430268E+00
         13   -1    0    0    0    0  0.00000000000E+00  0.00000000000E+00  0.99999944183E+02  0.10000000000E+03  0.10566000000E+00 0. -1.
         22   -1    0    0    0    0 -0.00000000000E+00 -0.00000000000E+00 -0.13817987348E+02  0.13817987348E+02  0.00000000000E+00 0. -1.
         13    1    1    2    0    0  0.42510098869E+01  0.16763248425E+02  0.40047266454E+02  0.43621924503E+02  0.10566000000E+00 0.  1.
        996    1    1    2    0    0 -0.42510098869E+01 -0.16763248425E+02  0.46134690381E+02  0.70196062848E+02  0.50000000000E+02 0.  0.
<mgrwt>
<rscale>  0 0.52906309E+02</rscale>
<asrwt>0</asrwt>
<pdfrwt beam="1">  1       13 0.10000000E+01 0.52906309E+02</pdfrwt>
<pdfrwt beam="2">  1       22 0.13818011E+00 0.52906309E+02</pdfrwt>
<totfact> 0.86294110E-01</totfact>
</mgrwt>
</event>
<event>
 4    1  0.2409985E+000  0.5484932E+02  0.7957747E-01  0.1420813E+00
         13   -1    0    0    0    0  0.00000000000E+00  0.00000000000E+00  0.99999944176E+02  0.99999999996E+02  0.10566000000E+00 0. -1.
         22   -1    0    0    0    0 -0.00000000000E+00 -0.00000000000E+00 -0.43176716245E+02  0.43176716245E+02  0.00000000000E+00 0.  1.
         13    1    1    2    0    0 -0.19025100846E+02  0.12103470052E+02 -0.31781964462E+02  0.38968614019E+02  0.10566000000E+00 0.  1.
        996    1    1    2    0    0  0.19025100846E+02 -0.12103470052E+02  0.88605192394E+02  0.10420810222E+03  0.50000000000E+02 0.  0.
<mgrwt>
<rscale>  0 0.54849325E+02</rscale>
<asrwt>0</asrwt>
<pdfrwt beam="1">  1       13 0.10000000E+01 0.54849325E+02</pdfrwt>
<pdfrwt beam="2">  1       22 0.43176732E+00 0.54849325E+02</pdfrwt>
<totfact> 0.10621614E-01</totfact>
</mgrwt>
</event>
<event>
 4    1  0.2409985E+000  0.5103185E+02  0.7957747E-01  0.1439854E+00
         13   -1    0    0    0    0  0.00000000000E+00  0.00000000000E+00  0.99999944170E+02  0.99999999990E+02  0.10566000000E+00 0.  1.
         22   -1    0    0    0    0 -0.00000000000E+00 -0.00000000000E+00 -0.10032020329E+02  0.10032020329E+02  0.00000000000E+00 0. -1.
         13    1    1    2    0    0 -0.93766836176E+01 -0.40407339074E+01  0.62060587390E+01  0.11948893475E+02  0.10566000000E+00 0. -1.
        996    1    1    2    0    0  0.93766836176E+01  0.40407339074E+01  0.83761865102E+02  0.98083126844E+02  0.50000000000E+02 0.  0.
<mgrwt>
<rscale>  0 0.51031850E+02</rscale>
<asrwt>0</asrwt>
<pdfrwt beam="1">  1       13 0.10000000E+01 0.51031850E+02</pdfrwt>
<pdfrwt beam="2">  1       22 0.10032045E+00 0.51031850E+02</pdfrwt>
<totfact> 0.13999859E+00</totfact>
</mgrwt>
</event>
<event>
 4    1  0.2409985E+000  0.5114643E+02  0.7957747E-01  0.1439254E+00
         13   -1    0    0    0    0  0.00000000000E+00  0.00000000000E+00  0.99999944183E+02  0.10000000000E+03  0.10566000000E+00 0.  1.
         22   -1    0    0    0    0 -0.00000000000E+00 -0.00000000000E+00 -0.10827610058E+02  0.10827610058E+02  0.00000000000E+00 0.  1.
         13    1    1    2    0    0 -0.46843711023E+01  0.96960585060E+01  0.40185385218E+01  0.11494202846E+02  0.10566000000E+00 0. -1.
        996    1    1    2    0    0  0.46843711023E+01 -0.96960585060E+01  0.85153795603E+02  0.99333407215E+02  0.50000000000E+02 0.  0.
<mgrwt>
<rscale>  0 0.51146426E+02</rscale>
<asrwt>0</asrwt>
<pdfrwt beam="1">  1       13 0.10000000E+01 0.51146426E+02</pdfrwt>
<pdfrwt beam="2">  1       22 0.10827635E+00 0.51146426E+02</pdfrwt>
<totfact> 0.12522972E+00</totfact>
</mgrwt>
</event>
<event>
 4    1  0.2409985E+000  0.7557828E+02  0.7957747E-01  0.1342090E+00
         13   -1    0    0    0    0  0.00000000000E+00  0.00000000000E+00  0.99999944177E+02  0.99999999997E+02  0.10566000000E+00 0.  1.
         22   -1    0    0    0    0 -0.00000000000E+00 -0.00000000000E+00 -0.67964688402E+02  0.67964688402E+02  0.00000000000E+00 0. -1.
         13    1    1    2    0    0 -0.25636636540E+01  0.56617175752E+02 -0.35276552193E+02  0.66757196317E+02  0.10566000000E+00 0. -1.
        996    1    1    2    0    0  0.25636636540E+01 -0.56617175752E+02  0.67311807968E+02  0.10120749208E+03  0.50000000000E+02 0.  0.
<mgrwt>
<rscale>  0 0.75578284E+02</rscale>
<asrwt>0</asrwt>
<pdfrwt beam="1">  1       13 0.10000000E+01 0.75578284E+02</pdfrwt>
<pdfrwt beam="2">  1       22 0.67964697E+00 0.75578284E+02</pdfrwt>
<totfact> 0.83583093E-02</totfact>
</mgrwt>
</event>
<event>
 4    1  0.2409985E+000  0.5238465E+02  0.7957747E-01  0.1432888E+00
         13   -1    0    0    0    0  0.00000000000E+00  0.00000000000E+00  0.99999944174E+02  0.99999999994E+02  0.10566000000E+00 0.  1.
         22   -1    0    0    0    0 -0.00000000000E+00 -0.00000000000E+00 -0.14950433715E+02  0.14950433715E+02  0.00000000000E+00 0. -1.
         13    1    1    2    0    0 -0.19087138068E+01 -0.15508321177E+02  0.67937318466E+00  0.15640457988E+02  0.10566000000E+00 0. -1.
        996    1    1    2    0    0  0.19087138068E+01  0.15508321177E+02  0.84370137274E+02  0.99309975721E+02  0.50000000000E+02 0.  0.
<mgrwt>
<rscale>  0 0.52384647E+02</rscale>
<asrwt>0</asrwt>
<pdfrwt beam="1">  1       13 0.10000000E+01 0.52384647E+02</pdfrwt>
<pdfrwt beam="2">  1       22 0.14950457E+00 0.52384647E+02</pdfrwt>
<totfact> 0.75767665E-01</totfact>
</mgrwt>
</event>
<event>
 4    1  0.2409985E+000  0.5200664E+02  0.7957747E-01  0.1434809E+00
         13   -1    0    0    0    0  0.00000000000E+00  0.00000000000E+00  0.99999944172E+02  0.99999999993E+02  0.10566000000E+00 0. -1.
         22   -1    0    0    0    0 -0.00000000000E+00 -0.00000000000E+00 -0.51902319958E+02  0.51902319958E+02  0.00000000000E+00 0.  1.
         13    1    1    2    0    0  0.93377327311E+01  0.10839637731E+02 -0.43927301435E+02  0.46198592772E+02  0.10566000000E+00 0.  1.
        996    1    1    2    0    0 -0.93377327311E+01 -0.10839637731E+02  0.92024925649E+02  0.10570372718E+03  0.50000000000E+02 0.  0.
<mgrwt>
<rscale>  0 0.52006644E+02</rscale>
<asrwt>0</asrwt>
<pdfrwt beam="1">  1       13 0.10000000E+01 0.52006644E+02</pdfrwt>
<pdfrwt beam="2">  1       22 0.51902333E+00 0.52006644E+02</pdfrwt>
<totfact> 0.66615392E-02</totfact>
</mgrwt>
</event>
<event>
 4    1  0.2409985E+000  0.5134707E+02  0.7957747E-01  0.1438208E+00
         13   -1    0    0    0    0  0.00000000000E+00  0.00000000000E+00  0.99999944181E+02  0.10000000000E+03  0.10566000000E+00 0.  1.
         22   -1    0    0    0    0 -0.00000000000E+00 -0.00000000000E+00 -0.13590926110E+02  0.13590926110E+02  0.00000000000E+00 0. -1.
         13    1    1    2    0    0 -0.55773397496E+01 -0.10267183817E+02 -0.15040722918E+01  0.11781136605E+02  0.10566000000E+00 0. -1.
        996    1    1    2    0    0  0.55773397496E+01  0.10267183817E+02  0.87913090362E+02  0.10180978951E+03  0.50000000000E+02 0.  0.
<mgrwt>
<rscale>  0 0.51347072E+02</rscale>
<asrwt>0</asrwt>
<pdfrwt beam="1">  1       13 0.10000000E+01 0.51347072E+02</pdfrwt>
<pdfrwt beam="2">  1       22 0.13590950E+00 0.51347072E+02</pdfrwt>
<totfact> 0.88331221E-01</totfact>
</mgrwt>
</event>
<event>
 4    1  0.2409985E+000  0.5679895E+02  0.7957747E-01  0.1411778E+00
         13   -1    0    0    0    0  0.00000000000E+00  0.00000000000E+00  0.99999944173E+02  0.99999999993E+02  0.10566000000E+00 0.  1.
         22   -1    0    0    0    0 -0.00000000000E+00 -0.00000000000E+00 -0.17929209094E+02  0.17929209094E+02  0.00000000000E+00 0. -1.
         13    1    1    2    0    0 -0.41248354901E+01 -0.26629063071E+02  0.18531906109E+02  0.32704188966E+02  0.10566000000E+00 0. -1.
        996    1    1    2    0    0  0.41248354901E+01  0.26629063071E+02  0.63538828970E+02  0.85225020122E+02  0.50000000000E+02 0.  0.
<mgrwt>
<rscale>  0 0.56798955E+02</rscale>
<asrwt>0</asrwt>
<pdfrwt beam="1">  1       13 0.10000000E+01 0.56798955E+02</pdfrwt>
<pdfrwt beam="2">  1       22 0.17929232E+00 0.56798955E+02</pdfrwt>
<totfact> 0.55810371E-01</totfact>
</mgrwt>
</event>
<event>
 4    1  0.2409985E+000  0.6270382E+02  0.7957747E-01  0.1386823E+00
         13   -1    0    0    0    0  0.00000000000E+00  0.00000000000E+00  0.99999944180E+02  0.10000000000E+03  0.10566000000E+00 0. -1.
         22   -1    0    0    0    0 -0.00000000000E+00 -0.00000000000E+00 -0.69699046795E+02  0.69699046795E+02  0.00000000000E+00 0.  1.
         13    1    1    2    0    0  0.11950788445E+02 -0.35901919794E+02 -0.53194962342E+02  0.65280045741E+02  0.10566000000E+00 0.  1.
        996    1    1    2    0    0 -0.11950788445E+02  0.35901919794E+02  0.83495859728E+02  0.10441900105E+03  0.50000000000E+02 0.  0.
<mgrwt>
<rscale>  0 0.62703821E+02</rscale>
<asrwt>0</asrwt>
<pdfrwt beam="1">  1       13 0.10000000E+01 0.62703821E+02</pdfrwt>
<pdfrwt beam="2">  1       22 0.69699055E+00 0.62703821E+02</pdfrwt>
<totfact> 0.76148418E-02</totfact>
</mgrwt>
</event>
<event>
 4    1  0.2409985E+000  0.5176327E+02  0.7957747E-01  0.1436057E+00
         13   -1    0    0    0    0  0.00000000000E+00  0.00000000000E+00  0.99999944178E+02  0.99999999998E+02  0.10566000000E+00 0. -1.
         22   -1    0    0    0    0 -0.00000000000E+00 -0.00000000000E+00 -0.14490926121E+02  0.14490926121E+02  0.00000000000E+00 0. -1.
         13    1    1    2    0    0 -0.23251055844E+01  0.13192049942E+02 -0.12598665565E+01  0.13454914545E+02  0.10566000000E+00 0.  1.
        996    1    1    2    0    0  0.23251055844E+01 -0.13192049942E+02  0.86768884614E+02  0.10103601157E+03  0.50000000000E+02 0.  0.
<mgrwt>
<rscale>  0 0.51763272E+02</rscale>
<asrwt>0</asrwt>
<pdfrwt beam="1">  1       13 0.10000000E+01 0.51763272E+02</pdfrwt>
<pdfrwt beam="2">  1       22 0.14490950E+00 0.51763272E+02</pdfrwt>
<totfact> 0.79677449E-01</totfact>
</mgrwt>
</event>
<event>
 4    1  0.2409985E+000  0.5421284E+02  0.7957747E-01  0.1423858E+00
         13   -1    0    0    0    0  0.00000000000E+00  0.00000000000E+00  0.99999944182E+02  0.10000000000E+03  0.10566000000E+00 0.  1.
         22   -1    0    0    0    0 -0.00000000000E+00 -0.00000000000E+00 -0.14126731507E+02  0.14126731507E+02  0.00000000000E+00 0.  1.
         13    1    1    2    0    0  0.95303849798E+01  0.18660231821E+02  0.23353895058E+02  0.31375915411E+02  0.10566000000E+00 0. -1.
        996    1    1    2    0    0 -0.95303849798E+01 -0.18660231821E+02  0.62519317617E+02  0.82750816098E+02  0.50000000000E+02 0.  0.
<mgrwt>
<rscale>  0 0.54212844E+02</rscale>
<asrwt>0</asrwt>
<pdfrwt beam="1">  1       13 0.10000000E+01 0.54212844E+02</pdfrwt>
<pdfrwt beam="2">  1       22 0.14126755E+00 0.54212844E+02</pdfrwt>
<totfact> 0.83480242E-01</totfact>
</mgrwt>
</event>
<event>
 4    1  0.2409985E+000  0.5448815E+02  0.7957747E-01  0.1422535E+00
         13   -1    0    0    0    0  0.00000000000E+00  0.00000000000E+00  0.99999944177E+02  0.99999999997E+02  0.10566000000E+00 0. -1.
         22   -1    0    0    0    0 -0.00000000000E+00 -0.00000000000E+00 -0.26518437302E+02  0.26518437302E+02  0.00000000000E+00 0.  1.
         13    1    1    2    0    0 -0.96539029237E+01  0.19384557190E+02 -0.12292131654E+02  0.24901135792E+02  0.10566000000E+00 0.  1.
        996    1    1    2    0    0  0.96539029237E+01 -0.19384557190E+02  0.85773638529E+02  0.10161730151E+03  0.50000000000E+02 0.  0.
<mgrwt>
<rscale>  0 0.54488154E+02</rscale>
<asrwt>0</asrwt>
<pdfrwt beam="1">  1       13 0.10000000E+01 0.54488154E+02</pdfrwt>
<pdfrwt beam="2">  1       22 0.26518458E+00 0.54488154E+02</pdfrwt>
<totfact> 0.26347180E-01</totfact>
</mgrwt>
</event>
<event>
 4    1  0.2409985E+000  0.5113861E+02  0.7957747E-01  0.1439295E+00
         13   -1    0    0    0    0  0.00000000000E+00  0.00000000000E+00  0.99999944181E+02  0.10000000000E+03  0.10566000000E+00 0. -1.
         22   -1    0    0    0    0 -0.00000000000E+00 -0.00000000000E+00 -0.18676045363E+02  0.18676045363E+02  0.00000000000E+00 0. -1.
         13    1    1    2    0    0  0.40541320725E+01 -0.99358464298E+01 -0.95732256826E+01  0.14381058554E+02  0.10566000000E+00 0.  1.
        996    1    1    2    0    0 -0.40541320725E+01  0.99358464298E+01  0.90897124500E+02  0.10429498681E+03  0.50000000000E+02 0.  0.
<mgrwt>
<rscale>  0 0.51138606E+02</rscale>
<asrwt>0</asrwt>
<pdfrwt beam="1">  1       13 0.10000000E+01 0.51138606E+02</pdfrwt>
<pdfrwt beam="2">  1       22 0.18676068E+00 0.51138606E+02</pdfrwt>
<totfact> 0.51318554E-01</totfact>
</mgrwt>
</event>
<event>
 4    1  0.2409985E+000  0.5108196E+02  0.7957747E-01  0.1439592E+00
         13   -1    0    0    0    0  0.00000000000E+00  0.00000000000E+00  0.99999944176E+02  0.99999999996E+02  0.10566000000E+00 0. -1.
         22   -1    0    0    0    0 -0.00000000000E+00 -0.00000000000E+00 -0.15736978507E+02  0.15736978507E+02  0.00000000000E+00 0.  1.
         13    1    1    2    0    0  0.12592656584E+01  0.10381773596E+02 -0.59742838267E+01  0.12044509300E+02  0.10566000000E+00 0.  1.
        996    1    1    2    0    0 -0.12592656584E+01 -0.10381773596E+02  0.90237249496E+02  0.10369246920E+03  0.50000000000E+02 0.  0.
<mgrwt>
<rscale>  0 0.51081963E+02</rscale>
<asrwt>0</asrwt>
<pdfrwt beam="1">  1       13 0.10000000E+01 0.51081963E+02</pdfrwt>
<pdfrwt beam="2">  1       22 0.15737002E+00 0.51081963E+02</pdfrwt>
<totfact> 0.69330162E-01</totfact>
</mgrwt>
</event>
<event>
 4    1  0.2409985E+000  0.5265264E+02  0.7957747E-01  0.1431537E+00
         13   -1    0    0    0    0  0.00000000000E+00  0.00000000000E+00  0.99999944179E+02  0.99999999999E+02  0.10566000000E+00 0.  1.
         22   -1    0    0    0    0 -0.00000000000E+00 -0.00000000000E+00 -0.12126612237E+02  0.12126612237E+02  0.00000000000E+00 0. -1.
         13    1    1    2    0    0  0.14052607440E+02 -0.86501299356E+01  0.15605506620E+02  0.22712188900E+02  0.10566000000E+00 0. -1.
        996    1    1    2    0    0 -0.14052607440E+02  0.86501299356E+01  0.72267825322E+02  0.89414423336E+02  0.50000000000E+02 0.  0.
<mgrwt>
<rscale>  0 0.52652640E+02</rscale>
<asrwt>0</asrwt>
<pdfrwt beam="1">  1       13 0.10000000E+01 0.52652640E+02</pdfrwt>
<pdfrwt beam="2">  1       22 0.12126637E+00 0.52652640E+02</pdfrwt>
<totfact> 0.10592922E+00</totfact>
</mgrwt>
</event>
<event>
 4    1  0.2409985E+000  0.5556465E+02  0.7957747E-01  0.1417447E+00
         13   -1    0    0    0    0  0.00000000000E+00  0.00000000000E+00  0.99999944183E+02  0.10000000000E+03  0.10566000000E+00 0.  1.
         22   -1    0    0    0    0 -0.00000000000E+00 -0.00000000000E+00 -0.16704289278E+02  0.16704289278E+02  0.00000000000E+00 0. -1.
         13    1    1    2    0    0  0.24203063416E+02  0.12814991228E+01  0.14392755838E+02  0.28188527869E+02  0.10566000000E+00 0. -1.
        996    1    1    2    0    0 -0.24203063416E+02 -0.12814991228E+01  0.68902899066E+02  0.88515761413E+02  0.50000000000E+02 0.  0.
<mgrwt>
<rscale>  0 0.55564652E+02</rscale>
<asrwt>0</asrwt>
<pdfrwt beam="1">  1       13 0.10000000E+01 0.55564652E+02</pdfrwt>
<pdfrwt beam="2">  1       22 0.16704313E+00 0.55564652E+02</pdfrwt>
<totfact> 0.63112253E-01</totfact>
</mgrwt>
</event>
<event>
 4    1  0.2409985E+000  0.5128183E+02  0.7957747E-01  0.1438548E+00
         13   -1    0    0    0    0  0.00000000000E+00  0.00000000000E+00  0.99999944182E+02  0.10000000000E+03  0.10566000000E+00 0.  1.
         22   -1    0    0    0    0 -0.00000000000E+00 -0.00000000000E+00 -0.11409253044E+02  0.11409253044E+02  0.00000000000E+00 0. -1.
         13    1    1    2    0    0  0.10095981191E+02  0.52817899236E+01  0.32553797563E+01  0.11850519077E+02  0.10566000000E+00 0. -1.
        996    1    1    2    0    0 -0.10095981191E+02 -0.52817899236E+01  0.85335311382E+02  0.99558733970E+02  0.50000000000E+02 0.  0.
<mgrwt>
<rscale>  0 0.51281831E+02</rscale>
<asrwt>0</asrwt>
<pdfrwt beam="1">  1       13 0.10000000E+01 0.51281831E+02</pdfrwt>
<pdfrwt beam="2">  1       22 0.11409278E+00 0.51281831E+02</pdfrwt>
<totfact> 0.11586167E+00</totfact>
</mgrwt>
</event>
<event>
 4    1  0.2409985E+000  0.5148950E+02  0.7957747E-01  0.1437469E+00
         13   -1    0    0    0    0  0.00000000000E+00  0.00000000000E+00  0.99999944188E+02  0.10000000001E+03  0.10566000000E+00 0. -1.
         22   -1    0    0    0    0 -0.00000000000E+00 -0.00000000000E+00 -0.23238066743E+02  0.23238066743E+02  0.00000000000E+00 0.  1.
         13    1    1    2    0    0 -0.70207983567E+01  0.10093410419E+02 -0.14157395502E+02  0.18751308084E+02  0.10566000000E+00 0.  1.
        996    1    1    2    0    0  0.70207983567E+01 -0.10093410419E+02  0.90919272947E+02  0.10448675867E+03  0.50000000000E+02 0.  0.
<mgrwt>
<rscale>  0 0.51489499E+02</rscale>
<asrwt>0</asrwt>
<pdfrwt beam="1">  1       13 0.10000000E+01 0.51489499E+02</pdfrwt>
<pdfrwt beam="2">  1       22 0.23238088E+00 0.51489499E+02</pdfrwt>
<totfact> 0.33988795E-01</totfact>
</mgrwt>
</event>
<event>
 4    1  0.2409985E+000  0.6916849E+02  0.7957747E-01  0.1362944E+00
         13   -1    0    0    0    0  0.00000000000E+00  0.00000000000E+00  0.99999944181E+02  0.10000000000E+03  0.10566000000E+00 0. -1.
         22   -1    0    0    0    0 -0.00000000000E+00 -0.00000000000E+00 -0.34499029859E+02  0.34499029859E+02  0.00000000000E+00 0.  1.
         13    1    1    2    0    0 -0.20880569703E+01  0.47748502934E+02  0.20667877750E+02  0.52071603097E+02  0.10566000000E+00 0.  1.
        996    1    1    2    0    0  0.20880569703E+01 -0.47748502934E+02  0.44833036572E+02  0.82427426762E+02  0.50000000000E+02 0.  0.
<mgrwt>
<rscale>  0 0.69168486E+02</rscale>
<asrwt>0</asrwt>
<pdfrwt beam="1">  1       13 0.10000000E+01 0.69168486E+02</pdfrwt>
<pdfrwt beam="2">  1       22 0.34499048E+00 0.69168486E+02</pdfrwt>
<totfact> 0.16369340E-01</totfact>
</mgrwt>
</event>
<event>
 4    1  0.2409985E+000  0.5142116E+02  0.7957747E-01  0.1437824E+00
         13   -1    0    0    0    0  0.00000000000E+00  0.00000000000E+00  0.99999944178E+02  0.99999999998E+02  0.10566000000E+00 0. -1.
         22   -1    0    0    0    0 -0.00000000000E+00 -0.00000000000E+00 -0.12778070931E+02  0.12778070931E+02  0.00000000000E+00 0. -1.
         13    1    1    2    0    0 -0.24007136632E+01  0.11763173189E+02  0.43987677759E+02  0.45596739228E+02  0.10566000000E+00 0.  1.
        996    1    1    2    0    0  0.24007136632E+01 -0.11763173189E+02  0.43234195488E+02  0.67181331701E+02  0.50000000000E+02 0.  0.
<mgrwt>
<rscale>  0 0.51421160E+02</rscale>
<asrwt>0</asrwt>
<pdfrwt beam="1">  1       13 0.10000000E+01 0.51421160E+02</pdfrwt>
<pdfrwt beam="2">  1       22 0.12778095E+00 0.51421160E+02</pdfrwt>
<totfact> 0.97404952E-01</totfact>
</mgrwt>
</event>
<event>
 4    1  0.2409985E+000  0.5230907E+02  0.7957747E-01  0.1433271E+00
         13   -1    0    0    0    0  0.00000000000E+00  0.00000000000E+00  0.99999944184E+02  0.10000000000E+03  0.10566000000E+00 0. -1.
         22   -1    0    0    0    0 -0.00000000000E+00 -0.00000000000E+00 -0.24509337905E+02  0.24509337905E+02  0.00000000000E+00 0.  1.
         13    1    1    2    0    0 -0.10791058780E+02  0.10944935788E+02 -0.14040044345E+02  0.20817602606E+02  0.10566000000E+00 0.  1.
        996    1    1    2    0    0  0.10791058780E+02 -0.10944935788E+02  0.89530650625E+02  0.10369173530E+03  0.50000000000E+02 0.  0.
<mgrwt>
<rscale>  0 0.52309068E+02</rscale>
<asrwt>0</asrwt>
<pdfrwt beam="1">  1       13 0.10000000E+01 0.52309068E+02</pdfrwt>
<pdfrwt beam="2">  1       22 0.24509359E+00 0.52309068E+02</pdfrwt>
<totfact> 0.30665671E-01</totfact>
</mgrwt>
</event>
<event>
 4    1  0.2409985E+000  0.5152928E+02  0.7957747E-01  0.1437263E+00
         13   -1    0    0    0    0  0.00000000000E+00  0.00000000000E+00  0.99999944182E+02  0.10000000000E+03  0.10566000000E+00 0. -1.
         22   -1    0    0    0    0 -0.00000000000E+00 -0.00000000000E+00 -0.26937554818E+02  0.26937554818E+02  0.00000000000E+00 0.  1.
         13    1    1    2    0    0  0.12163068081E+02 -0.27066758022E+01 -0.18244452406E+02  0.22093834585E+02  0.10566000000E+00 0.  1.
        996    1    1    2    0    0 -0.12163068081E+02  0.27066758022E+01  0.91306841769E+02  0.10484372024E+03  0.50000000000E+02 0.  0.
<mgrwt>
<rscale>  0 0.51529276E+02</rscale>
<asrwt>0</asrwt>
<pdfrwt beam="1">  1       13 0.10000000E+01 0.51529276E+02</pdfrwt>
<pdfrwt beam="2">  1       22 0.26937575E+00 0.51529276E+02</pdfrwt>
<totfact> 0.25439674E-01</totfact>
</mgrwt>
</event>
<event>
 4    1  0.2409985E+000  0.5153269E+02  0.7957747E-01  0.1437246E+00
         13   -1    0    0    0    0  0.00000000000E+00  0.00000000000E+00  0.99999944174E+02  0.99999999994E+02  0.10566000000E+00 0. -1.
         22   -1    0    0    0    0 -0.00000000000E+00 -0.00000000000E+00 -0.16657234360E+02  0.16657234360E+02  0.00000000000E+00 0.  1.
         13    1    1    2    0    0  0.77435831797E+01  0.97803286165E+01 -0.57482887771E+01  0.13735788882E+02  0.10566000000E+00 0.  1.
        996    1    1    2    0    0 -0.77435831797E+01 -0.97803286165E+01  0.89090998591E+02  0.10292144547E+03  0.50000000000E+02 0.  0.
<mgrwt>
<rscale>  0 0.51532688E+02</rscale>
<asrwt>0</asrwt>
<pdfrwt beam="1">  1       13 0.10000000E+01 0.51532688E+02</pdfrwt>
<pdfrwt beam="2">  1       22 0.16657258E+00 0.51532688E+02</pdfrwt>
<totfact> 0.62940489E-01</totfact>
</mgrwt>
</event>
<event>
 4    1  0.2409985E+000  0.5102473E+02  0.7957747E-01  0.1439892E+00
         13   -1    0    0    0    0  0.00000000000E+00  0.00000000000E+00  0.99999944182E+02  0.10000000000E+03  0.10566000000E+00 0. -1.
         22   -1    0    0    0    0 -0.00000000000E+00 -0.00000000000E+00 -0.13783361602E+02  0.13783361602E+02  0.00000000000E+00 0. -1.
         13    1    1    2    0    0 -0.80947933407E+01 -0.61642246759E+01 -0.33414283858E+01  0.10709792378E+02  0.10566000000E+00 0.  1.
        996    1    1    2    0    0  0.80947933407E+01  0.61642246759E+01  0.89558010966E+02  0.10307356923E+03  0.50000000000E+02 0.  0.
<mgrwt>
<rscale>  0 0.51024733E+02</rscale>
<asrwt>0</asrwt>
<pdfrwt beam="1">  1       13 0.10000000E+01 0.51024733E+02</pdfrwt>
<pdfrwt beam="2">  1       22 0.13783386E+00 0.51024733E+02</pdfrwt>
<totfact> 0.86299480E-01</totfact>
</mgrwt>
</event>
<event>
 4    1  0.2409985E+000  0.5243224E+02  0.7957747E-01  0.1432647E+00
         13   -1    0    0    0    0  0.00000000000E+00  0.00000000000E+00  0.99999944183E+02  0.10000000000E+03  0.10566000000E+00 0.  1.
         22   -1    0    0    0    0 -0.00000000000E+00 -0.00000000000E+00 -0.12238388096E+02  0.12238388096E+02  0.00000000000E+00 0.  1.
         13    1    1    2    0    0 -0.78086093151E+01 -0.13717337804E+02  0.10846127215E+02  0.19151746016E+02  0.10566000000E+00 0. -1.
        996    1    1    2    0    0  0.78086093151E+01  0.13717337804E+02  0.76915428872E+02  0.93086642084E+02  0.50000000000E+02 0.  0.
<mgrwt>
<rscale>  0 0.52432239E+02</rscale>
<asrwt>0</asrwt>
<pdfrwt beam="1">  1       13 0.10000000E+01 0.52432239E+02</pdfrwt>
<pdfrwt beam="2">  1       22 0.12238413E+00 0.52432239E+02</pdfrwt>
<totfact> 0.10439221E+00</totfact>
</mgrwt>
</event>
<event>
 4    1  0.2409985E+000  0.7357413E+02  0.7957747E-01  0.1348344E+00
         13   -1    0    0    0    0  0.00000000000E+00  0.00000000000E+00  0.99999944178E+02  0.99999999998E+02  0.10566000000E+00 0. -1.
         22   -1    0    0    0    0 -0.00000000000E+00 -0.00000000000E+00 -0.48129220270E+02  0.48129220270E+02  0.00000000000E+00 0.  1.
         13    1    1    2    0    0  0.37903522877E+02 -0.38424936561E+02 -0.62956562843E+01  0.54339665515E+02  0.10566000000E+00 0.  1.
        996    1    1    2    0    0 -0.37903522877E+02  0.38424936561E+02  0.58166380192E+02  0.93789554754E+02  0.50000000000E+02 0.  0.
<mgrwt>
<rscale>  0 0.73574131E+02</rscale>
<asrwt>0</asrwt>
<pdfrwt beam="1">  1       13 0.10000000E+01 0.73574131E+02</pdfrwt>
<pdfrwt beam="2">  1       22 0.48129235E+00 0.73574131E+02</pdfrwt>
<totfact> 0.82409091E-02</totfact>
</mgrwt>
</event>
<event>
 4    1  0.2409985E+000  0.5134592E+02  0.7957747E-01  0.1438214E+00
         13   -1    0    0    0    0  0.00000000000E+00  0.00000000000E+00  0.99999944181E+02  0.10000000000E+03  0.10566000000E+00 0.  1.
         22   -1    0    0    0    0 -0.00000000000E+00 -0.00000000000E+00 -0.10791093119E+02  0.10791093119E+02  0.00000000000E+00 0. -1.
         13    1    1    2    0    0 -0.10697976557E+01 -0.11630077992E+02  0.63000173552E+01  0.13270439474E+02  0.10566000000E+00 0. -1.
        996    1    1    2    0    0  0.10697976557E+01  0.11630077992E+02  0.82908833706E+02  0.97520653647E+02  0.50000000000E+02 0.  0.
<mgrwt>
<rscale>  0 0.51345917E+02</rscale>
<asrwt>0</asrwt>
<pdfrwt beam="1">  1       13 0.10000000E+01 0.51345917E+02</pdfrwt>
<pdfrwt beam="2">  1       22 0.10791118E+00 0.51345917E+02</pdfrwt>
<totfact> 0.12591660E+00</totfact>
</mgrwt>
</event>
<event>
 4    1  0.2409985E+000  0.5131967E+02  0.7957747E-01  0.1438351E+00
         13   -1    0    0    0    0  0.00000000000E+00  0.00000000000E+00  0.99999944175E+02  0.99999999995E+02  0.10566000000E+00 0.  1.
         22   -1    0    0    0    0 -0.00000000000E+00 -0.00000000000E+00 -0.16378343101E+02  0.16378343101E+02  0.00000000000E+00 0. -1.
         13    1    1    2    0    0  0.63045894400E+00 -0.11546041961E+02 -0.60568522871E+01  0.13053933779E+02  0.10566000000E+00 0. -1.
        996    1    1    2    0    0 -0.63045894400E+00  0.11546041961E+02  0.89678453361E+02  0.10332440932E+03  0.50000000000E+02 0.  0.
<mgrwt>
<rscale>  0 0.51319670E+02</rscale>
<asrwt>0</asrwt>
<pdfrwt beam="1">  1       13 0.10000000E+01 0.51319670E+02</pdfrwt>
<pdfrwt beam="2">  1       22 0.16378366E+00 0.51319670E+02</pdfrwt>
<totfact> 0.64780215E-01</totfact>
</mgrwt>
</event>
<event>
 4    1  0.2409985E+000  0.5570293E+02  0.7957747E-01  0.1416804E+00
         13   -1    0    0    0    0  0.00000000000E+00  0.00000000000E+00  0.99999944182E+02  0.10000000000E+03  0.10566000000E+00 0. -1.
         22   -1    0    0    0    0 -0.00000000000E+00 -0.00000000000E+00 -0.23184913376E+02  0.23184913376E+02  0.00000000000E+00 0.  1.
         13    1    1    2    0    0 -0.23089757726E+02 -0.83474070168E+01 -0.41582927715E+01  0.24902182205E+02  0.10566000000E+00 0.  1.
        996    1    1    2    0    0  0.23089757726E+02  0.83474070168E+01  0.80973323578E+02  0.98282731174E+02  0.50000000000E+02 0.  0.
<mgrwt>
<rscale>  0 0.55702927E+02</rscale>
<asrwt>0</asrwt>
<pdfrwt beam="1">  1       13 0.10000000E+01 0.55702927E+02</pdfrwt>
<pdfrwt beam="2">  1       22 0.23184935E+00 0.55702927E+02</pdfrwt>
<totfact> 0.34371761E-01</totfact>
</mgrwt>
</event>
<event>
 4    1  0.2409985E+000  0.5179226E+02  0.7957747E-01  0.1435908E+00
         13   -1    0    0    0    0  0.00000000000E+00  0.00000000000E+00  0.99999944184E+02  0.10000000000E+03  0.10566000000E+00 0. -1.
         22   -1    0    0    0    0 -0.00000000000E+00 -0.00000000000E+00 -0.18206951723E+02  0.18206951723E+02  0.00000000000E+00 0.  1.
         13    1    1    2    0    0  0.57548421641E+01 -0.12219649064E+02 -0.71501279397E+01  0.15283112418E+02  0.10566000000E+00 0.  1.
        996    1    1    2    0    0 -0.57548421641E+01  0.12219649064E+02  0.88943120400E+02  0.10292383931E+03  0.50000000000E+02 0.  0.
<mgrwt>
<rscale>  0 0.51792258E+02</rscale>
<asrwt>0</asrwt>
<pdfrwt beam="1">  1       13 0.10000000E+01 0.51792258E+02</pdfrwt>
<pdfrwt beam="2">  1       22 0.18206975E+00 0.51792258E+02</pdfrwt>
<totfact> 0.53802259E-01</totfact>
</mgrwt>
</event>
<event>
 4    1  0.2409985E+000  0.5309315E+02  0.7957747E-01  0.1429338E+00
         13   -1    0    0    0    0  0.00000000000E+00  0.00000000000E+00  0.99999944186E+02  0.10000000001E+03  0.10566000000E+00 0. -1.
         22   -1    0    0    0    0 -0.00000000000E+00 -0.00000000000E+00 -0.23981334335E+02  0.23981334335E+02  0.00000000000E+00 0.  1.
         13    1    1    2    0    0 -0.15266753834E+02  0.92633173078E+01 -0.11769180973E+02  0.21387089680E+02  0.10566000000E+00 0.  1.
        996    1    1    2    0    0  0.15266753834E+02 -0.92633173078E+01  0.87787790823E+02  0.10259424466E+03  0.50000000000E+02 0.  0.
<mgrwt>
<rscale>  0 0.53093152E+02</rscale>
<asrwt>0</asrwt>
<pdfrwt beam="1">  1       13 0.10000000E+01 0.53093152E+02</pdfrwt>
<pdfrwt beam="2">  1       22 0.23981356E+00 0.53093152E+02</pdfrwt>
<totfact> 0.32044263E-01</totfact>
</mgrwt>
</event>
<event>
 4    1  0.2409985E+000  0.5418099E+02  0.7957747E-01  0.1424012E+00
         13   -1    0    0    0    0  0.00000000000E+00  0.00000000000E+00  0.99999944171E+02  0.99999999991E+02  0.10566000000E+00 0. -1.
         22   -1    0    0    0    0 -0.00000000000E+00 -0.00000000000E+00 -0.46044588988E+02  0.46044588988E+02  0.00000000000E+00 0.  1.
         13    1    1    2    0    0 -0.13093938234E+02 -0.16252033344E+02 -0.35662892829E+02  0.41321095039E+02  0.10566000000E+00 0.  1.
        996    1    1    2    0    0  0.13093938234E+02  0.16252033344E+02  0.89618248012E+02  0.10472349394E+03  0.50000000000E+02 0.  0.
<mgrwt>
<rscale>  0 0.54180991E+02</rscale>
<asrwt>0</asrwt>
<pdfrwt beam="1">  1       13 0.10000000E+01 0.54180991E+02</pdfrwt>
<pdfrwt beam="2">  1       22 0.46044604E+00 0.54180991E+02</pdfrwt>
<totfact> 0.91563510E-02</totfact>
</mgrwt>
</event>
<event>
 4    1  0.2409985E+000  0.5207254E+02  0.7957747E-01  0.1434473E+00
         13   -1    0    0    0    0  0.00000000000E+00  0.00000000000E+00  0.99999944180E+02  0.10000000000E+03  0.10566000000E+00 0. -1.
         22   -1    0    0    0    0 -0.00000000000E+00 -0.00000000000E+00 -0.12446580230E+02  0.12446580230E+02  0.00000000000E+00 0. -1.
         13    1    1    2    0    0 -0.19455582694E+01  0.14414011207E+02  0.61035337698E+01  0.15773813888E+02  0.10566000000E+00 0.  1.
        996    1    1    2    0    0  0.19455582694E+01 -0.14414011207E+02  0.81449830180E+02  0.96672766343E+02  0.50000000000E+02 0.  0.
<mgrwt>
<rscale>  0 0.52072535E+02</rscale>
<asrwt>0</asrwt>
<pdfrwt beam="1">  1       13 0.10000000E+01 0.52072535E+02</pdfrwt>
<pdfrwt beam="2">  1       22 0.12446605E+00 0.52072535E+02</pdfrwt>
<totfact> 0.10162299E+00</totfact>
</mgrwt>
</event>
<event>
 4    1  0.2409985E+000  0.5477686E+02  0.7957747E-01  0.1421157E+00
         13   -1    0    0    0    0  0.00000000000E+00  0.00000000000E+00  0.99999944181E+02  0.10000000000E+03  0.10566000000E+00 0.  1.
         22   -1    0    0    0    0 -0.00000000000E+00 -0.00000000000E+00 -0.64064082091E+02  0.64064082091E+02  0.00000000000E+00 0. -1.
         13    1    1    2    0    0  0.12568522826E+02  0.18507758382E+02 -0.54173734119E+02  0.58611513534E+02  0.10566000000E+00 0. -1.
        996    1    1    2    0    0 -0.12568522826E+02 -0.18507758382E+02  0.90109596210E+02  0.10545256856E+03  0.50000000000E+02 0.  0.
<mgrwt>
<rscale>  0 0.54776865E+02</rscale>
<asrwt>0</asrwt>
<pdfrwt beam="1">  1       13 0.10000000E+01 0.54776865E+02</pdfrwt>
<pdfrwt beam="2">  1       22 0.64064092E+00 0.54776865E+02</pdfrwt>
<totfact> 0.83606795E-02</totfact>
</mgrwt>
</event>
<event>
 4    1  0.2409985E+000  0.5756434E+02  0.7957747E-01  0.1408347E+00
         13   -1    0    0    0    0  0.00000000000E+00  0.00000000000E+00  0.99999944180E+02  0.10000000000E+03  0.10566000000E+00 0. -1.
         22   -1    0    0    0    0 -0.00000000000E+00 -0.00000000000E+00 -0.25234405298E+02  0.25234405298E+02  0.00000000000E+00 0.  1.
         13    1    1    2    0    0 -0.28523995872E+02  0.18593610280E+00 -0.27780598656E+01  0.28659757386E+02  0.10566000000E+00 0.  1.
        996    1    1    2    0    0  0.28523995872E+02 -0.18593610280E+00  0.77543598748E+02  0.96574647913E+02  0.50000000000E+02 0.  0.
<mgrwt>
<rscale>  0 0.57564337E+02</rscale>
<asrwt>0</asrwt>
<pdfrwt beam="1">  1       13 0.10000000E+01 0.57564337E+02</pdfrwt>
<pdfrwt beam="2">  1       22 0.25234426E+00 0.57564337E+02</pdfrwt>
<totfact> 0.29181585E-01</totfact>
</mgrwt>
</event>
<event>
 4    1  0.2409985E+000  0.5375452E+02  0.7957747E-01  0.1426082E+00
         13   -1    0    0    0    0  0.00000000000E+00  0.00000000000E+00  0.99999944179E+02  0.99999999999E+02  0.10566000000E+00 0.  1.
         22   -1    0    0    0    0 -0.00000000000E+00 -0.00000000000E+00 -0.45748969168E+02  0.45748969168E+02  0.00000000000E+00 0. -1.
         13    1    1    2    0    0  0.15026259474E+02  0.12796862603E+02 -0.35796455124E+02  0.40877200610E+02  0.10566000000E+00 0. -1.
        996    1    1    2    0    0 -0.15026259474E+02 -0.12796862603E+02  0.90047430135E+02  0.10487176856E+03  0.50000000000E+02 0.  0.
<mgrwt>
<rscale>  0 0.53754518E+02</rscale>
<asrwt>0</asrwt>
<pdfrwt beam="1">  1       13 0.10000000E+01 0.53754518E+02</pdfrwt>
<pdfrwt beam="2">  1       22 0.45748984E+00 0.53754518E+02</pdfrwt>
<totfact> 0.92990070E-02</totfact>
</mgrwt>
</event>
<event>
 4    1  0.2409985E+000  0.6581663E+02  0.7957747E-01  0.1374926E+00
         13   -1    0    0    0    0  0.00000000000E+00  0.00000000000E+00  0.99999944184E+02  0.10000000000E+03  0.10566000000E+00 0. -1.
         22   -1    0    0    0    0 -0.00000000000E+00 -0.00000000000E+00 -0.34150345309E+02  0.34150345309E+02  0.00000000000E+00 0.  1.
         13    1    1    2    0    0  0.37966192515E+02  0.19758483149E+02  0.26161690313E+01  0.42879889632E+02  0.10566000000E+00 0.  1.
        996    1    1    2    0    0 -0.37966192515E+02 -0.19758483149E+02  0.63233429843E+02  0.91270455681E+02  0.50000000000E+02 0.  0.
<mgrwt>
<rscale>  0 0.65816635E+02</rscale>
<asrwt>0</asrwt>
<pdfrwt beam="1">  1       13 0.10000000E+01 0.65816635E+02</pdfrwt>
<pdfrwt beam="2">  1       22 0.34150364E+00 0.65816635E+02</pdfrwt>
<totfact> 0.16620910E-01</totfact>
</mgrwt>
</event>
<event>
 4    1  0.2409985E+000  0.5161141E+02  0.7957747E-01  0.1436839E+00
         13   -1    0    0    0    0  0.00000000000E+00  0.00000000000E+00  0.99999944181E+02  0.10000000000E+03  0.10566000000E+00 0.  1.
         22   -1    0    0    0    0 -0.00000000000E+00 -0.00000000000E+00 -0.20518762372E+02  0.20518762372E+02  0.00000000000E+00 0. -1.
         13    1    1    2    0    0  0.14567739543E+01 -0.12712793033E+02 -0.10655345549E+02  0.16651872263E+02  0.10566000000E+00 0. -1.
        996    1    1    2    0    0 -0.14567739543E+01  0.12712793033E+02  0.90136527358E+02  0.10386689011E+03  0.50000000000E+02 0.  0.
<mgrwt>
<rscale>  0 0.51611407E+02</rscale>
<asrwt>0</asrwt>
<pdfrwt beam="1">  1       13 0.10000000E+01 0.51611407E+02</pdfrwt>
<pdfrwt beam="2">  1       22 0.20518785E+00 0.51611407E+02</pdfrwt>
<totfact> 0.43155412E-01</totfact>
</mgrwt>
</event>
<event>
 4    1  0.2409985E+000  0.5196981E+02  0.7957747E-01  0.1434998E+00
         13   -1    0    0    0    0  0.00000000000E+00  0.00000000000E+00  0.99999944176E+02  0.99999999996E+02  0.10566000000E+00 0.  1.
         22   -1    0    0    0    0 -0.00000000000E+00 -0.00000000000E+00 -0.10942493466E+02  0.10942493466E+02  0.00000000000E+00 0.  1.
         13    1    1    2    0    0  0.13440642294E+02  0.44955601548E+01  0.20103348595E+02  0.24597087533E+02  0.10566000000E+00 0. -1.
        996    1    1    2    0    0 -0.13440642294E+02 -0.44955601548E+01  0.68954102115E+02  0.86345405928E+02  0.50000000000E+02 0.  0.
<mgrwt>
<rscale>  0 0.51969808E+02</rscale>
<asrwt>0</asrwt>
<pdfrwt beam="1">  1       13 0.10000000E+01 0.51969808E+02</pdfrwt>
<pdfrwt beam="2">  1       22 0.10942518E+00 0.51969808E+02</pdfrwt>
<totfact> 0.12352279E+00</totfact>
</mgrwt>
</event>
<event>
 4    1  0.2409985E+000  0.5103070E+02  0.7957747E-01  0.1439860E+00
         13   -1    0    0    0    0  0.00000000000E+00  0.00000000000E+00  0.99999944182E+02  0.10000000000E+03  0.10566000000E+00 0. -1.
         22   -1    0    0    0    0 -0.00000000000E+00 -0.00000000000E+00 -0.21851431389E+02  0.21851431389E+02  0.00000000000E+00 0.  1.
         13    1    1    2    0    0 -0.69646857413E+01  0.74582408424E+01 -0.13518132160E+02  0.16937628673E+02  0.10566000000E+00 0.  1.
        996    1    1    2    0    0  0.69646857413E+01 -0.74582408424E+01  0.91666644953E+02  0.10491380272E+03  0.50000000000E+02 0.  0.
<mgrwt>
<rscale>  0 0.51030699E+02</rscale>
<asrwt>0</asrwt>
<pdfrwt beam="1">  1       13 0.10000000E+01 0.51030699E+02</pdfrwt>
<pdfrwt beam="2">  1       22 0.21851453E+00 0.51030699E+02</pdfrwt>
<totfact> 0.38252319E-01</totfact>
</mgrwt>
</event>
<event>
 4    1  0.2409985E+000  0.5262751E+02  0.7957747E-01  0.1431664E+00
         13   -1    0    0    0    0  0.00000000000E+00  0.00000000000E+00  0.99999944175E+02  0.99999999995E+02  0.10566000000E+00 0. -1.
         22   -1    0    0    0    0 -0.00000000000E+00 -0.00000000000E+00 -0.11921084675E+02  0.11921084675E+02  0.00000000000E+00 0. -1.
         13    1    1    2    0    0 -0.11913613859E+02 -0.11301355352E+02  0.21518118111E+02  0.27068346811E+02  0.10566000000E+00 0.  1.
        996    1    1    2    0    0  0.11913613859E+02  0.11301355352E+02  0.66560741389E+02  0.84852737859E+02  0.50000000000E+02 0.  0.
<mgrwt>
<rscale>  0 0.52627510E+02</rscale>
<asrwt>0</asrwt>
<pdfrwt beam="1">  1       13 0.10000000E+01 0.52627510E+02</pdfrwt>
<pdfrwt beam="2">  1       22 0.11921109E+00 0.52627510E+02</pdfrwt>
<totfact> 0.10873650E+00</totfact>
</mgrwt>
</event>
<event>
 4    1  0.2409985E+000  0.5759422E+02  0.7957747E-01  0.1408214E+00
         13   -1    0    0    0    0  0.00000000000E+00  0.00000000000E+00  0.99999944181E+02  0.10000000000E+03  0.10566000000E+00 0.  1.
         22   -1    0    0    0    0 -0.00000000000E+00 -0.00000000000E+00 -0.18977217929E+02  0.18977217929E+02  0.00000000000E+00 0.  1.
         13    1    1    2    0    0 -0.28441296784E+02  0.28613283892E+01  0.18923586675E+02  0.34281304812E+02  0.10566000000E+00 0. -1.
        996    1    1    2    0    0  0.28441296784E+02 -0.28613283892E+01  0.62099139576E+02  0.84695913119E+02  0.50000000000E+02 0.  0.
<mgrwt>
<rscale>  0 0.57594223E+02</rscale>
<asrwt>0</asrwt>
<pdfrwt beam="1">  1       13 0.10000000E+01 0.57594223E+02</pdfrwt>
<pdfrwt beam="2">  1       22 0.18977241E+00 0.57594223E+02</pdfrwt>
<totfact> 0.50411859E-01</totfact>
</mgrwt>
</event>
<event>
 4    1  0.2409985E+000  0.5196226E+02  0.7957747E-01  0.1435036E+00
         13   -1    0    0    0    0  0.00000000000E+00  0.00000000000E+00  0.99999944183E+02  0.10000000000E+03  0.10566000000E+00 0.  1.
         22   -1    0    0    0    0 -0.00000000000E+00 -0.00000000000E+00 -0.62570835793E+02  0.62570835793E+02  0.00000000000E+00 0. -1.
         13    1    1    2    0    0  0.45885987709E+01  0.13379865572E+02 -0.54862469608E+02  0.56656665777E+02  0.10566000000E+00 0. -1.
        996    1    1    2    0    0 -0.45885987709E+01 -0.13379865572E+02  0.92291577998E+02  0.10591417002E+03  0.50000000000E+02 0.  0.
<mgrwt>
<rscale>  0 0.51962256E+02</rscale>
<asrwt>0</asrwt>
<pdfrwt beam="1">  1       13 0.10000000E+01 0.51962256E+02</pdfrwt>
<pdfrwt beam="2">  1       22 0.62570846E+00 0.51962256E+02</pdfrwt>
<totfact> 0.76270220E-02</totfact>
</mgrwt>
</event>
<event>
 4    1  0.2409985E+000  0.5285054E+02  0.7957747E-01  0.1430546E+00
         13   -1    0    0    0    0  0.00000000000E+00  0.00000000000E+00  0.99999944183E+02  0.10000000000E+03  0.10566000000E+00 0. -1.
         22   -1    0    0    0    0 -0.00000000000E+00 -0.00000000000E+00 -0.13948820565E+02  0.13948820565E+02  0.00000000000E+00 0.  1.
         13    1    1    2    0    0 -0.85722814294E+01 -0.14822130320E+02  0.62381721020E+01  0.18223762272E+02  0.10566000000E+00 0.  1.
        996    1    1    2    0    0  0.85722814294E+01  0.14822130320E+02  0.79812951516E+02  0.95725058296E+02  0.50000000000E+02 0.  0.
<mgrwt>
<rscale>  0 0.52850540E+02</rscale>
<asrwt>0</asrwt>
<pdfrwt beam="1">  1       13 0.10000000E+01 0.52850540E+02</pdfrwt>
<pdfrwt beam="2">  1       22 0.13948845E+00 0.52850540E+02</pdfrwt>
<totfact> 0.84979961E-01</totfact>
</mgrwt>
</event>
<event>
 4    1  0.2409985E+000  0.5146005E+02  0.7957747E-01  0.1437622E+00
         13   -1    0    0    0    0  0.00000000000E+00  0.00000000000E+00  0.99999944171E+02  0.99999999991E+02  0.10566000000E+00 0. -1.
         22   -1    0    0    0    0 -0.00000000000E+00 -0.00000000000E+00 -0.22063609335E+02  0.22063609335E+02  0.00000000000E+00 0.  1.
         13    1    1    2    0    0  0.37600595931E+01 -0.11575761579E+02 -0.12854761446E+02  0.17702891293E+02  0.10566000000E+00 0.  1.
        996    1    1    2    0    0 -0.37600595931E+01  0.11575761579E+02  0.90791096282E+02  0.10436071803E+03  0.50000000000E+02 0.  0.
<mgrwt>
<rscale>  0 0.51460046E+02</rscale>
<asrwt>0</asrwt>
<pdfrwt beam="1">  1       13 0.10000000E+01 0.51460046E+02</pdfrwt>
<pdfrwt beam="2">  1       22 0.22063631E+00 0.51460046E+02</pdfrwt>
<totfact> 0.37576837E-01</totfact>
</mgrwt>
</event>
<event>
 4    1  0.2409985E+000  0.5105559E+02  0.7957747E-01  0.1439730E+00
         13   -1    0    0    0    0  0.00000000000E+00  0.00000000000E+00  0.99999944180E+02  0.10000000000E+03  0.10566000000E+00 0.  1.
         22   -1    0    0    0    0 -0.00000000000E+00 -0.00000000000E+00 -0.10830650657E+02  0.10830650657E+02  0.00000000000E+00 0.  1.
         13    1    1    2    0    0 -0.40425657363E+01  0.95042672467E+01  0.31460994772E+01  0.10797339468E+02  0.10566000000E+00 0. -1.
        996    1    1    2    0    0  0.40425657363E+01 -0.95042672467E+01  0.86023194046E+02  0.10003331119E+03  0.50000000000E+02 0.  0.
<mgrwt>
<rscale>  0 0.51055592E+02</rscale>
<asrwt>0</asrwt>
<pdfrwt beam="1">  1       13 0.10000000E+01 0.51055592E+02</pdfrwt>
<pdfrwt beam="2">  1       22 0.10830676E+00 0.51055592E+02</pdfrwt>
<totfact> 0.12515076E+00</totfact>
</mgrwt>
</event>
<event>
 4    1  0.2409985E+000  0.5209632E+02  0.7957747E-01  0.1434352E+00
         13   -1    0    0    0    0  0.00000000000E+00  0.00000000000E+00  0.99999944189E+02  0.10000000001E+03  0.10566000000E+00 0.  1.
         22   -1    0    0    0    0 -0.00000000000E+00 -0.00000000000E+00 -0.11704169776E+02  0.11704169776E+02  0.00000000000E+00 0.  1.
         13    1    1    2    0    0  0.14071214203E+02 -0.40034599271E+01  0.10230945816E+02  0.17852455766E+02  0.10566000000E+00 0. -1.
        996    1    1    2    0    0 -0.14071214203E+02  0.40034599271E+01  0.78064828596E+02  0.93851714019E+02  0.50000000000E+02 0.  0.
<mgrwt>
<rscale>  0 0.52096322E+02</rscale>
<asrwt>0</asrwt>
<pdfrwt beam="1">  1       13 0.10000000E+01 0.52096322E+02</pdfrwt>
<pdfrwt beam="2">  1       22 0.11704194E+00 0.52096322E+02</pdfrwt>
<totfact> 0.11168757E+00</totfact>
</mgrwt>
</event>
<event>
 4    1  0.2409985E+000  0.5342183E+02  0.7957747E-01  0.1427713E+00
         13   -1    0    0    0    0  0.00000000000E+00  0.00000000000E+00  0.99999944182E+02  0.10000000000E+03  0.10566000000E+00 0.  1.
         22   -1    0    0    0    0 -0.00000000000E+00 -0.00000000000E+00 -0.13310760330E+02  0.13310760330E+02  0.00000000000E+00 0.  1.
         13    1    1    2    0    0  0.18478278886E+01 -0.18721045363E+02  0.30048002394E+02  0.35451172326E+02  0.10566000000E+00 0. -1.
        996    1    1    2    0    0 -0.18478278886E+01  0.18721045363E+02  0.56641181458E+02  0.77859588006E+02  0.50000000000E+02 0.  0.
<mgrwt>
<rscale>  0 0.53421831E+02</rscale>
<asrwt>0</asrwt>
<pdfrwt beam="1">  1       13 0.10000000E+01 0.53421831E+02</pdfrwt>
<pdfrwt beam="2">  1       22 0.13310785E+00 0.53421831E+02</pdfrwt>
<totfact> 0.91718967E-01</totfact>
</mgrwt>
</event>
<event>
 4    1  0.2409985E+000  0.5242117E+02  0.7957747E-01  0.1432703E+00
         13   -1    0    0    0    0  0.00000000000E+00  0.00000000000E+00  0.99999944183E+02  0.10000000000E+03  0.10566000000E+00 0. -1.
         22   -1    0    0    0    0 -0.00000000000E+00 -0.00000000000E+00 -0.11718776453E+02  0.11718776453E+02  0.00000000000E+00 0.  1.
         13    1    1    2    0    0 -0.13643692166E+02 -0.78631217591E+01  0.16213276539E+02  0.22602223782E+02  0.10566000000E+00 0.  1.
        996    1    1    2    0    0  0.13643692166E+02  0.78631217591E+01  0.72067891191E+02  0.89116552674E+02  0.50000000000E+02 0.  0.
<mgrwt>
<rscale>  0 0.52421170E+02</rscale>
<asrwt>0</asrwt>
<pdfrwt beam="1">  1       13 0.10000000E+01 0.52421170E+02</pdfrwt>
<pdfrwt beam="2">  1       22 0.11718801E+00 0.52421170E+02</pdfrwt>
<totfact> 0.11155769E+00</totfact>
</mgrwt>
</event>
<event>
 4    1  0.2409985E+000  0.5687906E+02  0.7957747E-01  0.1411416E+00
         13   -1    0    0    0    0  0.00000000000E+00  0.00000000000E+00  0.99999944174E+02  0.99999999994E+02  0.10566000000E+00 0. -1.
         22   -1    0    0    0    0 -0.00000000000E+00 -0.00000000000E+00 -0.18251417603E+02  0.18251417603E+02  0.00000000000E+00 0.  1.
         13    1    1    2    0    0 -0.76658051376E+01 -0.26008899068E+02  0.37041204200E+02  0.45905221617E+02  0.10566000000E+00 0.  1.
        996    1    1    2    0    0  0.76658051376E+01  0.26008899068E+02  0.44707322371E+02  0.72346195980E+02  0.50000000000E+02 0.  0.
<mgrwt>
<rscale>  0 0.56879059E+02</rscale>
<asrwt>0</asrwt>
<pdfrwt beam="1">  1       13 0.10000000E+01 0.56879059E+02</pdfrwt>
<pdfrwt beam="2">  1       22 0.18251440E+00 0.56879059E+02</pdfrwt>
<totfact> 0.54056486E-01</totfact>
</mgrwt>
</event>
<event>
 4    1  0.2409985E+000  0.5421219E+02  0.7957747E-01  0.1423862E+00
         13   -1    0    0    0    0  0.00000000000E+00  0.00000000000E+00  0.99999944169E+02  0.99999999989E+02  0.10566000000E+00 0. -1.
         22   -1    0    0    0    0 -0.00000000000E+00 -0.00000000000E+00 -0.29428051285E+02  0.29428051285E+02  0.00000000000E+00 0.  1.
         13    1    1    2    0    0  0.20616017440E+02  0.37337599643E+01 -0.16629267604E+02  0.26748922289E+02  0.10566000000E+00 0.  1.
        996    1    1    2    0    0 -0.20616017440E+02 -0.37337599643E+01  0.87201160488E+02  0.10267912898E+03  0.50000000000E+02 0.  0.
<mgrwt>
<rscale>  0 0.54212186E+02</rscale>
<asrwt>0</asrwt>
<pdfrwt beam="1">  1       13 0.10000000E+01 0.54212186E+02</pdfrwt>
<pdfrwt beam="2">  1       22 0.29428071E+00 0.54212186E+02</pdfrwt>
<totfact> 0.21529130E-01</totfact>
</mgrwt>
</event>
<event>
 4    1  0.2409985E+000  0.5148457E+02  0.7957747E-01  0.1437495E+00
         13   -1    0    0    0    0  0.00000000000E+00  0.00000000000E+00  0.99999944177E+02  0.99999999997E+02  0.10566000000E+00 0. -1.
         22   -1    0    0    0    0 -0.00000000000E+00 -0.00000000000E+00 -0.33787581534E+02  0.33787581534E+02  0.00000000000E+00 0.  1.
         13    1    1    2    0    0  0.10011175498E+02 -0.71019157527E+01 -0.25675799714E+02  0.28459070560E+02  0.10566000000E+00 0.  1.
        996    1    1    2    0    0 -0.10011175498E+02  0.71019157527E+01  0.91888162356E+02  0.10532851097E+03  0.50000000000E+02 0.  0.
<mgrwt>
<rscale>  0 0.51484569E+02</rscale>
<asrwt>0</asrwt>
<pdfrwt beam="1">  1       13 0.10000000E+01 0.51484569E+02</pdfrwt>
<pdfrwt beam="2">  1       22 0.33787600E+00 0.51484569E+02</pdfrwt>
<totfact> 0.16702305E-01</totfact>
</mgrwt>
</event>
<event>
 4    1  0.2409985E+000  0.5255252E+02  0.7957747E-01  0.1432041E+00
         13   -1    0    0    0    0  0.00000000000E+00  0.00000000000E+00  0.99999944175E+02  0.99999999996E+02  0.10566000000E+00 0. -1.
         22   -1    0    0    0    0 -0.00000000000E+00 -0.00000000000E+00 -0.25060226591E+02  0.25060226591E+02  0.00000000000E+00 0.  1.
         13    1    1    2    0    0 -0.13694776664E+02  0.86151554767E+01 -0.14236309864E+02  0.21551136729E+02  0.10566000000E+00 0.  1.
        996    1    1    2    0    0  0.13694776664E+02 -0.86151554767E+01  0.89176027448E+02  0.10350908986E+03  0.50000000000E+02 0.  0.
<mgrwt>
<rscale>  0 0.52552524E+02</rscale>
<asrwt>0</asrwt>
<pdfrwt beam="1">  1       13 0.10000000E+01 0.52552524E+02</pdfrwt>
<pdfrwt beam="2">  1       22 0.25060248E+00 0.52552524E+02</pdfrwt>
<totfact> 0.29365379E-01</totfact>
</mgrwt>
</event>
<event>
 4    1  0.2409985E+000  0.5099880E+02  0.7957747E-01  0.1440028E+00
         13   -1    0    0    0    0  0.00000000000E+00  0.00000000000E+00  0.99999944181E+02  0.10000000000E+03  0.10566000000E+00 0. -1.
         22   -1    0    0    0    0 -0.00000000000E+00 -0.00000000000E+00 -0.16699754102E+02  0.16699754102E+02  0.00000000000E+00 0.  1.
         13    1    1    2    0    0 -0.33634430625E+01 -0.94638596843E+01 -0.75151522283E+01  0.12544563221E+02  0.10566000000E+00 0.  1.
        996    1    1    2    0    0  0.33634430625E+01  0.94638596843E+01  0.90815342307E+02  0.10415519088E+03  0.50000000000E+02 0.  0.
<mgrwt>
<rscale>  0 0.50998798E+02</rscale>
<asrwt>0</asrwt>
<pdfrwt beam="1">  1       13 0.10000000E+01 0.50998798E+02</pdfrwt>
<pdfrwt beam="2">  1       22 0.16699777E+00 0.50998798E+02</pdfrwt>
<totfact> 0.62595919E-01</totfact>
</mgrwt>
</event>
<event>
 4    1  0.2409985E+000  0.5575055E+02  0.7957747E-01  0.1416582E+00
         13   -1    0    0    0    0  0.00000000000E+00  0.00000000000E+00  0.99999944190E+02  0.10000000001E+03  0.10566000000E+00 0.  1.
         22   -1    0    0    0    0 -0.00000000000E+00 -0.00000000000E+00 -0.18250479383E+02  0.18250479383E+02  0.00000000000E+00 0.  1.
         13    1    1    2    0    0 -0.22156443221E+02 -0.10826648618E+02  0.82595784167E+01  0.26006847102E+02  0.10566000000E+00 0. -1.
        996    1    1    2    0    0  0.22156443221E+02  0.10826648618E+02  0.73489886390E+02  0.92243632291E+02  0.50000000000E+02 0.  0.
<mgrwt>
<rscale>  0 0.55750554E+02</rscale>
<asrwt>0</asrwt>
<pdfrwt beam="1">  1       13 0.10000000E+01 0.55750554E+02</pdfrwt>
<pdfrwt beam="2">  1       22 0.18250502E+00 0.55750554E+02</pdfrwt>
<totfact> 0.53956649E-01</totfact>
</mgrwt>
</event>
<event>
 4    1  0.2409985E+000  0.6131892E+02  0.7957747E-01  0.1392379E+00
         13   -1    0    0    0    0  0.00000000000E+00  0.00000000000E+00  0.99999944185E+02  0.10000000000E+03  0.10566000000E+00 0. -1.
         22   -1    0    0    0    0 -0.00000000000E+00 -0.00000000000E+00 -0.25689344782E+02  0.25689344782E+02  0.00000000000E+00 0.  1.
         13    1    1    2    0    0  0.25901990351E+02  0.24271317258E+02  0.46125585392E+02  0.58203013130E+02  0.10566000000E+00 0.  1.
        996    1    1    2    0    0 -0.25901990351E+02 -0.24271317258E+02  0.28185014011E+02  0.67486331656E+02  0.50000000000E+02 0.  0.
<mgrwt>
<rscale>  0 0.61318920E+02</rscale>
<asrwt>0</asrwt>
<pdfrwt beam="1">  1       13 0.10000000E+01 0.61318920E+02</pdfrwt>
<pdfrwt beam="2">  1       22 0.25689366E+00 0.61318920E+02</pdfrwt>
<totfact> 0.28311359E-01</totfact>
</mgrwt>
</event>
<event>
 4    1  0.2409985E+000  0.5103878E+02  0.7957747E-01  0.1439818E+00
         13   -1    0    0    0    0  0.00000000000E+00  0.00000000000E+00  0.99999944178E+02  0.99999999998E+02  0.10566000000E+00 0.  1.
         22   -1    0    0    0    0 -0.00000000000E+00 -0.00000000000E+00 -0.95624575516E+01  0.95624575516E+01  0.00000000000E+00 0.  1.
         13    1    1    2    0    0  0.12542634642E+01 -0.10167763945E+02  0.10124034059E+02  0.14403604762E+02  0.10566000000E+00 0. -1.
        996    1    1    2    0    0 -0.12542634642E+01  0.10167763945E+02  0.80313452568E+02  0.95158852787E+02  0.50000000000E+02 0.  0.
<mgrwt>
<rscale>  0 0.51038775E+02</rscale>
<asrwt>0</asrwt>
<pdfrwt beam="1">  1       13 0.10000000E+01 0.51038775E+02</pdfrwt>
<pdfrwt beam="2">  1       22 0.95624828E-01 0.51038775E+02</pdfrwt>
<totfact> 0.15000660E+00</totfact>
</mgrwt>
</event>
<event>
 4    1  0.2409985E+000  0.7062304E+02  0.7957747E-01  0.1357987E+00
         13   -1    0    0    0    0  0.00000000000E+00  0.00000000000E+00  0.99999944179E+02  0.99999999999E+02  0.10566000000E+00 0. -1.
         22   -1    0    0    0    0 -0.00000000000E+00 -0.00000000000E+00 -0.63859986934E+02  0.63859986934E+02  0.00000000000E+00 0.  1.
         13    1    1    2    0    0  0.49452495656E+02  0.64857646823E+01 -0.37066034018E+02  0.62141101632E+02  0.10566000000E+00 0.  1.
        996    1    1    2    0    0 -0.49452495656E+02 -0.64857646823E+01  0.73205991263E+02  0.10171888530E+03  0.50000000000E+02 0.  0.
<mgrwt>
<rscale>  0 0.70623045E+02</rscale>
<asrwt>0</asrwt>
<pdfrwt beam="1">  1       13 0.10000000E+01 0.70623045E+02</pdfrwt>
<pdfrwt beam="2">  1       22 0.63859997E+00 0.70623045E+02</pdfrwt>
<totfact> 0.82842052E-02</totfact>
</mgrwt>
</event>
<event>
 4    1  0.2409985E+000  0.5391534E+02  0.7957747E-01  0.1425299E+00
         13   -1    0    0    0    0  0.00000000000E+00  0.00000000000E+00  0.99999944172E+02  0.99999999992E+02  0.10566000000E+00 0.  1.
         22   -1    0    0    0    0 -0.00000000000E+00 -0.00000000000E+00 -0.13788821743E+02  0.13788821743E+02  0.00000000000E+00 0.  1.
         13    1    1    2    0    0  0.18046698588E+02  0.90100486590E+01  0.20039191267E+02  0.28433161228E+02  0.10566000000E+00 0. -1.
        996    1    1    2    0    0 -0.18046698588E+02 -0.90100486590E+01  0.66171931163E+02  0.85355660507E+02  0.50000000000E+02 0.  0.
<mgrwt>
<rscale>  0 0.53915344E+02</rscale>
<asrwt>0</asrwt>
<pdfrwt beam="1">  1       13 0.10000000E+01 0.53915344E+02</pdfrwt>
<pdfrwt beam="2">  1       22 0.13788846E+00 0.53915344E+02</pdfrwt>
<totfact> 0.86768320E-01</totfact>
</mgrwt>
</event>
<event>
 4    1  0.2409985E+000  0.5116900E+02  0.7957747E-01  0.1439136E+00
         13   -1    0    0    0    0  0.00000000000E+00  0.00000000000E+00  0.99999944185E+02  0.10000000001E+03  0.10566000000E+00 0. -1.
         22   -1    0    0    0    0 -0.00000000000E+00 -0.00000000000E+00 -0.12139072245E+02  0.12139072245E+02  0.00000000000E+00 0. -1.
         13    1    1    2    0    0  0.52644603212E+00 -0.10862307147E+02  0.48923691742E+00  0.10886568733E+02  0.10566000000E+00 0.  1.
        996    1    1    2    0    0 -0.52644603212E+00  0.10862307147E+02  0.87371635023E+02  0.10125250352E+03  0.50000000000E+02 0.  0.
<mgrwt>
<rscale>  0 0.51169003E+02</rscale>
<asrwt>0</asrwt>
<pdfrwt beam="1">  1       13 0.10000000E+01 0.51169003E+02</pdfrwt>
<pdfrwt beam="2">  1       22 0.12139097E+00 0.51169003E+02</pdfrwt>
<totfact> 0.10541286E+00</totfact>
</mgrwt>
</event>
<event>
 4    1  0.2409985E+000  0.5161617E+02  0.7957747E-01  0.1436814E+00
         13   -1    0    0    0    0  0.00000000000E+00  0.00000000000E+00  0.99999944180E+02  0.10000000000E+03  0.10566000000E+00 0. -1.
         22   -1    0    0    0    0 -0.00000000000E+00 -0.00000000000E+00 -0.10826632219E+02  0.10826632219E+02  0.00000000000E+00 0.  1.
         13    1    1    2    0    0  0.25947161708E+01  0.12549751594E+02  0.97432196391E+01  0.16098767346E+02  0.10566000000E+00 0.  1.
        996    1    1    2    0    0 -0.25947161708E+01 -0.12549751594E+02  0.79430092322E+02  0.94727864873E+02  0.50000000000E+02 0.  0.
<mgrwt>
<rscale>  0 0.51616168E+02</rscale>
<asrwt>0</asrwt>
<pdfrwt beam="1">  1       13 0.10000000E+01 0.51616168E+02</pdfrwt>
<pdfrwt beam="2">  1       22 0.10826657E+00 0.51616168E+02</pdfrwt>
<totfact> 0.12538504E+00</totfact>
</mgrwt>
</event>
<event>
 4    1  0.2409985E+000  0.5114465E+02  0.7957747E-01  0.1439264E+00
         13   -1    0    0    0    0  0.00000000000E+00  0.00000000000E+00  0.99999944174E+02  0.99999999995E+02  0.10566000000E+00 0. -1.
         22   -1    0    0    0    0 -0.00000000000E+00 -0.00000000000E+00 -0.16795071093E+02  0.16795071093E+02  0.00000000000E+00 0. -1.
         13    1    1    2    0    0  0.10035221142E+02  0.38819282277E+01 -0.71851280717E+01  0.12938788953E+02  0.10566000000E+00 0.  1.
        996    1    1    2    0    0 -0.10035221142E+02 -0.38819282277E+01  0.90390001153E+02  0.10385628213E+03  0.50000000000E+02 0.  0.
<mgrwt>
<rscale>  0 0.51144648E+02</rscale>
<asrwt>0</asrwt>
<pdfrwt beam="1">  1       13 0.10000000E+01 0.51144648E+02</pdfrwt>
<pdfrwt beam="2">  1       22 0.16795094E+00 0.51144648E+02</pdfrwt>
<totfact> 0.61996770E-01</totfact>
</mgrwt>
</event>
<event>
 4    1  0.2409985E+000  0.5277431E+02  0.7957747E-01  0.1430927E+00
         13   -1    0    0    0    0  0.00000000000E+00  0.00000000000E+00  0.99999944178E+02  0.99999999998E+02  0.10566000000E+00 0. -1.
         22   -1    0    0    0    0 -0.00000000000E+00 -0.00000000000E+00 -0.15022678239E+02  0.15022678239E+02  0.00000000000E+00 0. -1.
         13    1    1    2    0    0 -0.75804804516E+01  0.15088531067E+02  0.24481791738E+01  0.17062596489E+02  0.10566000000E+00 0.  1.
        996    1    1    2    0    0  0.75804804516E+01 -0.15088531067E+02  0.82529086765E+02  0.97960081748E+02  0.50000000000E+02 0.  0.
<mgrwt>
<rscale>  0 0.52774307E+02</rscale>
<asrwt>0</asrwt>
<pdfrwt beam="1">  1       13 0.10000000E+01 0.52774307E+02</pdfrwt>
<pdfrwt beam="2">  1       22 0.15022702E+00 0.52774307E+02</pdfrwt>
<totfact> 0.75221172E-01</totfact>
</mgrwt>
</event>
<event>
 4    1  0.2409985E+000  0.5498345E+02  0.7957747E-01  0.1420177E+00
         13   -1    0    0    0    0  0.00000000000E+00  0.00000000000E+00  0.99999944179E+02  0.99999999999E+02  0.10566000000E+00 0.  1.
         22   -1    0    0    0    0 -0.00000000000E+00 -0.00000000000E+00 -0.34109489969E+02  0.34109489969E+02  0.00000000000E+00 0. -1.
         13    1    1    2    0    0  0.22749488531E+02 -0.23749603168E+01 -0.21152566368E+02  0.31154805294E+02  0.10566000000E+00 0. -1.
        996    1    1    2    0    0 -0.22749488531E+02  0.23749603168E+01  0.87043020578E+02  0.10295468467E+03  0.50000000000E+02 0.  0.
<mgrwt>
<rscale>  0 0.54983449E+02</rscale>
<asrwt>0</asrwt>
<pdfrwt beam="1">  1       13 0.10000000E+01 0.54983449E+02</pdfrwt>
<pdfrwt beam="2">  1       22 0.34109508E+00 0.54983449E+02</pdfrwt>
<totfact> 0.16488869E-01</totfact>
</mgrwt>
</event>
<event>
 4    1  0.2409985E+000  0.7549400E+02  0.7957747E-01  0.1342348E+00
         13   -1    0    0    0    0  0.00000000000E+00  0.00000000000E+00  0.99999944177E+02  0.99999999997E+02  0.10566000000E+00 0. -1.
         22   -1    0    0    0    0 -0.00000000000E+00 -0.00000000000E+00 -0.85055934727E+02  0.85055934727E+02  0.00000000000E+00 0.  1.
         13    1    1    2    0    0  0.56498428352E+02 -0.26966490159E+01 -0.57335085421E+02  0.80539850424E+02  0.10566000000E+00 0.  1.
        996    1    1    2    0    0 -0.56498428352E+02  0.26966490159E+01  0.72279094870E+02  0.10451608430E+03  0.50000000000E+02 0.  0.
<mgrwt>
<rscale>  0 0.75494002E+02</rscale>
<asrwt>0</asrwt>
<pdfrwt beam="1">  1       13 0.10000000E+01 0.75494002E+02</pdfrwt>
<pdfrwt beam="2">  1       22 0.85055939E+00 0.75494002E+02</pdfrwt>
<totfact> 0.18867299E-02</totfact>
</mgrwt>
</event>
<event>
 4    1  0.2409985E+000  0.5363161E+02  0.7957747E-01  0.1426683E+00
         13   -1    0    0    0    0  0.00000000000E+00  0.00000000000E+00  0.99999944179E+02  0.10000000000E+03  0.10566000000E+00 0. -1.
         22   -1    0    0    0    0 -0.00000000000E+00 -0.00000000000E+00 -0.14856750028E+02  0.14856750028E+02  0.00000000000E+00 0. -1.
         13    1    1    2    0    0  0.15767281877E+02  0.11302312223E+02  0.81890879633E+01  0.21057582128E+02  0.10566000000E+00 0.  1.
        996    1    1    2    0    0 -0.15767281877E+02 -0.11302312223E+02  0.76954106188E+02  0.93799167899E+02  0.50000000000E+02 0.  0.
<mgrwt>
<rscale>  0 0.53631609E+02</rscale>
<asrwt>0</asrwt>
<pdfrwt beam="1">  1       13 0.10000000E+01 0.53631609E+02</pdfrwt>
<pdfrwt beam="2">  1       22 0.14856774E+00 0.53631609E+02</pdfrwt>
<totfact> 0.76755067E-01</totfact>
</mgrwt>
</event>
<event>
 4    1  0.2409985E+000  0.5315273E+02  0.7957747E-01  0.1429042E+00
         13   -1    0    0    0    0  0.00000000000E+00  0.00000000000E+00  0.99999944190E+02  0.10000000001E+03  0.10566000000E+00 0.  1.
         22   -1    0    0    0    0 -0.00000000000E+00 -0.00000000000E+00 -0.72862438900E+02  0.72862438900E+02  0.00000000000E+00 0. -1.
         13    1    1    2    0    0 -0.17995873731E+02 -0.11668210099E+01 -0.64473616102E+02  0.66948273166E+02  0.10566000000E+00 0. -1.
        996    1    1    2    0    0  0.17995873731E+02  0.11668210099E+01  0.91611121392E+02  0.10591416574E+03  0.50000000000E+02 0.  0.
<mgrwt>
<rscale>  0 0.53152732E+02</rscale>
<asrwt>0</asrwt>
<pdfrwt beam="1">  1       13 0.10000000E+01 0.53152732E+02</pdfrwt>
<pdfrwt beam="2">  1       22 0.72862447E+00 0.53152732E+02</pdfrwt>
<totfact> 0.59485351E-02</totfact>
</mgrwt>
</event>
<event>
 4    1  0.2409985E+000  0.5115115E+02  0.7957747E-01  0.1439230E+00
         13   -1    0    0    0    0  0.00000000000E+00  0.00000000000E+00  0.99999944180E+02  0.10000000000E+03  0.10566000000E+00 0. -1.
         22   -1    0    0    0    0 -0.00000000000E+00 -0.00000000000E+00 -0.10550688904E+02  0.10550688904E+02  0.00000000000E+00 0. -1.
         13    1    1    2    0    0 -0.91140938313E+01  0.57769873899E+01  0.51754328688E+01  0.11968147688E+02  0.10566000000E+00 0.  1.
        996    1    1    2    0    0  0.91140938313E+01 -0.57769873899E+01  0.84273822407E+02  0.98582541217E+02  0.50000000000E+02 0.  0.
<mgrwt>
<rscale>  0 0.51151151E+02</rscale>
<asrwt>0</asrwt>
<pdfrwt beam="1">  1       13 0.10000000E+01 0.51151151E+02</pdfrwt>
<pdfrwt beam="2">  1       22 0.10550714E+00 0.51151151E+02</pdfrwt>
<totfact> 0.13010867E+00</totfact>
</mgrwt>
</event>
<event>
 4    1  0.2409985E+000  0.5370849E+02  0.7957747E-01  0.1426307E+00
         13   -1    0    0    0    0  0.00000000000E+00  0.00000000000E+00  0.99999944180E+02  0.10000000000E+03  0.10566000000E+00 0.  1.
         22   -1    0    0    0    0 -0.00000000000E+00 -0.00000000000E+00 -0.14629370850E+02  0.14629370850E+02  0.00000000000E+00 0. -1.
         13    1    1    2    0    0  0.19563126246E+02  0.13733747851E+01  0.98174765198E+01  0.21931622742E+02  0.10566000000E+00 0. -1.
        996    1    1    2    0    0 -0.19563126246E+02 -0.13733747851E+01  0.75553096810E+02  0.92697748109E+02  0.50000000000E+02 0.  0.
<mgrwt>
<rscale>  0 0.53708492E+02</rscale>
<asrwt>0</asrwt>
<pdfrwt beam="1">  1       13 0.10000000E+01 0.53708492E+02</pdfrwt>
<pdfrwt beam="2">  1       22 0.14629395E+00 0.53708492E+02</pdfrwt>
<totfact> 0.78751587E-01</totfact>
</mgrwt>
</event>
<event>
 4    1  0.2409985E+000  0.5112837E+02  0.7957747E-01  0.1439349E+00
         13   -1    0    0    0    0  0.00000000000E+00  0.00000000000E+00  0.99999944181E+02  0.10000000000E+03  0.10566000000E+00 0. -1.
         22   -1    0    0    0    0 -0.00000000000E+00 -0.00000000000E+00 -0.11882383598E+02  0.11882383598E+02  0.00000000000E+00 0. -1.
         13    1    1    2    0    0 -0.97056485272E+01 -0.44621182980E+01  0.81980519186E+00  0.10714166212E+02  0.10566000000E+00 0.  1.
        996    1    1    2    0    0  0.97056485272E+01  0.44621182980E+01  0.87297755391E+02  0.10116821739E+03  0.50000000000E+02 0.  0.
<mgrwt>
<rscale>  0 0.51128369E+02</rscale>
<asrwt>0</asrwt>
<pdfrwt beam="1">  1       13 0.10000000E+01 0.51128369E+02</pdfrwt>
<pdfrwt beam="2">  1       22 0.11882408E+00 0.51128369E+02</pdfrwt>
<totfact> 0.10891032E+00</totfact>
</mgrwt>
</event>
<event>
 4    1  0.2409985E+000  0.5329719E+02  0.7957747E-01  0.1428328E+00
         13   -1    0    0    0    0  0.00000000000E+00  0.00000000000E+00  0.99999944181E+02  0.10000000000E+03  0.10566000000E+00 0. -1.
         22   -1    0    0    0    0 -0.00000000000E+00 -0.00000000000E+00 -0.18527191492E+02  0.18527191492E+02  0.00000000000E+00 0.  1.
         13    1    1    2    0    0 -0.18439496407E+02  0.75890788079E+00 -0.29486719489E+01  0.18689483653E+02  0.10566000000E+00 0.  1.
        996    1    1    2    0    0  0.18439496407E+02 -0.75890788079E+00  0.84421424638E+02  0.99837707841E+02  0.50000000000E+02 0.  0.
<mgrwt>
<rscale>  0 0.53297195E+02</rscale>
<asrwt>0</asrwt>
<pdfrwt beam="1">  1       13 0.10000000E+01 0.53297195E+02</pdfrwt>
<pdfrwt beam="2">  1       22 0.18527214E+00 0.53297195E+02</pdfrwt>
<totfact> 0.52278441E-01</totfact>
</mgrwt>
</event>
<event>
 4    1  0.2409985E+000  0.5216644E+02  0.7957747E-01  0.1433995E+00
         13   -1    0    0    0    0  0.00000000000E+00  0.00000000000E+00  0.99999944174E+02  0.99999999994E+02  0.10566000000E+00 0. -1.
         22   -1    0    0    0    0 -0.00000000000E+00 -0.00000000000E+00 -0.32538374922E+02  0.32538374922E+02  0.00000000000E+00 0.  1.
         13    1    1    2    0    0 -0.11349492770E+02 -0.96190444142E+01 -0.23421756240E+02  0.27747555405E+02  0.10566000000E+00 0.  1.
        996    1    1    2    0    0  0.11349492770E+02  0.96190444142E+01  0.90883325491E+02  0.10479081951E+03  0.50000000000E+02 0.  0.
<mgrwt>
<rscale>  0 0.52166436E+02</rscale>
<asrwt>0</asrwt>
<pdfrwt beam="1">  1       13 0.10000000E+01 0.52166436E+02</pdfrwt>
<pdfrwt beam="2">  1       22 0.32538394E+00 0.52166436E+02</pdfrwt>
<totfact> 0.17862108E-01</totfact>
</mgrwt>
</event>
<event>
 4    1  0.2409985E+000  0.5653077E+02  0.7957747E-01  0.1412995E+00
         13   -1    0    0    0    0  0.00000000000E+00  0.00000000000E+00  0.99999944166E+02  0.99999999986E+02  0.10566000000E+00 0.  1.
         22   -1    0    0    0    0 -0.00000000000E+00 -0.00000000000E+00 -0.19507224486E+02  0.19507224486E+02  0.00000000000E+00 0. -1.
         13    1    1    2    0    0 -0.24522332665E+02 -0.97150730399E+01  0.79699883934E+01  0.27554660632E+02  0.10566000000E+00 0. -1.
        996    1    1    2    0    0  0.24522332665E+02  0.97150730399E+01  0.72522731287E+02  0.91952563840E+02  0.50000000000E+02 0.  0.
<mgrwt>
<rscale>  0 0.56530765E+02</rscale>
<asrwt>0</asrwt>
<pdfrwt beam="1">  1       13 0.10000000E+01 0.56530765E+02</pdfrwt>
<pdfrwt beam="2">  1       22 0.19507247E+00 0.56530765E+02</pdfrwt>
<totfact> 0.47831413E-01</totfact>
</mgrwt>
</event>
<event>
 4    1  0.2409985E+000  0.5506764E+02  0.7957747E-01  0.1419779E+00
         13   -1    0    0    0    0  0.00000000000E+00  0.00000000000E+00  0.99999944180E+02  0.10000000000E+03  0.10566000000E+00 0. -1.
         22   -1    0    0    0    0 -0.00000000000E+00 -0.00000000000E+00 -0.16819988890E+02  0.16819988890E+02  0.00000000000E+00 0. -1.
         13    1    1    2    0    0 -0.41395445209E+01 -0.22700416282E+02  0.42485716851E+02  0.48347616576E+02  0.10566000000E+00 0.  1.
        996    1    1    2    0    0  0.41395445209E+01  0.22700416282E+02  0.40694238440E+02  0.68472372315E+02  0.50000000000E+02 0.  0.
<mgrwt>
<rscale>  0 0.55067638E+02</rscale>
<asrwt>0</asrwt>
<pdfrwt beam="1">  1       13 0.10000000E+01 0.55067638E+02</pdfrwt>
<pdfrwt beam="2">  1       22 0.16820012E+00 0.55067638E+02</pdfrwt>
<totfact> 0.62300224E-01</totfact>
</mgrwt>
</event>
<event>
 4    1  0.2409985E+000  0.5259475E+02  0.7957747E-01  0.1431828E+00
         13   -1    0    0    0    0  0.00000000000E+00  0.00000000000E+00  0.99999944187E+02  0.10000000001E+03  0.10566000000E+00 0. -1.
         22   -1    0    0    0    0 -0.00000000000E+00 -0.00000000000E+00 -0.17252348166E+02  0.17252348166E+02  0.00000000000E+00 0.  1.
         13    1    1    2    0    0 -0.15876169964E+02 -0.37622717389E+01 -0.30677089971E+01  0.16602092154E+02  0.10566000000E+00 0.  1.
        996    1    1    2    0    0  0.15876169964E+02  0.37622717389E+01  0.85815305018E+02  0.10065025602E+03  0.50000000000E+02 0.  0.
<mgrwt>
<rscale>  0 0.52594747E+02</rscale>
<asrwt>0</asrwt>
<pdfrwt beam="1">  1       13 0.10000000E+01 0.52594747E+02</pdfrwt>
<pdfrwt beam="2">  1       22 0.17252371E+00 0.52594747E+02</pdfrwt>
<totfact> 0.59311740E-01</totfact>
</mgrwt>
</event>
<event>
 4    1  0.2409985E+000  0.5302416E+02  0.7957747E-01  0.1429681E+00
         13   -1    0    0    0    0  0.00000000000E+00  0.00000000000E+00  0.99999944175E+02  0.99999999995E+02  0.10566000000E+00 0. -1.
         22   -1    0    0    0    0 -0.00000000000E+00 -0.00000000000E+00 -0.47707026682E+02  0.47707026682E+02  0.00000000000E+00 0.  1.
         13    1    1    2    0    0  0.15381668847E+02 -0.86582950061E+01 -0.38619080125E+02  0.42461821942E+02  0.10566000000E+00 0.  1.
        996    1    1    2    0    0 -0.15381668847E+02  0.86582950061E+01  0.90911997618E+02  0.10524520474E+03  0.50000000000E+02 0.  0.
<mgrwt>
<rscale>  0 0.53024163E+02</rscale>
<asrwt>0</asrwt>
<pdfrwt beam="1">  1       13 0.10000000E+01 0.53024163E+02</pdfrwt>
<pdfrwt beam="2">  1       22 0.47707041E+00 0.53024163E+02</pdfrwt>
<totfact> 0.83633806E-02</totfact>
</mgrwt>
</event>
<event>
 4    1  0.2409985E+000  0.5121179E+02  0.7957747E-01  0.1438913E+00
         13   -1    0    0    0    0  0.00000000000E+00  0.00000000000E+00  0.99999944180E+02  0.10000000000E+03  0.10566000000E+00 0. -1.
         22   -1    0    0    0    0 -0.00000000000E+00 -0.00000000000E+00 -0.11956044357E+02  0.11956044357E+02  0.00000000000E+00 0.  1.
         13    1    1    2    0    0 -0.99836779172E+01  0.47931012901E+01  0.12041376554E+01  0.11140410956E+02  0.10566000000E+00 0.  1.
        996    1    1    2    0    0  0.99836779172E+01 -0.47931012901E+01  0.86839762167E+02  0.10081563340E+03  0.50000000000E+02 0.  0.
<mgrwt>
<rscale>  0 0.51211792E+02</rscale>
<asrwt>0</asrwt>
<pdfrwt beam="1">  1       13 0.10000000E+01 0.51211792E+02</pdfrwt>
<pdfrwt beam="2">  1       22 0.11956069E+00 0.51211792E+02</pdfrwt>
<totfact> 0.10790749E+00</totfact>
</mgrwt>
</event>
<event>
 4    1  0.2409985E+000  0.5181388E+02  0.7957747E-01  0.1435797E+00
         13   -1    0    0    0    0  0.00000000000E+00  0.00000000000E+00  0.99999944185E+02  0.10000000001E+03  0.10566000000E+00 0. -1.
         22   -1    0    0    0    0 -0.00000000000E+00 -0.00000000000E+00 -0.10694656949E+02  0.10694656949E+02  0.00000000000E+00 0. -1.
         13    1    1    2    0    0 -0.34651599140E+01 -0.13140413805E+02  0.18249418219E+02  0.22753686241E+02  0.10566000000E+00 0.  1.
        996    1    1    2    0    0  0.34651599140E+01  0.13140413805E+02  0.71055869017E+02  0.87940970713E+02  0.50000000000E+02 0.  0.
<mgrwt>
<rscale>  0 0.51813877E+02</rscale>
<asrwt>0</asrwt>
<pdfrwt beam="1">  1       13 0.10000000E+01 0.51813877E+02</pdfrwt>
<pdfrwt beam="2">  1       22 0.10694682E+00 0.51813877E+02</pdfrwt>
<totfact> 0.12773803E+00</totfact>
</mgrwt>
</event>
<event>
 4    1  0.2409985E+000  0.5392417E+02  0.7957747E-01  0.1425256E+00
         13   -1    0    0    0    0  0.00000000000E+00  0.00000000000E+00  0.99999944178E+02  0.99999999998E+02  0.10566000000E+00 0. -1.
         22   -1    0    0    0    0 -0.00000000000E+00 -0.00000000000E+00 -0.23514826687E+02  0.23514826687E+02  0.00000000000E+00 0.  1.
         13    1    1    2    0    0  0.96071504990E+01 -0.17762836592E+02 -0.92650900418E+01  0.22218657970E+02  0.10566000000E+00 0.  1.
        996    1    1    2    0    0 -0.96071504990E+01  0.17762836592E+02  0.85750207533E+02  0.10129616872E+03  0.50000000000E+02 0.  0.
<mgrwt>
<rscale>  0 0.53924166E+02</rscale>
<asrwt>0</asrwt>
<pdfrwt beam="1">  1       13 0.10000000E+01 0.53924166E+02</pdfrwt>
<pdfrwt beam="2">  1       22 0.23514848E+00 0.53924166E+02</pdfrwt>
<totfact> 0.33344053E-01</totfact>
</mgrwt>
</event>
<event>
 4    1  0.2409985E+000  0.5386807E+02  0.7957747E-01  0.1425529E+00
         13   -1    0    0    0    0  0.00000000000E+00  0.00000000000E+00  0.99999944183E+02  0.10000000000E+03  0.10566000000E+00 0.  1.
         22   -1    0    0    0    0 -0.00000000000E+00 -0.00000000000E+00 -0.14827407284E+02  0.14827407284E+02  0.00000000000E+00 0.  1.
         13    1    1    2    0    0  0.19922483906E+02  0.22053966259E+01  0.10147842144E+02  0.22466842312E+02  0.10566000000E+00 0. -1.
        996    1    1    2    0    0 -0.19922483906E+02 -0.22053966259E+01  0.75024694755E+02  0.92360564974E+02  0.50000000000E+02 0.  0.
<mgrwt>
<rscale>  0 0.53868072E+02</rscale>
<asrwt>0</asrwt>
<pdfrwt beam="1">  1       13 0.10000000E+01 0.53868072E+02</pdfrwt>
<pdfrwt beam="2">  1       22 0.14827431E+00 0.53868072E+02</pdfrwt>
<totfact> 0.77043363E-01</totfact>
</mgrwt>
</event>
<event>
 4    1  0.2409985E+000  0.5105752E+02  0.7957747E-01  0.1439720E+00
         13   -1    0    0    0    0  0.00000000000E+00  0.00000000000E+00  0.99999944178E+02  0.99999999998E+02  0.10566000000E+00 0. -1.
         22   -1    0    0    0    0 -0.00000000000E+00 -0.00000000000E+00 -0.94292185160E+01  0.94292185160E+01  0.00000000000E+00 0. -1.
         13    1    1    2    0    0 -0.10304357908E+02  0.83109150031E+00  0.14270007923E+02  0.17621429997E+02  0.10566000000E+00 0.  1.
        996    1    1    2    0    0  0.10304357908E+02 -0.83109150031E+00  0.76300717739E+02  0.91807788517E+02  0.50000000000E+02 0.  0.
<mgrwt>
<rscale>  0 0.51057522E+02</rscale>
<asrwt>0</asrwt>
<pdfrwt beam="1">  1       13 0.10000000E+01 0.51057522E+02</pdfrwt>
<pdfrwt beam="2">  1       22 0.94292438E-01 0.51057522E+02</pdfrwt>
<totfact> 0.15305079E+00</totfact>
</mgrwt>
</event>
<event>
 4    1  0.2409985E+000  0.5920431E+02  0.7957747E-01  0.1401202E+00
         13   -1    0    0    0    0  0.00000000000E+00  0.00000000000E+00  0.99999944184E+02  0.10000000000E+03  0.10566000000E+00 0.  1.
         22   -1    0    0    0    0 -0.00000000000E+00 -0.00000000000E+00 -0.21942252286E+02  0.21942252286E+02  0.00000000000E+00 0. -1.
         13    1    1    2    0    0  0.21168931048E+02 -0.23601402532E+02  0.13827164646E+02  0.34588314347E+02  0.10566000000E+00 0. -1.
        996    1    1    2    0    0 -0.21168931048E+02  0.23601402532E+02  0.64230527252E+02  0.87353937944E+02  0.50000000000E+02 0.  0.
<mgrwt>
<rscale>  0 0.59204306E+02</rscale>
<asrwt>0</asrwt>
<pdfrwt beam="1">  1       13 0.10000000E+01 0.59204306E+02</pdfrwt>
<pdfrwt beam="2">  1       22 0.21942274E+00 0.59204306E+02</pdfrwt>
<totfact> 0.38450960E-01</totfact>
</mgrwt>
</event>
<event>
 4    1  0.2409985E+000  0.5405082E+02  0.7957747E-01  0.1424642E+00
         13   -1    0    0    0    0  0.00000000000E+00  0.00000000000E+00  0.99999944174E+02  0.99999999994E+02  0.10566000000E+00 0. -1.
         22   -1    0    0    0    0 -0.00000000000E+00 -0.00000000000E+00 -0.91836405287E+02  0.91836405287E+02  0.00000000000E+00 0.  1.
         13    1    1    2    0    0 -0.10037718491E+02 -0.17909074068E+02 -0.83192480204E+02  0.85688334405E+02  0.10566000000E+00 0.  1.
        996    1    1    2    0    0  0.10037718491E+02  0.17909074068E+02  0.91356019092E+02  0.10614807088E+03  0.50000000000E+02 0.  0.
<mgrwt>
<rscale>  0 0.54050816E+02</rscale>
<asrwt>0</asrwt>
<pdfrwt beam="1">  1       13 0.10000000E+01 0.54050816E+02</pdfrwt>
<pdfrwt beam="2">  1       22 0.91836408E+00 0.54050816E+02</pdfrwt>
<totfact> 0.78868001E-03</totfact>
</mgrwt>
</event>
<event>
 4    1  0.2409985E+000  0.5183967E+02  0.7957747E-01  0.1435664E+00
         13   -1    0    0    0    0  0.00000000000E+00  0.00000000000E+00  0.99999944177E+02  0.99999999997E+02  0.10566000000E+00 0.  1.
         22   -1    0    0    0    0 -0.00000000000E+00 -0.00000000000E+00 -0.14119129011E+02  0.14119129011E+02  0.00000000000E+00 0.  1.
         13    1    1    2    0    0  0.12787505289E+01 -0.13627789966E+02 -0.13611074611E+00  0.13688738161E+02  0.10566000000E+00 0. -1.
        996    1    1    2    0    0 -0.12787505289E+01  0.13627789966E+02  0.86016925912E+02  0.10043039085E+03  0.50000000000E+02 0.  0.
<mgrwt>
<rscale>  0 0.51839675E+02</rscale>
<asrwt>0</asrwt>
<pdfrwt beam="1">  1       13 0.10000000E+01 0.51839675E+02</pdfrwt>
<pdfrwt beam="2">  1       22 0.14119153E+00 0.51839675E+02</pdfrwt>
<totfact> 0.83147645E-01</totfact>
</mgrwt>
</event>
<event>
 4    1  0.2409985E+000  0.5413677E+02  0.7957747E-01  0.1424226E+00
         13   -1    0    0    0    0  0.00000000000E+00  0.00000000000E+00  0.99999944178E+02  0.99999999998E+02  0.10566000000E+00 0. -1.
         22   -1    0    0    0    0 -0.00000000000E+00 -0.00000000000E+00 -0.33286186160E+02  0.33286186160E+02  0.00000000000E+00 0.  1.
         13    1    1    2    0    0  0.17749355620E+02  0.10758719281E+02 -0.21437136274E+02  0.29838760718E+02  0.10566000000E+00 0.  1.
        996    1    1    2    0    0 -0.17749355620E+02 -0.10758719281E+02  0.88150894293E+02  0.10344742544E+03  0.50000000000E+02 0.  0.
<mgrwt>
<rscale>  0 0.54136768E+02</rscale>
<asrwt>0</asrwt>
<pdfrwt beam="1">  1       13 0.10000000E+01 0.54136768E+02</pdfrwt>
<pdfrwt beam="2">  1       22 0.33286205E+00 0.54136768E+02</pdfrwt>
<totfact> 0.17196632E-01</totfact>
</mgrwt>
</event>
<event>
 4    1  0.2409985E+000  0.5283959E+02  0.7957747E-01  0.1430601E+00
         13   -1    0    0    0    0  0.00000000000E+00  0.00000000000E+00  0.99999944176E+02  0.99999999996E+02  0.10566000000E+00 0.  1.
         22   -1    0    0    0    0 -0.00000000000E+00 -0.00000000000E+00 -0.12240201343E+02  0.12240201343E+02  0.00000000000E+00 0.  1.
         13    1    1    2    0    0  0.13173534330E+02 -0.10884861690E+02  0.19773699869E+02  0.26134892219E+02  0.10566000000E+00 0. -1.
        996    1    1    2    0    0 -0.13173534330E+02  0.10884861690E+02  0.67986042964E+02  0.86105309120E+02  0.50000000000E+02 0.  0.
<mgrwt>
<rscale>  0 0.52839590E+02</rscale>
<asrwt>0</asrwt>
<pdfrwt beam="1">  1       13 0.10000000E+01 0.52839590E+02</pdfrwt>
<pdfrwt beam="2">  1       22 0.12240226E+00 0.52839590E+02</pdfrwt>
<totfact> 0.10446145E+00</totfact>
</mgrwt>
</event>
<event>
 4    1  0.2409985E+000  0.5178413E+02  0.7957747E-01  0.1435949E+00
         13   -1    0    0    0    0  0.00000000000E+00  0.00000000000E+00  0.99999944178E+02  0.99999999998E+02  0.10566000000E+00 0. -1.
         22   -1    0    0    0    0 -0.00000000000E+00 -0.00000000000E+00 -0.17713983075E+02  0.17713983075E+02  0.00000000000E+00 0. -1.
         13    1    1    2    0    0  0.13462748028E+02  0.59183388983E+00 -0.64754688834E+01  0.14951211092E+02  0.10566000000E+00 0.  1.
        996    1    1    2    0    0 -0.13462748028E+02 -0.59183388983E+00  0.88761429987E+02  0.10276277198E+03  0.50000000000E+02 0.  0.
<mgrwt>
<rscale>  0 0.51784127E+02</rscale>
<asrwt>0</asrwt>
<pdfrwt beam="1">  1       13 0.10000000E+01 0.51784127E+02</pdfrwt>
<pdfrwt beam="2">  1       22 0.17714006E+00 0.51784127E+02</pdfrwt>
<totfact> 0.56512567E-01</totfact>
</mgrwt>
</event>
<event>
 4    1  0.2409985E+000  0.5104940E+02  0.7957747E-01  0.1439762E+00
         13   -1    0    0    0    0  0.00000000000E+00  0.00000000000E+00  0.99999944181E+02  0.10000000000E+03  0.10566000000E+00 0.  1.
         22   -1    0    0    0    0 -0.00000000000E+00 -0.00000000000E+00 -0.10078007393E+02  0.10078007393E+02  0.00000000000E+00 0.  1.
         13    1    1    2    0    0 -0.99002467399E+01 -0.28331697823E+01  0.27954115986E+02  0.29790694875E+02  0.10566000000E+00 0. -1.
        996    1    1    2    0    0  0.99002467399E+01  0.28331697823E+01  0.61967820802E+02  0.80287312518E+02  0.50000000000E+02 0.  0.
<mgrwt>
<rscale>  0 0.51049405E+02</rscale>
<asrwt>0</asrwt>
<pdfrwt beam="1">  1       13 0.10000000E+01 0.51049405E+02</pdfrwt>
<pdfrwt beam="2">  1       22 0.10078032E+00 0.51049405E+02</pdfrwt>
<totfact> 0.13907923E+00</totfact>
</mgrwt>
</event>
<event>
 4    1  0.2409985E+000  0.5240381E+02  0.7957747E-01  0.1432791E+00
         13   -1    0    0    0    0  0.00000000000E+00  0.00000000000E+00  0.99999944176E+02  0.99999999996E+02  0.10566000000E+00 0.  1.
         22   -1    0    0    0    0 -0.00000000000E+00 -0.00000000000E+00 -0.11594534836E+02  0.11594534836E+02  0.00000000000E+00 0.  1.
         13    1    1    2    0    0 -0.35059862908E+01 -0.15292705704E+02  0.21094052621E+02  0.26289332582E+02  0.10566000000E+00 0. -1.
        996    1    1    2    0    0  0.35059862908E+01  0.15292705704E+02  0.67311356719E+02  0.85305202250E+02  0.50000000000E+02 0.  0.
<mgrwt>
<rscale>  0 0.52403805E+02</rscale>
<asrwt>0</asrwt>
<pdfrwt beam="1">  1       13 0.10000000E+01 0.52403805E+02</pdfrwt>
<pdfrwt beam="2">  1       22 0.11594560E+00 0.52403805E+02</pdfrwt>
<totfact> 0.11336979E+00</totfact>
</mgrwt>
</event>
<event>
 4    1  0.2409985E+000  0.5597320E+02  0.7957747E-01  0.1415552E+00
         13   -1    0    0    0    0  0.00000000000E+00  0.00000000000E+00  0.99999944183E+02  0.10000000000E+03  0.10566000000E+00 0.  1.
         22   -1    0    0    0    0 -0.00000000000E+00 -0.00000000000E+00 -0.33406950296E+02  0.33406950296E+02  0.00000000000E+00 0.  1.
         13    1    1    2    0    0 -0.53002720173E+01 -0.24594840723E+02 -0.18727785849E+02  0.31364632957E+02  0.10566000000E+00 0. -1.
        996    1    1    2    0    0  0.53002720173E+01  0.24594840723E+02  0.85320779737E+02  0.10204231734E+03  0.50000000000E+02 0.  0.
<mgrwt>
<rscale>  0 0.55973200E+02</rscale>
<asrwt>0</asrwt>
<pdfrwt beam="1">  1       13 0.10000000E+01 0.55973200E+02</pdfrwt>
<pdfrwt beam="2">  1       22 0.33406969E+00 0.55973200E+02</pdfrwt>
<totfact> 0.17120648E-01</totfact>
</mgrwt>
</event>
<event>
 4    1  0.2409985E+000  0.5188213E+02  0.7957747E-01  0.1435446E+00
         13   -1    0    0    0    0  0.00000000000E+00  0.00000000000E+00  0.99999944179E+02  0.10000000000E+03  0.10566000000E+00 0.  1.
         22   -1    0    0    0    0 -0.00000000000E+00 -0.00000000000E+00 -0.26453876556E+02  0.26453876556E+02  0.00000000000E+00 0. -1.
         13    1    1    2    0    0  0.96416515877E+01 -0.99395309352E+01 -0.17103804217E+02  0.22006976241E+02  0.10566000000E+00 0. -1.
        996    1    1    2    0    0 -0.96416515877E+01  0.99395309352E+01  0.90649871841E+02  0.10444690031E+03  0.50000000000E+02 0.  0.
<mgrwt>
<rscale>  0 0.51882133E+02</rscale>
<asrwt>0</asrwt>
<pdfrwt beam="1">  1       13 0.10000000E+01 0.51882133E+02</pdfrwt>
<pdfrwt beam="2">  1       22 0.26453897E+00 0.51882133E+02</pdfrwt>
<totfact> 0.26372782E-01</totfact>
</mgrwt>
</event>
<event>
 4    1  0.2409985E+000  0.5392580E+02  0.7957747E-01  0.1425248E+00
         13   -1    0    0    0    0  0.00000000000E+00  0.00000000000E+00  0.99999944175E+02  0.99999999995E+02  0.10566000000E+00 0.  1.
         22   -1    0    0    0    0 -0.00000000000E+00 -0.00000000000E+00 -0.16783810845E+02  0.16783810845E+02  0.00000000000E+00 0. -1.
         13    1    1    2    0    0 -0.13929543932E+02 -0.14627376192E+02  0.34377335650E+01  0.20489546226E+02  0.10566000000E+00 0. -1.
        996    1    1    2    0    0  0.13929543932E+02  0.14627376192E+02  0.79778399765E+02  0.96294264614E+02  0.50000000000E+02 0.  0.
<mgrwt>
<rscale>  0 0.53925804E+02</rscale>
<asrwt>0</asrwt>
<pdfrwt beam="1">  1       13 0.10000000E+01 0.53925804E+02</pdfrwt>
<pdfrwt beam="2">  1       22 0.16783834E+00 0.53925804E+02</pdfrwt>
<totfact> 0.62402882E-01</totfact>
</mgrwt>
</event>
<event>
 4    1  0.2409985E+000  0.5161310E+02  0.7957747E-01  0.1436830E+00
         13   -1    0    0    0    0  0.00000000000E+00  0.00000000000E+00  0.99999944188E+02  0.10000000001E+03  0.10566000000E+00 0. -1.
         22   -1    0    0    0    0 -0.00000000000E+00 -0.00000000000E+00 -0.24844891952E+02  0.24844891952E+02  0.00000000000E+00 0.  1.
         13    1    1    2    0    0 -0.68835582936E+01  0.10794834046E+02 -0.15757359998E+02  0.20303137073E+02  0.10566000000E+00 0.  1.
        996    1    1    2    0    0  0.68835582936E+01 -0.10794834046E+02  0.90912412234E+02  0.10454175489E+03  0.50000000000E+02 0.  0.
<mgrwt>
<rscale>  0 0.51613097E+02</rscale>
<asrwt>0</asrwt>
<pdfrwt beam="1">  1       13 0.10000000E+01 0.51613097E+02</pdfrwt>
<pdfrwt beam="2">  1       22 0.24844913E+00 0.51613097E+02</pdfrwt>
<totfact> 0.29824110E-01</totfact>
</mgrwt>
</event>
<event>
 4    1  0.2409985E+000  0.7648270E+02  0.7957747E-01  0.1339340E+00
         13   -1    0    0    0    0  0.00000000000E+00  0.00000000000E+00  0.99999944170E+02  0.99999999991E+02  0.10566000000E+00 0. -1.
         22   -1    0    0    0    0 -0.00000000000E+00 -0.00000000000E+00 -0.79202373003E+02  0.79202373003E+02  0.00000000000E+00 0.  1.
         13    1    1    2    0    0 -0.31713968351E+02 -0.48413101156E+02 -0.48867989204E+02  0.75747578740E+02  0.10566000000E+00 0.  1.
        996    1    1    2    0    0  0.31713968351E+02  0.48413101156E+02  0.69665560371E+02  0.10345479425E+03  0.50000000000E+02 0.  0.
<mgrwt>
<rscale>  0 0.76482705E+02</rscale>
<asrwt>0</asrwt>
<pdfrwt beam="1">  1       13 0.10000000E+01 0.76482705E+02</pdfrwt>
<pdfrwt beam="2">  1       22 0.79202379E+00 0.76482705E+02</pdfrwt>
<totfact> 0.33210292E-02</totfact>
</mgrwt>
</event>
<event>
 4    1  0.2409985E+000  0.5904188E+02  0.7957747E-01  0.1401897E+00
         13   -1    0    0    0    0  0.00000000000E+00  0.00000000000E+00  0.99999944186E+02  0.10000000001E+03  0.10566000000E+00 0. -1.
         22   -1    0    0    0    0 -0.00000000000E+00 -0.00000000000E+00 -0.25148455008E+02  0.25148455008E+02  0.00000000000E+00 0. -1.
         13    1    1    2    0    0 -0.34057939747E+01 -0.31214482625E+02  0.21231766629E+01  0.31471612627E+02  0.10566000000E+00 0.  1.
        996    1    1    2    0    0  0.34057939747E+01  0.31214482625E+02  0.72728312515E+02  0.93676842386E+02  0.50000000000E+02 0.  0.
<mgrwt>
<rscale>  0 0.59041878E+02</rscale>
<asrwt>0</asrwt>
<pdfrwt beam="1">  1       13 0.10000000E+01 0.59041878E+02</pdfrwt>
<pdfrwt beam="2">  1       22 0.25148476E+00 0.59041878E+02</pdfrwt>
<totfact> 0.29438834E-01</totfact>
</mgrwt>
</event>
<event>
 4    1  0.2409985E+000  0.5227789E+02  0.7957747E-01  0.1433429E+00
         13   -1    0    0    0    0  0.00000000000E+00  0.00000000000E+00  0.99999944181E+02  0.10000000000E+03  0.10566000000E+00 0. -1.
         22   -1    0    0    0    0 -0.00000000000E+00 -0.00000000000E+00 -0.15547259924E+02  0.15547259924E+02  0.00000000000E+00 0.  1.
         13    1    1    2    0    0  0.18642067861E+01 -0.15149341289E+02 -0.10814411803E+01  0.15302237990E+02  0.10566000000E+00 0.  1.
        996    1    1    2    0    0 -0.18642067861E+01  0.15149341289E+02  0.85534125437E+02  0.10024502194E+03  0.50000000000E+02 0.  0.
<mgrwt>
<rscale>  0 0.52277890E+02</rscale>
<asrwt>0</asrwt>
<pdfrwt beam="1">  1       13 0.10000000E+01 0.52277890E+02</pdfrwt>
<pdfrwt beam="2">  1       22 0.15547284E+00 0.52277890E+02</pdfrwt>
<totfact> 0.70940342E-01</totfact>
</mgrwt>
</event>
<event>
 4    1  0.2409985E+000  0.5157381E+02  0.7957747E-01  0.1437033E+00
         13   -1    0    0    0    0  0.00000000000E+00  0.00000000000E+00  0.99999944181E+02  0.10000000000E+03  0.10566000000E+00 0.  1.
         22   -1    0    0    0    0 -0.00000000000E+00 -0.00000000000E+00 -0.13611145409E+02  0.13611145409E+02  0.00000000000E+00 0. -1.
         13    1    1    2    0    0 -0.10572973787E+02  0.69332897771E+01 -0.40524180192E+00  0.12650441367E+02  0.10566000000E+00 0. -1.
        996    1    1    2    0    0  0.10572973787E+02 -0.69332897771E+01  0.86794040574E+02  0.10096070404E+03  0.50000000000E+02 0.  0.
<mgrwt>
<rscale>  0 0.51573814E+02</rscale>
<asrwt>0</asrwt>
<pdfrwt beam="1">  1       13 0.10000000E+01 0.51573814E+02</pdfrwt>
<pdfrwt beam="2">  1       22 0.13611170E+00 0.51573814E+02</pdfrwt>
<totfact> 0.88164121E-01</totfact>
</mgrwt>
</event>
<event>
 4    1  0.2409985E+000  0.5108067E+02  0.7957747E-01  0.1439598E+00
         13   -1    0    0    0    0  0.00000000000E+00  0.00000000000E+00  0.99999944187E+02  0.10000000001E+03  0.10566000000E+00 0. -1.
         22   -1    0    0    0    0 -0.00000000000E+00 -0.00000000000E+00 -0.10372081316E+02  0.10372081316E+02  0.00000000000E+00 0.  1.
         13    1    1    2    0    0 -0.28740242727E+01 -0.10048620623E+02  0.51510303402E+01  0.11652427624E+02  0.10566000000E+00 0.  1.
        996    1    1    2    0    0  0.28740242727E+01  0.10048620623E+02  0.84476832531E+02  0.98719653698E+02  0.50000000000E+02 0.  0.
<mgrwt>
<rscale>  0 0.51080669E+02</rscale>
<asrwt>0</asrwt>
<pdfrwt beam="1">  1       13 0.10000000E+01 0.51080669E+02</pdfrwt>
<pdfrwt beam="2">  1       22 0.10372106E+00 0.51080669E+02</pdfrwt>
<totfact> 0.13338331E+00</totfact>
</mgrwt>
</event>
<event>
 4    1  0.2409985E+000  0.5899239E+02  0.7957747E-01  0.1402110E+00
         13   -1    0    0    0    0  0.00000000000E+00  0.00000000000E+00  0.99999944174E+02  0.99999999995E+02  0.10566000000E+00 0. -1.
         22   -1    0    0    0    0 -0.00000000000E+00 -0.00000000000E+00 -0.31053820254E+02  0.31053820254E+02  0.00000000000E+00 0.  1.
         13    1    1    2    0    0  0.13898105374E+02 -0.28052526373E+02 -0.96693796465E+01  0.32765982904E+02  0.10566000000E+00 0.  1.
        996    1    1    2    0    0 -0.13898105374E+02  0.28052526373E+02  0.78615503567E+02  0.98287837345E+02  0.50000000000E+02 0.  0.
<mgrwt>
<rscale>  0 0.58992386E+02</rscale>
<asrwt>0</asrwt>
<pdfrwt beam="1">  1       13 0.10000000E+01 0.58992386E+02</pdfrwt>
<pdfrwt beam="2">  1       22 0.31053840E+00 0.58992386E+02</pdfrwt>
<totfact> 0.19585208E-01</totfact>
</mgrwt>
</event>
<event>
 4    1  0.2409985E+000  0.5317918E+02  0.7957747E-01  0.1428911E+00
         13   -1    0    0    0    0  0.00000000000E+00  0.00000000000E+00  0.99999944173E+02  0.99999999993E+02  0.10566000000E+00 0.  1.
         22   -1    0    0    0    0 -0.00000000000E+00 -0.00000000000E+00 -0.12731963375E+02  0.12731963375E+02  0.00000000000E+00 0.  1.
         13    1    1    2    0    0 -0.13553361988E+02 -0.12013799461E+02  0.24432607999E+02  0.30413623532E+02  0.10566000000E+00 0. -1.
        996    1    1    2    0    0  0.13553361988E+02  0.12013799461E+02  0.62835372798E+02  0.82318339836E+02  0.50000000000E+02 0.  0.
<mgrwt>
<rscale>  0 0.53179178E+02</rscale>
<asrwt>0</asrwt>
<pdfrwt beam="1">  1       13 0.10000000E+01 0.53179178E+02</pdfrwt>
<pdfrwt beam="2">  1       22 0.12731988E+00 0.53179178E+02</pdfrwt>
<totfact> 0.98331720E-01</totfact>
</mgrwt>
</event>
<event>
 4    1  0.2409985E+000  0.5307486E+02  0.7957747E-01  0.1429429E+00
         13   -1    0    0    0    0  0.00000000000E+00  0.00000000000E+00  0.99999944175E+02  0.99999999995E+02  0.10566000000E+00 0. -1.
         22   -1    0    0    0    0 -0.00000000000E+00 -0.00000000000E+00 -0.20587952473E+02  0.20587952473E+02  0.00000000000E+00 0.  1.
         13    1    1    2    0    0 -0.17731229557E+02  0.15950812858E+01 -0.70395052543E+01  0.19144361681E+02  0.10566000000E+00 0.  1.
        996    1    1    2    0    0  0.17731229557E+02 -0.15950812858E+01  0.86451496956E+02  0.10144359079E+03  0.50000000000E+02 0.  0.
<mgrwt>
<rscale>  0 0.53074860E+02</rscale>
<asrwt>0</asrwt>
<pdfrwt beam="1">  1       13 0.10000000E+01 0.53074860E+02</pdfrwt>
<pdfrwt beam="2">  1       22 0.20587975E+00 0.53074860E+02</pdfrwt>
<totfact> 0.42993190E-01</totfact>
</mgrwt>
</event>
<event>
 4    1  0.2409985E+000  0.5282561E+02  0.7957747E-01  0.1430671E+00
         13   -1    0    0    0    0  0.00000000000E+00  0.00000000000E+00  0.99999944174E+02  0.99999999994E+02  0.10566000000E+00 0. -1.
         22   -1    0    0    0    0 -0.00000000000E+00 -0.00000000000E+00 -0.19709813387E+02  0.19709813387E+02  0.00000000000E+00 0.  1.
         13    1    1    2    0    0  0.15017165651E+02  0.80641210211E+01 -0.63876421827E+01  0.18203253795E+02  0.10566000000E+00 0.  1.
        996    1    1    2    0    0 -0.15017165651E+02 -0.80641210211E+01  0.86677772970E+02  0.10150655959E+03  0.50000000000E+02 0.  0.
<mgrwt>
<rscale>  0 0.52825612E+02</rscale>
<asrwt>0</asrwt>
<pdfrwt beam="1">  1       13 0.10000000E+01 0.52825612E+02</pdfrwt>
<pdfrwt beam="2">  1       22 0.19709836E+00 0.52825612E+02</pdfrwt>
<totfact> 0.46625879E-01</totfact>
</mgrwt>
</event>
<event>
 4    1  0.2409985E+000  0.5548617E+02  0.7957747E-01  0.1417814E+00
         13   -1    0    0    0    0  0.00000000000E+00  0.00000000000E+00  0.99999944173E+02  0.99999999993E+02  0.10566000000E+00 0.  1.
         22   -1    0    0    0    0 -0.00000000000E+00 -0.00000000000E+00 -0.49071216251E+02  0.49071216251E+02  0.00000000000E+00 0. -1.
         13    1    1    2    0    0  0.23147952189E+02 -0.65488056621E+01 -0.37572800224E+02  0.44614358976E+02  0.10566000000E+00 0. -1.
        996    1    1    2    0    0 -0.23147952189E+02  0.65488056621E+01  0.88501528146E+02  0.10445685727E+03  0.50000000000E+02 0.  0.
<mgrwt>
<rscale>  0 0.55486165E+02</rscale>
<asrwt>0</asrwt>
<pdfrwt beam="1">  1       13 0.10000000E+01 0.55486165E+02</pdfrwt>
<pdfrwt beam="2">  1       22 0.49071230E+00 0.55486165E+02</pdfrwt>
<totfact> 0.77632739E-02</totfact>
</mgrwt>
</event>
<event>
 4    1  0.2409985E+000  0.5211696E+02  0.7957747E-01  0.1434247E+00
         13   -1    0    0    0    0  0.00000000000E+00  0.00000000000E+00  0.99999944177E+02  0.99999999997E+02  0.10566000000E+00 0. -1.
         22   -1    0    0    0    0 -0.00000000000E+00 -0.00000000000E+00 -0.16948683912E+02  0.16948683912E+02  0.00000000000E+00 0.  1.
         13    1    1    2    0    0 -0.27328992370E+00  0.14700430717E+02 -0.42227020640E+01  0.15297703337E+02  0.10566000000E+00 0.  1.
        996    1    1    2    0    0  0.27328992370E+00 -0.14700430717E+02  0.87273962329E+02  0.10165098057E+03  0.50000000000E+02 0.  0.
<mgrwt>
<rscale>  0 0.52116958E+02</rscale>
<asrwt>0</asrwt>
<pdfrwt beam="1">  1       13 0.10000000E+01 0.52116958E+02</pdfrwt>
<pdfrwt beam="2">  1       22 0.16948707E+00 0.52116958E+02</pdfrwt>
<totfact> 0.61135033E-01</totfact>
</mgrwt>
</event>
<event>
 4    1  0.2409985E+000  0.5140900E+02  0.7957747E-01  0.1437887E+00
         13   -1    0    0    0    0  0.00000000000E+00  0.00000000000E+00  0.99999944177E+02  0.99999999997E+02  0.10566000000E+00 0.  1.
         22   -1    0    0    0    0 -0.00000000000E+00 -0.00000000000E+00 -0.10737909777E+02  0.10737909777E+02  0.00000000000E+00 0.  1.
         13    1    1    2    0    0 -0.75830272404E+01  0.92402785201E+01  0.73593315444E+01  0.14037662700E+02  0.10566000000E+00 0. -1.
        996    1    1    2    0    0  0.75830272404E+01 -0.92402785201E+01  0.81902702856E+02  0.96700247075E+02  0.50000000000E+02 0.  0.
<mgrwt>
<rscale>  0 0.51408998E+02</rscale>
<asrwt>0</asrwt>
<pdfrwt beam="1">  1       13 0.10000000E+01 0.51408998E+02</pdfrwt>
<pdfrwt beam="2">  1       22 0.10737935E+00 0.51408998E+02</pdfrwt>
<totfact> 0.12685832E+00</totfact>
</mgrwt>
</event>
<event>
 4    1  0.2409985E+000  0.5151520E+02  0.7957747E-01  0.1437336E+00
         13   -1    0    0    0    0  0.00000000000E+00  0.00000000000E+00  0.99999944172E+02  0.99999999992E+02  0.10566000000E+00 0.  1.
         22   -1    0    0    0    0 -0.00000000000E+00 -0.00000000000E+00 -0.10390910046E+02  0.10390910046E+02  0.00000000000E+00 0.  1.
         13    1    1    2    0    0 -0.76290905465E+01 -0.97781574183E+01  0.23585197578E+02  0.26647478190E+02  0.10566000000E+00 0. -1.
        996    1    1    2    0    0  0.76290905465E+01  0.97781574183E+01  0.66023836549E+02  0.83743431848E+02  0.50000000000E+02 0.  0.
<mgrwt>
<rscale>  0 0.51515196E+02</rscale>
<asrwt>0</asrwt>
<pdfrwt beam="1">  1       13 0.10000000E+01 0.51515196E+02</pdfrwt>
<pdfrwt beam="2">  1       22 0.10390935E+00 0.51515196E+02</pdfrwt>
<totfact> 0.13316848E+00</totfact>
</mgrwt>
</event>
<event>
 4    1  0.2409985E+000  0.5270215E+02  0.7957747E-01  0.1431289E+00
         13   -1    0    0    0    0  0.00000000000E+00  0.00000000000E+00  0.99999944181E+02  0.10000000000E+03  0.10566000000E+00 0. -1.
         22   -1    0    0    0    0 -0.00000000000E+00 -0.00000000000E+00 -0.13872327292E+02  0.13872327292E+02  0.00000000000E+00 0. -1.
         13    1    1    2    0    0  0.16346161033E+02 -0.32123558098E+01  0.41833055892E+02  0.45028123874E+02  0.10566000000E+00 0.  1.
        996    1    1    2    0    0 -0.16346161033E+02  0.32123558098E+01  0.44294560997E+02  0.68844203419E+02  0.50000000000E+02 0.  0.
<mgrwt>
<rscale>  0 0.52702146E+02</rscale>
<asrwt>0</asrwt>
<pdfrwt beam="1">  1       13 0.10000000E+01 0.52702146E+02</pdfrwt>
<pdfrwt beam="2">  1       22 0.13872351E+00 0.52702146E+02</pdfrwt>
<totfact> 0.85712704E-01</totfact>
</mgrwt>
</event>
<event>
 4    1  0.2409985E+000  0.5130537E+02  0.7957747E-01  0.1438425E+00
         13   -1    0    0    0    0  0.00000000000E+00  0.00000000000E+00  0.99999944178E+02  0.99999999998E+02  0.10566000000E+00 0. -1.
         22   -1    0    0    0    0 -0.00000000000E+00 -0.00000000000E+00 -0.10451084707E+02  0.10451084707E+02  0.00000000000E+00 0. -1.
         13    1    1    2    0    0 -0.11453564815E+02  0.10278054988E+01  0.76600713293E+01  0.13817683884E+02  0.10566000000E+00 0.  1.
        996    1    1    2    0    0  0.11453564815E+02 -0.10278054988E+01  0.81888788142E+02  0.96633400822E+02  0.50000000000E+02 0.  0.
<mgrwt>
<rscale>  0 0.51305366E+02</rscale>
<asrwt>0</asrwt>
<pdfrwt beam="1">  1       13 0.10000000E+01 0.51305366E+02</pdfrwt>
<pdfrwt beam="2">  1       22 0.10451110E+00 0.51305366E+02</pdfrwt>
<totfact> 0.13198097E+00</totfact>
</mgrwt>
</event>
<event>
 4    1  0.2409985E+000  0.5102664E+02  0.7957747E-01  0.1439881E+00
         13   -1    0    0    0    0  0.00000000000E+00  0.00000000000E+00  0.99999944174E+02  0.99999999994E+02  0.10566000000E+00 0. -1.
         22   -1    0    0    0    0 -0.00000000000E+00 -0.00000000000E+00 -0.12752237809E+02  0.12752237809E+02  0.00000000000E+00 0.  1.
         13    1    1    2    0    0 -0.43496153599E+01  0.92086465903E+01 -0.15849258894E+01  0.10307350771E+02  0.10566000000E+00 0.  1.
        996    1    1    2    0    0  0.43496153599E+01 -0.92086465903E+01  0.88832632254E+02  0.10244488703E+03  0.50000000000E+02 0.  0.
<mgrwt>
<rscale>  0 0.51026643E+02</rscale>
<asrwt>0</asrwt>
<pdfrwt beam="1">  1       13 0.10000000E+01 0.51026643E+02</pdfrwt>
<pdfrwt beam="2">  1       22 0.12752262E+00 0.51026643E+02</pdfrwt>
<totfact> 0.97628452E-01</totfact>
</mgrwt>
</event>
<event>
 4    1  0.2409985E+000  0.5148496E+02  0.7957747E-01  0.1437493E+00
         13   -1    0    0    0    0  0.00000000000E+00  0.00000000000E+00  0.99999944176E+02  0.99999999996E+02  0.10566000000E+00 0.  1.
         22   -1    0    0    0    0 -0.00000000000E+00 -0.00000000000E+00 -0.36600608776E+02  0.36600608776E+02  0.00000000000E+00 0. -1.
         13    1    1    2    0    0 -0.38168166794E+00  0.12270113105E+02 -0.28628688561E+02  0.31149868848E+02  0.10566000000E+00 0. -1.
        996    1    1    2    0    0  0.38168166794E+00 -0.12270113105E+02  0.92028023960E+02  0.10545073992E+03  0.50000000000E+02 0.  0.
<mgrwt>
<rscale>  0 0.51484962E+02</rscale>
<asrwt>0</asrwt>
<pdfrwt beam="1">  1       13 0.10000000E+01 0.51484962E+02</pdfrwt>
<pdfrwt beam="2">  1       22 0.36600626E+00 0.51484962E+02</pdfrwt>
<totfact> 0.14525004E-01</totfact>
</mgrwt>
</event>
<event>
 4    1  0.2409985E+000  0.5479861E+02  0.7957747E-01  0.1421054E+00
         13   -1    0    0    0    0  0.00000000000E+00  0.00000000000E+00  0.99999944181E+02  0.10000000000E+03  0.10566000000E+00 0. -1.
         22   -1    0    0    0    0 -0.00000000000E+00 -0.00000000000E+00 -0.33151985878E+02  0.33151985878E+02  0.00000000000E+00 0.  1.
         13    1    1    2    0    0 -0.17496180058E+02 -0.14027524686E+02 -0.20272513104E+02  0.30230344309E+02  0.10566000000E+00 0.  1.
        996    1    1    2    0    0  0.17496180058E+02  0.14027524686E+02  0.87120471407E+02  0.10292164157E+03  0.50000000000E+02 0.  0.
<mgrwt>
<rscale>  0 0.54798611E+02</rscale>
<asrwt>0</asrwt>
<pdfrwt beam="1">  1       13 0.10000000E+01 0.54798611E+02</pdfrwt>
<pdfrwt beam="2">  1       22 0.33152005E+00 0.54798611E+02</pdfrwt>
<totfact> 0.17332059E-01</totfact>
</mgrwt>
</event>
<event>
 4    1  0.2409985E+000  0.5569620E+02  0.7957747E-01  0.1416835E+00
         13   -1    0    0    0    0  0.00000000000E+00  0.00000000000E+00  0.99999944174E+02  0.99999999994E+02  0.10566000000E+00 0. -1.
         22   -1    0    0    0    0 -0.00000000000E+00 -0.00000000000E+00 -0.19169061623E+02  0.19169061623E+02  0.00000000000E+00 0.  1.
         13    1    1    2    0    0 -0.22070254824E+02 -0.10722423694E+02  0.49335095933E+01  0.25028327927E+02  0.10566000000E+00 0.  1.
        996    1    1    2    0    0  0.22070254824E+02  0.10722423694E+02  0.75897372958E+02  0.94140733691E+02  0.50000000000E+02 0.  0.
<mgrwt>
<rscale>  0 0.55696198E+02</rscale>
<asrwt>0</asrwt>
<pdfrwt beam="1">  1       13 0.10000000E+01 0.55696198E+02</pdfrwt>
<pdfrwt beam="2">  1       22 0.19169084E+00 0.55696198E+02</pdfrwt>
<totfact> 0.49331704E-01</totfact>
</mgrwt>
</event>
<event>
 4    1  0.2409985E+000  0.6163385E+02  0.7957747E-01  0.1391100E+00
         13   -1    0    0    0    0  0.00000000000E+00  0.00000000000E+00  0.99999944180E+02  0.10000000000E+03  0.10566000000E+00 0. -1.
         22   -1    0    0    0    0 -0.00000000000E+00 -0.00000000000E+00 -0.24440970800E+02  0.24440970800E+02  0.00000000000E+00 0.  1.
         13    1    1    2    0    0  0.76682502035E+00 -0.36029755957E+02  0.18769258763E+02  0.40632838610E+02  0.10566000000E+00 0.  1.
        996    1    1    2    0    0 -0.76682502035E+00  0.36029755957E+02  0.56789714617E+02  0.83808132190E+02  0.50000000000E+02 0.  0.
<mgrwt>
<rscale>  0 0.61633849E+02</rscale>
<asrwt>0</asrwt>
<pdfrwt beam="1">  1       13 0.10000000E+01 0.61633849E+02</pdfrwt>
<pdfrwt beam="2">  1       22 0.24440992E+00 0.61633849E+02</pdfrwt>
<totfact> 0.31254086E-01</totfact>
</mgrwt>
</event>
<event>
 4    1  0.2409985E+000  0.5159748E+02  0.7957747E-01  0.1436911E+00
         13   -1    0    0    0    0  0.00000000000E+00  0.00000000000E+00  0.99999944172E+02  0.99999999992E+02  0.10566000000E+00 0.  1.
         22   -1    0    0    0    0 -0.00000000000E+00 -0.00000000000E+00 -0.10480148699E+02  0.10480148699E+02  0.00000000000E+00 0.  1.
         13    1    1    2    0    0  0.12739114980E+02 -0.12009982541E+00  0.13110566439E+02  0.18281071928E+02  0.10566000000E+00 0. -1.
        996    1    1    2    0    0 -0.12739114980E+02  0.12009982541E+00  0.76409229034E+02  0.92199076763E+02  0.50000000000E+02 0.  0.
<mgrwt>
<rscale>  0 0.51597475E+02</rscale>
<asrwt>0</asrwt>
<pdfrwt beam="1">  1       13 0.10000000E+01 0.51597475E+02</pdfrwt>
<pdfrwt beam="2">  1       22 0.10480174E+00 0.51597475E+02</pdfrwt>
<totfact> 0.13153609E+00</totfact>
</mgrwt>
</event>
<event>
 4    1  0.2409985E+000  0.5197873E+02  0.7957747E-01  0.1434952E+00
         13   -1    0    0    0    0  0.00000000000E+00  0.00000000000E+00  0.99999944183E+02  0.10000000000E+03  0.10566000000E+00 0. -1.
         22   -1    0    0    0    0 -0.00000000000E+00 -0.00000000000E+00 -0.22238553592E+02  0.22238553592E+02  0.00000000000E+00 0.  1.
         13    1    1    2    0    0  0.13969177342E+02  0.25787679280E+01 -0.11945544162E+02  0.18560580513E+02  0.10566000000E+00 0.  1.
        996    1    1    2    0    0 -0.13969177342E+02 -0.25787679280E+01  0.89706934753E+02  0.10367797308E+03  0.50000000000E+02 0.  0.
<mgrwt>
<rscale>  0 0.51978726E+02</rscale>
<asrwt>0</asrwt>
<pdfrwt beam="1">  1       13 0.10000000E+01 0.51978726E+02</pdfrwt>
<pdfrwt beam="2">  1       22 0.22238575E+00 0.51978726E+02</pdfrwt>
<totfact> 0.37042443E-01</totfact>
</mgrwt>
</event>
<event>
 4    1  0.2409985E+000  0.5114161E+02  0.7957747E-01  0.1439280E+00
         13   -1    0    0    0    0  0.00000000000E+00  0.00000000000E+00  0.99999944175E+02  0.99999999995E+02  0.10566000000E+00 0. -1.
         22   -1    0    0    0    0 -0.00000000000E+00 -0.00000000000E+00 -0.26887014938E+02  0.26887014938E+02  0.00000000000E+00 0.  1.
         13    1    1    2    0    0 -0.96680229825E+01 -0.46897634787E+01 -0.18828476423E+02  0.21679189061E+02  0.10566000000E+00 0.  1.
        996    1    1    2    0    0  0.96680229825E+01  0.46897634787E+01  0.91941405660E+02  0.10520782587E+03  0.50000000000E+02 0.  0.
<mgrwt>
<rscale>  0 0.51141613E+02</rscale>
<asrwt>0</asrwt>
<pdfrwt beam="1">  1       13 0.10000000E+01 0.51141613E+02</pdfrwt>
<pdfrwt beam="2">  1       22 0.26887035E+00 0.51141613E+02</pdfrwt>
<totfact> 0.25518445E-01</totfact>
</mgrwt>
</event>
<event>
 4    1  0.2409985E+000  0.5472390E+02  0.7957747E-01  0.1421409E+00
         13   -1    0    0    0    0  0.00000000000E+00  0.00000000000E+00  0.99999944182E+02  0.10000000000E+03  0.10566000000E+00 0.  1.
         22   -1    0    0    0    0 -0.00000000000E+00 -0.00000000000E+00 -0.19192610375E+02  0.19192610375E+02  0.00000000000E+00 0. -1.
         13    1    1    2    0    0 -0.56030968003E+01  0.21524644257E+02  0.79534876279E+00  0.22256431606E+02  0.10566000000E+00 0. -1.
        996    1    1    2    0    0  0.56030968003E+01 -0.21524644257E+02  0.80011985044E+02  0.96936178771E+02  0.50000000000E+02 0.  0.
<mgrwt>
<rscale>  0 0.54723898E+02</rscale>
<asrwt>0</asrwt>
<pdfrwt beam="1">  1       13 0.10000000E+01 0.54723898E+02</pdfrwt>
<pdfrwt beam="2">  1       22 0.19192633E+00 0.54723898E+02</pdfrwt>
<totfact> 0.49138250E-01</totfact>
</mgrwt>
</event>
<event>
 4    1  0.2409985E+000  0.5334673E+02  0.7957747E-01  0.1428083E+00
         13   -1    0    0    0    0  0.00000000000E+00  0.00000000000E+00  0.99999944176E+02  0.99999999996E+02  0.10566000000E+00 0.  1.
         22   -1    0    0    0    0 -0.00000000000E+00 -0.00000000000E+00 -0.13580829582E+02  0.13580829582E+02  0.00000000000E+00 0.  1.
         13    1    1    2    0    0 -0.97928924821E+01 -0.15810513457E+02  0.12445756246E+02  0.22378138696E+02  0.10566000000E+00 0. -1.
        996    1    1    2    0    0  0.97928924821E+01  0.15810513457E+02  0.73973358348E+02  0.91202690882E+02  0.50000000000E+02 0.  0.
<mgrwt>
<rscale>  0 0.53346725E+02</rscale>
<asrwt>0</asrwt>
<pdfrwt beam="1">  1       13 0.10000000E+01 0.53346725E+02</pdfrwt>
<pdfrwt beam="2">  1       22 0.13580854E+00 0.53346725E+02</pdfrwt>
<totfact> 0.88810851E-01</totfact>
</mgrwt>
</event>
<event>
 4    1  0.2409985E+000  0.5901482E+02  0.7957747E-01  0.1402013E+00
         13   -1    0    0    0    0  0.00000000000E+00  0.00000000000E+00  0.99999944175E+02  0.99999999995E+02  0.10566000000E+00 0. -1.
         22   -1    0    0    0    0 -0.00000000000E+00 -0.00000000000E+00 -0.68115311909E+02  0.68115311909E+02  0.00000000000E+00 0.  1.
         13    1    1    2    0    0 -0.63657465166E+01 -0.30695700762E+02 -0.54868242008E+02  0.63192435616E+02  0.10566000000E+00 0.  1.
        996    1    1    2    0    0  0.63657465166E+01  0.30695700762E+02  0.86752874274E+02  0.10492287629E+03  0.50000000000E+02 0.  0.
<mgrwt>
<rscale>  0 0.59014818E+02</rscale>
<asrwt>0</asrwt>
<pdfrwt beam="1">  1       13 0.10000000E+01 0.59014818E+02</pdfrwt>
<pdfrwt beam="2">  1       22 0.68115321E+00 0.59014818E+02</pdfrwt>
<totfact> 0.83059660E-02</totfact>
</mgrwt>
</event>
<event>
 4    1  0.2409985E+000  0.5573865E+02  0.7957747E-01  0.1416638E+00
         13   -1    0    0    0    0  0.00000000000E+00  0.00000000000E+00  0.99999944175E+02  0.99999999995E+02  0.10566000000E+00 0.  1.
         22   -1    0    0    0    0 -0.00000000000E+00 -0.00000000000E+00 -0.16484544981E+02  0.16484544981E+02  0.00000000000E+00 0. -1.
         13    1    1    2    0    0 -0.10044746638E+02 -0.22492234972E+02  0.18252020060E+02  0.30658521970E+02  0.10566000000E+00 0. -1.
        996    1    1    2    0    0  0.10044746638E+02  0.22492234972E+02  0.65263379133E+02  0.85826023006E+02  0.50000000000E+02 0.  0.
<mgrwt>
<rscale>  0 0.55738654E+02</rscale>
<asrwt>0</asrwt>
<pdfrwt beam="1">  1       13 0.10000000E+01 0.55738654E+02</pdfrwt>
<pdfrwt beam="2">  1       22 0.16484568E+00 0.55738654E+02</pdfrwt>
<totfact> 0.64602128E-01</totfact>
</mgrwt>
</event>
<event>
 4    1  0.2409985E+000  0.5189556E+02  0.7957747E-01  0.1435378E+00
         13   -1    0    0    0    0  0.00000000000E+00  0.00000000000E+00  0.99999944169E+02  0.99999999989E+02  0.10566000000E+00 0.  1.
         22   -1    0    0    0    0 -0.00000000000E+00 -0.00000000000E+00 -0.22216798877E+02  0.22216798877E+02  0.00000000000E+00 0. -1.
         13    1    1    2    0    0  0.11290096286E+02 -0.81044677710E+01 -0.12100337037E+02  0.18427642075E+02  0.10566000000E+00 0. -1.
        996    1    1    2    0    0 -0.11290096286E+02  0.81044677710E+01  0.89883482328E+02  0.10378915679E+03  0.50000000000E+02 0.  0.
<mgrwt>
<rscale>  0 0.51895555E+02</rscale>
<asrwt>0</asrwt>
<pdfrwt beam="1">  1       13 0.10000000E+01 0.51895555E+02</pdfrwt>
<pdfrwt beam="2">  1       22 0.22216821E+00 0.51895555E+02</pdfrwt>
<totfact> 0.37107156E-01</totfact>
</mgrwt>
</event>
<event>
 4    1  0.2409985E+000  0.5217124E+02  0.7957747E-01  0.1433970E+00
         13   -1    0    0    0    0  0.00000000000E+00  0.00000000000E+00  0.99999944175E+02  0.99999999996E+02  0.10566000000E+00 0. -1.
         22   -1    0    0    0    0 -0.00000000000E+00 -0.00000000000E+00 -0.11982515132E+02  0.11982515132E+02  0.00000000000E+00 0. -1.
         13    1    1    2    0    0 -0.10863173859E+01  0.14854567774E+02  0.93451729717E+01  0.17583563095E+02  0.10566000000E+00 0.  1.
        996    1    1    2    0    0  0.10863173859E+01 -0.14854567774E+02  0.78672256072E+02  0.94398952032E+02  0.50000000000E+02 0.  0.
<mgrwt>
<rscale>  0 0.52171240E+02</rscale>
<asrwt>0</asrwt>
<pdfrwt beam="1">  1       13 0.10000000E+01 0.52171240E+02</pdfrwt>
<pdfrwt beam="2">  1       22 0.11982540E+00 0.52171240E+02</pdfrwt>
<totfact> 0.10777546E+00</totfact>
</mgrwt>
</event>
<event>
 4    1  0.2409985E+000  0.5111448E+02  0.7957747E-01  0.1439421E+00
         13   -1    0    0    0    0  0.00000000000E+00  0.00000000000E+00  0.99999944177E+02  0.99999999998E+02  0.10566000000E+00 0.  1.
         22   -1    0    0    0    0 -0.00000000000E+00 -0.00000000000E+00 -0.11706351616E+02  0.11706351616E+02  0.00000000000E+00 0.  1.
         13    1    1    2    0    0  0.31167413618E+01  0.10147723638E+02  0.11500618893E+01  0.10678210437E+02  0.10566000000E+00 0. -1.
        996    1    1    2    0    0 -0.31167413618E+01 -0.10147723638E+02  0.87143530672E+02  0.10102814118E+03  0.50000000000E+02 0.  0.
<mgrwt>
<rscale>  0 0.51114483E+02</rscale>
<asrwt>0</asrwt>
<pdfrwt beam="1">  1       13 0.10000000E+01 0.51114483E+02</pdfrwt>
<pdfrwt beam="2">  1       22 0.11706376E+00 0.51114483E+02</pdfrwt>
<totfact> 0.11140691E+00</totfact>
</mgrwt>
</event>
<event>
 4    1  0.2409985E+000  0.5321510E+02  0.7957747E-01  0.1428733E+00
         13   -1    0    0    0    0  0.00000000000E+00  0.00000000000E+00  0.99999944186E+02  0.10000000001E+03  0.10566000000E+00 0.  1.
         22   -1    0    0    0    0 -0.00000000000E+00 -0.00000000000E+00 -0.20556692256E+02  0.20556692256E+02  0.00000000000E+00 0. -1.
         13    1    1    2    0    0  0.18003610474E+02  0.27780064226E+01 -0.66095445506E+01  0.19378971928E+02  0.10566000000E+00 0. -1.
        996    1    1    2    0    0 -0.18003610474E+02 -0.27780064226E+01  0.86052796481E+02  0.10117772033E+03  0.50000000000E+02 0.  0.
<mgrwt>
<rscale>  0 0.53215104E+02</rscale>
<asrwt>0</asrwt>
<pdfrwt beam="1">  1       13 0.10000000E+01 0.53215104E+02</pdfrwt>
<pdfrwt beam="2">  1       22 0.20556714E+00 0.53215104E+02</pdfrwt>
<totfact> 0.43126945E-01</totfact>
</mgrwt>
</event>
<event>
 4    1  0.2409985E+000  0.5513500E+02  0.7957747E-01  0.1419462E+00
         13   -1    0    0    0    0  0.00000000000E+00  0.00000000000E+00  0.99999944179E+02  0.99999999999E+02  0.10566000000E+00 0.  1.
         22   -1    0    0    0    0 -0.00000000000E+00 -0.00000000000E+00 -0.23965956194E+02  0.23965956194E+02  0.00000000000E+00 0. -1.
         13    1    1    2    0    0  0.22189713087E+02 -0.68909323045E+01 -0.70241506163E+01  0.24273816569E+02  0.10566000000E+00 0. -1.
        996    1    1    2    0    0 -0.22189713087E+02  0.68909323045E+01  0.83058138601E+02  0.99692139624E+02  0.50000000000E+02 0.  0.
<mgrwt>
<rscale>  0 0.55135001E+02</rscale>
<asrwt>0</asrwt>
<pdfrwt beam="1">  1       13 0.10000000E+01 0.55135001E+02</pdfrwt>
<pdfrwt beam="2">  1       22 0.23965977E+00 0.55135001E+02</pdfrwt>
<totfact> 0.32186280E-01</totfact>
</mgrwt>
</event>
<event>
 4    1  0.2409985E+000  0.5390885E+02  0.7957747E-01  0.1425331E+00
         13   -1    0    0    0    0  0.00000000000E+00  0.00000000000E+00  0.99999944177E+02  0.99999999997E+02  0.10566000000E+00 0. -1.
         22   -1    0    0    0    0 -0.00000000000E+00 -0.00000000000E+00 -0.47031484938E+02  0.47031484938E+02  0.00000000000E+00 0.  1.
         13    1    1    2    0    0 -0.17007665350E+02 -0.10812213728E+02 -0.37008892214E+02  0.42140644434E+02  0.10566000000E+00 0.  1.
        996    1    1    2    0    0  0.17007665350E+02  0.10812213728E+02  0.89977351454E+02  0.10489084050E+03  0.50000000000E+02 0.  0.
<mgrwt>
<rscale>  0 0.53908855E+02</rscale>
<asrwt>0</asrwt>
<pdfrwt beam="1">  1       13 0.10000000E+01 0.53908855E+02</pdfrwt>
<pdfrwt beam="2">  1       22 0.47031500E+00 0.53908855E+02</pdfrwt>
<totfact> 0.86817170E-02</totfact>
</mgrwt>
</event>
<event>
 4    1  0.2409985E+000  0.5111962E+02  0.7957747E-01  0.1439395E+00
         13   -1    0    0    0    0  0.00000000000E+00  0.00000000000E+00  0.99999944182E+02  0.10000000000E+03  0.10566000000E+00 0.  1.
         22   -1    0    0    0    0 -0.00000000000E+00 -0.00000000000E+00 -0.98882387390E+01  0.98882387390E+01  0.00000000000E+00 0.  1.
         13    1    1    2    0    0 -0.87566543695E+01  0.60445724683E+01  0.86396938100E+01  0.13706616112E+02  0.10566000000E+00 0. -1.
        996    1    1    2    0    0  0.87566543695E+01 -0.60445724683E+01  0.81472011633E+02  0.96181622629E+02  0.50000000000E+02 0.  0.
<mgrwt>
<rscale>  0 0.51119623E+02</rscale>
<asrwt>0</asrwt>
<pdfrwt beam="1">  1       13 0.10000000E+01 0.51119623E+02</pdfrwt>
<pdfrwt beam="2">  1       22 0.98882639E-01 0.51119623E+02</pdfrwt>
<totfact> 0.14298317E+00</totfact>
</mgrwt>
</event>
<event>
 4    1  0.2409985E+000  0.5794121E+02  0.7957747E-01  0.1406680E+00
         13   -1    0    0    0    0  0.00000000000E+00  0.00000000000E+00  0.99999944182E+02  0.10000000000E+03  0.10566000000E+00 0.  1.
         22   -1    0    0    0    0 -0.00000000000E+00 -0.00000000000E+00 -0.49288843719E+02  0.49288843719E+02  0.00000000000E+00 0. -1.
         13    1    1    2    0    0 -0.19172609290E+02 -0.22126791423E+02 -0.35125092866E+02  0.45727094359E+02  0.10566000000E+00 0. -1.
        996    1    1    2    0    0  0.19172609290E+02  0.22126791423E+02  0.85836193329E+02  0.10356174936E+03  0.50000000000E+02 0.  0.
<mgrwt>
<rscale>  0 0.57941210E+02</rscale>
<asrwt>0</asrwt>
<pdfrwt beam="1">  1       13 0.10000000E+01 0.57941210E+02</pdfrwt>
<pdfrwt beam="2">  1       22 0.49288858E+00 0.57941210E+02</pdfrwt>
<totfact> 0.76775175E-02</totfact>
</mgrwt>
</event>
<event>
 4    1  0.2409985E+000  0.5150417E+02  0.7957747E-01  0.1437393E+00
         13   -1    0    0    0    0  0.00000000000E+00  0.00000000000E+00  0.99999944183E+02  0.10000000000E+03  0.10566000000E+00 0. -1.
         22   -1    0    0    0    0 -0.00000000000E+00 -0.00000000000E+00 -0.10200625652E+02  0.10200625652E+02  0.00000000000E+00 0. -1.
         13    1    1    2    0    0  0.78842785458E+01 -0.95140616045E+01  0.16416456401E+02  0.20547272841E+02  0.10566000000E+00 0.  1.
        996    1    1    2    0    0 -0.78842785458E+01  0.95140616045E+01  0.73382862131E+02  0.89653352815E+02  0.50000000000E+02 0.  0.
<mgrwt>
<rscale>  0 0.51504167E+02</rscale>
<asrwt>0</asrwt>
<pdfrwt beam="1">  1       13 0.10000000E+01 0.51504167E+02</pdfrwt>
<pdfrwt beam="2">  1       22 0.10200651E+00 0.51504167E+02</pdfrwt>
<totfact> 0.13680642E+00</totfact>
</mgrwt>
</event>
<event>
 4    1  0.2409985E+000  0.5682854E+02  0.7957747E-01  0.1411644E+00
         13   -1    0    0    0    0  0.00000000000E+00  0.00000000000E+00  0.99999944182E+02  0.10000000000E+03  0.10566000000E+00 0. -1.
         22   -1    0    0    0    0 -0.00000000000E+00 -0.00000000000E+00 -0.20564501571E+02  0.20564501571E+02  0.00000000000E+00 0.  1.
         13    1    1    2    0    0 -0.15082596400E+02 -0.22405326951E+02  0.49364450147E+02  0.56270271834E+02  0.10566000000E+00 0.  1.
        996    1    1    2    0    0  0.15082596400E+02  0.22405326951E+02  0.30070992465E+02  0.64294229739E+02  0.50000000000E+02 0.  0.
<mgrwt>
<rscale>  0 0.56828544E+02</rscale>
<asrwt>0</asrwt>
<pdfrwt beam="1">  1       13 0.10000000E+01 0.56828544E+02</pdfrwt>
<pdfrwt beam="2">  1       22 0.20564524E+00 0.56828544E+02</pdfrwt>
<totfact> 0.43356285E-01</totfact>
</mgrwt>
</event>
<event>
 4    1  0.2409985E+000  0.5605202E+02  0.7957747E-01  0.1415188E+00
         13   -1    0    0    0    0  0.00000000000E+00  0.00000000000E+00  0.99999944171E+02  0.99999999991E+02  0.10566000000E+00 0. -1.
         22   -1    0    0    0    0 -0.00000000000E+00 -0.00000000000E+00 -0.33913103851E+02  0.33913103851E+02  0.00000000000E+00 0.  1.
         13    1    1    2    0    0  0.18052497205E+02  0.17774591421E+02 -0.19247109660E+02  0.31816523220E+02  0.10566000000E+00 0.  1.
        996    1    1    2    0    0 -0.18052497205E+02 -0.17774591421E+02  0.85333949980E+02  0.10209658062E+03  0.50000000000E+02 0.  0.
<mgrwt>
<rscale>  0 0.56052018E+02</rscale>
<asrwt>0</asrwt>
<pdfrwt beam="1">  1       13 0.10000000E+01 0.56052018E+02</pdfrwt>
<pdfrwt beam="2">  1       22 0.33913122E+00 0.56052018E+02</pdfrwt>
<totfact> 0.16675012E-01</totfact>
</mgrwt>
</event>
<event>
 4    1  0.2409985E+000  0.5386858E+02  0.7957747E-01  0.1425526E+00
         13   -1    0    0    0    0  0.00000000000E+00  0.00000000000E+00  0.99999944178E+02  0.99999999999E+02  0.10566000000E+00 0. -1.
         22   -1    0    0    0    0 -0.00000000000E+00 -0.00000000000E+00 -0.30219853259E+02  0.30219853259E+02  0.00000000000E+00 0.  1.
         13    1    1    2    0    0 -0.16327652026E+02 -0.11628910590E+02 -0.18188769678E+02  0.27067809084E+02  0.10566000000E+00 0.  1.
        996    1    1    2    0    0  0.16327652026E+02  0.11628910590E+02  0.87968860598E+02  0.10315204417E+03  0.50000000000E+02 0.  0.
<mgrwt>
<rscale>  0 0.53868579E+02</rscale>
<asrwt>0</asrwt>
<pdfrwt beam="1">  1       13 0.10000000E+01 0.53868579E+02</pdfrwt>
<pdfrwt beam="2">  1       22 0.30219873E+00 0.53868579E+02</pdfrwt>
<totfact> 0.20471982E-01</totfact>
</mgrwt>
</event>
<event>
 4    1  0.2409985E+000  0.5553706E+02  0.7957747E-01  0.1417576E+00
         13   -1    0    0    0    0  0.00000000000E+00  0.00000000000E+00  0.99999944171E+02  0.99999999992E+02  0.10566000000E+00 0. -1.
         22   -1    0    0    0    0 -0.00000000000E+00 -0.00000000000E+00 -0.17623498898E+02  0.17623498898E+02  0.00000000000E+00 0. -1.
         13    1    1    2    0    0  0.29579739605E+01 -0.23991983228E+02  0.43717980221E+02  0.49956359233E+02  0.10566000000E+00 0.  1.
        996    1    1    2    0    0 -0.29579739605E+01  0.23991983228E+02  0.38658465052E+02  0.67667139657E+02  0.50000000000E+02 0.  0.
<mgrwt>
<rscale>  0 0.55537059E+02</rscale>
<asrwt>0</asrwt>
<pdfrwt beam="1">  1       13 0.10000000E+01 0.55537059E+02</pdfrwt>
<pdfrwt beam="2">  1       22 0.17623522E+00 0.55537059E+02</pdfrwt>
<totfact> 0.57425926E-01</totfact>
</mgrwt>
</event>
<event>
 4    1  0.2409985E+000  0.5115477E+02  0.7957747E-01  0.1439211E+00
         13   -1    0    0    0    0  0.00000000000E+00  0.00000000000E+00  0.99999944178E+02  0.99999999998E+02  0.10566000000E+00 0. -1.
         22   -1    0    0    0    0 -0.00000000000E+00 -0.00000000000E+00 -0.12983843131E+02  0.12983843131E+02  0.00000000000E+00 0. -1.
         13    1    1    2    0    0 -0.10489112137E+02 -0.26055876226E+01 -0.13365569131E+01  0.10890734994E+02  0.10566000000E+00 0.  1.
        996    1    1    2    0    0  0.10489112137E+02  0.26055876226E+01  0.88352657960E+02  0.10209310814E+03  0.50000000000E+02 0.  0.
<mgrwt>
<rscale>  0 0.51154771E+02</rscale>
<asrwt>0</asrwt>
<pdfrwt beam="1">  1       13 0.10000000E+01 0.51154771E+02</pdfrwt>
<pdfrwt beam="2">  1       22 0.12983867E+00 0.51154771E+02</pdfrwt>
<totfact> 0.94937086E-01</totfact>
</mgrwt>
</event>
<event>
 4    1  0.2409985E+000  0.5223157E+02  0.7957747E-01  0.1433664E+00
         13   -1    0    0    0    0  0.00000000000E+00  0.00000000000E+00  0.99999944184E+02  0.10000000000E+03  0.10566000000E+00 0. -1.
         22   -1    0    0    0    0 -0.00000000000E+00 -0.00000000000E+00 -0.12501949736E+02  0.12501949736E+02  0.00000000000E+00 0. -1.
         13    1    1    2    0    0  0.75174288742E+01  0.13100582809E+02  0.72537189376E+01  0.16756032026E+02  0.10566000000E+00 0.  1.
        996    1    1    2    0    0 -0.75174288742E+01 -0.13100582809E+02  0.80244275510E+02  0.95745917714E+02  0.50000000000E+02 0.  0.
<mgrwt>
<rscale>  0 0.52231571E+02</rscale>
<asrwt>0</asrwt>
<pdfrwt beam="1">  1       13 0.10000000E+01 0.52231571E+02</pdfrwt>
<pdfrwt beam="2">  1       22 0.12501974E+00 0.52231571E+02</pdfrwt>
<totfact> 0.10096030E+00</totfact>
</mgrwt>
</event>
<event>
 4    1  0.2409985E+000  0.5154836E+02  0.7957747E-01  0.1437165E+00
         13   -1    0    0    0    0  0.00000000000E+00  0.00000000000E+00  0.99999944184E+02  0.10000000000E+03  0.10566000000E+00 0. -1.
         22   -1    0    0    0    0 -0.00000000000E+00 -0.00000000000E+00 -0.43582588798E+02  0.43582588798E+02  0.00000000000E+00 0.  1.
         13    1    1    2    0    0 -0.49256634020E+00 -0.12529609712E+02 -0.35801662251E+02  0.37934205212E+02  0.10566000000E+00 0.  1.
        996    1    1    2    0    0  0.49256634020E+00  0.12529609712E+02  0.92219017637E+02  0.10564838359E+03  0.50000000000E+02 0.  0.
<mgrwt>
<rscale>  0 0.51548363E+02</rscale>
<asrwt>0</asrwt>
<pdfrwt beam="1">  1       13 0.10000000E+01 0.51548363E+02</pdfrwt>
<pdfrwt beam="2">  1       22 0.43582605E+00 0.51548363E+02</pdfrwt>
<totfact> 0.10385586E-01</totfact>
</mgrwt>
</event>
<event>
 4    1  0.2409985E+000  0.6377273E+02  0.7957747E-01  0.1382648E+00
         13   -1    0    0    0    0  0.00000000000E+00  0.00000000000E+00  0.99999944171E+02  0.99999999991E+02  0.10566000000E+00 0.  1.
         22   -1    0    0    0    0 -0.00000000000E+00 -0.00000000000E+00 -0.51723250376E+02  0.51723250376E+02  0.00000000000E+00 0. -1.
         13    1    1    2    0    0  0.24183790233E+02 -0.31338564847E+02 -0.30785312627E+02  0.50146864252E+02  0.10566000000E+00 0. -1.
        996    1    1    2    0    0 -0.24183790233E+02  0.31338564847E+02  0.79062006422E+02  0.10157638611E+03  0.50000000000E+02 0.  0.
<mgrwt>
<rscale>  0 0.63772732E+02</rscale>
<asrwt>0</asrwt>
<pdfrwt beam="1">  1       13 0.10000000E+01 0.63772732E+02</pdfrwt>
<pdfrwt beam="2">  1       22 0.51723264E+00 0.63772732E+02</pdfrwt>
<totfact> 0.67500833E-02</totfact>
</mgrwt>
</event>
<event>
 4    1  0.2409985E+000  0.6742292E+02  0.7957747E-01  0.1369082E+00
         13   -1    0    0    0    0  0.00000000000E+00  0.00000000000E+00  0.99999944177E+02  0.99999999998E+02  0.10566000000E+00 0.  1.
         22   -1    0    0    0    0 -0.00000000000E+00 -0.00000000000E+00 -0.32188611255E+02  0.32188611255E+02  0.00000000000E+00 0. -1.
         13    1    1    2    0    0 -0.40829112709E+02 -0.19463665727E+02  0.19563200924E+02  0.49280632327E+02  0.10566000000E+00 0. -1.
        996    1    1    2    0    0  0.40829112709E+02  0.19463665727E+02  0.48248131999E+02  0.82907978926E+02  0.50000000000E+02 0.  0.
<mgrwt>
<rscale>  0 0.67422924E+02</rscale>
<asrwt>0</asrwt>
<pdfrwt beam="1">  1       13 0.10000000E+01 0.67422924E+02</pdfrwt>
<pdfrwt beam="2">  1       22 0.32188630E+00 0.67422924E+02</pdfrwt>
<totfact> 0.18500065E-01</totfact>
</mgrwt>
</event>
<event>
 4    1  0.2409985E+000  0.5111138E+02  0.7957747E-01  0.1439438E+00
         13   -1    0    0    0    0  0.00000000000E+00  0.00000000000E+00  0.99999944180E+02  0.10000000000E+03  0.10566000000E+00 0.  1.
         22   -1    0    0    0    0 -0.00000000000E+00 -0.00000000000E+00 -0.95515542984E+01  0.95515542984E+01  0.00000000000E+00 0. -1.
         13    1    1    2    0    0  0.76943782586E+01 -0.72917316548E+01  0.17969921478E+02  0.20863893435E+02  0.10566000000E+00 0. -1.
        996    1    1    2    0    0 -0.76943782586E+01  0.72917316548E+01  0.72478468404E+02  0.88687660864E+02  0.50000000000E+02 0.  0.
<mgrwt>
<rscale>  0 0.51111376E+02</rscale>
<asrwt>0</asrwt>
<pdfrwt beam="1">  1       13 0.10000000E+01 0.51111376E+02</pdfrwt>
<pdfrwt beam="2">  1       22 0.95515795E-01 0.51111376E+02</pdfrwt>
<totfact> 0.15027876E+00</totfact>
</mgrwt>
</event>
<event>
 4    1  0.2409985E+000  0.5308590E+02  0.7957747E-01  0.1429374E+00
         13   -1    0    0    0    0  0.00000000000E+00  0.00000000000E+00  0.99999944181E+02  0.10000000000E+03  0.10566000000E+00 0.  1.
         22   -1    0    0    0    0 -0.00000000000E+00 -0.00000000000E+00 -0.13897906656E+02  0.13897906656E+02  0.00000000000E+00 0.  1.
         13    1    1    2    0    0 -0.64429096499E+00 -0.17824061671E+02  0.82068685957E+01  0.19633546330E+02  0.10566000000E+00 0. -1.
        996    1    1    2    0    0  0.64429096499E+00  0.17824061671E+02  0.77895168929E+02  0.94264360327E+02  0.50000000000E+02 0.  0.
<mgrwt>
<rscale>  0 0.53085895E+02</rscale>
<asrwt>0</asrwt>
<pdfrwt beam="1">  1       13 0.10000000E+01 0.53085895E+02</pdfrwt>
<pdfrwt beam="2">  1       22 0.13897931E+00 0.53085895E+02</pdfrwt>
<totfact> 0.85525810E-01</totfact>
</mgrwt>
</event>
<event>
 4    1  0.2409985E+000  0.6085265E+02  0.7957747E-01  0.1394288E+00
         13   -1    0    0    0    0  0.00000000000E+00  0.00000000000E+00  0.99999944176E+02  0.99999999997E+02  0.10566000000E+00 0. -1.
         22   -1    0    0    0    0 -0.00000000000E+00 -0.00000000000E+00 -0.51593024773E+02  0.51593024773E+02  0.00000000000E+00 0.  1.
         13    1    1    2    0    0 -0.34584852004E+02 -0.26330707771E+01 -0.34386790128E+02  0.48841657928E+02  0.10566000000E+00 0.  1.
        996    1    1    2    0    0  0.34584852004E+02  0.26330707771E+01  0.82793709531E+02  0.10275136684E+03  0.50000000000E+02 0.  0.
<mgrwt>
<rscale>  0 0.60852650E+02</rscale>
<asrwt>0</asrwt>
<pdfrwt beam="1">  1       13 0.10000000E+01 0.60852650E+02</pdfrwt>
<pdfrwt beam="2">  1       22 0.51593038E+00 0.60852650E+02</pdfrwt>
<totfact> 0.67880915E-02</totfact>
</mgrwt>
</event>
<event>
 4    1  0.2409985E+000  0.5267863E+02  0.7957747E-01  0.1431407E+00
         13   -1    0    0    0    0  0.00000000000E+00  0.00000000000E+00  0.99999944188E+02  0.10000000001E+03  0.10566000000E+00 0. -1.
         22   -1    0    0    0    0 -0.00000000000E+00 -0.00000000000E+00 -0.24632946660E+02  0.24632946660E+02  0.00000000000E+00 0.  1.
         13    1    1    2    0    0 -0.20944074702E+01  0.16451481048E+02 -0.13460548311E+02  0.21359665171E+02  0.10566000000E+00 0.  1.
        996    1    1    2    0    0  0.20944074702E+01 -0.16451481048E+02  0.88827545840E+02  0.10327328150E+03  0.50000000000E+02 0.  0.
<mgrwt>
<rscale>  0 0.52678627E+02</rscale>
<asrwt>0</asrwt>
<pdfrwt beam="1">  1       13 0.10000000E+01 0.52678627E+02</pdfrwt>
<pdfrwt beam="2">  1       22 0.24632968E+00 0.52678627E+02</pdfrwt>
<totfact> 0.30381713E-01</totfact>
</mgrwt>
</event>
<event>
 4    1  0.2409985E+000  0.5171093E+02  0.7957747E-01  0.1436326E+00
         13   -1    0    0    0    0  0.00000000000E+00  0.00000000000E+00  0.99999944180E+02  0.10000000000E+03  0.10566000000E+00 0. -1.
         22   -1    0    0    0    0 -0.00000000000E+00 -0.00000000000E+00 -0.11968133620E+02  0.11968133620E+02  0.00000000000E+00 0.  1.
         13    1    1    2    0    0 -0.12901085455E+02  0.27535157525E+01  0.49143155053E+01  0.14077695686E+02  0.10566000000E+00 0.  1.
        996    1    1    2    0    0  0.12901085455E+02 -0.27535157525E+01  0.83117495055E+02  0.97890437935E+02  0.50000000000E+02 0.  0.
<mgrwt>
<rscale>  0 0.51710926E+02</rscale>
<asrwt>0</asrwt>
<pdfrwt beam="1">  1       13 0.10000000E+01 0.51710926E+02</pdfrwt>
<pdfrwt beam="2">  1       22 0.11968158E+00 0.51710926E+02</pdfrwt>
<totfact> 0.10786249E+00</totfact>
</mgrwt>
</event>
<event>
 4    1  0.2409985E+000  0.5127614E+02  0.7957747E-01  0.1438577E+00
         13   -1    0    0    0    0  0.00000000000E+00  0.00000000000E+00  0.99999944183E+02  0.10000000000E+03  0.10566000000E+00 0.  1.
         22   -1    0    0    0    0 -0.00000000000E+00 -0.00000000000E+00 -0.31268316059E+02  0.31268316059E+02  0.00000000000E+00 0. -1.
         13    1    1    2    0    0 -0.58976903379E+01  0.97190254861E+01 -0.23294638745E+02  0.25920909822E+02  0.10566000000E+00 0. -1.
        996    1    1    2    0    0  0.58976903379E+01 -0.97190254861E+01  0.92026266868E+02  0.10534740624E+03  0.50000000000E+02 0.  0.
<mgrwt>
<rscale>  0 0.51276137E+02</rscale>
<asrwt>0</asrwt>
<pdfrwt beam="1">  1       13 0.10000000E+01 0.51276137E+02</pdfrwt>
<pdfrwt beam="2">  1       22 0.31268335E+00 0.51276137E+02</pdfrwt>
<totfact> 0.19165084E-01</totfact>
</mgrwt>
</event>
<event>
 4    1  0.2409985E+000  0.6584423E+02  0.7957747E-01  0.1374824E+00
         13   -1    0    0    0    0  0.00000000000E+00  0.00000000000E+00  0.99999944181E+02  0.10000000000E+03  0.10566000000E+00 0.  1.
         22   -1    0    0    0    0 -0.00000000000E+00 -0.00000000000E+00 -0.29801647516E+02  0.29801647516E+02  0.00000000000E+00 0. -1.
         13    1    1    2    0    0  0.33985705571E+02  0.26085127760E+02  0.21702733389E+02  0.48025845896E+02  0.10566000000E+00 0. -1.
        996    1    1    2    0    0 -0.33985705571E+02 -0.26085127760E+02  0.48495563276E+02  0.81775801622E+02  0.50000000000E+02 0.  0.
<mgrwt>
<rscale>  0 0.65844226E+02</rscale>
<asrwt>0</asrwt>
<pdfrwt beam="1">  1       13 0.10000000E+01 0.65844226E+02</pdfrwt>
<pdfrwt beam="2">  1       22 0.29801667E+00 0.65844226E+02</pdfrwt>
<totfact> 0.21304324E-01</totfact>
</mgrwt>
</event>
<event>
 4    1  0.2409985E+000  0.6221390E+02  0.7957747E-01  0.1388769E+00
         13   -1    0    0    0    0  0.00000000000E+00  0.00000000000E+00  0.99999944172E+02  0.99999999992E+02  0.10566000000E+00 0.  1.
         22   -1    0    0    0    0 -0.00000000000E+00 -0.00000000000E+00 -0.24881187756E+02  0.24881187756E+02  0.00000000000E+00 0.  1.
         13    1    1    2    0    0 -0.13423693289E+02  0.34501797113E+02  0.21923605904E+02  0.43025866702E+02  0.10566000000E+00 0. -1.
        996    1    1    2    0    0  0.13423693289E+02 -0.34501797113E+02  0.53195150512E+02  0.81855321046E+02  0.50000000000E+02 0.  0.
<mgrwt>
<rscale>  0 0.62213902E+02</rscale>
<asrwt>0</asrwt>
<pdfrwt beam="1">  1       13 0.10000000E+01 0.62213902E+02</pdfrwt>
<pdfrwt beam="2">  1       22 0.24881209E+00 0.62213902E+02</pdfrwt>
<totfact> 0.30194231E-01</totfact>
</mgrwt>
</event>
<event>
 4    1  0.2409985E+000  0.5561390E+02  0.7957747E-01  0.1417218E+00
         13   -1    0    0    0    0  0.00000000000E+00  0.00000000000E+00  0.99999944177E+02  0.99999999997E+02  0.10566000000E+00 0. -1.
         22   -1    0    0    0    0 -0.00000000000E+00 -0.00000000000E+00 -0.15986510696E+02  0.15986510696E+02  0.00000000000E+00 0.  1.
         13    1    1    2    0    0 -0.24148379445E+02 -0.31242775263E+01  0.25157307616E+02  0.35011521395E+02  0.10566000000E+00 0.  1.
        996    1    1    2    0    0  0.24148379445E+02  0.31242775263E+01  0.58856125865E+02  0.80974989297E+02  0.50000000000E+02 0.  0.
<mgrwt>
<rscale>  0 0.55613895E+02</rscale>
<asrwt>0</asrwt>
<pdfrwt beam="1">  1       13 0.10000000E+01 0.55613895E+02</pdfrwt>
<pdfrwt beam="2">  1       22 0.15986534E+00 0.55613895E+02</pdfrwt>
<totfact> 0.68092492E-01</totfact>
</mgrwt>
</event>
<event>
 4    1  0.2409985E+000  0.6442672E+02  0.7957747E-01  0.1380141E+00
         13   -1    0    0    0    0  0.00000000000E+00  0.00000000000E+00  0.99999944177E+02  0.99999999997E+02  0.10566000000E+00 0. -1.
         22   -1    0    0    0    0 -0.00000000000E+00 -0.00000000000E+00 -0.39984973570E+02  0.39984973570E+02  0.00000000000E+00 0. -1.
         13    1    1    2    0    0 -0.14530878519E+01 -0.40604070026E+02  0.63586908848E+02  0.75459314255E+02  0.10566000000E+00 0.  1.
        996    1    1    2    0    0  0.14530878519E+01  0.40604070026E+02 -0.35719382411E+01  0.64525659313E+02  0.50000000000E+02 0.  0.
<mgrwt>
<rscale>  0 0.64426718E+02</rscale>
<asrwt>0</asrwt>
<pdfrwt beam="1">  1       13 0.10000000E+01 0.64426718E+02</pdfrwt>
<pdfrwt beam="2">  1       22 0.39984990E+00 0.64426718E+02</pdfrwt>
<totfact> 0.12485220E-01</totfact>
</mgrwt>
</event>
<event>
 4    1  0.2409985E+000  0.5405616E+02  0.7957747E-01  0.1424616E+00
         13   -1    0    0    0    0  0.00000000000E+00  0.00000000000E+00  0.99999944174E+02  0.99999999994E+02  0.10566000000E+00 0.  1.
         22   -1    0    0    0    0 -0.00000000000E+00 -0.00000000000E+00 -0.20806510960E+02  0.20806510960E+02  0.00000000000E+00 0. -1.
         13    1    1    2    0    0  0.12882252061E+02  0.16003610768E+02 -0.46345682492E+01  0.21060825308E+02  0.10566000000E+00 0. -1.
        996    1    1    2    0    0 -0.12882252061E+02 -0.16003610768E+02  0.83828001463E+02  0.99745685646E+02  0.50000000000E+02 0.  0.
<mgrwt>
<rscale>  0 0.54056156E+02</rscale>
<asrwt>0</asrwt>
<pdfrwt beam="1">  1       13 0.10000000E+01 0.54056156E+02</pdfrwt>
<pdfrwt beam="2">  1       22 0.20806533E+00 0.54056156E+02</pdfrwt>
<totfact> 0.42214903E-01</totfact>
</mgrwt>
</event>
<event>
 4    1  0.2409985E+000  0.5106953E+02  0.7957747E-01  0.1439657E+00
         13   -1    0    0    0    0  0.00000000000E+00  0.00000000000E+00  0.99999944183E+02  0.10000000000E+03  0.10566000000E+00 0.  1.
         22   -1    0    0    0    0 -0.00000000000E+00 -0.00000000000E+00 -0.12342287433E+02  0.12342287433E+02  0.00000000000E+00 0.  1.
         13    1    1    2    0    0  0.90834412889E+01  0.50584372806E+01  0.43824881490E+02  0.45041404230E+02  0.10566000000E+00 0. -1.
        996    1    1    2    0    0 -0.90834412889E+01 -0.50584372806E+01  0.43832775261E+02  0.67300883207E+02  0.50000000000E+02 0.  0.
<mgrwt>
<rscale>  0 0.51069528E+02</rscale>
<asrwt>0</asrwt>
<pdfrwt beam="1">  1       13 0.10000000E+01 0.51069528E+02</pdfrwt>
<pdfrwt beam="2">  1       22 0.12342312E+00 0.51069528E+02</pdfrwt>
<totfact> 0.10272627E+00</totfact>
</mgrwt>
</event>
<event>
 4    1  0.2409985E+000  0.5121013E+02  0.7957747E-01  0.1438922E+00
         13   -1    0    0    0    0  0.00000000000E+00  0.00000000000E+00  0.99999944179E+02  0.99999999999E+02  0.10566000000E+00 0.  1.
         22   -1    0    0    0    0 -0.00000000000E+00 -0.00000000000E+00 -0.10405911883E+02  0.10405911883E+02  0.00000000000E+00 0. -1.
         13    1    1    2    0    0 -0.75116330564E+01 -0.81272808958E+01  0.66052935066E+01  0.12888692419E+02  0.10566000000E+00 0. -1.
        996    1    1    2    0    0  0.75116330564E+01  0.81272808958E+01  0.82988738790E+02  0.97517219463E+02  0.50000000000E+02 0.  0.
<mgrwt>
<rscale>  0 0.51210129E+02</rscale>
<asrwt>0</asrwt>
<pdfrwt beam="1">  1       13 0.10000000E+01 0.51210129E+02</pdfrwt>
<pdfrwt beam="2">  1       22 0.10405937E+00 0.51210129E+02</pdfrwt>
<totfact> 0.13279069E+00</totfact>
</mgrwt>
</event>
<event>
 4    1  0.2409985E+000  0.5627283E+02  0.7957747E-01  0.1414174E+00
         13   -1    0    0    0    0  0.00000000000E+00  0.00000000000E+00  0.99999944171E+02  0.99999999992E+02  0.10566000000E+00 0. -1.
         22   -1    0    0    0    0 -0.00000000000E+00 -0.00000000000E+00 -0.57778383941E+02  0.57778383941E+02  0.00000000000E+00 0.  1.
         13    1    1    2    0    0 -0.10533842118E+02  0.23572654392E+02 -0.46225488039E+02  0.52947509605E+02  0.10566000000E+00 0.  1.
        996    1    1    2    0    0  0.10533842118E+02 -0.23572654392E+02  0.88447048269E+02  0.10483087433E+03  0.50000000000E+02 0.  0.
<mgrwt>
<rscale>  0 0.56272834E+02</rscale>
<asrwt>0</asrwt>
<pdfrwt beam="1">  1       13 0.10000000E+01 0.56272834E+02</pdfrwt>
<pdfrwt beam="2">  1       22 0.57778396E+00 0.56272834E+02</pdfrwt>
<totfact> 0.58057489E-02</totfact>
</mgrwt>
</event>
<event>
 4    1  0.2409985E+000  0.5194024E+02  0.7957747E-01  0.1435149E+00
         13   -1    0    0    0    0  0.00000000000E+00  0.00000000000E+00  0.99999944180E+02  0.10000000000E+03  0.10566000000E+00 0. -1.
         22   -1    0    0    0    0 -0.00000000000E+00 -0.00000000000E+00 -0.11205826048E+02  0.11205826048E+02  0.00000000000E+00 0. -1.
         13    1    1    2    0    0 -0.87367580869E+01  0.11020765644E+02  0.11954935932E+02  0.18458598929E+02  0.10566000000E+00 0.  1.
        996    1    1    2    0    0  0.87367580869E+01 -0.11020765644E+02  0.76839182199E+02  0.92747227119E+02  0.50000000000E+02 0.  0.
<mgrwt>
<rscale>  0 0.51940237E+02</rscale>
<asrwt>0</asrwt>
<pdfrwt beam="1">  1       13 0.10000000E+01 0.51940237E+02</pdfrwt>
<pdfrwt beam="2">  1       22 0.11205851E+00 0.51940237E+02</pdfrwt>
<totfact> 0.11921197E+00</totfact>
</mgrwt>
</event>
<event>
 4    1  0.2409985E+000  0.6979989E+02  0.7957747E-01  0.1360775E+00
         13   -1    0    0    0    0  0.00000000000E+00  0.00000000000E+00  0.99999944176E+02  0.99999999996E+02  0.10566000000E+00 0.  1.
         22   -1    0    0    0    0 -0.00000000000E+00 -0.00000000000E+00 -0.45120653177E+02  0.45120653177E+02  0.00000000000E+00 0. -1.
         13    1    1    2    0    0  0.11533937035E+02 -0.47317991912E+02 -0.10118842333E+02  0.49743604577E+02  0.10566000000E+00 0. -1.
        996    1    1    2    0    0 -0.11533937035E+02  0.47317991912E+02  0.64998133333E+02  0.95377048596E+02  0.50000000000E+02 0.  0.
<mgrwt>
<rscale>  0 0.69799886E+02</rscale>
<asrwt>0</asrwt>
<pdfrwt beam="1">  1       13 0.10000000E+01 0.69799886E+02</pdfrwt>
<pdfrwt beam="2">  1       22 0.45120669E+00 0.69799886E+02</pdfrwt>
<totfact> 0.96883130E-02</totfact>
</mgrwt>
</event>
<event>
 4    1  0.2409985E+000  0.5115021E+02  0.7957747E-01  0.1439235E+00
         13   -1    0    0    0    0  0.00000000000E+00  0.00000000000E+00  0.99999944180E+02  0.10000000000E+03  0.10566000000E+00 0.  1.
         22   -1    0    0    0    0 -0.00000000000E+00 -0.00000000000E+00 -0.11617071102E+02  0.11617071102E+02  0.00000000000E+00 0.  1.
         13    1    1    2    0    0  0.18090705655E+01  0.10633496995E+02  0.16323902635E+01  0.10909622206E+02  0.10566000000E+00 0. -1.
        996    1    1    2    0    0 -0.18090705655E+01 -0.10633496995E+02  0.86750482815E+02  0.10070744890E+03  0.50000000000E+02 0.  0.
<mgrwt>
<rscale>  0 0.51150210E+02</rscale>
<asrwt>0</asrwt>
<pdfrwt beam="1">  1       13 0.10000000E+01 0.51150210E+02</pdfrwt>
<pdfrwt beam="2">  1       22 0.11617096E+00 0.51150210E+02</pdfrwt>
<totfact> 0.11271545E+00</totfact>
</mgrwt>
</event>
<event>
 4    1  0.2409985E+000  0.6822822E+02  0.7957747E-01  0.1366224E+00
         13   -1    0    0    0    0  0.00000000000E+00  0.00000000000E+00  0.99999944173E+02  0.99999999993E+02  0.10566000000E+00 0. -1.
         22   -1    0    0    0    0 -0.00000000000E+00 -0.00000000000E+00 -0.32912091057E+02  0.32912091057E+02  0.00000000000E+00 0.  1.
         13    1    1    2    0    0  0.25311324939E+02  0.38915639627E+02  0.24635667237E+02  0.52554899315E+02  0.10566000000E+00 0.  1.
        996    1    1    2    0    0 -0.25311324939E+02 -0.38915639627E+02  0.42452185879E+02  0.80357191736E+02  0.50000000000E+02 0.  0.
<mgrwt>
<rscale>  0 0.68228221E+02</rscale>
<asrwt>0</asrwt>
<pdfrwt beam="1">  1       13 0.10000000E+01 0.68228221E+02</pdfrwt>
<pdfrwt beam="2">  1       22 0.32912110E+00 0.68228221E+02</pdfrwt>
<totfact> 0.17786778E-01</totfact>
</mgrwt>
</event>
<event>
 4    1  0.2409985E+000  0.7454048E+02  0.7957747E-01  0.1345300E+00
         13   -1    0    0    0    0  0.00000000000E+00  0.00000000000E+00  0.99999944171E+02  0.99999999991E+02  0.10566000000E+00 0.  1.
         22   -1    0    0    0    0 -0.00000000000E+00 -0.00000000000E+00 -0.61635700897E+02  0.61635700897E+02  0.00000000000E+00 0. -1.
         13    1    1    2    0    0  0.23256194461E+01 -0.55234727293E+02 -0.27877473609E+02  0.61914847200E+02  0.10566000000E+00 0. -1.
        996    1    1    2    0    0 -0.23256194461E+01  0.55234727293E+02  0.66241716883E+02  0.99720853689E+02  0.50000000000E+02 0.  0.
<mgrwt>
<rscale>  0 0.74540483E+02</rscale>
<asrwt>0</asrwt>
<pdfrwt beam="1">  1       13 0.10000000E+01 0.74540483E+02</pdfrwt>
<pdfrwt beam="2">  1       22 0.61635712E+00 0.74540483E+02</pdfrwt>
<totfact> 0.70895266E-02</totfact>
</mgrwt>
</event>
<event>
 4    1  0.2409985E+000  0.5183696E+02  0.7957747E-01  0.1435678E+00
         13   -1    0    0    0    0  0.00000000000E+00  0.00000000000E+00  0.99999944177E+02  0.99999999997E+02  0.10566000000E+00 0. -1.
         22   -1    0    0    0    0 -0.00000000000E+00 -0.00000000000E+00 -0.10750907365E+02  0.10750907365E+02  0.00000000000E+00 0.  1.
         13    1    1    2    0    0  0.62112601420E-01 -0.13677241109E+02  0.16717065219E+02  0.21599588327E+02  0.10566000000E+00 0.  1.
        996    1    1    2    0    0 -0.62112601420E-01  0.13677241109E+02  0.72531971593E+02  0.89151319034E+02  0.50000000000E+02 0.  0.
<mgrwt>
<rscale>  0 0.51836963E+02</rscale>
<asrwt>0</asrwt>
<pdfrwt beam="1">  1       13 0.10000000E+01 0.51836963E+02</pdfrwt>
<pdfrwt beam="2">  1       22 0.10750932E+00 0.51836963E+02</pdfrwt>
<totfact> 0.12675915E+00</totfact>
</mgrwt>
</event>
<event>
 4    1  0.2409985E+000  0.5119491E+02  0.7957747E-01  0.1439001E+00
         13   -1    0    0    0    0  0.00000000000E+00  0.00000000000E+00  0.99999944180E+02  0.10000000000E+03  0.10566000000E+00 0.  1.
         22   -1    0    0    0    0 -0.00000000000E+00 -0.00000000000E+00 -0.16541905558E+02  0.16541905558E+02  0.00000000000E+00 0.  1.
         13    1    1    2    0    0 -0.29485681089E+01  0.10593609200E+02 -0.66895905591E+01  0.12871689697E+02  0.10566000000E+00 0. -1.
        996    1    1    2    0    0  0.29485681089E+01 -0.10593609200E+02  0.90147629181E+02  0.10367021586E+03  0.50000000000E+02 0.  0.
<mgrwt>
<rscale>  0 0.51194908E+02</rscale>
<asrwt>0</asrwt>
<pdfrwt beam="1">  1       13 0.10000000E+01 0.51194908E+02</pdfrwt>
<pdfrwt beam="2">  1       22 0.16541929E+00 0.51194908E+02</pdfrwt>
<totfact> 0.63661042E-01</totfact>
</mgrwt>
</event>
<event>
 4    1  0.2409985E+000  0.5099094E+02  0.7957747E-01  0.1440069E+00
         13   -1    0    0    0    0  0.00000000000E+00  0.00000000000E+00  0.99999944185E+02  0.10000000000E+03  0.10566000000E+00 0.  1.
         22   -1    0    0    0    0 -0.00000000000E+00 -0.00000000000E+00 -0.10034442485E+02  0.10034442485E+02  0.00000000000E+00 0.  1.
         13    1    1    2    0    0 -0.56435030070E+01  0.82599747075E+01  0.56233834856E+01  0.11476493986E+02  0.10566000000E+00 0. -1.
        996    1    1    2    0    0  0.56435030070E+01 -0.82599747075E+01  0.84342118214E+02  0.98557948503E+02  0.50000000000E+02 0.  0.
<mgrwt>
<rscale>  0 0.50990943E+02</rscale>
<asrwt>0</asrwt>
<pdfrwt beam="1">  1       13 0.10000000E+01 0.50990943E+02</pdfrwt>
<pdfrwt beam="2">  1       22 0.10034468E+00 0.50990943E+02</pdfrwt>
<totfact> 0.13993564E+00</totfact>
</mgrwt>
</event>
<event>
 4    1  0.2409985E+000  0.6081852E+02  0.7957747E-01  0.1394429E+00
         13   -1    0    0    0    0  0.00000000000E+00  0.00000000000E+00  0.99999944182E+02  0.10000000000E+03  0.10566000000E+00 0.  1.
         22   -1    0    0    0    0 -0.00000000000E+00 -0.00000000000E+00 -0.64780396087E+02  0.64780396087E+02  0.00000000000E+00 0. -1.
         13    1    1    2    0    0  0.70645989421E+01 -0.33896667335E+02 -0.49550671559E+02  0.60449754595E+02  0.10566000000E+00 0. -1.
        996    1    1    2    0    0 -0.70645989421E+01  0.33896667335E+02  0.84770219653E+02  0.10433064149E+03  0.50000000000E+02 0.  0.
<mgrwt>
<rscale>  0 0.60818522E+02</rscale>
<asrwt>0</asrwt>
<pdfrwt beam="1">  1       13 0.10000000E+01 0.60818522E+02</pdfrwt>
<pdfrwt beam="2">  1       22 0.64780406E+00 0.60818522E+02</pdfrwt>
<totfact> 0.85879994E-02</totfact>
</mgrwt>
</event>
<event>
 4    1  0.2409985E+000  0.5284424E+02  0.7957747E-01  0.1430578E+00
         13   -1    0    0    0    0  0.00000000000E+00  0.00000000000E+00  0.99999944173E+02  0.99999999993E+02  0.10566000000E+00 0. -1.
         22   -1    0    0    0    0 -0.00000000000E+00 -0.00000000000E+00 -0.18415349658E+02  0.18415349658E+02  0.00000000000E+00 0.  1.
         13    1    1    2    0    0  0.14197241347E+02  0.95368838252E+01 -0.42450378760E+01  0.17622296263E+02  0.10566000000E+00 0.  1.
        996    1    1    2    0    0 -0.14197241347E+02 -0.95368838252E+01  0.85829632391E+02  0.10079305339E+03  0.50000000000E+02 0.  0.
<mgrwt>
<rscale>  0 0.52844241E+02</rscale>
<asrwt>0</asrwt>
<pdfrwt beam="1">  1       13 0.10000000E+01 0.52844241E+02</pdfrwt>
<pdfrwt beam="2">  1       22 0.18415372E+00 0.52844241E+02</pdfrwt>
<totfact> 0.52811493E-01</totfact>
</mgrwt>
</event>
<event>
 4    1  0.2409985E+000  0.5591041E+02  0.7957747E-01  0.1415842E+00
         13   -1    0    0    0    0  0.00000000000E+00  0.00000000000E+00  0.99999944186E+02  0.10000000001E+03  0.10566000000E+00 0.  1.
         22   -1    0    0    0    0 -0.00000000000E+00 -0.00000000000E+00 -0.67756662329E+02  0.67756662329E+02  0.00000000000E+00 0. -1.
         13    1    1    2    0    0  0.12422278383E+02 -0.21717754116E+02 -0.57111497960E+02  0.62351489215E+02  0.10566000000E+00 0. -1.
        996    1    1    2    0    0 -0.12422278383E+02  0.21717754116E+02  0.89354779818E+02  0.10540517312E+03  0.50000000000E+02 0.  0.
<mgrwt>
<rscale>  0 0.55910409E+02</rscale>
<asrwt>0</asrwt>
<pdfrwt beam="1">  1       13 0.10000000E+01 0.55910409E+02</pdfrwt>
<pdfrwt beam="2">  1       22 0.67756671E+00 0.55910409E+02</pdfrwt>
<totfact> 0.84282682E-02</totfact>
</mgrwt>
</event>
<event>
 4    1  0.2409985E+000  0.5637400E+02  0.7957747E-01  0.1413711E+00
         13   -1    0    0    0    0  0.00000000000E+00  0.00000000000E+00  0.99999944184E+02  0.10000000000E+03  0.10566000000E+00 0.  1.
         22   -1    0    0    0    0 -0.00000000000E+00 -0.00000000000E+00 -0.61824449710E+02  0.61824449710E+02  0.00000000000E+00 0. -1.
         13    1    1    2    0    0  0.23576255144E+02 -0.11053862581E+02 -0.50458725338E+02  0.56781350911E+02  0.10566000000E+00 0. -1.
        996    1    1    2    0    0 -0.23576255144E+02  0.11053862581E+02  0.88634219811E+02  0.10504309880E+03  0.50000000000E+02 0.  0.
<mgrwt>
<rscale>  0 0.56373998E+02</rscale>
<asrwt>0</asrwt>
<pdfrwt beam="1">  1       13 0.10000000E+01 0.56373998E+02</pdfrwt>
<pdfrwt beam="2">  1       22 0.61824460E+00 0.56373998E+02</pdfrwt>
<totfact> 0.71904167E-02</totfact>
</mgrwt>
</event>
<event>
 4    1  0.2409985E+000  0.5294710E+02  0.7957747E-01  0.1430064E+00
         13   -1    0    0    0    0  0.00000000000E+00  0.00000000000E+00  0.99999944184E+02  0.10000000000E+03  0.10566000000E+00 0. -1.
         22   -1    0    0    0    0 -0.00000000000E+00 -0.00000000000E+00 -0.12627662140E+02  0.12627662140E+02  0.00000000000E+00 0. -1.
         13    1    1    2    0    0  0.16962980576E+02 -0.39563117969E+01  0.15210169880E+02  0.23124782050E+02  0.10566000000E+00 0.  1.
        996    1    1    2    0    0 -0.16962980576E+02  0.39563117969E+01  0.72162112164E+02  0.89502880094E+02  0.50000000000E+02 0.  0.
<mgrwt>
<rscale>  0 0.52947097E+02</rscale>
<asrwt>0</asrwt>
<pdfrwt beam="1">  1       13 0.10000000E+01 0.52947097E+02</pdfrwt>
<pdfrwt beam="2">  1       22 0.12627687E+00 0.52947097E+02</pdfrwt>
<totfact> 0.99554155E-01</totfact>
</mgrwt>
</event>
<event>
 4    1  0.2409985E+000  0.5744778E+02  0.7957747E-01  0.1408865E+00
         13   -1    0    0    0    0  0.00000000000E+00  0.00000000000E+00  0.99999944186E+02  0.10000000001E+03  0.10566000000E+00 0.  1.
         22   -1    0    0    0    0 -0.00000000000E+00 -0.00000000000E+00 -0.19071643155E+02  0.19071643155E+02  0.00000000000E+00 0. -1.
         13    1    1    2    0    0  0.28179964195E+02  0.24772337965E+01  0.16492455331E+02  0.32745370912E+02  0.10566000000E+00 0. -1.
        996    1    1    2    0    0 -0.28179964195E+02 -0.24772337965E+01  0.64435845700E+02  0.86326272249E+02  0.50000000000E+02 0.  0.
<mgrwt>
<rscale>  0 0.57447777E+02</rscale>
<asrwt>0</asrwt>
<pdfrwt beam="1">  1       13 0.10000000E+01 0.57447777E+02</pdfrwt>
<pdfrwt beam="2">  1       22 0.19071666E+00 0.57447777E+02</pdfrwt>
<totfact> 0.49942425E-01</totfact>
</mgrwt>
</event>
<event>
 4    1  0.2409985E+000  0.5451138E+02  0.7957747E-01  0.1422424E+00
         13   -1    0    0    0    0  0.00000000000E+00  0.00000000000E+00  0.99999944175E+02  0.99999999995E+02  0.10566000000E+00 0.  1.
         22   -1    0    0    0    0 -0.00000000000E+00 -0.00000000000E+00 -0.24383081526E+02  0.24383081526E+02  0.00000000000E+00 0. -1.
         13    1    1    2    0    0 -0.20408688592E+02 -0.74145874964E+01 -0.91812010969E+01  0.23575332350E+02  0.10566000000E+00 0. -1.
        996    1    1    2    0    0  0.20408688592E+02  0.74145874964E+01  0.84798063746E+02  0.10080774917E+03  0.50000000000E+02 0.  0.
<mgrwt>
<rscale>  0 0.54511381E+02</rscale>
<asrwt>0</asrwt>
<pdfrwt beam="1">  1       13 0.10000000E+01 0.54511381E+02</pdfrwt>
<pdfrwt beam="2">  1       22 0.24383103E+00 0.54511381E+02</pdfrwt>
<totfact> 0.31084448E-01</totfact>
</mgrwt>
</event>
<event>
 4    1  0.2409985E+000  0.5300869E+02  0.7957747E-01  0.1429758E+00
         13   -1    0    0    0    0  0.00000000000E+00  0.00000000000E+00  0.99999944177E+02  0.99999999997E+02  0.10566000000E+00 0.  1.
         22   -1    0    0    0    0 -0.00000000000E+00 -0.00000000000E+00 -0.35771821500E+02  0.35771821500E+02  0.00000000000E+00 0. -1.
         13    1    1    2    0    0  0.14928430451E+02 -0.93307694549E+01 -0.25837242611E+02  0.31264925462E+02  0.10566000000E+00 0. -1.
        996    1    1    2    0    0 -0.14928430451E+02  0.93307694549E+01  0.90065365288E+02  0.10450689604E+03  0.50000000000E+02 0.  0.
<mgrwt>
<rscale>  0 0.53008691E+02</rscale>
<asrwt>0</asrwt>
<pdfrwt beam="1">  1       13 0.10000000E+01 0.53008691E+02</pdfrwt>
<pdfrwt beam="2">  1       22 0.35771839E+00 0.53008691E+02</pdfrwt>
<totfact> 0.15142825E-01</totfact>
</mgrwt>
</event>
<event>
 4    1  0.2409985E+000  0.5834359E+02  0.7957747E-01  0.1404917E+00
         13   -1    0    0    0    0  0.00000000000E+00  0.00000000000E+00  0.99999944168E+02  0.99999999989E+02  0.10566000000E+00 0. -1.
         22   -1    0    0    0    0 -0.00000000000E+00 -0.00000000000E+00 -0.19913465639E+02  0.19913465639E+02  0.00000000000E+00 0. -1.
         13    1    1    2    0    0  0.28786861009E+02 -0.86770292461E+01  0.35255245813E+02  0.46334843527E+02  0.10566000000E+00 0.  1.
        996    1    1    2    0    0 -0.28786861009E+02  0.86770292461E+01  0.44831232716E+02  0.73578622100E+02  0.50000000000E+02 0.  0.
<mgrwt>
<rscale>  0 0.58343588E+02</rscale>
<asrwt>0</asrwt>
<pdfrwt beam="1">  1       13 0.10000000E+01 0.58343588E+02</pdfrwt>
<pdfrwt beam="2">  1       22 0.19913488E+00 0.58343588E+02</pdfrwt>
<totfact> 0.46167800E-01</totfact>
</mgrwt>
</event>
<event>
 4    1  0.2409985E+000  0.5195328E+02  0.7957747E-01  0.1435082E+00
         13   -1    0    0    0    0  0.00000000000E+00  0.00000000000E+00  0.99999944182E+02  0.10000000000E+03  0.10566000000E+00 0. -1.
         22   -1    0    0    0    0 -0.00000000000E+00 -0.00000000000E+00 -0.12301214773E+02  0.12301214773E+02  0.00000000000E+00 0.  1.
         13    1    1    2    0    0 -0.47221600505E+01  0.13298307981E+02  0.56797743860E+01  0.15212323682E+02  0.10566000000E+00 0.  1.
        996    1    1    2    0    0  0.47221600505E+01 -0.13298307981E+02  0.82018955023E+02  0.97088891093E+02  0.50000000000E+02 0.  0.
<mgrwt>
<rscale>  0 0.51953285E+02</rscale>
<asrwt>0</asrwt>
<pdfrwt beam="1">  1       13 0.10000000E+01 0.51953285E+02</pdfrwt>
<pdfrwt beam="2">  1       22 0.12301239E+00 0.51953285E+02</pdfrwt>
<totfact> 0.10346085E+00</totfact>
</mgrwt>
</event>
<event>
 4    1  0.2409985E+000  0.5174831E+02  0.7957747E-01  0.1436133E+00
         13   -1    0    0    0    0  0.00000000000E+00  0.00000000000E+00  0.99999944172E+02  0.99999999992E+02  0.10566000000E+00 0. -1.
         22   -1    0    0    0    0 -0.00000000000E+00 -0.00000000000E+00 -0.10671609986E+02  0.10671609986E+02  0.00000000000E+00 0. -1.
         13    1    1    2    0    0  0.65127017245E+00 -0.13321529388E+02  0.14603515749E+02  0.19777793971E+02  0.10566000000E+00 0.  1.
        996    1    1    2    0    0 -0.65127017245E+00  0.13321529388E+02  0.74724818437E+02  0.90893816008E+02  0.50000000000E+02 0.  0.
<mgrwt>
<rscale>  0 0.51748307E+02</rscale>
<asrwt>0</asrwt>
<pdfrwt beam="1">  1       13 0.10000000E+01 0.51748307E+02</pdfrwt>
<pdfrwt beam="2">  1       22 0.10671635E+00 0.51748307E+02</pdfrwt>
<totfact> 0.12812547E+00</totfact>
</mgrwt>
</event>
<event>
 4    1  0.2409985E+000  0.5112892E+02  0.7957747E-01  0.1439346E+00
         13   -1    0    0    0    0  0.00000000000E+00  0.00000000000E+00  0.99999944177E+02  0.99999999997E+02  0.10566000000E+00 0.  1.
         22   -1    0    0    0    0 -0.00000000000E+00 -0.00000000000E+00 -0.98229040684E+01  0.98229040684E+01  0.00000000000E+00 0.  1.
         13    1    1    2    0    0 -0.93451316902E+01  0.51802074056E+01  0.94396097347E+01  0.14257749859E+02  0.10566000000E+00 0. -1.
        996    1    1    2    0    0  0.93451316902E+01 -0.51802074056E+01  0.80737430374E+02  0.95565154206E+02  0.50000000000E+02 0.  0.
<mgrwt>
<rscale>  0 0.51128916E+02</rscale>
<asrwt>0</asrwt>
<pdfrwt beam="1">  1       13 0.10000000E+01 0.51128916E+02</pdfrwt>
<pdfrwt beam="2">  1       22 0.98229292E-01 0.51128916E+02</pdfrwt>
<totfact> 0.14436024E+00</totfact>
</mgrwt>
</event>
<event>
 4    1  0.2409985E+000  0.5131799E+02  0.7957747E-01  0.1438360E+00
         13   -1    0    0    0    0  0.00000000000E+00  0.00000000000E+00  0.99999944176E+02  0.99999999996E+02  0.10566000000E+00 0.  1.
         22   -1    0    0    0    0 -0.00000000000E+00 -0.00000000000E+00 -0.21174191516E+02  0.21174191516E+02  0.00000000000E+00 0.  1.
         13    1    1    2    0    0  0.82536957032E+01 -0.80878068594E+01 -0.12121498483E+02  0.16747477483E+02  0.10566000000E+00 0. -1.
        996    1    1    2    0    0 -0.82536957032E+01  0.80878068594E+01  0.90947251142E+02  0.10442671403E+03  0.50000000000E+02 0.  0.
<mgrwt>
<rscale>  0 0.51317990E+02</rscale>
<asrwt>0</asrwt>
<pdfrwt beam="1">  1       13 0.10000000E+01 0.51317990E+02</pdfrwt>
<pdfrwt beam="2">  1       22 0.21174214E+00 0.51317990E+02</pdfrwt>
<totfact> 0.40642825E-01</totfact>
</mgrwt>
</event>
<event>
 4    1  0.2409985E+000  0.5374691E+02  0.7957747E-01  0.1426119E+00
         13   -1    0    0    0    0  0.00000000000E+00  0.00000000000E+00  0.99999944176E+02  0.99999999996E+02  0.10566000000E+00 0. -1.
         22   -1    0    0    0    0 -0.00000000000E+00 -0.00000000000E+00 -0.18570274980E+02  0.18570274980E+02  0.00000000000E+00 0. -1.
         13    1    1    2    0    0 -0.19713863863E+02  0.30725944005E+00 -0.14708780079E+01  0.19771329822E+02  0.10566000000E+00 0.  1.
        996    1    1    2    0    0  0.19713863863E+02 -0.30725944005E+00  0.82900547204E+02  0.98798945154E+02  0.50000000000E+02 0.  0.
<mgrwt>
<rscale>  0 0.53746915E+02</rscale>
<asrwt>0</asrwt>
<pdfrwt beam="1">  1       13 0.10000000E+01 0.53746915E+02</pdfrwt>
<pdfrwt beam="2">  1       22 0.18570298E+00 0.53746915E+02</pdfrwt>
<totfact> 0.52100755E-01</totfact>
</mgrwt>
</event>
<event>
 4    1  0.2409985E+000  0.5443006E+02  0.7957747E-01  0.1422814E+00
         13   -1    0    0    0    0  0.00000000000E+00  0.00000000000E+00  0.99999944180E+02  0.10000000000E+03  0.10566000000E+00 0.  1.
         22   -1    0    0    0    0 -0.00000000000E+00 -0.00000000000E+00 -0.17283199779E+02  0.17283199779E+02  0.00000000000E+00 0.  1.
         13    1    1    2    0    0 -0.87804702255E+01  0.19635031643E+02  0.44727844260E+01  0.21969253278E+02  0.10566000000E+00 0. -1.
        996    1    1    2    0    0  0.87804702255E+01 -0.19635031643E+02  0.78243959976E+02  0.95313946501E+02  0.50000000000E+02 0.  0.
<mgrwt>
<rscale>  0 0.54430057E+02</rscale>
<asrwt>0</asrwt>
<pdfrwt beam="1">  1       13 0.10000000E+01 0.54430057E+02</pdfrwt>
<pdfrwt beam="2">  1       22 0.17283223E+00 0.54430057E+02</pdfrwt>
<totfact> 0.59327841E-01</totfact>
</mgrwt>
</event>
<event>
 4    1  0.2409985E+000  0.5141852E+02  0.7957747E-01  0.1437837E+00
         13   -1    0    0    0    0  0.00000000000E+00  0.00000000000E+00  0.99999944180E+02  0.10000000000E+03  0.10566000000E+00 0. -1.
         22   -1    0    0    0    0 -0.00000000000E+00 -0.00000000000E+00 -0.11424415504E+02  0.11424415504E+02  0.00000000000E+00 0. -1.
         13    1    1    2    0    0 -0.11881172832E+02 -0.16437866619E+01  0.43795726645E+01  0.12769343100E+02  0.10566000000E+00 0.  1.
        996    1    1    2    0    0  0.11881172832E+02  0.16437866619E+01  0.84195956012E+02  0.98655072405E+02  0.50000000000E+02 0.  0.
<mgrwt>
<rscale>  0 0.51418521E+02</rscale>
<asrwt>0</asrwt>
<pdfrwt beam="1">  1       13 0.10000000E+01 0.51418521E+02</pdfrwt>
<pdfrwt beam="2">  1       22 0.11424440E+00 0.51418521E+02</pdfrwt>
<totfact> 0.11566689E+00</totfact>
</mgrwt>
</event>
<event>
 4    1  0.2409985E+000  0.5169197E+02  0.7957747E-01  0.1436423E+00
         13   -1    0    0    0    0  0.00000000000E+00  0.00000000000E+00  0.99999944178E+02  0.99999999998E+02  0.10566000000E+00 0.  1.
         22   -1    0    0    0    0 -0.00000000000E+00 -0.00000000000E+00 -0.14644937226E+02  0.14644937226E+02  0.00000000000E+00 0. -1.
         13    1    1    2    0    0 -0.11718123824E+02 -0.58945179090E+01 -0.18731063723E+01  0.13250639942E+02  0.10566000000E+00 0. -1.
        996    1    1    2    0    0  0.11718123824E+02  0.58945179090E+01  0.87228113324E+02  0.10139429728E+03  0.50000000000E+02 0.  0.
<mgrwt>
<rscale>  0 0.51691970E+02</rscale>
<asrwt>0</asrwt>
<pdfrwt beam="1">  1       13 0.10000000E+01 0.51691970E+02</pdfrwt>
<pdfrwt beam="2">  1       22 0.14644961E+00 0.51691970E+02</pdfrwt>
<totfact> 0.78291600E-01</totfact>
</mgrwt>
</event>
<event>
 4    1  0.2409985E+000  0.5566163E+02  0.7957747E-01  0.1416996E+00
         13   -1    0    0    0    0  0.00000000000E+00  0.00000000000E+00  0.99999944181E+02  0.10000000000E+03  0.10566000000E+00 0.  1.
         22   -1    0    0    0    0 -0.00000000000E+00 -0.00000000000E+00 -0.16985341725E+02  0.16985341725E+02  0.00000000000E+00 0. -1.
         13    1    1    2    0    0  0.40255682414E+00 -0.24455165032E+02  0.13516960019E+02  0.27945241473E+02  0.10566000000E+00 0. -1.
        996    1    1    2    0    0 -0.40255682414E+00  0.24455165032E+02  0.69497642437E+02  0.89040100253E+02  0.50000000000E+02 0.  0.
<mgrwt>
<rscale>  0 0.55661631E+02</rscale>
<asrwt>0</asrwt>
<pdfrwt beam="1">  1       13 0.10000000E+01 0.55661631E+02</pdfrwt>
<pdfrwt beam="2">  1       22 0.16985365E+00 0.55661631E+02</pdfrwt>
<totfact> 0.61308234E-01</totfact>
</mgrwt>
</event>
<event>
 4    1  0.2409985E+000  0.5118100E+02  0.7957747E-01  0.1439074E+00
         13   -1    0    0    0    0  0.00000000000E+00  0.00000000000E+00  0.99999944181E+02  0.10000000000E+03  0.10566000000E+00 0.  1.
         22   -1    0    0    0    0 -0.00000000000E+00 -0.00000000000E+00 -0.10094081857E+02  0.10094081857E+02  0.00000000000E+00 0.  1.
         13    1    1    2    0    0 -0.98563352280E+01 -0.47273124343E+01  0.26103946946E+02  0.28300566023E+02  0.10566000000E+00 0. -1.
        996    1    1    2    0    0  0.98563352280E+01  0.47273124343E+01  0.63801915378E+02  0.81793515836E+02  0.50000000000E+02 0.  0.
<mgrwt>
<rscale>  0 0.51181001E+02</rscale>
<asrwt>0</asrwt>
<pdfrwt beam="1">  1       13 0.10000000E+01 0.51181001E+02</pdfrwt>
<pdfrwt beam="2">  1       22 0.10094107E+00 0.51181001E+02</pdfrwt>
<totfact> 0.13880235E+00</totfact>
</mgrwt>
</event>
<event>
 4    1  0.2409985E+000  0.5126997E+02  0.7957747E-01  0.1438610E+00
         13   -1    0    0    0    0  0.00000000000E+00  0.00000000000E+00  0.99999944189E+02  0.10000000001E+03  0.10566000000E+00 0. -1.
         22   -1    0    0    0    0 -0.00000000000E+00 -0.00000000000E+00 -0.20880743560E+02  0.20880743560E+02  0.00000000000E+00 0.  1.
         13    1    1    2    0    0  0.92072345244E+01  0.66209154840E+01 -0.11885101696E+02  0.16427918182E+02  0.10566000000E+00 0.  1.
        996    1    1    2    0    0 -0.92072345244E+01 -0.66209154840E+01  0.91004302325E+02  0.10445282539E+03  0.50000000000E+02 0.  0.
<mgrwt>
<rscale>  0 0.51269969E+02</rscale>
<asrwt>0</asrwt>
<pdfrwt beam="1">  1       13 0.10000000E+01 0.51269969E+02</pdfrwt>
<pdfrwt beam="2">  1       22 0.20880766E+00 0.51269969E+02</pdfrwt>
<totfact> 0.41729220E-01</totfact>
</mgrwt>
</event>
<event>
 4    1  0.2409985E+000  0.5331359E+02  0.7957747E-01  0.1428247E+00
         13   -1    0    0    0    0  0.00000000000E+00  0.00000000000E+00  0.99999944181E+02  0.10000000000E+03  0.10566000000E+00 0.  1.
         22   -1    0    0    0    0 -0.00000000000E+00 -0.00000000000E+00 -0.18158289999E+02  0.18158289999E+02  0.00000000000E+00 0. -1.
         13    1    1    2    0    0 -0.16341003858E+02  0.86781590967E+01 -0.21996751754E+01  0.18632997272E+02  0.10566000000E+00 0. -1.
        996    1    1    2    0    0  0.16341003858E+02 -0.86781590967E+01  0.84041329358E+02  0.99525292728E+02  0.50000000000E+02 0.  0.
<mgrwt>
<rscale>  0 0.53313590E+02</rscale>
<asrwt>0</asrwt>
<pdfrwt beam="1">  1       13 0.10000000E+01 0.53313590E+02</pdfrwt>
<pdfrwt beam="2">  1       22 0.18158313E+00 0.53313590E+02</pdfrwt>
<totfact> 0.54215270E-01</totfact>
</mgrwt>
</event>
<event>
 4    1  0.2409985E+000  0.5137724E+02  0.7957747E-01  0.1438052E+00
         13   -1    0    0    0    0  0.00000000000E+00  0.00000000000E+00  0.99999944182E+02  0.10000000000E+03  0.10566000000E+00 0.  1.
         22   -1    0    0    0    0 -0.00000000000E+00 -0.00000000000E+00 -0.10765556054E+02  0.10765556054E+02  0.00000000000E+00 0.  1.
         13    1    1    2    0    0  0.11700404720E+02  0.16495444656E+01  0.68059992312E+01  0.13636467913E+02  0.10566000000E+00 0. -1.
        996    1    1    2    0    0 -0.11700404720E+02 -0.16495444656E+01  0.82428388896E+02  0.97129088144E+02  0.50000000000E+02 0.  0.
<mgrwt>
<rscale>  0 0.51377237E+02</rscale>
<asrwt>0</asrwt>
<pdfrwt beam="1">  1       13 0.10000000E+01 0.51377237E+02</pdfrwt>
<pdfrwt beam="2">  1       22 0.10765581E+00 0.51377237E+02</pdfrwt>
<totfact> 0.12636781E+00</totfact>
</mgrwt>
</event>
<event>
 4    1  0.2409985E+000  0.5434932E+02  0.7957747E-01  0.1423201E+00
         13   -1    0    0    0    0  0.00000000000E+00  0.00000000000E+00  0.99999944177E+02  0.99999999997E+02  0.10566000000E+00 0.  1.
         22   -1    0    0    0    0 -0.00000000000E+00 -0.00000000000E+00 -0.15294459843E+02  0.15294459843E+02  0.00000000000E+00 0.  1.
         13    1    1    2    0    0  0.20729463239E+02 -0.49130526279E+01  0.38311569459E+02  0.43836471696E+02  0.10566000000E+00 0. -1.
        996    1    1    2    0    0 -0.20729463239E+02  0.49130526279E+01  0.46393914875E+02  0.71457988145E+02  0.50000000000E+02 0.  0.
<mgrwt>
<rscale>  0 0.54349321E+02</rscale>
<asrwt>0</asrwt>
<pdfrwt beam="1">  1       13 0.10000000E+01 0.54349321E+02</pdfrwt>
<pdfrwt beam="2">  1       22 0.15294483E+00 0.54349321E+02</pdfrwt>
<totfact> 0.73224730E-01</totfact>
</mgrwt>
</event>
<event>
 4    1  0.2409985E+000  0.5365698E+02  0.7957747E-01  0.1426559E+00
         13   -1    0    0    0    0  0.00000000000E+00  0.00000000000E+00  0.99999944172E+02  0.99999999992E+02  0.10566000000E+00 0.  1.
         22   -1    0    0    0    0 -0.00000000000E+00 -0.00000000000E+00 -0.35612097885E+02  0.35612097885E+02  0.00000000000E+00 0. -1.
         13    1    1    2    0    0  0.15368807896E+02  0.11952895145E+02 -0.24798824637E+02  0.31528793600E+02  0.10566000000E+00 0. -1.
        996    1    1    2    0    0 -0.15368807896E+02 -0.11952895145E+02  0.89186670924E+02  0.10408330428E+03  0.50000000000E+02 0.  0.
<mgrwt>
<rscale>  0 0.53656984E+02</rscale>
<asrwt>0</asrwt>
<pdfrwt beam="1">  1       13 0.10000000E+01 0.53656984E+02</pdfrwt>
<pdfrwt beam="2">  1       22 0.35612116E+00 0.53656984E+02</pdfrwt>
<totfact> 0.15271450E-01</totfact>
</mgrwt>
</event>
<event>
 4    1  0.2409985E+000  0.5445752E+02  0.7957747E-01  0.1422682E+00
         13   -1    0    0    0    0  0.00000000000E+00  0.00000000000E+00  0.99999944178E+02  0.99999999998E+02  0.10566000000E+00 0. -1.
         22   -1    0    0    0    0 -0.00000000000E+00 -0.00000000000E+00 -0.20628152830E+02  0.20628152830E+02  0.00000000000E+00 0.  1.
         13    1    1    2    0    0 -0.18299875491E+02 -0.11434002655E+02 -0.30988181756E+01  0.21799901326E+02  0.10566000000E+00 0.  1.
        996    1    1    2    0    0  0.18299875491E+02  0.11434002655E+02  0.82470609524E+02  0.98828251502E+02  0.50000000000E+02 0.  0.
<mgrwt>
<rscale>  0 0.54457523E+02</rscale>
<asrwt>0</asrwt>
<pdfrwt beam="1">  1       13 0.10000000E+01 0.54457523E+02</pdfrwt>
<pdfrwt beam="2">  1       22 0.20628175E+00 0.54457523E+02</pdfrwt>
<totfact> 0.42936437E-01</totfact>
</mgrwt>
</event>
<event>
 4    1  0.2409985E+000  0.5535148E+02  0.7957747E-01  0.1418444E+00
         13   -1    0    0    0    0  0.00000000000E+00  0.00000000000E+00  0.99999944170E+02  0.99999999990E+02  0.10566000000E+00 0. -1.
         22   -1    0    0    0    0 -0.00000000000E+00 -0.00000000000E+00 -0.27619895076E+02  0.27619895076E+02  0.00000000000E+00 0.  1.
         13    1    1    2    0    0 -0.23216137797E+02  0.49796905886E+01 -0.12078168026E+02  0.26639813804E+02  0.10566000000E+00 0.  1.
        996    1    1    2    0    0  0.23216137797E+02 -0.49796905886E+01  0.84458217120E+02  0.10098008126E+03  0.50000000000E+02 0.  0.
<mgrwt>
<rscale>  0 0.55351480E+02</rscale>
<asrwt>0</asrwt>
<pdfrwt beam="1">  1       13 0.10000000E+01 0.55351480E+02</pdfrwt>
<pdfrwt beam="2">  1       22 0.27619915E+00 0.55351480E+02</pdfrwt>
<totfact> 0.24358931E-01</totfact>
</mgrwt>
</event>
<event>
 4    1  0.2409985E+000  0.5323496E+02  0.7957747E-01  0.1428635E+00
         13   -1    0    0    0    0  0.00000000000E+00  0.00000000000E+00  0.99999944170E+02  0.99999999990E+02  0.10566000000E+00 0.  1.
         22   -1    0    0    0    0 -0.00000000000E+00 -0.00000000000E+00 -0.13245644141E+02  0.13245644141E+02  0.00000000000E+00 0.  1.
         13    1    1    2    0    0 -0.62425757540E+01  0.17175315836E+02  0.32180064919E+02  0.37007147531E+02  0.10566000000E+00 0. -1.
        996    1    1    2    0    0  0.62425757540E+01 -0.17175315836E+02  0.54574235110E+02  0.76238496601E+02  0.50000000000E+02 0.  0.
<mgrwt>
<rscale>  0 0.53234962E+02</rscale>
<asrwt>0</asrwt>
<pdfrwt beam="1">  1       13 0.10000000E+01 0.53234962E+02</pdfrwt>
<pdfrwt beam="2">  1       22 0.13245668E+00 0.53234962E+02</pdfrwt>
<totfact> 0.92400340E-01</totfact>
</mgrwt>
</event>
<event>
 4    1  0.2409985E+000  0.5104392E+02  0.7957747E-01  0.1439791E+00
         13   -1    0    0    0    0  0.00000000000E+00  0.00000000000E+00  0.99999944183E+02  0.10000000000E+03  0.10566000000E+00 0. -1.
         22   -1    0    0    0    0 -0.00000000000E+00 -0.00000000000E+00 -0.12429021482E+02  0.12429021482E+02  0.00000000000E+00 0. -1.
         13    1    1    2    0    0 -0.63081723269E+01  0.81048282085E+01 -0.87761906709E+00  0.10308378032E+02  0.10566000000E+00 0.  1.
        996    1    1    2    0    0  0.63081723269E+01 -0.81048282085E+01  0.88448541768E+02  0.10212064345E+03  0.50000000000E+02 0.  0.
<mgrwt>
<rscale>  0 0.51043915E+02</rscale>
<asrwt>0</asrwt>
<pdfrwt beam="1">  1       13 0.10000000E+01 0.51043915E+02</pdfrwt>
<pdfrwt beam="2">  1       22 0.12429046E+00 0.51043915E+02</pdfrwt>
<totfact> 0.10161300E+00</totfact>
</mgrwt>
</event>
<event>
 4    1  0.2409985E+000  0.5178965E+02  0.7957747E-01  0.1435921E+00
         13   -1    0    0    0    0  0.00000000000E+00  0.00000000000E+00  0.99999944176E+02  0.99999999996E+02  0.10566000000E+00 0. -1.
         22   -1    0    0    0    0 -0.00000000000E+00 -0.00000000000E+00 -0.34429831478E+02  0.34429831478E+02  0.00000000000E+00 0.  1.
         13    1    1    2    0    0  0.84866015358E+01  0.10495012325E+02 -0.25962525642E+02  0.29261435219E+02  0.10566000000E+00 0.  1.
        996    1    1    2    0    0 -0.84866015358E+01 -0.10495012325E+02  0.91532638340E+02  0.10516839626E+03  0.50000000000E+02 0.  0.
<mgrwt>
<rscale>  0 0.51789648E+02</rscale>
<asrwt>0</asrwt>
<pdfrwt beam="1">  1       13 0.10000000E+01 0.51789648E+02</pdfrwt>
<pdfrwt beam="2">  1       22 0.34429850E+00 0.51789648E+02</pdfrwt>
<totfact> 0.16167206E-01</totfact>
</mgrwt>
</event>
<event>
 4    1  0.2409985E+000  0.5145004E+02  0.7957747E-01  0.1437674E+00
         13   -1    0    0    0    0  0.00000000000E+00  0.00000000000E+00  0.99999944182E+02  0.10000000000E+03  0.10566000000E+00 0.  1.
         22   -1    0    0    0    0 -0.00000000000E+00 -0.00000000000E+00 -0.22988971548E+02  0.22988971548E+02  0.00000000000E+00 0. -1.
         13    1    1    2    0    0  0.72450001657E+01  0.97271189461E+01 -0.13949798538E+02  0.18485532551E+02  0.10566000000E+00 0. -1.
        996    1    1    2    0    0 -0.72450001657E+01 -0.97271189461E+01  0.90960771172E+02  0.10450343900E+03  0.50000000000E+02 0.  0.
<mgrwt>
<rscale>  0 0.51450042E+02</rscale>
<asrwt>0</asrwt>
<pdfrwt beam="1">  1       13 0.10000000E+01 0.51450042E+02</pdfrwt>
<pdfrwt beam="2">  1       22 0.22988993E+00 0.51450042E+02</pdfrwt>
<totfact> 0.34706591E-01</totfact>
</mgrwt>
</event>
<event>
 4    1  0.2409985E+000  0.5597306E+02  0.7957747E-01  0.1415552E+00
         13   -1    0    0    0    0  0.00000000000E+00  0.00000000000E+00  0.99999944186E+02  0.10000000001E+03  0.10566000000E+00 0.  1.
         22   -1    0    0    0    0 -0.00000000000E+00 -0.00000000000E+00 -0.25395632833E+02  0.25395632833E+02  0.00000000000E+00 0. -1.
         13    1    1    2    0    0 -0.22061416012E+02  0.12094521035E+02 -0.72957180807E+01  0.26195842835E+02  0.10566000000E+00 0. -1.
        996    1    1    2    0    0  0.22061416012E+02 -0.12094521035E+02  0.81900029434E+02  0.99199790004E+02  0.50000000000E+02 0.  0.
<mgrwt>
<rscale>  0 0.55973061E+02</rscale>
<asrwt>0</asrwt>
<pdfrwt beam="1">  1       13 0.10000000E+01 0.55973061E+02</pdfrwt>
<pdfrwt beam="2">  1       22 0.25395654E+00 0.55973061E+02</pdfrwt>
<totfact> 0.28752296E-01</totfact>
</mgrwt>
</event>
<event>
 4    1  0.2409985E+000  0.5433428E+02  0.7957747E-01  0.1423274E+00
         13   -1    0    0    0    0  0.00000000000E+00  0.00000000000E+00  0.99999944174E+02  0.99999999994E+02  0.10566000000E+00 0.  1.
         22   -1    0    0    0    0 -0.00000000000E+00 -0.00000000000E+00 -0.23161440433E+02  0.23161440433E+02  0.00000000000E+00 0. -1.
         13    1    1    2    0    0 -0.16696879982E+02  0.13169209707E+02 -0.77432082492E+01  0.22631445457E+02  0.10566000000E+00 0. -1.
        996    1    1    2    0    0  0.16696879982E+02 -0.13169209707E+02  0.84581711990E+02  0.10052999497E+03  0.50000000000E+02 0.  0.
<mgrwt>
<rscale>  0 0.54334279E+02</rscale>
<asrwt>0</asrwt>
<pdfrwt beam="1">  1       13 0.10000000E+01 0.54334279E+02</pdfrwt>
<pdfrwt beam="2">  1       22 0.23161462E+00 0.54334279E+02</pdfrwt>
<totfact> 0.34366454E-01</totfact>
</mgrwt>
</event>
<event>
 4    1  0.2409985E+000  0.5398131E+02  0.7957747E-01  0.1424979E+00
         13   -1    0    0    0    0  0.00000000000E+00  0.00000000000E+00  0.99999944183E+02  0.10000000000E+03  0.10566000000E+00 0. -1.
         22   -1    0    0    0    0 -0.00000000000E+00 -0.00000000000E+00 -0.13975028910E+02  0.13975028910E+02  0.00000000000E+00 0. -1.
         13    1    1    2    0    0  0.14727169268E+02 -0.14038938098E+02  0.18273192825E+02  0.27347797674E+02  0.10566000000E+00 0.  1.
        996    1    1    2    0    0 -0.14727169268E+02  0.14038938098E+02  0.67751722447E+02  0.86627231239E+02  0.50000000000E+02 0.  0.
<mgrwt>
<rscale>  0 0.53981305E+02</rscale>
<asrwt>0</asrwt>
<pdfrwt beam="1">  1       13 0.10000000E+01 0.53981305E+02</pdfrwt>
<pdfrwt beam="2">  1       22 0.13975053E+00 0.53981305E+02</pdfrwt>
<totfact> 0.84917940E-01</totfact>
</mgrwt>
</event>
<event>
 4    1  0.2409985E+000  0.5359228E+02  0.7957747E-01  0.1426876E+00
         13   -1    0    0    0    0  0.00000000000E+00  0.00000000000E+00  0.99999944184E+02  0.10000000000E+03  0.10566000000E+00 0. -1.
         22   -1    0    0    0    0 -0.00000000000E+00 -0.00000000000E+00 -0.13345118482E+02  0.13345118482E+02  0.00000000000E+00 0. -1.
         13    1    1    2    0    0  0.12097248615E+02 -0.15026281739E+02  0.19538141745E+02  0.27456924698E+02  0.10566000000E+00 0.  1.
        996    1    1    2    0    0 -0.12097248615E+02  0.15026281739E+02  0.67116683956E+02  0.85888193788E+02  0.50000000000E+02 0.  0.
<mgrwt>
<rscale>  0 0.53592281E+02</rscale>
<asrwt>0</asrwt>
<pdfrwt beam="1">  1       13 0.10000000E+01 0.53592281E+02</pdfrwt>
<pdfrwt beam="2">  1       22 0.13345143E+00 0.53592281E+02</pdfrwt>
<totfact> 0.91375868E-01</totfact>
</mgrwt>
</event>
<event>
 4    1  0.2409985E+000  0.5109494E+02  0.7957747E-01  0.1439524E+00
         13   -1    0    0    0    0  0.00000000000E+00  0.00000000000E+00  0.99999944182E+02  0.10000000000E+03  0.10566000000E+00 0. -1.
         22   -1    0    0    0    0 -0.00000000000E+00 -0.00000000000E+00 -0.28248195570E+02  0.28248195570E+02  0.00000000000E+00 0.  1.
         13    1    1    2    0    0  0.92841537912E+01 -0.49495088494E+01 -0.20357809299E+02  0.22916036153E+02  0.10566000000E+00 0.  1.
        996    1    1    2    0    0 -0.92841537912E+01  0.49495088494E+01  0.92109557910E+02  0.10533215942E+03  0.50000000000E+02 0.  0.
<mgrwt>
<rscale>  0 0.51094943E+02</rscale>
<asrwt>0</asrwt>
<pdfrwt beam="1">  1       13 0.10000000E+01 0.51094943E+02</pdfrwt>
<pdfrwt beam="2">  1       22 0.28248216E+00 0.51094943E+02</pdfrwt>
<totfact> 0.23181677E-01</totfact>
</mgrwt>
</event>
<event>
 4    1  0.2409985E+000  0.8912682E+02  0.7957747E-01  0.1304980E+00
         13   -1    0    0    0    0  0.00000000000E+00  0.00000000000E+00  0.99999944174E+02  0.99999999994E+02  0.10566000000E+00 0.  1.
         22   -1    0    0    0    0 -0.00000000000E+00 -0.00000000000E+00 -0.80152386882E+02  0.80152386882E+02  0.00000000000E+00 0. -1.
         13    1    1    2    0    0  0.30334220634E+02 -0.67256419210E+02 -0.28095376457E+02  0.78949048181E+02  0.10566000000E+00 0. -1.
        996    1    1    2    0    0 -0.30334220634E+02  0.67256419210E+02  0.47942933749E+02  0.10120333869E+03  0.50000000000E+02 0.  0.
<mgrwt>
<rscale>  0 0.89126825E+02</rscale>
<asrwt>0</asrwt>
<pdfrwt beam="1">  1       13 0.10000000E+01 0.89126825E+02</pdfrwt>
<pdfrwt beam="2">  1       22 0.80152392E+00 0.89126825E+02</pdfrwt>
<totfact> 0.30420423E-02</totfact>
</mgrwt>
</event>
<event>
 4    1  0.2409985E+000  0.5176170E+02  0.7957747E-01  0.1436065E+00
         13   -1    0    0    0    0  0.00000000000E+00  0.00000000000E+00  0.99999944176E+02  0.99999999996E+02  0.10566000000E+00 0.  1.
         22   -1    0    0    0    0 -0.00000000000E+00 -0.00000000000E+00 -0.11726472529E+02  0.11726472529E+02  0.00000000000E+00 0. -1.
         13    1    1    2    0    0  0.35191491379E+01  0.12918562809E+02  0.63462954009E+01  0.14817567447E+02  0.10566000000E+00 0. -1.
        996    1    1    2    0    0 -0.35191491379E+01 -0.12918562809E+02  0.81927176246E+02  0.96908905078E+02  0.50000000000E+02 0.  0.
<mgrwt>
<rscale>  0 0.51761701E+02</rscale>
<asrwt>0</asrwt>
<pdfrwt beam="1">  1       13 0.10000000E+01 0.51761701E+02</pdfrwt>
<pdfrwt beam="2">  1       22 0.11726497E+00 0.51761701E+02</pdfrwt>
<totfact> 0.11128120E+00</totfact>
</mgrwt>
</event>
<event>
 4    1  0.2409985E+000  0.5132409E+02  0.7957747E-01  0.1438328E+00
         13   -1    0    0    0    0  0.00000000000E+00  0.00000000000E+00  0.99999944178E+02  0.99999999998E+02  0.10566000000E+00 0. -1.
         22   -1    0    0    0    0 -0.00000000000E+00 -0.00000000000E+00 -0.16759858449E+02  0.16759858449E+02  0.00000000000E+00 0.  1.
         13    1    1    2    0    0  0.11534468928E+02 -0.10573967053E+01 -0.65715807612E+01  0.13317616114E+02  0.10566000000E+00 0.  1.
        996    1    1    2    0    0 -0.11534468928E+02  0.10573967053E+01  0.89811666490E+02  0.10344224233E+03  0.50000000000E+02 0.  0.
<mgrwt>
<rscale>  0 0.51324089E+02</rscale>
<asrwt>0</asrwt>
<pdfrwt beam="1">  1       13 0.10000000E+01 0.51324089E+02</pdfrwt>
<pdfrwt beam="2">  1       22 0.16759882E+00 0.51324089E+02</pdfrwt>
<totfact> 0.62245981E-01</totfact>
</mgrwt>
</event>
<event>
 4    1  0.2409985E+000  0.5747175E+02  0.7957747E-01  0.1408759E+00
         13   -1    0    0    0    0  0.00000000000E+00  0.00000000000E+00  0.99999944178E+02  0.99999999998E+02  0.10566000000E+00 0. -1.
         22   -1    0    0    0    0 -0.00000000000E+00 -0.00000000000E+00 -0.57511053400E+02  0.57511053400E+02  0.00000000000E+00 0.  1.
         13    1    1    2    0    0  0.19144195219E+02 -0.20892639956E+02 -0.44794674223E+02  0.53005439510E+02  0.10566000000E+00 0.  1.
        996    1    1    2    0    0 -0.19144195219E+02  0.20892639956E+02  0.87283565000E+02  0.10450561389E+03  0.50000000000E+02 0.  0.
<mgrwt>
<rscale>  0 0.57471755E+02</rscale>
<asrwt>0</asrwt>
<pdfrwt beam="1">  1       13 0.10000000E+01 0.57471755E+02</pdfrwt>
<pdfrwt beam="2">  1       22 0.57511065E+00 0.57471755E+02</pdfrwt>
<totfact> 0.57917201E-02</totfact>
</mgrwt>
</event>
<event>
 4    1  0.2409985E+000  0.5263685E+02  0.7957747E-01  0.1431617E+00
         13   -1    0    0    0    0  0.00000000000E+00  0.00000000000E+00  0.99999944185E+02  0.10000000000E+03  0.10566000000E+00 0.  1.
         22   -1    0    0    0    0 -0.00000000000E+00 -0.00000000000E+00 -0.17355868528E+02  0.17355868528E+02  0.00000000000E+00 0.  1.
         13    1    1    2    0    0  0.13835495052E+02 -0.89003961673E+01 -0.31032521188E+01  0.16741544523E+02  0.10566000000E+00 0. -1.
        996    1    1    2    0    0 -0.13835495052E+02  0.89003961673E+01  0.85747327776E+02  0.10061432401E+03  0.50000000000E+02 0.  0.
<mgrwt>
<rscale>  0 0.52636850E+02</rscale>
<asrwt>0</asrwt>
<pdfrwt beam="1">  1       13 0.10000000E+01 0.52636850E+02</pdfrwt>
<pdfrwt beam="2">  1       22 0.17355892E+00 0.52636850E+02</pdfrwt>
<totfact> 0.58693346E-01</totfact>
</mgrwt>
</event>
<event>
 4    1  0.2409985E+000  0.5697983E+02  0.7957747E-01  0.1410962E+00
         13   -1    0    0    0    0  0.00000000000E+00  0.00000000000E+00  0.99999944183E+02  0.10000000000E+03  0.10566000000E+00 0. -1.
         22   -1    0    0    0    0 -0.00000000000E+00 -0.00000000000E+00 -0.21086411931E+02  0.21086411931E+02  0.00000000000E+00 0. -1.
         13    1    1    2    0    0 -0.65960217157E+01 -0.26517805534E+02  0.50330627334E+01  0.27785686915E+02  0.10566000000E+00 0.  1.
        996    1    1    2    0    0  0.65960217157E+01  0.26517805534E+02  0.73880469519E+02  0.93300725019E+02  0.50000000000E+02 0.  0.
<mgrwt>
<rscale>  0 0.56979834E+02</rscale>
<asrwt>0</asrwt>
<pdfrwt beam="1">  1       13 0.10000000E+01 0.56979834E+02</pdfrwt>
<pdfrwt beam="2">  1       22 0.21086434E+00 0.56979834E+02</pdfrwt>
<totfact> 0.41354798E-01</totfact>
</mgrwt>
</event>
<event>
 4    1  0.2409985E+000  0.5144259E+02  0.7957747E-01  0.1437712E+00
         13   -1    0    0    0    0  0.00000000000E+00  0.00000000000E+00  0.99999944181E+02  0.10000000000E+03  0.10566000000E+00 0.  1.
         22   -1    0    0    0    0 -0.00000000000E+00 -0.00000000000E+00 -0.25264524829E+02  0.25264524829E+02  0.00000000000E+00 0. -1.
         13    1    1    2    0    0 -0.89026831144E+01 -0.81903514646E+01 -0.16539256438E+02  0.20491407743E+02  0.10566000000E+00 0. -1.
        996    1    1    2    0    0  0.89026831144E+01  0.81903514646E+01  0.91274675789E+02  0.10477311709E+03  0.50000000000E+02 0.  0.
<mgrwt>
<rscale>  0 0.51442586E+02</rscale>
<asrwt>0</asrwt>
<pdfrwt beam="1">  1       13 0.10000000E+01 0.51442586E+02</pdfrwt>
<pdfrwt beam="2">  1       22 0.25264546E+00 0.51442586E+02</pdfrwt>
<totfact> 0.28849878E-01</totfact>
</mgrwt>
</event>
<event>
 4    1  0.2409985E+000  0.5203914E+02  0.7957747E-01  0.1434643E+00
         13   -1    0    0    0    0  0.00000000000E+00  0.00000000000E+00  0.99999944173E+02  0.99999999993E+02  0.10566000000E+00 0.  1.
         22   -1    0    0    0    0 -0.00000000000E+00 -0.00000000000E+00 -0.29118119817E+02  0.29118119817E+02  0.00000000000E+00 0. -1.
         13    1    1    2    0    0 -0.39488330530E+01 -0.13873669007E+02 -0.19840585435E+02  0.24530225613E+02  0.10566000000E+00 0. -1.
        996    1    1    2    0    0  0.39488330530E+01  0.13873669007E+02  0.90722409791E+02  0.10458789420E+03  0.50000000000E+02 0.  0.
<mgrwt>
<rscale>  0 0.52039139E+02</rscale>
<asrwt>0</asrwt>
<pdfrwt beam="1">  1       13 0.10000000E+01 0.52039139E+02</pdfrwt>
<pdfrwt beam="2">  1       22 0.29118140E+00 0.52039139E+02</pdfrwt>
<totfact> 0.21902850E-01</totfact>
</mgrwt>
</event>
<event>
 4    1  0.2409985E+000  0.5280009E+02  0.7957747E-01  0.1430798E+00
         13   -1    0    0    0    0  0.00000000000E+00  0.00000000000E+00  0.99999944174E+02  0.99999999994E+02  0.10566000000E+00 0.  1.
         22   -1    0    0    0    0 -0.00000000000E+00 -0.00000000000E+00 -0.14184070296E+02  0.14184070296E+02  0.00000000000E+00 0.  1.
         13    1    1    2    0    0  0.10736419004E+02 -0.13136942579E+02  0.50707010568E+01  0.17707996121E+02  0.10566000000E+00 0. -1.
        996    1    1    2    0    0 -0.10736419004E+02  0.13136942579E+02  0.80745172821E+02  0.96476074170E+02  0.50000000000E+02 0.  0.
<mgrwt>
<rscale>  0 0.52800094E+02</rscale>
<asrwt>0</asrwt>
<pdfrwt beam="1">  1       13 0.10000000E+01 0.52800094E+02</pdfrwt>
<pdfrwt beam="2">  1       22 0.14184094E+00 0.52800094E+02</pdfrwt>
<totfact> 0.82693929E-01</totfact>
</mgrwt>
</event>
<event>
 4    1  0.2409985E+000  0.5291328E+02  0.7957747E-01  0.1430233E+00
         13   -1    0    0    0    0  0.00000000000E+00  0.00000000000E+00  0.99999944177E+02  0.99999999998E+02  0.10566000000E+00 0. -1.
         22   -1    0    0    0    0 -0.00000000000E+00 -0.00000000000E+00 -0.19257885921E+02  0.19257885921E+02  0.00000000000E+00 0.  1.
         13    1    1    2    0    0 -0.16801139939E+02 -0.41876524597E+01 -0.54213597844E+01  0.18144339126E+02  0.10566000000E+00 0.  1.
        996    1    1    2    0    0  0.16801139939E+02  0.41876524597E+01  0.86163418041E+02  0.10111354679E+03  0.50000000000E+02 0.  0.
<mgrwt>
<rscale>  0 0.52913276E+02</rscale>
<asrwt>0</asrwt>
<pdfrwt beam="1">  1       13 0.10000000E+01 0.52913276E+02</pdfrwt>
<pdfrwt beam="2">  1       22 0.19257908E+00 0.52913276E+02</pdfrwt>
<totfact> 0.48676386E-01</totfact>
</mgrwt>
</event>
<event>
 4    1  0.2409985E+000  0.5171897E+02  0.7957747E-01  0.1436284E+00
         13   -1    0    0    0    0  0.00000000000E+00  0.00000000000E+00  0.99999944176E+02  0.99999999996E+02  0.10566000000E+00 0. -1.
         22   -1    0    0    0    0 -0.00000000000E+00 -0.00000000000E+00 -0.45324443614E+02  0.45324443614E+02  0.00000000000E+00 0.  1.
         13    1    1    2    0    0  0.87797958783E+01  0.98877435818E+01 -0.37426967390E+02  0.39694348979E+02  0.10566000000E+00 0.  1.
        996    1    1    2    0    0 -0.87797958783E+01 -0.98877435818E+01  0.92102467952E+02  0.10563009463E+03  0.50000000000E+02 0.  0.
<mgrwt>
<rscale>  0 0.51718974E+02</rscale>
<asrwt>0</asrwt>
<pdfrwt beam="1">  1       13 0.10000000E+01 0.51718974E+02</pdfrwt>
<pdfrwt beam="2">  1       22 0.45324459E+00 0.51718974E+02</pdfrwt>
<totfact> 0.94981878E-02</totfact>
</mgrwt>
</event>
<event>
 4    1  0.2409985E+000  0.5175922E+02  0.7957747E-01  0.1436077E+00
         13   -1    0    0    0    0  0.00000000000E+00  0.00000000000E+00  0.99999944180E+02  0.10000000000E+03  0.10566000000E+00 0.  1.
         22   -1    0    0    0    0 -0.00000000000E+00 -0.00000000000E+00 -0.11641926854E+02  0.11641926854E+02  0.00000000000E+00 0.  1.
         13    1    1    2    0    0  0.12746005496E+02  0.40688960286E+01  0.67052641764E+01  0.14966238763E+02  0.10566000000E+00 0. -1.
        996    1    1    2    0    0 -0.12746005496E+02 -0.40688960286E+01  0.81652753150E+02  0.96675688091E+02  0.50000000000E+02 0.  0.
<mgrwt>
<rscale>  0 0.51759217E+02</rscale>
<asrwt>0</asrwt>
<pdfrwt beam="1">  1       13 0.10000000E+01 0.51759217E+02</pdfrwt>
<pdfrwt beam="2">  1       22 0.11641952E+00 0.51759217E+02</pdfrwt>
<totfact> 0.11250802E+00</totfact>
</mgrwt>
</event>
<event>
 4    1  0.2409985E+000  0.5236007E+02  0.7957747E-01  0.1433012E+00
         13   -1    0    0    0    0  0.00000000000E+00  0.00000000000E+00  0.99999944176E+02  0.99999999996E+02  0.10566000000E+00 0.  1.
         22   -1    0    0    0    0 -0.00000000000E+00 -0.00000000000E+00 -0.14901352034E+02  0.14901352034E+02  0.00000000000E+00 0. -1.
         13    1    1    2    0    0  0.15090123450E+02 -0.37235724513E+01  0.67355589802E+00  0.15557688103E+02  0.10566000000E+00 0. -1.
        996    1    1    2    0    0 -0.15090123450E+02  0.37235724513E+01  0.84425036244E+02  0.99343663927E+02  0.50000000000E+02 0.  0.
<mgrwt>
<rscale>  0 0.52360069E+02</rscale>
<asrwt>0</asrwt>
<pdfrwt beam="1">  1       13 0.10000000E+01 0.52360069E+02</pdfrwt>
<pdfrwt beam="2">  1       22 0.14901376E+00 0.52360069E+02</pdfrwt>
<totfact> 0.76179108E-01</totfact>
</mgrwt>
</event>
<event>
 4    1  0.2409985E+000  0.5161869E+02  0.7957747E-01  0.1436801E+00
         13   -1    0    0    0    0  0.00000000000E+00  0.00000000000E+00  0.99999944182E+02  0.10000000000E+03  0.10566000000E+00 0.  1.
         22   -1    0    0    0    0 -0.00000000000E+00 -0.00000000000E+00 -0.66712261854E+02  0.66712261854E+02  0.00000000000E+00 0. -1.
         13    1    1    2    0    0  0.88303851837E+01  0.93012689568E+01 -0.59319735759E+02  0.60690456591E+02  0.10566000000E+00 0. -1.
        996    1    1    2    0    0 -0.88303851837E+01 -0.93012689568E+01  0.92607418088E+02  0.10602180526E+03  0.50000000000E+02 0.  0.
<mgrwt>
<rscale>  0 0.51618691E+02</rscale>
<asrwt>0</asrwt>
<pdfrwt beam="1">  1       13 0.10000000E+01 0.51618691E+02</pdfrwt>
<pdfrwt beam="2">  1       22 0.66712271E+00 0.51618691E+02</pdfrwt>
<totfact> 0.86747447E-02</totfact>
</mgrwt>
</event>
<event>
 4    1  0.2409985E+000  0.5136658E+02  0.7957747E-01  0.1438107E+00
         13   -1    0    0    0    0  0.00000000000E+00  0.00000000000E+00  0.99999944180E+02  0.10000000000E+03  0.10566000000E+00 0.  1.
         22   -1    0    0    0    0 -0.00000000000E+00 -0.00000000000E+00 -0.11458250943E+02  0.11458250943E+02  0.00000000000E+00 0.  1.
         13    1    1    2    0    0  0.93313666275E+00  0.11732653736E+02  0.38081078684E+01  0.12370883449E+02  0.10566000000E+00 0. -1.
        996    1    1    2    0    0 -0.93313666275E+00 -0.11732653736E+02  0.84733585368E+02  0.99087367495E+02  0.50000000000E+02 0.  0.
<mgrwt>
<rscale>  0 0.51366584E+02</rscale>
<asrwt>0</asrwt>
<pdfrwt beam="1">  1       13 0.10000000E+01 0.51366584E+02</pdfrwt>
<pdfrwt beam="2">  1       22 0.11458276E+00 0.51366584E+02</pdfrwt>
<totfact> 0.11513929E+00</totfact>
</mgrwt>
</event>
<event>
 4    1  0.2409985E+000  0.7004326E+02  0.7957747E-01  0.1359946E+00
         13   -1    0    0    0    0  0.00000000000E+00  0.00000000000E+00  0.99999944171E+02  0.99999999991E+02  0.10566000000E+00 0.  1.
         22   -1    0    0    0    0 -0.00000000000E+00 -0.00000000000E+00 -0.39294691115E+02  0.39294691115E+02  0.00000000000E+00 0. -1.
         13    1    1    2    0    0  0.44509775232E+02  0.20614016391E+02  0.40720962707E+01  0.49220431683E+02  0.10566000000E+00 0. -1.
        996    1    1    2    0    0 -0.44509775232E+02 -0.20614016391E+02  0.56633156786E+02  0.90074259423E+02  0.50000000000E+02 0.  0.
<mgrwt>
<rscale>  0 0.70043256E+02</rscale>
<asrwt>0</asrwt>
<pdfrwt beam="1">  1       13 0.10000000E+01 0.70043256E+02</pdfrwt>
<pdfrwt beam="2">  1       22 0.39294708E+00 0.70043256E+02</pdfrwt>
<totfact> 0.12950192E-01</totfact>
</mgrwt>
</event>
<event>
 4    1  0.2409985E+000  0.6837840E+02  0.7957747E-01  0.1365696E+00
         13   -1    0    0    0    0  0.00000000000E+00  0.00000000000E+00  0.99999944192E+02  0.10000000001E+03  0.10566000000E+00 0.  1.
         22   -1    0    0    0    0 -0.00000000000E+00 -0.00000000000E+00 -0.78665565017E+02  0.78665565017E+02  0.00000000000E+00 0. -1.
         13    1    1    2    0    0 -0.50201089043E+01 -0.46372447719E+02 -0.57675192801E+02  0.74175767131E+02  0.10566000000E+00 0. -1.
        996    1    1    2    0    0  0.50201089043E+01  0.46372447719E+02  0.79009571977E+02  0.10448979790E+03  0.50000000000E+02 0.  0.
<mgrwt>
<rscale>  0 0.68378399E+02</rscale>
<asrwt>0</asrwt>
<pdfrwt beam="1">  1       13 0.10000000E+01 0.68378399E+02</pdfrwt>
<pdfrwt beam="2">  1       22 0.78665571E+00 0.68378399E+02</pdfrwt>
<totfact> 0.34892493E-02</totfact>
</mgrwt>
</event>
<event>
 4    1  0.2409985E+000  0.5174866E+02  0.7957747E-01  0.1436132E+00
         13   -1    0    0    0    0  0.00000000000E+00  0.00000000000E+00  0.99999944180E+02  0.10000000000E+03  0.10566000000E+00 0.  1.
         22   -1    0    0    0    0 -0.00000000000E+00 -0.00000000000E+00 -0.10979041296E+02  0.10979041296E+02  0.00000000000E+00 0.  1.
         13    1    1    2    0    0  0.64242758013E+01  0.11689828255E+02  0.27672823044E+02  0.30720021215E+02  0.10566000000E+00 0. -1.
        996    1    1    2    0    0 -0.64242758013E+01 -0.11689828255E+02  0.61348079840E+02  0.80259020081E+02  0.50000000000E+02 0.  0.
<mgrwt>
<rscale>  0 0.51748656E+02</rscale>
<asrwt>0</asrwt>
<pdfrwt beam="1">  1       13 0.10000000E+01 0.51748656E+02</pdfrwt>
<pdfrwt beam="2">  1       22 0.10979066E+00 0.51748656E+02</pdfrwt>
<totfact> 0.12284905E+00</totfact>
</mgrwt>
</event>
<event>
 4    1  0.2409985E+000  0.5330575E+02  0.7957747E-01  0.1428285E+00
         13   -1    0    0    0    0  0.00000000000E+00  0.00000000000E+00  0.99999944175E+02  0.99999999996E+02  0.10566000000E+00 0. -1.
         22   -1    0    0    0    0 -0.00000000000E+00 -0.00000000000E+00 -0.19996288729E+02  0.19996288729E+02  0.00000000000E+00 0.  1.
         13    1    1    2    0    0  0.13516380816E+02  0.12601991244E+02 -0.54612490271E+01  0.19270161874E+02  0.10566000000E+00 0.  1.
        996    1    1    2    0    0 -0.13516380816E+02 -0.12601991244E+02  0.85464904474E+02  0.10072612685E+03  0.50000000000E+02 0.  0.
<mgrwt>
<rscale>  0 0.53305748E+02</rscale>
<asrwt>0</asrwt>
<pdfrwt beam="1">  1       13 0.10000000E+01 0.53305748E+02</pdfrwt>
<pdfrwt beam="2">  1       22 0.19996311E+00 0.53305748E+02</pdfrwt>
<totfact> 0.45428581E-01</totfact>
</mgrwt>
</event>
<event>
 4    1  0.2409985E+000  0.6366819E+02  0.7957747E-01  0.1383052E+00
         13   -1    0    0    0    0  0.00000000000E+00  0.00000000000E+00  0.99999944182E+02  0.10000000000E+03  0.10566000000E+00 0. -1.
         22   -1    0    0    0    0 -0.00000000000E+00 -0.00000000000E+00 -0.27794668531E+02  0.27794668531E+02  0.00000000000E+00 0.  1.
         13    1    1    2    0    0 -0.33843328433E+01 -0.39270658326E+02  0.14910489681E+02  0.42142284950E+02  0.10566000000E+00 0.  1.
        996    1    1    2    0    0  0.33843328433E+01  0.39270658326E+02  0.57294785970E+02  0.85652383584E+02  0.50000000000E+02 0.  0.
<mgrwt>
<rscale>  0 0.63668189E+02</rscale>
<asrwt>0</asrwt>
<pdfrwt beam="1">  1       13 0.10000000E+01 0.63668189E+02</pdfrwt>
<pdfrwt beam="2">  1       22 0.27794689E+00 0.63668189E+02</pdfrwt>
<totfact> 0.24311893E-01</totfact>
</mgrwt>
</event>
<event>
 4    1  0.2409985E+000  0.5231640E+02  0.7957747E-01  0.1433233E+00
         13   -1    0    0    0    0  0.00000000000E+00  0.00000000000E+00  0.99999944177E+02  0.99999999998E+02  0.10566000000E+00 0. -1.
         22   -1    0    0    0    0 -0.00000000000E+00 -0.00000000000E+00 -0.33278899811E+02  0.33278899811E+02  0.00000000000E+00 0.  1.
         13    1    1    2    0    0 -0.10844287141E+02  0.10927355210E+02 -0.24023714540E+02  0.28533413392E+02  0.10566000000E+00 0.  1.
        996    1    1    2    0    0  0.10844287141E+02 -0.10927355210E+02  0.90744758907E+02  0.10474548642E+03  0.50000000000E+02 0.  0.
<mgrwt>
<rscale>  0 0.52316399E+02</rscale>
<asrwt>0</asrwt>
<pdfrwt beam="1">  1       13 0.10000000E+01 0.52316399E+02</pdfrwt>
<pdfrwt beam="2">  1       22 0.33278918E+00 0.52316399E+02</pdfrwt>
<totfact> 0.17168627E-01</totfact>
</mgrwt>
</event>
<event>
 4    1  0.2409985E+000  0.5761225E+02  0.7957747E-01  0.1408134E+00
         13   -1    0    0    0    0  0.00000000000E+00  0.00000000000E+00  0.99999944180E+02  0.10000000000E+03  0.10566000000E+00 0.  1.
         22   -1    0    0    0    0 -0.00000000000E+00 -0.00000000000E+00 -0.25583649741E+02  0.25583649741E+02  0.00000000000E+00 0. -1.
         13    1    1    2    0    0 -0.18979479702E+02 -0.21423136451E+02 -0.33335068902E+01  0.28814837452E+02  0.10566000000E+00 0. -1.
        996    1    1    2    0    0  0.18979479702E+02  0.21423136451E+02  0.77749801329E+02  0.96768812289E+02  0.50000000000E+02 0.  0.
<mgrwt>
<rscale>  0 0.57612251E+02</rscale>
<asrwt>0</asrwt>
<pdfrwt beam="1">  1       13 0.10000000E+01 0.57612251E+02</pdfrwt>
<pdfrwt beam="2">  1       22 0.25583671E+00 0.57612251E+02</pdfrwt>
<totfact> 0.28402226E-01</totfact>
</mgrwt>
</event>
<event>
 4    1  0.2409985E+000  0.5104953E+02  0.7957747E-01  0.1439761E+00
         13   -1    0    0    0    0  0.00000000000E+00  0.00000000000E+00  0.99999944177E+02  0.99999999997E+02  0.10566000000E+00 0.  1.
         22   -1    0    0    0    0 -0.00000000000E+00 -0.00000000000E+00 -0.17592226998E+02  0.17592226998E+02  0.00000000000E+00 0.  1.
         13    1    1    2    0    0 -0.52666269909E+00  0.10284813207E+02 -0.84855132291E+01  0.13344281738E+02  0.10566000000E+00 0. -1.
        996    1    1    2    0    0  0.52666269909E+00 -0.10284813207E+02  0.90893230408E+02  0.10424794526E+03  0.50000000000E+02 0.  0.
<mgrwt>
<rscale>  0 0.51049532E+02</rscale>
<asrwt>0</asrwt>
<pdfrwt beam="1">  1       13 0.10000000E+01 0.51049532E+02</pdfrwt>
<pdfrwt beam="2">  1       22 0.17592250E+00 0.51049532E+02</pdfrwt>
<totfact> 0.57129125E-01</totfact>
</mgrwt>
</event>
<event>
 4    1  0.2409985E+000  0.5131768E+02  0.7957747E-01  0.1438361E+00
         13   -1    0    0    0    0  0.00000000000E+00  0.00000000000E+00  0.99999944177E+02  0.99999999997E+02  0.10566000000E+00 0.  1.
         22   -1    0    0    0    0 -0.00000000000E+00 -0.00000000000E+00 -0.12859021642E+02  0.12859021642E+02  0.00000000000E+00 0. -1.
         13    1    1    2    0    0 -0.11502524393E+02 -0.10937304624E+01 -0.20132103844E+00  0.11556643454E+02  0.10566000000E+00 0. -1.
        996    1    1    2    0    0  0.11502524393E+02  0.10937304624E+01  0.87342243573E+02  0.10130237819E+03  0.50000000000E+02 0.  0.
<mgrwt>
<rscale>  0 0.51317680E+02</rscale>
<asrwt>0</asrwt>
<pdfrwt beam="1">  1       13 0.10000000E+01 0.51317680E+02</pdfrwt>
<pdfrwt beam="2">  1       22 0.12859046E+00 0.51317680E+02</pdfrwt>
<totfact> 0.96423813E-01</totfact>
</mgrwt>
</event>
<event>
 4    1  0.2409985E+000  0.7856446E+02  0.7957747E-01  0.1333175E+00
         13   -1    0    0    0    0  0.00000000000E+00  0.00000000000E+00  0.99999944181E+02  0.10000000000E+03  0.10566000000E+00 0.  1.
         22   -1    0    0    0    0 -0.00000000000E+00 -0.00000000000E+00 -0.67644047107E+02  0.67644047107E+02  0.00000000000E+00 0. -1.
         13    1    1    2    0    0  0.40638772595E+02 -0.44954030768E+02 -0.29738398151E+02  0.67503764406E+02  0.10566000000E+00 0. -1.
        996    1    1    2    0    0 -0.40638772595E+02  0.44954030768E+02  0.62094295225E+02  0.10014028270E+03  0.50000000000E+02 0.  0.
<mgrwt>
<rscale>  0 0.78564462E+02</rscale>
<asrwt>0</asrwt>
<pdfrwt beam="1">  1       13 0.10000000E+01 0.78564462E+02</pdfrwt>
<pdfrwt beam="2">  1       22 0.67644056E+00 0.78564462E+02</pdfrwt>
<totfact> 0.84621835E-02</totfact>
</mgrwt>
</event>
<event>
 4    1  0.2409985E+000  0.6762600E+02  0.7957747E-01  0.1368357E+00
         13   -1    0    0    0    0  0.00000000000E+00  0.00000000000E+00  0.99999944172E+02  0.99999999992E+02  0.10566000000E+00 0. -1.
         22   -1    0    0    0    0 -0.00000000000E+00 -0.00000000000E+00 -0.51079403223E+02  0.51079403223E+02  0.00000000000E+00 0.  1.
         13    1    1    2    0    0 -0.44353675503E+02 -0.10296969629E+02 -0.24130139294E+02  0.51532037613E+02  0.10566000000E+00 0.  1.
        996    1    1    2    0    0  0.44353675503E+02  0.10296969629E+02  0.73050680244E+02  0.99547365602E+02  0.50000000000E+02 0.  0.
<mgrwt>
<rscale>  0 0.67626002E+02</rscale>
<asrwt>0</asrwt>
<pdfrwt beam="1">  1       13 0.10000000E+01 0.67626002E+02</pdfrwt>
<pdfrwt beam="2">  1       22 0.51079417E+00 0.67626002E+02</pdfrwt>
<totfact> 0.69867508E-02</totfact>
</mgrwt>
</event>
<event>
 4    1  0.2409985E+000  0.5276745E+02  0.7957747E-01  0.1430962E+00
         13   -1    0    0    0    0  0.00000000000E+00  0.00000000000E+00  0.99999944173E+02  0.99999999993E+02  0.10566000000E+00 0.  1.
         22   -1    0    0    0    0 -0.00000000000E+00 -0.00000000000E+00 -0.27519927029E+02  0.27519927029E+02  0.00000000000E+00 0. -1.
         13    1    1    2    0    0 -0.72721329881E+01 -0.15215775888E+02 -0.16804805248E+02  0.23807906198E+02  0.10566000000E+00 0. -1.
        996    1    1    2    0    0  0.72721329881E+01  0.15215775888E+02  0.89284822392E+02  0.10371202082E+03  0.50000000000E+02 0.  0.
<mgrwt>
<rscale>  0 0.52767450E+02</rscale>
<asrwt>0</asrwt>
<pdfrwt beam="1">  1       13 0.10000000E+01 0.52767450E+02</pdfrwt>
<pdfrwt beam="2">  1       22 0.27519947E+00 0.52767450E+02</pdfrwt>
<totfact> 0.24443771E-01</totfact>
</mgrwt>
</event>
<event>
 4    1  0.2409985E+000  0.8570969E+02  0.7957747E-01  0.1313587E+00
         13   -1    0    0    0    0  0.00000000000E+00  0.00000000000E+00  0.99999944183E+02  0.10000000000E+03  0.10566000000E+00 0. -1.
         22   -1    0    0    0    0 -0.00000000000E+00 -0.00000000000E+00 -0.62063864350E+02  0.62063864350E+02  0.00000000000E+00 0.  1.
         13    1    1    2    0    0 -0.66756322192E+02  0.19741936213E+02  0.30593375126E+02  0.76040228587E+02  0.10566000000E+00 0.  1.
        996    1    1    2    0    0  0.66756322192E+02 -0.19741936213E+02  0.73427047080E+01  0.86023635766E+02  0.50000000000E+02 0.  0.
<mgrwt>
<rscale>  0 0.85709688E+02</rscale>
<asrwt>0</asrwt>
<pdfrwt beam="1">  1       13 0.10000000E+01 0.85709688E+02</pdfrwt>
<pdfrwt beam="2">  1       22 0.62063875E+00 0.85709688E+02</pdfrwt>
<totfact> 0.73417492E-02</totfact>
</mgrwt>
</event>
<event>
 4    1  0.2409985E+000  0.5251795E+02  0.7957747E-01  0.1432215E+00
         13   -1    0    0    0    0  0.00000000000E+00  0.00000000000E+00  0.99999944175E+02  0.99999999995E+02  0.10566000000E+00 0.  1.
         22   -1    0    0    0    0 -0.00000000000E+00 -0.00000000000E+00 -0.34107562844E+02  0.34107562844E+02  0.00000000000E+00 0. -1.
         13    1    1    2    0    0  0.14515884157E+02 -0.68865069729E+01 -0.24657299365E+02  0.29430060264E+02  0.10566000000E+00 0. -1.
        996    1    1    2    0    0 -0.14515884157E+02  0.68865069729E+01  0.90549680696E+02  0.10467750258E+03  0.50000000000E+02 0.  0.
<mgrwt>
<rscale>  0 0.52517948E+02</rscale>
<asrwt>0</asrwt>
<pdfrwt beam="1">  1       13 0.10000000E+01 0.52517948E+02</pdfrwt>
<pdfrwt beam="2">  1       22 0.34107581E+00 0.52517948E+02</pdfrwt>
<totfact> 0.16447829E-01</totfact>
</mgrwt>
</event>
<event>
 4    1  0.2409985E+000  0.5186106E+02  0.7957747E-01  0.1435554E+00
         13   -1    0    0    0    0  0.00000000000E+00  0.00000000000E+00  0.99999944179E+02  0.99999999999E+02  0.10566000000E+00 0.  1.
         22   -1    0    0    0    0 -0.00000000000E+00 -0.00000000000E+00 -0.12790559413E+02  0.12790559413E+02  0.00000000000E+00 0.  1.
         13    1    1    2    0    0 -0.67449502672E+01 -0.12003132227E+02  0.41278067328E+02  0.43513900580E+02  0.10566000000E+00 0. -1.
        996    1    1    2    0    0  0.67449502672E+01  0.12003132227E+02  0.45931317438E+02  0.69276658832E+02  0.50000000000E+02 0.  0.
<mgrwt>
<rscale>  0 0.51861060E+02</rscale>
<asrwt>0</asrwt>
<pdfrwt beam="1">  1       13 0.10000000E+01 0.51861060E+02</pdfrwt>
<pdfrwt beam="2">  1       22 0.12790584E+00 0.51861060E+02</pdfrwt>
<totfact> 0.97350049E-01</totfact>
</mgrwt>
</event>
<event>
 4    1  0.2409985E+000  0.5882450E+02  0.7957747E-01  0.1402832E+00
         13   -1    0    0    0    0  0.00000000000E+00  0.00000000000E+00  0.99999944182E+02  0.10000000000E+03  0.10566000000E+00 0.  1.
         22   -1    0    0    0    0 -0.00000000000E+00 -0.00000000000E+00 -0.31604111186E+02  0.31604111186E+02  0.00000000000E+00 0. -1.
         13    1    1    2    0    0 -0.18314211460E+02 -0.24998234563E+02 -0.10918559657E+02  0.32856478535E+02  0.10566000000E+00 0. -1.
        996    1    1    2    0    0  0.18314211460E+02  0.24998234563E+02  0.79314392653E+02  0.98747632653E+02  0.50000000000E+02 0.  0.
<mgrwt>
<rscale>  0 0.58824502E+02</rscale>
<asrwt>0</asrwt>
<pdfrwt beam="1">  1       13 0.10000000E+01 0.58824502E+02</pdfrwt>
<pdfrwt beam="2">  1       22 0.31604130E+00 0.58824502E+02</pdfrwt>
<totfact> 0.18963244E-01</totfact>
</mgrwt>
</event>
<event>
 4    1  0.2409985E+000  0.5298311E+02  0.7957747E-01  0.1429885E+00
         13   -1    0    0    0    0  0.00000000000E+00  0.00000000000E+00  0.99999944172E+02  0.99999999992E+02  0.10566000000E+00 0. -1.
         22   -1    0    0    0    0 -0.00000000000E+00 -0.00000000000E+00 -0.12519428064E+02  0.12519428064E+02  0.00000000000E+00 0. -1.
         13    1    1    2    0    0 -0.23281847657E+01 -0.17372102189E+02  0.17775965286E+02  0.24964103923E+02  0.10566000000E+00 0.  1.
        996    1    1    2    0    0  0.23281847657E+01  0.17372102189E+02  0.69704550822E+02  0.87555324133E+02  0.50000000000E+02 0.  0.
<mgrwt>
<rscale>  0 0.52983114E+02</rscale>
<asrwt>0</asrwt>
<pdfrwt beam="1">  1       13 0.10000000E+01 0.52983114E+02</pdfrwt>
<pdfrwt beam="2">  1       22 0.12519452E+00 0.52983114E+02</pdfrwt>
<totfact> 0.10090580E+00</totfact>
</mgrwt>
</event>
<event>
 4    1  0.2409985E+000  0.5224421E+02  0.7957747E-01  0.1433600E+00
         13   -1    0    0    0    0  0.00000000000E+00  0.00000000000E+00  0.99999944173E+02  0.99999999993E+02  0.10566000000E+00 0.  1.
         22   -1    0    0    0    0 -0.00000000000E+00 -0.00000000000E+00 -0.30232975988E+02  0.30232975988E+02  0.00000000000E+00 0. -1.
         13    1    1    2    0    0  0.62708213196E+01 -0.13788903998E+02 -0.20767811465E+02  0.25705451378E+02  0.10566000000E+00 0. -1.
        996    1    1    2    0    0 -0.62708213196E+01  0.13788903998E+02  0.90534779649E+02  0.10452752460E+03  0.50000000000E+02 0.  0.
<mgrwt>
<rscale>  0 0.52244206E+02</rscale>
<asrwt>0</asrwt>
<pdfrwt beam="1">  1       13 0.10000000E+01 0.52244206E+02</pdfrwt>
<pdfrwt beam="2">  1       22 0.30232995E+00 0.52244206E+02</pdfrwt>
<totfact> 0.20413015E-01</totfact>
</mgrwt>
</event>
<event>
 4    1  0.2409985E+000  0.5370358E+02  0.7957747E-01  0.1426331E+00
         13   -1    0    0    0    0  0.00000000000E+00  0.00000000000E+00  0.99999944182E+02  0.10000000000E+03  0.10566000000E+00 0. -1.
         22   -1    0    0    0    0 -0.00000000000E+00 -0.00000000000E+00 -0.24609796521E+02  0.24609796521E+02  0.00000000000E+00 0.  1.
         13    1    1    2    0    0  0.10056384554E+02 -0.16820933964E+02 -0.11307844971E+02  0.22626383088E+02  0.10566000000E+00 0.  1.
        996    1    1    2    0    0 -0.10056384554E+02  0.16820933964E+02  0.86697992632E+02  0.10198341344E+03  0.50000000000E+02 0.  0.
<mgrwt>
<rscale>  0 0.53703582E+02</rscale>
<asrwt>0</asrwt>
<pdfrwt beam="1">  1       13 0.10000000E+01 0.53703582E+02</pdfrwt>
<pdfrwt beam="2">  1       22 0.24609818E+00 0.53703582E+02</pdfrwt>
<totfact> 0.30486318E-01</totfact>
</mgrwt>
</event>
<event>
 4    1  0.2409985E+000  0.5950219E+02  0.7957747E-01  0.1399933E+00
         13   -1    0    0    0    0  0.00000000000E+00  0.00000000000E+00  0.99999944176E+02  0.99999999996E+02  0.10566000000E+00 0.  1.
         22   -1    0    0    0    0 -0.00000000000E+00 -0.00000000000E+00 -0.38864616070E+02  0.38864616070E+02  0.00000000000E+00 0. -1.
         13    1    1    2    0    0 -0.21336287200E+02 -0.24192434499E+02 -0.20220864322E+02  0.38071059303E+02  0.10566000000E+00 0. -1.
        996    1    1    2    0    0  0.21336287200E+02  0.24192434499E+02  0.81356192429E+02  0.10079355676E+03  0.50000000000E+02 0.  0.
<mgrwt>
<rscale>  0 0.59502194E+02</rscale>
<asrwt>0</asrwt>
<pdfrwt beam="1">  1       13 0.10000000E+01 0.59502194E+02</pdfrwt>
<pdfrwt beam="2">  1       22 0.38864633E+00 0.59502194E+02</pdfrwt>
<totfact> 0.13126957E-01</totfact>
</mgrwt>
</event>
<event>
 4    1  0.2409985E+000  0.5109731E+02  0.7957747E-01  0.1439511E+00
         13   -1    0    0    0    0  0.00000000000E+00  0.00000000000E+00  0.99999944178E+02  0.99999999999E+02  0.10566000000E+00 0.  1.
         22   -1    0    0    0    0 -0.00000000000E+00 -0.00000000000E+00 -0.95400493092E+01  0.95400493092E+01  0.00000000000E+00 0.  1.
         13    1    1    2    0    0 -0.36329624585E+01 -0.98861728255E+01  0.12783405839E+02  0.16563860005E+02  0.10566000000E+00 0. -1.
        996    1    1    2    0    0  0.36329624585E+01  0.98861728255E+01  0.77676489030E+02  0.92976189303E+02  0.50000000000E+02 0.  0.
<mgrwt>
<rscale>  0 0.51097307E+02</rscale>
<asrwt>0</asrwt>
<pdfrwt beam="1">  1       13 0.10000000E+01 0.51097307E+02</pdfrwt>
<pdfrwt beam="2">  1       22 0.95400746E-01 0.51097307E+02</pdfrwt>
<totfact> 0.15053282E+00</totfact>
</mgrwt>
</event>
<event>
 4    1  0.2409985E+000  0.5111396E+02  0.7957747E-01  0.1439424E+00
         13   -1    0    0    0    0  0.00000000000E+00  0.00000000000E+00  0.99999944174E+02  0.99999999994E+02  0.10566000000E+00 0. -1.
         22   -1    0    0    0    0 -0.00000000000E+00 -0.00000000000E+00 -0.10463579743E+02  0.10463579743E+02  0.00000000000E+00 0. -1.
         13    1    1    2    0    0 -0.32406117943E+01  0.10106222653E+02  0.51332821830E+01  0.11789785881E+02  0.10566000000E+00 0.  1.
        996    1    1    2    0    0  0.32406117943E+01 -0.10106222653E+02  0.84403082247E+02  0.98673793856E+02  0.50000000000E+02 0.  0.
<mgrwt>
<rscale>  0 0.51113964E+02</rscale>
<asrwt>0</asrwt>
<pdfrwt beam="1">  1       13 0.10000000E+01 0.51113964E+02</pdfrwt>
<pdfrwt beam="2">  1       22 0.10463605E+00 0.51113964E+02</pdfrwt>
<totfact> 0.13168968E+00</totfact>
</mgrwt>
</event>
<event>
 4    1  0.2409985E+000  0.5528805E+02  0.7957747E-01  0.1418742E+00
         13   -1    0    0    0    0  0.00000000000E+00  0.00000000000E+00  0.99999944173E+02  0.99999999993E+02  0.10566000000E+00 0.  1.
         22   -1    0    0    0    0 -0.00000000000E+00 -0.00000000000E+00 -0.35917912245E+02  0.35917912245E+02  0.00000000000E+00 0. -1.
         13    1    1    2    0    0  0.22904884936E+02  0.56687293686E+01 -0.22880694036E+02  0.32868002224E+02  0.10566000000E+00 0. -1.
        996    1    1    2    0    0 -0.22904884936E+02 -0.56687293686E+01  0.86962725965E+02  0.10304991001E+03  0.50000000000E+02 0.  0.
<mgrwt>
<rscale>  0 0.55288048E+02</rscale>
<asrwt>0</asrwt>
<pdfrwt beam="1">  1       13 0.10000000E+01 0.55288048E+02</pdfrwt>
<pdfrwt beam="2">  1       22 0.35917930E+00 0.55288048E+02</pdfrwt>
<totfact> 0.15067650E-01</totfact>
</mgrwt>
</event>
<event>
 4    1  0.2409985E+000  0.5265293E+02  0.7957747E-01  0.1431536E+00
         13   -1    0    0    0    0  0.00000000000E+00  0.00000000000E+00  0.99999944173E+02  0.99999999993E+02  0.10566000000E+00 0. -1.
         22   -1    0    0    0    0 -0.00000000000E+00 -0.00000000000E+00 -0.34889194969E+02  0.34889194969E+02  0.00000000000E+00 0.  1.
         13    1    1    2    0    0 -0.31342868272E+01  0.16202078471E+02 -0.25333780011E+02  0.30234792448E+02  0.10566000000E+00 0.  1.
        996    1    1    2    0    0  0.31342868272E+01 -0.16202078471E+02  0.90444529215E+02  0.10465440251E+03  0.50000000000E+02 0.  0.
<mgrwt>
<rscale>  0 0.52652931E+02</rscale>
<asrwt>0</asrwt>
<pdfrwt beam="1">  1       13 0.10000000E+01 0.52652931E+02</pdfrwt>
<pdfrwt beam="2">  1       22 0.34889213E+00 0.52652931E+02</pdfrwt>
<totfact> 0.15812126E-01</totfact>
</mgrwt>
</event>
<event>
 4    1  0.2409985E+000  0.5126664E+02  0.7957747E-01  0.1438627E+00
         13   -1    0    0    0    0  0.00000000000E+00  0.00000000000E+00  0.99999944176E+02  0.99999999996E+02  0.10566000000E+00 0. -1.
         22   -1    0    0    0    0 -0.00000000000E+00 -0.00000000000E+00 -0.21925264247E+02  0.21925264247E+02  0.00000000000E+00 0. -1.
         13    1    1    2    0    0  0.31429558447E+01 -0.10880741476E+02 -0.13105076565E+02  0.17321169196E+02  0.10566000000E+00 0.  1.
        996    1    1    2    0    0 -0.31429558447E+01  0.10880741476E+02  0.91179756493E+02  0.10460409505E+03  0.50000000000E+02 0.  0.
<mgrwt>
<rscale>  0 0.51266643E+02</rscale>
<asrwt>0</asrwt>
<pdfrwt beam="1">  1       13 0.10000000E+01 0.51266643E+02</pdfrwt>
<pdfrwt beam="2">  1       22 0.21925286E+00 0.51266643E+02</pdfrwt>
<totfact> 0.38021117E-01</totfact>
</mgrwt>
</event>
<event>
 4    1  0.2409985E+000  0.5179044E+02  0.7957747E-01  0.1435917E+00
         13   -1    0    0    0    0  0.00000000000E+00  0.00000000000E+00  0.99999944182E+02  0.10000000000E+03  0.10566000000E+00 0. -1.
         22   -1    0    0    0    0 -0.00000000000E+00 -0.00000000000E+00 -0.29527098763E+02  0.29527098763E+02  0.00000000000E+00 0.  1.
         13    1    1    2    0    0 -0.11824135303E+02  0.65145665315E+01 -0.20675353272E+02  0.24692734756E+02  0.10566000000E+00 0.  1.
        996    1    1    2    0    0  0.11824135303E+02 -0.65145665315E+01  0.91148198690E+02  0.10483436401E+03  0.50000000000E+02 0.  0.
<mgrwt>
<rscale>  0 0.51790441E+02</rscale>
<asrwt>0</asrwt>
<pdfrwt beam="1">  1       13 0.10000000E+01 0.51790441E+02</pdfrwt>
<pdfrwt beam="2">  1       22 0.29527118E+00 0.51790441E+02</pdfrwt>
<totfact> 0.21324490E-01</totfact>
</mgrwt>
</event>
<event>
 4    1  0.2409985E+000  0.5404091E+02  0.7957747E-01  0.1424690E+00
         13   -1    0    0    0    0  0.00000000000E+00  0.00000000000E+00  0.99999944179E+02  0.10000000000E+03  0.10566000000E+00 0. -1.
         22   -1    0    0    0    0 -0.00000000000E+00 -0.00000000000E+00 -0.23051979828E+02  0.23051979828E+02  0.00000000000E+00 0.  1.
         13    1    1    2    0    0  0.12500684364E+02 -0.16252767909E+02 -0.82980074350E+01  0.22119847778E+02  0.10566000000E+00 0.  1.
        996    1    1    2    0    0 -0.12500684364E+02  0.16252767909E+02  0.85245971787E+02  0.10093213205E+03  0.50000000000E+02 0.  0.
<mgrwt>
<rscale>  0 0.54040906E+02</rscale>
<asrwt>0</asrwt>
<pdfrwt beam="1">  1       13 0.10000000E+01 0.54040906E+02</pdfrwt>
<pdfrwt beam="2">  1       22 0.23052001E+00 0.54040906E+02</pdfrwt>
<totfact> 0.34668931E-01</totfact>
</mgrwt>
</event>
<event>
 4    1  0.2409985E+000  0.5317317E+02  0.7957747E-01  0.1428941E+00
         13   -1    0    0    0    0  0.00000000000E+00  0.00000000000E+00  0.99999944186E+02  0.10000000001E+03  0.10566000000E+00 0. -1.
         22   -1    0    0    0    0 -0.00000000000E+00 -0.00000000000E+00 -0.18823173948E+02  0.18823173948E+02  0.00000000000E+00 0.  1.
         13    1    1    2    0    0  0.17295709085E+02 -0.53145741941E+01 -0.38875607216E+01  0.18507040390E+02  0.10566000000E+00 0.  1.
        996    1    1    2    0    0 -0.17295709085E+02  0.53145741941E+01  0.85064330959E+02  0.10031613356E+03  0.50000000000E+02 0.  0.
<mgrwt>
<rscale>  0 0.53173172E+02</rscale>
<asrwt>0</asrwt>
<pdfrwt beam="1">  1       13 0.10000000E+01 0.53173172E+02</pdfrwt>
<pdfrwt beam="2">  1       22 0.18823197E+00 0.53173172E+02</pdfrwt>
<totfact> 0.50780679E-01</totfact>
</mgrwt>
</event>
<event>
 4    1  0.2409985E+000  0.5213450E+02  0.7957747E-01  0.1434157E+00
         13   -1    0    0    0    0  0.00000000000E+00  0.00000000000E+00  0.99999944174E+02  0.99999999994E+02  0.10566000000E+00 0.  1.
         22   -1    0    0    0    0 -0.00000000000E+00 -0.00000000000E+00 -0.11694901288E+02  0.11694901288E+02  0.00000000000E+00 0.  1.
         13    1    1    2    0    0 -0.14493349004E+02 -0.28194130673E+01  0.10827861840E+02  0.18310106812E+02  0.10566000000E+00 0. -1.
        996    1    1    2    0    0  0.14493349004E+02  0.28194130673E+01  0.77477181046E+02  0.93384794470E+02  0.50000000000E+02 0.  0.
<mgrwt>
<rscale>  0 0.52134502E+02</rscale>
<asrwt>0</asrwt>
<pdfrwt beam="1">  1       13 0.10000000E+01 0.52134502E+02</pdfrwt>
<pdfrwt beam="2">  1       22 0.11694926E+00 0.52134502E+02</pdfrwt>
<totfact> 0.11183149E+00</totfact>
</mgrwt>
</event>
<event>
 4    1  0.2409985E+000  0.5179181E+02  0.7957747E-01  0.1435910E+00
         13   -1    0    0    0    0  0.00000000000E+00  0.00000000000E+00  0.99999944179E+02  0.99999999999E+02  0.10566000000E+00 0. -1.
         22   -1    0    0    0    0 -0.00000000000E+00 -0.00000000000E+00 -0.10703955995E+02  0.10703955995E+02  0.00000000000E+00 0. -1.
         13    1    1    2    0    0 -0.10508455327E+02  0.84831837676E+01  0.15681646101E+02  0.20695826359E+02  0.10566000000E+00 0.  1.
        996    1    1    2    0    0  0.10508455327E+02 -0.84831837676E+01  0.73614342082E+02  0.90008129635E+02  0.50000000000E+02 0.  0.
<mgrwt>
<rscale>  0 0.51791814E+02</rscale>
<asrwt>0</asrwt>
<pdfrwt beam="1">  1       13 0.10000000E+01 0.51791814E+02</pdfrwt>
<pdfrwt beam="2">  1       22 0.10703981E+00 0.51791814E+02</pdfrwt>
<totfact> 0.12756769E+00</totfact>
</mgrwt>
</event>
<event>
 4    1  0.2409985E+000  0.5135175E+02  0.7957747E-01  0.1438184E+00
         13   -1    0    0    0    0  0.00000000000E+00  0.00000000000E+00  0.99999944175E+02  0.99999999995E+02  0.10566000000E+00 0. -1.
         22   -1    0    0    0    0 -0.00000000000E+00 -0.00000000000E+00 -0.18138364870E+02  0.18138364870E+02  0.00000000000E+00 0.  1.
         13    1    1    2    0    0 -0.78925745060E+01  0.86434818950E+01 -0.83201261656E+01  0.14360994919E+02  0.10566000000E+00 0.  1.
        996    1    1    2    0    0  0.78925745060E+01 -0.86434818950E+01  0.90181705470E+02  0.10377736995E+03  0.50000000000E+02 0.  0.
<mgrwt>
<rscale>  0 0.51351753E+02</rscale>
<asrwt>0</asrwt>
<pdfrwt beam="1">  1       13 0.10000000E+01 0.51351753E+02</pdfrwt>
<pdfrwt beam="2">  1       22 0.18138388E+00 0.51351753E+02</pdfrwt>
<totfact> 0.54123640E-01</totfact>
</mgrwt>
</event>
<event>
 4    1  0.2409985E+000  0.5155421E+02  0.7957747E-01  0.1437134E+00
         13   -1    0    0    0    0  0.00000000000E+00  0.00000000000E+00  0.99999944181E+02  0.10000000000E+03  0.10566000000E+00 0.  1.
         22   -1    0    0    0    0 -0.00000000000E+00 -0.00000000000E+00 -0.10397319527E+02  0.10397319527E+02  0.00000000000E+00 0.  1.
         13    1    1    2    0    0  0.26024679982E+01 -0.12290806189E+02  0.13155886211E+02  0.18191351310E+02  0.10566000000E+00 0. -1.
        996    1    1    2    0    0 -0.26024679982E+01  0.12290806189E+02  0.76446738443E+02  0.92205968218E+02  0.50000000000E+02 0.  0.
<mgrwt>
<rscale>  0 0.51554212E+02</rscale>
<asrwt>0</asrwt>
<pdfrwt beam="1">  1       13 0.10000000E+01 0.51554212E+02</pdfrwt>
<pdfrwt beam="2">  1       22 0.10397345E+00 0.51554212E+02</pdfrwt>
<totfact> 0.13306072E+00</totfact>
</mgrwt>
</event>
<event>
 4    1  0.2409985E+000  0.5791857E+02  0.7957747E-01  0.1406780E+00
         13   -1    0    0    0    0  0.00000000000E+00  0.00000000000E+00  0.99999944182E+02  0.10000000000E+03  0.10566000000E+00 0.  1.
         22   -1    0    0    0    0 -0.00000000000E+00 -0.00000000000E+00 -0.20436070743E+02  0.20436070743E+02  0.00000000000E+00 0.  1.
         13    1    1    2    0    0 -0.34695165422E+01 -0.29026241814E+02  0.12416582775E+02  0.31760713952E+02  0.10566000000E+00 0. -1.
        996    1    1    2    0    0  0.34695165422E+01  0.29026241814E+02  0.67147290664E+02  0.88675356793E+02  0.50000000000E+02 0.  0.
<mgrwt>
<rscale>  0 0.57918566E+02</rscale>
<asrwt>0</asrwt>
<pdfrwt beam="1">  1       13 0.10000000E+01 0.57918566E+02</pdfrwt>
<pdfrwt beam="2">  1       22 0.20436093E+00 0.57918566E+02</pdfrwt>
<totfact> 0.43947878E-01</totfact>
</mgrwt>
</event>
<event>
 4    1  0.2409985E+000  0.5104905E+02  0.7957747E-01  0.1439764E+00
         13   -1    0    0    0    0  0.00000000000E+00  0.00000000000E+00  0.99999944180E+02  0.10000000000E+03  0.10566000000E+00 0. -1.
         22   -1    0    0    0    0 -0.00000000000E+00 -0.00000000000E+00 -0.30229947523E+02  0.30229947523E+02  0.00000000000E+00 0.  1.
         13    1    1    2    0    0 -0.10251106776E+02  0.95925049870E+00 -0.22519987702E+02  0.24762196223E+02  0.10566000000E+00 0.  1.
        996    1    1    2    0    0  0.10251106776E+02 -0.95925049870E+00  0.92289984358E+02  0.10546775130E+03  0.50000000000E+02 0.  0.
<mgrwt>
<rscale>  0 0.51049048E+02</rscale>
<asrwt>0</asrwt>
<pdfrwt beam="1">  1       13 0.10000000E+01 0.51049048E+02</pdfrwt>
<pdfrwt beam="2">  1       22 0.30229967E+00 0.51049048E+02</pdfrwt>
<totfact> 0.20384749E-01</totfact>
</mgrwt>
</event>
<event>
 4    1  0.2409985E+000  0.5135050E+02  0.7957747E-01  0.1438191E+00
         13   -1    0    0    0    0  0.00000000000E+00  0.00000000000E+00  0.99999944186E+02  0.10000000001E+03  0.10566000000E+00 0.  1.
         22   -1    0    0    0    0 -0.00000000000E+00 -0.00000000000E+00 -0.23745668094E+02  0.23745668094E+02  0.00000000000E+00 0. -1.
         13    1    1    2    0    0  0.10019793742E+02  0.60396397109E+01 -0.15007377340E+02  0.19029084401E+02  0.10566000000E+00 0. -1.
        996    1    1    2    0    0 -0.10019793742E+02 -0.60396397109E+01  0.91261653432E+02  0.10471658370E+03  0.50000000000E+02 0.  0.
<mgrwt>
<rscale>  0 0.51350497E+02</rscale>
<asrwt>0</asrwt>
<pdfrwt beam="1">  1       13 0.10000000E+01 0.51350497E+02</pdfrwt>
<pdfrwt beam="2">  1       22 0.23745689E+00 0.51350497E+02</pdfrwt>
<totfact> 0.32577918E-01</totfact>
</mgrwt>
</event>
<event>
 4    1  0.2409985E+000  0.5099441E+02  0.7957747E-01  0.1440051E+00
         13   -1    0    0    0    0  0.00000000000E+00  0.00000000000E+00  0.99999944177E+02  0.99999999997E+02  0.10566000000E+00 0. -1.
         22   -1    0    0    0    0 -0.00000000000E+00 -0.00000000000E+00 -0.23279703494E+02  0.23279703494E+02  0.00000000000E+00 0.  1.
         13    1    1    2    0    0  0.55946881670E+01  0.83143773287E+01 -0.15173820012E+02  0.18184756909E+02  0.10566000000E+00 0.  1.
        996    1    1    2    0    0 -0.55946881670E+01 -0.83143773287E+01  0.91894060695E+02  0.10509494658E+03  0.50000000000E+02 0.  0.
<mgrwt>
<rscale>  0 0.50994406E+02</rscale>
<asrwt>0</asrwt>
<pdfrwt beam="1">  1       13 0.10000000E+01 0.50994406E+02</pdfrwt>
<pdfrwt beam="2">  1       22 0.23279725E+00 0.50994406E+02</pdfrwt>
<totfact> 0.33842432E-01</totfact>
</mgrwt>
</event>
<event>
 4    1  0.2409985E+000  0.5626967E+02  0.7957747E-01  0.1414188E+00
         13   -1    0    0    0    0  0.00000000000E+00  0.00000000000E+00  0.99999944178E+02  0.99999999998E+02  0.10566000000E+00 0. -1.
         22   -1    0    0    0    0 -0.00000000000E+00 -0.00000000000E+00 -0.31896029651E+02  0.31896029651E+02  0.00000000000E+00 0.  1.
         13    1    1    2    0    0  0.39871736364E+01  0.25502522014E+02 -0.16246255696E+02  0.30499642143E+02  0.10566000000E+00 0.  1.
        996    1    1    2    0    0 -0.39871736364E+01 -0.25502522014E+02  0.84350170222E+02  0.10139638751E+03  0.50000000000E+02 0.  0.
<mgrwt>
<rscale>  0 0.56269674E+02</rscale>
<asrwt>0</asrwt>
<pdfrwt beam="1">  1       13 0.10000000E+01 0.56269674E+02</pdfrwt>
<pdfrwt beam="2">  1       22 0.31896049E+00 0.56269674E+02</pdfrwt>
<totfact> 0.18598035E-01</totfact>
</mgrwt>
</event>
<event>
 4    1  0.2409985E+000  0.5128042E+02  0.7957747E-01  0.1438555E+00
         13   -1    0    0    0    0  0.00000000000E+00  0.00000000000E+00  0.99999944180E+02  0.10000000000E+03  0.10566000000E+00 0. -1.
         22   -1    0    0    0    0 -0.00000000000E+00 -0.00000000000E+00 -0.11226845364E+02  0.11226845364E+02  0.00000000000E+00 0.  1.
         13    1    1    2    0    0 -0.11758516657E+01 -0.11326905543E+02  0.38490798288E+01  0.12021147860E+02  0.10566000000E+00 0.  1.
        996    1    1    2    0    0  0.11758516657E+01  0.11326905543E+02  0.84924018987E+02  0.99205697504E+02  0.50000000000E+02 0.  0.
<mgrwt>
<rscale>  0 0.51280419E+02</rscale>
<asrwt>0</asrwt>
<pdfrwt beam="1">  1       13 0.10000000E+01 0.51280419E+02</pdfrwt>
<pdfrwt beam="2">  1       22 0.11226870E+00 0.51280419E+02</pdfrwt>
<totfact> 0.11869695E+00</totfact>
</mgrwt>
</event>
<event>
 4    1  0.2409985E+000  0.5222127E+02  0.7957747E-01  0.1433716E+00
         13   -1    0    0    0    0  0.00000000000E+00  0.00000000000E+00  0.99999944177E+02  0.99999999997E+02  0.10566000000E+00 0.  1.
         22   -1    0    0    0    0 -0.00000000000E+00 -0.00000000000E+00 -0.13382629495E+02  0.13382629495E+02  0.00000000000E+00 0. -1.
         13    1    1    2    0    0  0.12534103387E+02 -0.83640322348E+01  0.39086477835E+01  0.15567577669E+02  0.10566000000E+00 0. -1.
        996    1    1    2    0    0 -0.12534103387E+02  0.83640322348E+01  0.82708666899E+02  0.97815051823E+02  0.50000000000E+02 0.  0.
<mgrwt>
<rscale>  0 0.52221268E+02</rscale>
<asrwt>0</asrwt>
<pdfrwt beam="1">  1       13 0.10000000E+01 0.52221268E+02</pdfrwt>
<pdfrwt beam="2">  1       22 0.13382654E+00 0.52221268E+02</pdfrwt>
<totfact> 0.90706562E-01</totfact>
</mgrwt>
</event>
<event>
 4    1  0.2409985E+000  0.5185208E+02  0.7957747E-01  0.1435600E+00
         13   -1    0    0    0    0  0.00000000000E+00  0.00000000000E+00  0.99999944188E+02  0.10000000001E+03  0.10566000000E+00 0.  1.
         22   -1    0    0    0    0 -0.00000000000E+00 -0.00000000000E+00 -0.20514125096E+02  0.20514125096E+02  0.00000000000E+00 0. -1.
         13    1    1    2    0    0  0.13230268966E+02  0.36875832008E+01 -0.10069594900E+02  0.17030742564E+02  0.10566000000E+00 0. -1.
        996    1    1    2    0    0 -0.13230268966E+02 -0.36875832008E+01  0.89555413992E+02  0.10348338254E+03  0.50000000000E+02 0.  0.
<mgrwt>
<rscale>  0 0.51852081E+02</rscale>
<asrwt>0</asrwt>
<pdfrwt beam="1">  1       13 0.10000000E+01 0.51852081E+02</pdfrwt>
<pdfrwt beam="2">  1       22 0.20514147E+00 0.51852081E+02</pdfrwt>
<totfact> 0.43192285E-01</totfact>
</mgrwt>
</event>
<event>
 4    1  0.2409985E+000  0.5379279E+02  0.7957747E-01  0.1425896E+00
         13   -1    0    0    0    0  0.00000000000E+00  0.00000000000E+00  0.99999944184E+02  0.10000000000E+03  0.10566000000E+00 0. -1.
         22   -1    0    0    0    0 -0.00000000000E+00 -0.00000000000E+00 -0.15102213036E+02  0.15102213036E+02  0.00000000000E+00 0. -1.
         13    1    1    2    0    0  0.12906321311E+02 -0.15069528682E+02  0.83107901660E+01  0.21511490457E+02  0.10566000000E+00 0.  1.
        996    1    1    2    0    0 -0.12906321311E+02  0.15069528682E+02  0.76586940982E+02  0.93590722582E+02  0.50000000000E+02 0.  0.
<mgrwt>
<rscale>  0 0.53792786E+02</rscale>
<asrwt>0</asrwt>
<pdfrwt beam="1">  1       13 0.10000000E+01 0.53792786E+02</pdfrwt>
<pdfrwt beam="2">  1       22 0.15102237E+00 0.53792786E+02</pdfrwt>
<totfact> 0.74712237E-01</totfact>
</mgrwt>
</event>
<event>
 4    1  0.2409985E+000  0.5399952E+02  0.7957747E-01  0.1424890E+00
         13   -1    0    0    0    0  0.00000000000E+00  0.00000000000E+00  0.99999944184E+02  0.10000000000E+03  0.10566000000E+00 0.  1.
         22   -1    0    0    0    0 -0.00000000000E+00 -0.00000000000E+00 -0.13838777310E+02  0.13838777310E+02  0.00000000000E+00 0.  1.
         13    1    1    2    0    0  0.19267819588E+02 -0.66857728011E+01  0.22954591346E+02  0.30706234831E+02  0.10566000000E+00 0. -1.
        996    1    1    2    0    0 -0.19267819588E+02  0.66857728011E+01  0.63206575528E+02  0.83132542482E+02  0.50000000000E+02 0.  0.
<mgrwt>
<rscale>  0 0.53999522E+02</rscale>
<asrwt>0</asrwt>
<pdfrwt beam="1">  1       13 0.10000000E+01 0.53999522E+02</pdfrwt>
<pdfrwt beam="2">  1       22 0.13838801E+00 0.53999522E+02</pdfrwt>
<totfact> 0.86278101E-01</totfact>
</mgrwt>
</event>
<event>
 4    1  0.2409985E+000  0.5571231E+02  0.7957747E-01  0.1416760E+00
         13   -1    0    0    0    0  0.00000000000E+00  0.00000000000E+00  0.99999944180E+02  0.10000000000E+03  0.10566000000E+00 0. -1.
         22   -1    0    0    0    0 -0.00000000000E+00 -0.00000000000E+00 -0.52369695170E+02  0.52369695170E+02  0.00000000000E+00 0.  1.
         13    1    1    2    0    0 -0.39248131973E+01 -0.24258131678E+02 -0.40931485088E+02  0.47741582993E+02  0.10566000000E+00 0.  1.
        996    1    1    2    0    0  0.39248131973E+01  0.24258131678E+02  0.88561734099E+02  0.10462811218E+03  0.50000000000E+02 0.  0.
<mgrwt>
<rscale>  0 0.55712307E+02</rscale>
<asrwt>0</asrwt>
<pdfrwt beam="1">  1       13 0.10000000E+01 0.55712307E+02</pdfrwt>
<pdfrwt beam="2">  1       22 0.52369708E+00 0.55712307E+02</pdfrwt>
<totfact> 0.65187976E-02</totfact>
</mgrwt>
</event>
<event>
 4    1  0.2409985E+000  0.5188443E+02  0.7957747E-01  0.1435435E+00
         13   -1    0    0    0    0  0.00000000000E+00  0.00000000000E+00  0.99999944170E+02  0.99999999990E+02  0.10566000000E+00 0.  1.
         22   -1    0    0    0    0 -0.00000000000E+00 -0.00000000000E+00 -0.23238128480E+02  0.23238128480E+02  0.00000000000E+00 0. -1.
         13    1    1    2    0    0 -0.12805004811E+02 -0.52939524627E+01 -0.13359878650E+02  0.19248158417E+02  0.10566000000E+00 0. -1.
        996    1    1    2    0    0  0.12805004811E+02  0.52939524627E+01  0.90121694339E+02  0.10398997005E+03  0.50000000000E+02 0.  0.
<mgrwt>
<rscale>  0 0.51884430E+02</rscale>
<asrwt>0</asrwt>
<pdfrwt beam="1">  1       13 0.10000000E+01 0.51884430E+02</pdfrwt>
<pdfrwt beam="2">  1       22 0.23238150E+00 0.51884430E+02</pdfrwt>
<totfact> 0.34010914E-01</totfact>
</mgrwt>
</event>
<event>
 4    1  0.2409985E+000  0.5635327E+02  0.7957747E-01  0.1413805E+00
         13   -1    0    0    0    0  0.00000000000E+00  0.00000000000E+00  0.99999944177E+02  0.99999999997E+02  0.10566000000E+00 0. -1.
         22   -1    0    0    0    0 -0.00000000000E+00 -0.00000000000E+00 -0.77976010238E+02  0.77976010238E+02  0.00000000000E+00 0.  1.
         13    1    1    2    0    0 -0.22946724235E+02 -0.12212241204E+02 -0.67421268530E+02  0.72258768344E+02  0.10566000000E+00 0.  1.
        996    1    1    2    0    0  0.22946724235E+02  0.12212241204E+02  0.89445202469E+02  0.10571724189E+03  0.50000000000E+02 0.  0.
<mgrwt>
<rscale>  0 0.56353270E+02</rscale>
<asrwt>0</asrwt>
<pdfrwt beam="1">  1       13 0.10000000E+01 0.56353270E+02</pdfrwt>
<pdfrwt beam="2">  1       22 0.77976016E+00 0.56353270E+02</pdfrwt>
<totfact> 0.37186824E-02</totfact>
</mgrwt>
</event>
<event>
 4    1  0.2409985E+000  0.5343044E+02  0.7957747E-01  0.1427671E+00
         13   -1    0    0    0    0  0.00000000000E+00  0.00000000000E+00  0.99999944176E+02  0.99999999997E+02  0.10566000000E+00 0. -1.
         22   -1    0    0    0    0 -0.00000000000E+00 -0.00000000000E+00 -0.14642286790E+02  0.14642286790E+02  0.00000000000E+00 0.  1.
         13    1    1    2    0    0  0.18416104836E+02 -0.39571227912E+01  0.76340703176E+01  0.20324909146E+02  0.10566000000E+00 0.  1.
        996    1    1    2    0    0 -0.18416104836E+02  0.39571227912E+01  0.77723587069E+02  0.94317377641E+02  0.50000000000E+02 0.  0.
<mgrwt>
<rscale>  0 0.53430438E+02</rscale>
<asrwt>0</asrwt>
<pdfrwt beam="1">  1       13 0.10000000E+01 0.53430438E+02</pdfrwt>
<pdfrwt beam="2">  1       22 0.14642311E+00 0.53430438E+02</pdfrwt>
<totfact> 0.78593298E-01</totfact>
</mgrwt>
</event>
<event>
 4    1  0.2409985E+000  0.5129027E+02  0.7957747E-01  0.1438504E+00
         13   -1    0    0    0    0  0.00000000000E+00  0.00000000000E+00  0.99999944177E+02  0.99999999997E+02  0.10566000000E+00 0.  1.
         22   -1    0    0    0    0 -0.00000000000E+00 -0.00000000000E+00 -0.28378604718E+02  0.28378604718E+02  0.00000000000E+00 0. -1.
         13    1    1    2    0    0 -0.65040148923E+01  0.94015921376E+01 -0.20195656356E+02  0.23207064531E+02  0.10566000000E+00 0. -1.
        996    1    1    2    0    0  0.65040148923E+01 -0.94015921376E+01  0.91816995814E+02  0.10517154018E+03  0.50000000000E+02 0.  0.
<mgrwt>
<rscale>  0 0.51290273E+02</rscale>
<asrwt>0</asrwt>
<pdfrwt beam="1">  1       13 0.10000000E+01 0.51290273E+02</pdfrwt>
<pdfrwt beam="2">  1       22 0.28378625E+00 0.51290273E+02</pdfrwt>
<totfact> 0.22983355E-01</totfact>
</mgrwt>
</event>
<event>
 4    1  0.2409985E+000  0.5104537E+02  0.7957747E-01  0.1439783E+00
         13   -1    0    0    0    0  0.00000000000E+00  0.00000000000E+00  0.99999944183E+02  0.10000000000E+03  0.10566000000E+00 0. -1.
         22   -1    0    0    0    0 -0.00000000000E+00 -0.00000000000E+00 -0.10044540277E+02  0.10044540277E+02  0.00000000000E+00 0. -1.
         13    1    1    2    0    0 -0.58708992735E+01  0.84357490823E+01  0.27652572411E+02  0.29500936355E+02  0.10566000000E+00 0.  1.
        996    1    1    2    0    0  0.58708992735E+01 -0.84357490823E+01  0.62302831495E+02  0.80543603925E+02  0.50000000000E+02 0.  0.
<mgrwt>
<rscale>  0 0.51045365E+02</rscale>
<asrwt>0</asrwt>
<pdfrwt beam="1">  1       13 0.10000000E+01 0.51045365E+02</pdfrwt>
<pdfrwt beam="2">  1       22 0.10044565E+00 0.51045365E+02</pdfrwt>
<totfact> 0.13975037E+00</totfact>
</mgrwt>
</event>
<event>
 4    1  0.2409985E+000  0.5205108E+02  0.7957747E-01  0.1434582E+00
         13   -1    0    0    0    0  0.00000000000E+00  0.00000000000E+00  0.99999944180E+02  0.10000000000E+03  0.10566000000E+00 0. -1.
         22   -1    0    0    0    0 -0.00000000000E+00 -0.00000000000E+00 -0.12189001332E+02  0.12189001332E+02  0.00000000000E+00 0. -1.
         13    1    1    2    0    0  0.10879597483E+02 -0.95367443428E+01  0.70173263913E+01  0.16080086062E+02  0.10566000000E+00 0.  1.
        996    1    1    2    0    0 -0.10879597483E+02  0.95367443428E+01  0.80793616457E+02  0.96108915269E+02  0.50000000000E+02 0.  0.
<mgrwt>
<rscale>  0 0.52051082E+02</rscale>
<asrwt>0</asrwt>
<pdfrwt beam="1">  1       13 0.10000000E+01 0.52051082E+02</pdfrwt>
<pdfrwt beam="2">  1       22 0.12189026E+00 0.52051082E+02</pdfrwt>
<totfact> 0.10495645E+00</totfact>
</mgrwt>
</event>
<event>
 4    1  0.2409985E+000  0.5190248E+02  0.7957747E-01  0.1435342E+00
         13   -1    0    0    0    0  0.00000000000E+00  0.00000000000E+00  0.99999944180E+02  0.10000000000E+03  0.10566000000E+00 0.  1.
         22   -1    0    0    0    0 -0.00000000000E+00 -0.00000000000E+00 -0.16849582347E+02  0.16849582347E+02  0.00000000000E+00 0. -1.
         13    1    1    2    0    0 -0.13903331184E+02  0.75187902562E+00 -0.47985481499E+01  0.14727700719E+02  0.10566000000E+00 0. -1.
        996    1    1    2    0    0  0.13903331184E+02 -0.75187902562E+00  0.87948909983E+02  0.10212188163E+03  0.50000000000E+02 0.  0.
<mgrwt>
<rscale>  0 0.51902485E+02</rscale>
<asrwt>0</asrwt>
<pdfrwt beam="1">  1       13 0.10000000E+01 0.51902485E+02</pdfrwt>
<pdfrwt beam="2">  1       22 0.16849606E+00 0.51902485E+02</pdfrwt>
<totfact> 0.61739198E-01</totfact>
</mgrwt>
</event>
<event>
 4    1  0.2409985E+000  0.5168149E+02  0.7957747E-01  0.1436477E+00
         13   -1    0    0    0    0  0.00000000000E+00  0.00000000000E+00  0.99999944174E+02  0.99999999995E+02  0.10566000000E+00 0.  1.
         22   -1    0    0    0    0 -0.00000000000E+00 -0.00000000000E+00 -0.33476280007E+02  0.33476280007E+02  0.00000000000E+00 0. -1.
         13    1    1    2    0    0  0.92518632167E+01 -0.92400846713E+01 -0.25088585687E+02  0.28291773248E+02  0.10566000000E+00 0. -1.
        996    1    1    2    0    0 -0.92518632167E+01  0.92400846713E+01  0.91612249854E+02  0.10518450675E+03  0.50000000000E+02 0.  0.
<mgrwt>
<rscale>  0 0.51681487E+02</rscale>
<asrwt>0</asrwt>
<pdfrwt beam="1">  1       13 0.10000000E+01 0.51681487E+02</pdfrwt>
<pdfrwt beam="2">  1       22 0.33476299E+00 0.51681487E+02</pdfrwt>
<totfact> 0.16979033E-01</totfact>
</mgrwt>
</event>
<event>
 4    1  0.2409985E+000  0.5599084E+02  0.7957747E-01  0.1415470E+00
         13   -1    0    0    0    0  0.00000000000E+00  0.00000000000E+00  0.99999944179E+02  0.99999999999E+02  0.10566000000E+00 0. -1.
         22   -1    0    0    0    0 -0.00000000000E+00 -0.00000000000E+00 -0.16676736812E+02  0.16676736812E+02  0.00000000000E+00 0.  1.
         13    1    1    2    0    0 -0.11569517611E+02 -0.22385707390E+02  0.31925617898E+02  0.40672224863E+02  0.10566000000E+00 0.  1.
        996    1    1    2    0    0  0.11569517611E+02  0.22385707390E+02  0.51397589469E+02  0.76004511947E+02  0.50000000000E+02 0.  0.
<mgrwt>
<rscale>  0 0.55990835E+02</rscale>
<asrwt>0</asrwt>
<pdfrwt beam="1">  1       13 0.10000000E+01 0.55990835E+02</pdfrwt>
<pdfrwt beam="2">  1       22 0.16676760E+00 0.55990835E+02</pdfrwt>
<totfact> 0.63342846E-01</totfact>
</mgrwt>
</event>
<event>
 4    1  0.2409985E+000  0.5343199E+02  0.7957747E-01  0.1427663E+00
         13   -1    0    0    0    0  0.00000000000E+00  0.00000000000E+00  0.99999944192E+02  0.10000000001E+03  0.10566000000E+00 0.  1.
         22   -1    0    0    0    0 -0.00000000000E+00 -0.00000000000E+00 -0.19537171658E+02  0.19537171658E+02  0.00000000000E+00 0. -1.
         13    1    1    2    0    0 -0.18813947723E+02  0.10064616897E+01 -0.43123915833E+01  0.19328359456E+02  0.10566000000E+00 0. -1.
        996    1    1    2    0    0  0.18813947723E+02 -0.10064616897E+01  0.84775164117E+02  0.10020881221E+03  0.50000000000E+02 0.  0.
<mgrwt>
<rscale>  0 0.53431990E+02</rscale>
<asrwt>0</asrwt>
<pdfrwt beam="1">  1       13 0.10000000E+01 0.53431990E+02</pdfrwt>
<pdfrwt beam="2">  1       22 0.19537194E+00 0.53431990E+02</pdfrwt>
<totfact> 0.47443474E-01</totfact>
</mgrwt>
</event>
<event>
 4    1  0.2409985E+000  0.5127161E+02  0.7957747E-01  0.1438601E+00
         13   -1    0    0    0    0  0.00000000000E+00  0.00000000000E+00  0.99999944178E+02  0.99999999998E+02  0.10566000000E+00 0.  1.
         22   -1    0    0    0    0 -0.00000000000E+00 -0.00000000000E+00 -0.12575876164E+02  0.12575876164E+02  0.00000000000E+00 0. -1.
         13    1    1    2    0    0  0.74910733274E+01  0.85241970142E+01  0.14283156141E+00  0.11349435194E+02  0.10566000000E+00 0. -1.
        996    1    1    2    0    0 -0.74910733274E+01 -0.85241970142E+01  0.87281236453E+02  0.10122644097E+03  0.50000000000E+02 0.  0.
<mgrwt>
<rscale>  0 0.51271611E+02</rscale>
<asrwt>0</asrwt>
<pdfrwt beam="1">  1       13 0.10000000E+01 0.51271611E+02</pdfrwt>
<pdfrwt beam="2">  1       22 0.12575901E+00 0.51271611E+02</pdfrwt>
<totfact> 0.99827095E-01</totfact>
</mgrwt>
</event>
<event>
 4    1  0.2409985E+000  0.5851040E+02  0.7957747E-01  0.1404191E+00
         13   -1    0    0    0    0  0.00000000000E+00  0.00000000000E+00  0.99999944187E+02  0.10000000001E+03  0.10566000000E+00 0. -1.
         22   -1    0    0    0    0 -0.00000000000E+00 -0.00000000000E+00 -0.35775415649E+02  0.35775415649E+02  0.00000000000E+00 0.  1.
         13    1    1    2    0    0 -0.27620168444E+02  0.12672530449E+02 -0.17650241585E+02  0.35142693763E+02  0.10566000000E+00 0.  1.
        996    1    1    2    0    0  0.27620168444E+02 -0.12672530449E+02  0.81874770124E+02  0.10063272189E+03  0.50000000000E+02 0.  0.
<mgrwt>
<rscale>  0 0.58510399E+02</rscale>
<asrwt>0</asrwt>
<pdfrwt beam="1">  1       13 0.10000000E+01 0.58510399E+02</pdfrwt>
<pdfrwt beam="2">  1       22 0.35775434E+00 0.58510399E+02</pdfrwt>
<totfact> 0.15217557E-01</totfact>
</mgrwt>
</event>
<event>
 4    1  0.2409985E+000  0.6251836E+02  0.7957747E-01  0.1387557E+00
         13   -1    0    0    0    0  0.00000000000E+00  0.00000000000E+00  0.99999944179E+02  0.99999999999E+02  0.10566000000E+00 0.  1.
         22   -1    0    0    0    0 -0.00000000000E+00 -0.00000000000E+00 -0.73706451036E+02  0.73706451036E+02  0.00000000000E+00 0. -1.
         13    1    1    2    0    0 -0.18563591555E+02  0.32618070953E+02 -0.57802341938E+02  0.68917830651E+02  0.10566000000E+00 0. -1.
        996    1    1    2    0    0  0.18563591555E+02 -0.32618070953E+02  0.84095835080E+02  0.10478862038E+03  0.50000000000E+02 0.  0.
<mgrwt>
<rscale>  0 0.62518361E+02</rscale>
<asrwt>0</asrwt>
<pdfrwt beam="1">  1       13 0.10000000E+01 0.62518361E+02</pdfrwt>
<pdfrwt beam="2">  1       22 0.73706458E+00 0.62518361E+02</pdfrwt>
<totfact> 0.55170779E-02</totfact>
</mgrwt>
</event>
<event>
 4    1  0.2409985E+000  0.5385458E+02  0.7957747E-01  0.1425595E+00
         13   -1    0    0    0    0  0.00000000000E+00  0.00000000000E+00  0.99999944173E+02  0.99999999993E+02  0.10566000000E+00 0.  1.
         22   -1    0    0    0    0 -0.00000000000E+00 -0.00000000000E+00 -0.22707066803E+02  0.22707066803E+02  0.00000000000E+00 0. -1.
         13    1    1    2    0    0  0.16986927659E+02 -0.10571646789E+02 -0.82346331682E+01  0.21636445516E+02  0.10566000000E+00 0. -1.
        996    1    1    2    0    0 -0.16986927659E+02  0.10571646789E+02  0.85527510538E+02  0.10107062128E+03  0.50000000000E+02 0.  0.
<mgrwt>
<rscale>  0 0.53854577E+02</rscale>
<asrwt>0</asrwt>
<pdfrwt beam="1">  1       13 0.10000000E+01 0.53854577E+02</pdfrwt>
<pdfrwt beam="2">  1       22 0.22707088E+00 0.53854577E+02</pdfrwt>
<totfact> 0.35689050E-01</totfact>
</mgrwt>
</event>
<event>
 4    1  0.2409985E+000  0.5110080E+02  0.7957747E-01  0.1439493E+00
         13   -1    0    0    0    0  0.00000000000E+00  0.00000000000E+00  0.99999944175E+02  0.99999999996E+02  0.10566000000E+00 0.  1.
         22   -1    0    0    0    0 -0.00000000000E+00 -0.00000000000E+00 -0.11667354393E+02  0.11667354393E+02  0.00000000000E+00 0.  1.
         13    1    1    2    0    0 -0.49906701535E+01 -0.92943391092E+01  0.11500802500E+01  0.10612510385E+02  0.10566000000E+00 0. -1.
        996    1    1    2    0    0  0.49906701535E+01  0.92943391092E+01  0.87182509533E+02  0.10105484400E+03  0.50000000000E+02 0.  0.
<mgrwt>
<rscale>  0 0.51100798E+02</rscale>
<asrwt>0</asrwt>
<pdfrwt beam="1">  1       13 0.10000000E+01 0.51100798E+02</pdfrwt>
<pdfrwt beam="2">  1       22 0.11667379E+00 0.51100798E+02</pdfrwt>
<totfact> 0.11196822E+00</totfact>
</mgrwt>
</event>
<event>
 4    1  0.2409985E+000  0.5227127E+02  0.7957747E-01  0.1433462E+00
         13   -1    0    0    0    0  0.00000000000E+00  0.00000000000E+00  0.99999944174E+02  0.99999999994E+02  0.10566000000E+00 0. -1.
         22   -1    0    0    0    0 -0.00000000000E+00 -0.00000000000E+00 -0.15886529926E+02  0.15886529926E+02  0.00000000000E+00 0.  1.
         13    1    1    2    0    0 -0.77463118635E+01  0.13125559634E+02 -0.17731295818E+01  0.15344080805E+02  0.10566000000E+00 0.  1.
        996    1    1    2    0    0  0.77463118635E+01 -0.13125559634E+02  0.85886543830E+02  0.10054244912E+03  0.50000000000E+02 0.  0.
<mgrwt>
<rscale>  0 0.52271270E+02</rscale>
<asrwt>0</asrwt>
<pdfrwt beam="1">  1       13 0.10000000E+01 0.52271270E+02</pdfrwt>
<pdfrwt beam="2">  1       22 0.15886553E+00 0.52271270E+02</pdfrwt>
<totfact> 0.68387074E-01</totfact>
</mgrwt>
</event>
<event>
 4    1  0.2409985E+000  0.5262267E+02  0.7957747E-01  0.1431688E+00
         13   -1    0    0    0    0  0.00000000000E+00  0.00000000000E+00  0.99999944176E+02  0.99999999996E+02  0.10566000000E+00 0.  1.
         22   -1    0    0    0    0 -0.00000000000E+00 -0.00000000000E+00 -0.45096842291E+02  0.45096842291E+02  0.00000000000E+00 0. -1.
         13    1    1    2    0    0  0.12455710164E+02 -0.10677116927E+02 -0.36280901354E+02  0.39817841587E+02  0.10566000000E+00 0. -1.
        996    1    1    2    0    0 -0.12455710164E+02  0.10677116927E+02  0.91184003240E+02  0.10527900070E+03  0.50000000000E+02 0.  0.
<mgrwt>
<rscale>  0 0.52622671E+02</rscale>
<asrwt>0</asrwt>
<pdfrwt beam="1">  1       13 0.10000000E+01 0.52622671E+02</pdfrwt>
<pdfrwt beam="2">  1       22 0.45096858E+00 0.52622671E+02</pdfrwt>
<totfact> 0.96169402E-02</totfact>
</mgrwt>
</event>
<event>
 4    1  0.2409985E+000  0.5692270E+02  0.7957747E-01  0.1411219E+00
         13   -1    0    0    0    0  0.00000000000E+00  0.00000000000E+00  0.99999944172E+02  0.99999999992E+02  0.10566000000E+00 0.  1.
         22   -1    0    0    0    0 -0.00000000000E+00 -0.00000000000E+00 -0.40497727801E+02  0.40497727801E+02  0.00000000000E+00 0. -1.
         13    1    1    2    0    0  0.15215936411E+02 -0.22553700053E+02 -0.26097122133E+02  0.37699669158E+02  0.10566000000E+00 0. -1.
        996    1    1    2    0    0 -0.15215936411E+02  0.22553700053E+02  0.85599338504E+02  0.10279805864E+03  0.50000000000E+02 0.  0.
<mgrwt>
<rscale>  0 0.56922703E+02</rscale>
<asrwt>0</asrwt>
<pdfrwt beam="1">  1       13 0.10000000E+01 0.56922703E+02</pdfrwt>
<pdfrwt beam="2">  1       22 0.40497744E+00 0.56922703E+02</pdfrwt>
<totfact> 0.12121868E-01</totfact>
</mgrwt>
</event>
<event>
 4    1  0.2409985E+000  0.5161850E+02  0.7957747E-01  0.1436802E+00
         13   -1    0    0    0    0  0.00000000000E+00  0.00000000000E+00  0.99999944180E+02  0.10000000000E+03  0.10566000000E+00 0. -1.
         22   -1    0    0    0    0 -0.00000000000E+00 -0.00000000000E+00 -0.10958834613E+02  0.10958834613E+02  0.00000000000E+00 0.  1.
         13    1    1    2    0    0  0.10648719235E+02  0.71466264459E+01  0.88187714798E+01  0.15564426920E+02  0.10566000000E+00 0.  1.
        996    1    1    2    0    0 -0.10648719235E+02 -0.71466264459E+01  0.80222338088E+02  0.95394407693E+02  0.50000000000E+02 0.  0.
<mgrwt>
<rscale>  0 0.51618500E+02</rscale>
<asrwt>0</asrwt>
<pdfrwt beam="1">  1       13 0.10000000E+01 0.51618500E+02</pdfrwt>
<pdfrwt beam="2">  1       22 0.10958859E+00 0.51618500E+02</pdfrwt>
<totfact> 0.12314861E+00</totfact>
</mgrwt>
</event>
<event>
 4    1  0.2409985E+000  0.5127770E+02  0.7957747E-01  0.1438569E+00
         13   -1    0    0    0    0  0.00000000000E+00  0.00000000000E+00  0.99999944182E+02  0.10000000000E+03  0.10566000000E+00 0. -1.
         22   -1    0    0    0    0 -0.00000000000E+00 -0.00000000000E+00 -0.21763760885E+02  0.21763760885E+02  0.00000000000E+00 0. -1.
         13    1    1    2    0    0  0.56761955643E+01  0.98581579197E+01 -0.12895497567E+02  0.17196147685E+02  0.10566000000E+00 0.  1.
        996    1    1    2    0    0 -0.56761955643E+01 -0.98581579197E+01  0.91131680864E+02  0.10456761320E+03  0.50000000000E+02 0.  0.
<mgrwt>
<rscale>  0 0.51277700E+02</rscale>
<asrwt>0</asrwt>
<pdfrwt beam="1">  1       13 0.10000000E+01 0.51277700E+02</pdfrwt>
<pdfrwt beam="2">  1       22 0.21763783E+00 0.51277700E+02</pdfrwt>
<totfact> 0.38564869E-01</totfact>
</mgrwt>
</event>
<event>
 4    1  0.2409985E+000  0.5117172E+02  0.7957747E-01  0.1439122E+00
         13   -1    0    0    0    0  0.00000000000E+00  0.00000000000E+00  0.99999944184E+02  0.10000000000E+03  0.10566000000E+00 0.  1.
         22   -1    0    0    0    0 -0.00000000000E+00 -0.00000000000E+00 -0.10364590049E+02  0.10364590049E+02  0.00000000000E+00 0.  1.
         13    1    1    2    0    0  0.98044414128E+01  0.47347737547E+01  0.63207313196E+01  0.12589994534E+02  0.10566000000E+00 0. -1.
        996    1    1    2    0    0 -0.98044414128E+01 -0.47347737547E+01  0.83314622816E+02  0.97774595519E+02  0.50000000000E+02 0.  0.
<mgrwt>
<rscale>  0 0.51171722E+02</rscale>
<asrwt>0</asrwt>
<pdfrwt beam="1">  1       13 0.10000000E+01 0.51171722E+02</pdfrwt>
<pdfrwt beam="2">  1       22 0.10364615E+00 0.51171722E+02</pdfrwt>
<totfact> 0.13355356E+00</totfact>
</mgrwt>
</event>
<event>
 4    1  0.2409985E+000  0.5153172E+02  0.7957747E-01  0.1437251E+00
         13   -1    0    0    0    0  0.00000000000E+00  0.00000000000E+00  0.99999944184E+02  0.10000000000E+03  0.10566000000E+00 0.  1.
         22   -1    0    0    0    0 -0.00000000000E+00 -0.00000000000E+00 -0.11906336327E+02  0.11906336327E+02  0.00000000000E+00 0.  1.
         13    1    1    2    0    0 -0.52489992559E+01  0.11312199030E+02  0.36733997637E+01  0.13000879583E+02  0.10566000000E+00 0. -1.
        996    1    1    2    0    0  0.52489992559E+01 -0.11312199030E+02  0.84420208093E+02  0.98905456748E+02  0.50000000000E+02 0.  0.
<mgrwt>
<rscale>  0 0.51531717E+02</rscale>
<asrwt>0</asrwt>
<pdfrwt beam="1">  1       13 0.10000000E+01 0.51531717E+02</pdfrwt>
<pdfrwt beam="2">  1       22 0.11906361E+00 0.51531717E+02</pdfrwt>
<totfact> 0.10867559E+00</totfact>
</mgrwt>
</event>
<event>
 4    1  0.2409985E+000  0.5198392E+02  0.7957747E-01  0.1434925E+00
         13   -1    0    0    0    0  0.00000000000E+00  0.00000000000E+00  0.99999944175E+02  0.99999999995E+02  0.10566000000E+00 0.  1.
         22   -1    0    0    0    0 -0.00000000000E+00 -0.00000000000E+00 -0.11118286770E+02  0.11118286770E+02  0.00000000000E+00 0.  1.
         13    1    1    2    0    0  0.14204000625E+02 -0.75772755518E+00  0.24942435326E+02  0.28713481656E+02  0.10566000000E+00 0. -1.
        996    1    1    2    0    0 -0.14204000625E+02  0.75772755518E+00  0.63939222080E+02  0.82404805108E+02  0.50000000000E+02 0.  0.
<mgrwt>
<rscale>  0 0.51983919E+02</rscale>
<asrwt>0</asrwt>
<pdfrwt beam="1">  1       13 0.10000000E+01 0.51983919E+02</pdfrwt>
<pdfrwt beam="2">  1       22 0.11118312E+00 0.51983919E+02</pdfrwt>
<totfact> 0.12062958E+00</totfact>
</mgrwt>
</event>
<event>
 4    1  0.2409985E+000  0.5668872E+02  0.7957747E-01  0.1412277E+00
         13   -1    0    0    0    0  0.00000000000E+00  0.00000000000E+00  0.99999944179E+02  0.10000000000E+03  0.10566000000E+00 0.  1.
         22   -1    0    0    0    0 -0.00000000000E+00 -0.00000000000E+00 -0.17392812053E+02  0.17392812053E+02  0.00000000000E+00 0. -1.
         13    1    1    2    0    0  0.14862886335E+02 -0.22196977847E+02  0.25751709532E+02  0.37104890831E+02  0.10566000000E+00 0. -1.
        996    1    1    2    0    0 -0.14862886335E+02  0.22196977847E+02  0.56855422594E+02  0.80287921221E+02  0.50000000000E+02 0.  0.
<mgrwt>
<rscale>  0 0.56688722E+02</rscale>
<asrwt>0</asrwt>
<pdfrwt beam="1">  1       13 0.10000000E+01 0.56688722E+02</pdfrwt>
<pdfrwt beam="2">  1       22 0.17392835E+00 0.56688722E+02</pdfrwt>
<totfact> 0.58905276E-01</totfact>
</mgrwt>
</event>
<event>
 4    1  0.2409985E+000  0.5270868E+02  0.7957747E-01  0.1431256E+00
         13   -1    0    0    0    0  0.00000000000E+00  0.00000000000E+00  0.99999944180E+02  0.10000000000E+03  0.10566000000E+00 0.  1.
         22   -1    0    0    0    0 -0.00000000000E+00 -0.00000000000E+00 -0.63844335701E+02  0.63844335701E+02  0.00000000000E+00 0. -1.
         13    1    1    2    0    0  0.14685330250E+02 -0.79085804258E+01 -0.55588498809E+02  0.58037030703E+02  0.10566000000E+00 0. -1.
        996    1    1    2    0    0 -0.14685330250E+02  0.79085804258E+01  0.91744107288E+02  0.10580730500E+03  0.50000000000E+02 0.  0.
<mgrwt>
<rscale>  0 0.52708676E+02</rscale>
<asrwt>0</asrwt>
<pdfrwt beam="1">  1       13 0.10000000E+01 0.52708676E+02</pdfrwt>
<pdfrwt beam="2">  1       22 0.63844346E+00 0.52708676E+02</pdfrwt>
<totfact> 0.82739861E-02</totfact>
</mgrwt>
</event>
<event>
 4    1  0.2409985E+000  0.5344556E+02  0.7957747E-01  0.1427596E+00
         13   -1    0    0    0    0  0.00000000000E+00  0.00000000000E+00  0.99999944179E+02  0.99999999999E+02  0.10566000000E+00 0.  1.
         22   -1    0    0    0    0 -0.00000000000E+00 -0.00000000000E+00 -0.14738173177E+02  0.14738173177E+02  0.00000000000E+00 0.  1.
         13    1    1    2    0    0 -0.16094334130E+02  0.98691338372E+01  0.73559114944E+01  0.20261983904E+02  0.10566000000E+00 0. -1.
        996    1    1    2    0    0  0.16094334130E+02 -0.98691338372E+01  0.77905859508E+02  0.94476189272E+02  0.50000000000E+02 0.  0.
<mgrwt>
<rscale>  0 0.53445555E+02</rscale>
<asrwt>0</asrwt>
<pdfrwt beam="1">  1       13 0.10000000E+01 0.53445555E+02</pdfrwt>
<pdfrwt beam="2">  1       22 0.14738197E+00 0.53445555E+02</pdfrwt>
<totfact> 0.77752458E-01</totfact>
</mgrwt>
</event>
<event>
 4    1  0.2409985E+000  0.5303600E+02  0.7957747E-01  0.1429622E+00
         13   -1    0    0    0    0  0.00000000000E+00  0.00000000000E+00  0.99999944178E+02  0.99999999998E+02  0.10566000000E+00 0.  1.
         22   -1    0    0    0    0 -0.00000000000E+00 -0.00000000000E+00 -0.13187456831E+02  0.13187456831E+02  0.00000000000E+00 0.  1.
         13    1    1    2    0    0  0.17686258960E+02  0.11601492326E+00  0.11582412369E+02  0.21141917032E+02  0.10566000000E+00 0. -1.
        996    1    1    2    0    0 -0.17686258960E+02 -0.11601492326E+00  0.75230074977E+02  0.92045539797E+02  0.50000000000E+02 0.  0.
<mgrwt>
<rscale>  0 0.53035999E+02</rscale>
<asrwt>0</asrwt>
<pdfrwt beam="1">  1       13 0.10000000E+01 0.53035999E+02</pdfrwt>
<pdfrwt beam="2">  1       22 0.13187481E+00 0.53035999E+02</pdfrwt>
<totfact> 0.93008889E-01</totfact>
</mgrwt>
</event>
<event>
 4    1  0.2409985E+000  0.5183343E+02  0.7957747E-01  0.1435696E+00
         13   -1    0    0    0    0  0.00000000000E+00  0.00000000000E+00  0.99999944183E+02  0.10000000000E+03  0.10566000000E+00 0.  1.
         22   -1    0    0    0    0 -0.00000000000E+00 -0.00000000000E+00 -0.10805613024E+02  0.10805613024E+02  0.00000000000E+00 0.  1.
         13    1    1    2    0    0 -0.11448001029E+01 -0.13615960112E+02  0.22700992258E+02  0.26496247859E+02  0.10566000000E+00 0. -1.
        996    1    1    2    0    0  0.11448001029E+01  0.13615960112E+02  0.66493338900E+02  0.84309365168E+02  0.50000000000E+02 0.  0.
<mgrwt>
<rscale>  0 0.51833435E+02</rscale>
<asrwt>0</asrwt>
<pdfrwt beam="1">  1       13 0.10000000E+01 0.51833435E+02</pdfrwt>
<pdfrwt beam="2">  1       22 0.10805638E+00 0.51833435E+02</pdfrwt>
<totfact> 0.12581015E+00</totfact>
</mgrwt>
</event>
<event>
 4    1  0.2409985E+000  0.5118229E+02  0.7957747E-01  0.1439067E+00
         13   -1    0    0    0    0  0.00000000000E+00  0.00000000000E+00  0.99999944177E+02  0.99999999997E+02  0.10566000000E+00 0.  1.
         22   -1    0    0    0    0 -0.00000000000E+00 -0.00000000000E+00 -0.17513490064E+02  0.17513490064E+02  0.00000000000E+00 0. -1.
         13    1    1    2    0    0 -0.17241330356E+01 -0.10800633307E+02 -0.80023514346E+01  0.13552678963E+02  0.10566000000E+00 0. -1.
        996    1    1    2    0    0  0.17241330356E+01  0.10800633307E+02  0.90488805548E+02  0.10396081110E+03  0.50000000000E+02 0.  0.
<mgrwt>
<rscale>  0 0.51182285E+02</rscale>
<asrwt>0</asrwt>
<pdfrwt beam="1">  1       13 0.10000000E+01 0.51182285E+02</pdfrwt>
<pdfrwt beam="2">  1       22 0.17513513E+00 0.51182285E+02</pdfrwt>
<totfact> 0.57600483E-01</totfact>
</mgrwt>
</event>
<event>
 4    1  0.2409985E+000  0.5495918E+02  0.7957747E-01  0.1420292E+00
         13   -1    0    0    0    0  0.00000000000E+00  0.00000000000E+00  0.99999944176E+02  0.99999999996E+02  0.10566000000E+00 0. -1.
         22   -1    0    0    0    0 -0.00000000000E+00 -0.00000000000E+00 -0.17519717340E+02  0.17519717340E+02  0.00000000000E+00 0.  1.
         13    1    1    2    0    0  0.73808815463E+01  0.21587829109E+02  0.64568439129E+01  0.23711047539E+02  0.10566000000E+00 0.  1.
        996    1    1    2    0    0 -0.73808815463E+01 -0.21587829109E+02  0.76023382923E+02  0.93808669797E+02  0.50000000000E+02 0.  0.
<mgrwt>
<rscale>  0 0.54959183E+02</rscale>
<asrwt>0</asrwt>
<pdfrwt beam="1">  1       13 0.10000000E+01 0.54959183E+02</pdfrwt>
<pdfrwt beam="2">  1       22 0.17519740E+00 0.54959183E+02</pdfrwt>
<totfact> 0.57972396E-01</totfact>
</mgrwt>
</event>
<event>
 4    1  0.2409985E+000  0.5153523E+02  0.7957747E-01  0.1437233E+00
         13   -1    0    0    0    0  0.00000000000E+00  0.00000000000E+00  0.99999944184E+02  0.10000000000E+03  0.10566000000E+00 0. -1.
         22   -1    0    0    0    0 -0.00000000000E+00 -0.00000000000E+00 -0.14956915131E+02  0.14956915131E+02  0.00000000000E+00 0.  1.
         13    1    1    2    0    0  0.85045767586E+01  0.91406688821E+01 -0.30899943913E+01  0.12862304725E+02  0.10566000000E+00 0.  1.
        996    1    1    2    0    0 -0.85045767586E+01 -0.91406688821E+01  0.88133023444E+02  0.10209461041E+03  0.50000000000E+02 0.  0.
<mgrwt>
<rscale>  0 0.51535227E+02</rscale>
<asrwt>0</asrwt>
<pdfrwt beam="1">  1       13 0.10000000E+01 0.51535227E+02</pdfrwt>
<pdfrwt beam="2">  1       22 0.14956939E+00 0.51535227E+02</pdfrwt>
<totfact> 0.75581468E-01</totfact>
</mgrwt>
</event>
<event>
 4    1  0.2409985E+000  0.5127154E+02  0.7957747E-01  0.1438601E+00
         13   -1    0    0    0    0  0.00000000000E+00  0.00000000000E+00  0.99999944183E+02  0.10000000000E+03  0.10566000000E+00 0. -1.
         22   -1    0    0    0    0 -0.00000000000E+00 -0.00000000000E+00 -0.14511665289E+02  0.14511665289E+02  0.00000000000E+00 0. -1.
         13    1    1    2    0    0 -0.11159837042E+02 -0.20565196837E+01 -0.34430818695E+01  0.11859056152E+02  0.10566000000E+00 0.  1.
        996    1    1    2    0    0  0.11159837042E+02  0.20565196837E+01  0.88931360763E+02  0.10265260914E+03  0.50000000000E+02 0.  0.
<mgrwt>
<rscale>  0 0.51271544E+02</rscale>
<asrwt>0</asrwt>
<pdfrwt beam="1">  1       13 0.10000000E+01 0.51271544E+02</pdfrwt>
<pdfrwt beam="2">  1       22 0.14511689E+00 0.51271544E+02</pdfrwt>
<totfact> 0.79408778E-01</totfact>
</mgrwt>
</event>
<event>
 4    1  0.2409985E+000  0.5133471E+02  0.7957747E-01  0.1438273E+00
         13   -1    0    0    0    0  0.00000000000E+00  0.00000000000E+00  0.99999944170E+02  0.99999999990E+02  0.10566000000E+00 0.  1.
         22   -1    0    0    0    0 -0.00000000000E+00 -0.00000000000E+00 -0.26439613696E+02  0.26439613696E+02  0.00000000000E+00 0. -1.
         13    1    1    2    0    0  0.10806829406E+02  0.42970704911E+01 -0.18023309337E+02  0.21450016785E+02  0.10566000000E+00 0. -1.
        996    1    1    2    0    0 -0.10806829406E+02 -0.42970704911E+01  0.91583639810E+02  0.10498959690E+03  0.50000000000E+02 0.  0.
<mgrwt>
<rscale>  0 0.51334709E+02</rscale>
<asrwt>0</asrwt>
<pdfrwt beam="1">  1       13 0.10000000E+01 0.51334709E+02</pdfrwt>
<pdfrwt beam="2">  1       22 0.26439634E+00 0.51334709E+02</pdfrwt>
<totfact> 0.26378857E-01</totfact>
</mgrwt>
</event>
<event>
 4    1  0.2409985E+000  0.5364679E+02  0.7957747E-01  0.1426609E+00
         13   -1    0    0    0    0  0.00000000000E+00  0.00000000000E+00  0.99999944178E+02  0.99999999998E+02  0.10566000000E+00 0. -1.
         22   -1    0    0    0    0 -0.00000000000E+00 -0.00000000000E+00 -0.20899270017E+02  0.20899270017E+02  0.00000000000E+00 0.  1.
         13    1    1    2    0    0 -0.19433103264E+02  0.57685796928E+00 -0.59594837735E+01  0.20334819361E+02  0.10566000000E+00 0.  1.
        996    1    1    2    0    0  0.19433103264E+02 -0.57685796928E+00  0.85060157934E+02  0.10056445065E+03  0.50000000000E+02 0.  0.
<mgrwt>
<rscale>  0 0.53646792E+02</rscale>
<asrwt>0</asrwt>
<pdfrwt beam="1">  1       13 0.10000000E+01 0.53646792E+02</pdfrwt>
<pdfrwt beam="2">  1       22 0.20899292E+00 0.53646792E+02</pdfrwt>
<totfact> 0.41831804E-01</totfact>
</mgrwt>
</event>
<event>
 4    1  0.2409985E+000  0.5375606E+02  0.7957747E-01  0.1426075E+00
         13   -1    0    0    0    0  0.00000000000E+00  0.00000000000E+00  0.99999944174E+02  0.99999999994E+02  0.10566000000E+00 0. -1.
         22   -1    0    0    0    0 -0.00000000000E+00 -0.00000000000E+00 -0.26172485902E+02  0.26172485902E+02  0.00000000000E+00 0.  1.
         13    1    1    2    0    0 -0.64636496528E+01  0.18653012333E+02 -0.13294686766E+02  0.23800703690E+02  0.10566000000E+00 0.  1.
        996    1    1    2    0    0  0.64636496528E+01 -0.18653012333E+02  0.87122145038E+02  0.10237178221E+03  0.50000000000E+02 0.  0.
<mgrwt>
<rscale>  0 0.53756057E+02</rscale>
<asrwt>0</asrwt>
<pdfrwt beam="1">  1       13 0.10000000E+01 0.53756057E+02</pdfrwt>
<pdfrwt beam="2">  1       22 0.26172507E+00 0.53756057E+02</pdfrwt>
<totfact> 0.27007913E-01</totfact>
</mgrwt>
</event>
<event>
 4    1  0.2409985E+000  0.5169106E+02  0.7957747E-01  0.1436428E+00
         13   -1    0    0    0    0  0.00000000000E+00  0.00000000000E+00  0.99999944174E+02  0.99999999994E+02  0.10566000000E+00 0. -1.
         22   -1    0    0    0    0 -0.00000000000E+00 -0.00000000000E+00 -0.14212950840E+02  0.14212950840E+02  0.00000000000E+00 0.  1.
         13    1    1    2    0    0 -0.13077422536E+02  0.97291083564E+00 -0.10494051269E+01  0.13155909350E+02  0.10566000000E+00 0.  1.
        996    1    1    2    0    0  0.13077422536E+02 -0.97291083564E+00  0.86836398461E+02  0.10105704148E+03  0.50000000000E+02 0.  0.
<mgrwt>
<rscale>  0 0.51691059E+02</rscale>
<asrwt>0</asrwt>
<pdfrwt beam="1">  1       13 0.10000000E+01 0.51691059E+02</pdfrwt>
<pdfrwt beam="2">  1       22 0.14212975E+00 0.51691059E+02</pdfrwt>
<totfact> 0.82230346E-01</totfact>
</mgrwt>
</event>
<event>
 4    1  0.2409985E+000  0.5157569E+02  0.7957747E-01  0.1437023E+00
         13   -1    0    0    0    0  0.00000000000E+00  0.00000000000E+00  0.99999944181E+02  0.10000000000E+03  0.10566000000E+00 0.  1.
         22   -1    0    0    0    0 -0.00000000000E+00 -0.00000000000E+00 -0.11071267409E+02  0.11071267409E+02  0.00000000000E+00 0.  1.
         13    1    1    2    0    0 -0.56272889480E+01  0.11330732500E+02  0.75735871375E+01  0.14745245541E+02  0.10566000000E+00 0. -1.
        996    1    1    2    0    0  0.56272889480E+01 -0.11330732500E+02  0.81355089634E+02  0.96326021869E+02  0.50000000000E+02 0.  0.
<mgrwt>
<rscale>  0 0.51575691E+02</rscale>
<asrwt>0</asrwt>
<pdfrwt beam="1">  1       13 0.10000000E+01 0.51575691E+02</pdfrwt>
<pdfrwt beam="2">  1       22 0.11071292E+00 0.51575691E+02</pdfrwt>
<totfact> 0.12127994E+00</totfact>
</mgrwt>
</event>
<event>
 4    1  0.2409985E+000  0.5669726E+02  0.7957747E-01  0.1412239E+00
         13   -1    0    0    0    0  0.00000000000E+00  0.00000000000E+00  0.99999944180E+02  0.10000000000E+03  0.10566000000E+00 0.  1.
         22   -1    0    0    0    0 -0.00000000000E+00 -0.00000000000E+00 -0.22472952326E+02  0.22472952326E+02  0.00000000000E+00 0. -1.
         13    1    1    2    0    0  0.81606403794E+01  0.25455518151E+02  0.38258663300E+00  0.26734565497E+02  0.10566000000E+00 0. -1.
        996    1    1    2    0    0 -0.81606403794E+01 -0.25455518151E+02  0.77144405221E+02  0.95738386829E+02  0.50000000000E+02 0.  0.
<mgrwt>
<rscale>  0 0.56697261E+02</rscale>
<asrwt>0</asrwt>
<pdfrwt beam="1">  1       13 0.10000000E+01 0.56697261E+02</pdfrwt>
<pdfrwt beam="2">  1       22 0.22472974E+00 0.56697261E+02</pdfrwt>
<totfact> 0.36576605E-01</totfact>
</mgrwt>
</event>
<event>
 4    1  0.2409985E+000  0.5148846E+02  0.7957747E-01  0.1437475E+00
         13   -1    0    0    0    0  0.00000000000E+00  0.00000000000E+00  0.99999944181E+02  0.10000000000E+03  0.10566000000E+00 0. -1.
         22   -1    0    0    0    0 -0.00000000000E+00 -0.00000000000E+00 -0.24837085582E+02  0.24837085582E+02  0.00000000000E+00 0. -1.
         13    1    1    2    0    0  0.53941563676E+01 -0.11043777818E+02 -0.15977612238E+02  0.20158303705E+02  0.10566000000E+00 0.  1.
        996    1    1    2    0    0 -0.53941563676E+01  0.11043777818E+02  0.91140470836E+02  0.10467878188E+03  0.50000000000E+02 0.  0.
<mgrwt>
<rscale>  0 0.51488464E+02</rscale>
<asrwt>0</asrwt>
<pdfrwt beam="1">  1       13 0.10000000E+01 0.51488464E+02</pdfrwt>
<pdfrwt beam="2">  1       22 0.24837107E+00 0.51488464E+02</pdfrwt>
<totfact> 0.29836625E-01</totfact>
</mgrwt>
</event>
<event>
 4    1  0.2409985E+000  0.5296876E+02  0.7957747E-01  0.1429956E+00
         13   -1    0    0    0    0  0.00000000000E+00  0.00000000000E+00  0.99999944178E+02  0.99999999998E+02  0.10566000000E+00 0.  1.
         22   -1    0    0    0    0 -0.00000000000E+00 -0.00000000000E+00 -0.31116116162E+02  0.31116116162E+02  0.00000000000E+00 0. -1.
         13    1    1    2    0    0 -0.16949940075E+02 -0.42882504911E+01 -0.20668175975E+02  0.27071649802E+02  0.10566000000E+00 0. -1.
        996    1    1    2    0    0  0.16949940075E+02  0.42882504911E+01  0.89552003992E+02  0.10404446636E+03  0.50000000000E+02 0.  0.
<mgrwt>
<rscale>  0 0.52968760E+02</rscale>
<asrwt>0</asrwt>
<pdfrwt beam="1">  1       13 0.10000000E+01 0.52968760E+02</pdfrwt>
<pdfrwt beam="2">  1       22 0.31116135E+00 0.52968760E+02</pdfrwt>
<totfact> 0.19377023E-01</totfact>
</mgrwt>
</event>
<event>
 4    1  0.2409985E+000  0.5122011E+02  0.7957747E-01  0.1438870E+00
         13   -1    0    0    0    0  0.00000000000E+00  0.00000000000E+00  0.99999944170E+02  0.99999999990E+02  0.10566000000E+00 0. -1.
         22   -1    0    0    0    0 -0.00000000000E+00 -0.00000000000E+00 -0.20595747486E+02  0.20595747486E+02  0.00000000000E+00 0.  1.
         13    1    1    2    0    0  0.68827582158E+01  0.87251248608E+01 -0.11664517083E+02  0.16111247230E+02  0.10566000000E+00 0.  1.
        996    1    1    2    0    0 -0.68827582158E+01 -0.87251248608E+01  0.91068713767E+02  0.10448450025E+03  0.50000000000E+02 0.  0.
<mgrwt>
<rscale>  0 0.51220115E+02</rscale>
<asrwt>0</asrwt>
<pdfrwt beam="1">  1       13 0.10000000E+01 0.51220115E+02</pdfrwt>
<pdfrwt beam="2">  1       22 0.20595770E+00 0.51220115E+02</pdfrwt>
<totfact> 0.42822212E-01</totfact>
</mgrwt>
</event>
<event>
 4    1  0.2409985E+000  0.5172193E+02  0.7957747E-01  0.1436269E+00
         13   -1    0    0    0    0  0.00000000000E+00  0.00000000000E+00  0.99999944173E+02  0.99999999993E+02  0.10566000000E+00 0.  1.
         22   -1    0    0    0    0 -0.00000000000E+00 -0.00000000000E+00 -0.38694505673E+02  0.38694505673E+02  0.00000000000E+00 0. -1.
         13    1    1    2    0    0 -0.10338287375E+02  0.82630629078E+01 -0.30541368592E+02  0.33285804091E+02  0.10566000000E+00 0. -1.
        996    1    1    2    0    0  0.10338287375E+02 -0.82630629078E+01  0.91846807093E+02  0.10540870157E+03  0.50000000000E+02 0.  0.
<mgrwt>
<rscale>  0 0.51721933E+02</rscale>
<asrwt>0</asrwt>
<pdfrwt beam="1">  1       13 0.10000000E+01 0.51721933E+02</pdfrwt>
<pdfrwt beam="2">  1       22 0.38694523E+00 0.51721933E+02</pdfrwt>
<totfact> 0.13152293E-01</totfact>
</mgrwt>
</event>
<event>
 4    1  0.2409985E+000  0.5138873E+02  0.7957747E-01  0.1437992E+00
         13   -1    0    0    0    0  0.00000000000E+00  0.00000000000E+00  0.99999944178E+02  0.99999999998E+02  0.10566000000E+00 0.  1.
         22   -1    0    0    0    0 -0.00000000000E+00 -0.00000000000E+00 -0.10382887717E+02  0.10382887717E+02  0.00000000000E+00 0.  1.
         13    1    1    2    0    0  0.85153066826E+01 -0.82638170512E+01  0.94976081744E+01  0.15199238311E+02  0.10566000000E+00 0. -1.
        996    1    1    2    0    0 -0.85153066826E+01  0.82638170512E+01  0.80119448287E+02  0.95183649404E+02  0.50000000000E+02 0.  0.
<mgrwt>
<rscale>  0 0.51388726E+02</rscale>
<asrwt>0</asrwt>
<pdfrwt beam="1">  1       13 0.10000000E+01 0.51388726E+02</pdfrwt>
<pdfrwt beam="2">  1       22 0.10382913E+00 0.51388726E+02</pdfrwt>
<totfact> 0.13327881E+00</totfact>
</mgrwt>
</event>
<event>
 4    1  0.2409985E+000  0.5100297E+02  0.7957747E-01  0.1440006E+00
         13   -1    0    0    0    0  0.00000000000E+00  0.00000000000E+00  0.99999944178E+02  0.99999999998E+02  0.10566000000E+00 0.  1.
         22   -1    0    0    0    0 -0.00000000000E+00 -0.00000000000E+00 -0.11227078540E+02  0.11227078540E+02  0.00000000000E+00 0. -1.
         13    1    1    2    0    0  0.51354088624E+01  0.86562636819E+01  0.15462358376E+01  0.10183581610E+02  0.10566000000E+00 0. -1.
        996    1    1    2    0    0 -0.51354088624E+01 -0.86562636819E+01  0.87226629800E+02  0.10104349693E+03  0.50000000000E+02 0.  0.
<mgrwt>
<rscale>  0 0.51002974E+02</rscale>
<asrwt>0</asrwt>
<pdfrwt beam="1">  1       13 0.10000000E+01 0.51002974E+02</pdfrwt>
<pdfrwt beam="2">  1       22 0.11227103E+00 0.51002974E+02</pdfrwt>
<totfact> 0.11861644E+00</totfact>
</mgrwt>
</event>
<event>
 4    1  0.2409985E+000  0.6697026E+02  0.7957747E-01  0.1370710E+00
         13   -1    0    0    0    0  0.00000000000E+00  0.00000000000E+00  0.99999944172E+02  0.99999999992E+02  0.10566000000E+00 0.  1.
         22   -1    0    0    0    0 -0.00000000000E+00 -0.00000000000E+00 -0.34804688058E+02  0.34804688058E+02  0.00000000000E+00 0. -1.
         13    1    1    2    0    0 -0.19062171817E+02 -0.40269700254E+02  0.51364767976E+01  0.44848742578E+02  0.10566000000E+00 0. -1.
        996    1    1    2    0    0  0.19062171817E+02  0.40269700254E+02  0.60058779316E+02  0.89955945472E+02  0.50000000000E+02 0.  0.
<mgrwt>
<rscale>  0 0.66970256E+02</rscale>
<asrwt>0</asrwt>
<pdfrwt beam="1">  1       13 0.10000000E+01 0.66970256E+02</pdfrwt>
<pdfrwt beam="2">  1       22 0.34804706E+00 0.66970256E+02</pdfrwt>
<totfact> 0.16087502E-01</totfact>
</mgrwt>
</event>
<event>
 4    1  0.2409985E+000  0.5133327E+02  0.7957747E-01  0.1438280E+00
         13   -1    0    0    0    0  0.00000000000E+00  0.00000000000E+00  0.99999944184E+02  0.10000000000E+03  0.10566000000E+00 0. -1.
         22   -1    0    0    0    0 -0.00000000000E+00 -0.00000000000E+00 -0.10821066624E+02  0.10821066624E+02  0.00000000000E+00 0. -1.
         13    1    1    2    0    0  0.39035337496E+01 -0.10948387109E+02  0.60095900518E+01  0.13085529895E+02  0.10566000000E+00 0.  1.
        996    1    1    2    0    0 -0.39035337496E+01  0.10948387109E+02  0.83169287508E+02  0.97735536734E+02  0.50000000000E+02 0.  0.
<mgrwt>
<rscale>  0 0.51333271E+02</rscale>
<asrwt>0</asrwt>
<pdfrwt beam="1">  1       13 0.10000000E+01 0.51333271E+02</pdfrwt>
<pdfrwt beam="2">  1       22 0.10821092E+00 0.51333271E+02</pdfrwt>
<totfact> 0.12539715E+00</totfact>
</mgrwt>
</event>
<event>
 4    1  0.2409985E+000  0.5120086E+02  0.7957747E-01  0.1438970E+00
         13   -1    0    0    0    0  0.00000000000E+00  0.00000000000E+00  0.99999944180E+02  0.10000000000E+03  0.10566000000E+00 0. -1.
         22   -1    0    0    0    0 -0.00000000000E+00 -0.00000000000E+00 -0.97958996276E+01  0.97958996276E+01  0.00000000000E+00 0. -1.
         13    1    1    2    0    0 -0.17649475712E+01 -0.10881785190E+02  0.20906037287E+02  0.23634759316E+02  0.10566000000E+00 0.  1.
        996    1    1    2    0    0  0.17649475712E+01  0.10881785190E+02  0.69298007266E+02  0.86161140312E+02  0.50000000000E+02 0.  0.
<mgrwt>
<rscale>  0 0.51200862E+02</rscale>
<asrwt>0</asrwt>
<pdfrwt beam="1">  1       13 0.10000000E+01 0.51200862E+02</pdfrwt>
<pdfrwt beam="2">  1       22 0.97959248E-01 0.51200862E+02</pdfrwt>
<totfact> 0.14495950E+00</totfact>
</mgrwt>
</event>
<event>
 4    1  0.2409985E+000  0.5618144E+02  0.7957747E-01  0.1414593E+00
         13   -1    0    0    0    0  0.00000000000E+00  0.00000000000E+00  0.99999944185E+02  0.10000000001E+03  0.10566000000E+00 0.  1.
         22   -1    0    0    0    0 -0.00000000000E+00 -0.00000000000E+00 -0.16823923817E+02  0.16823923817E+02  0.00000000000E+00 0.  1.
         13    1    1    2    0    0 -0.23979375117E+02 -0.90190782111E+01  0.30220515465E+02  0.39618744576E+02  0.10566000000E+00 0. -1.
        996    1    1    2    0    0  0.23979375117E+02  0.90190782111E+01  0.52955504903E+02  0.77205179246E+02  0.50000000000E+02 0.  0.
<mgrwt>
<rscale>  0 0.56181440E+02</rscale>
<asrwt>0</asrwt>
<pdfrwt beam="1">  1       13 0.10000000E+01 0.56181440E+02</pdfrwt>
<pdfrwt beam="2">  1       22 0.16823947E+00 0.56181440E+02</pdfrwt>
<totfact> 0.62400313E-01</totfact>
</mgrwt>
</event>
<event>
 4    1  0.2409985E+000  0.5527597E+02  0.7957747E-01  0.1418798E+00
         13   -1    0    0    0    0  0.00000000000E+00  0.00000000000E+00  0.99999944178E+02  0.99999999998E+02  0.10566000000E+00 0. -1.
         22   -1    0    0    0    0 -0.00000000000E+00 -0.00000000000E+00 -0.32081734045E+02  0.32081734045E+02  0.00000000000E+00 0.  1.
         13    1    1    2    0    0 -0.19676265720E+01 -0.23485342268E+02 -0.18181262890E+02  0.29765791441E+02  0.10566000000E+00 0.  1.
        996    1    1    2    0    0  0.19676265720E+01  0.23485342268E+02  0.86099473022E+02  0.10231594260E+03  0.50000000000E+02 0.  0.
<mgrwt>
<rscale>  0 0.55275970E+02</rscale>
<asrwt>0</asrwt>
<pdfrwt beam="1">  1       13 0.10000000E+01 0.55275970E+02</pdfrwt>
<pdfrwt beam="2">  1       22 0.32081753E+00 0.55275970E+02</pdfrwt>
<totfact> 0.18384259E-01</totfact>
</mgrwt>
</event>
<event>
 4    1  0.2409985E+000  0.6262178E+02  0.7957747E-01  0.1387147E+00
         13   -1    0    0    0    0  0.00000000000E+00  0.00000000000E+00  0.99999944174E+02  0.99999999994E+02  0.10566000000E+00 0. -1.
         22   -1    0    0    0    0 -0.00000000000E+00 -0.00000000000E+00 -0.26045537525E+02  0.26045537525E+02  0.00000000000E+00 0.  1.
         13    1    1    2    0    0  0.28398329107E+02  0.24799641283E+02  0.16850940347E+02  0.41297126515E+02  0.10566000000E+00 0.  1.
        996    1    1    2    0    0 -0.28398329107E+02 -0.24799641283E+02  0.57103466302E+02  0.84748411003E+02  0.50000000000E+02 0.  0.
<mgrwt>
<rscale>  0 0.62621780E+02</rscale>
<asrwt>0</asrwt>
<pdfrwt beam="1">  1       13 0.10000000E+01 0.62621780E+02</pdfrwt>
<pdfrwt beam="2">  1       22 0.26045558E+00 0.62621780E+02</pdfrwt>
<totfact> 0.27596055E-01</totfact>
</mgrwt>
</event>
<event>
 4    1  0.2409985E+000  0.5125322E+02  0.7957747E-01  0.1438697E+00
         13   -1    0    0    0    0  0.00000000000E+00  0.00000000000E+00  0.99999944180E+02  0.10000000000E+03  0.10566000000E+00 0.  1.
         22   -1    0    0    0    0 -0.00000000000E+00 -0.00000000000E+00 -0.97714372459E+01  0.97714372459E+01  0.00000000000E+00 0.  1.
         13    1    1    2    0    0 -0.73736311198E+01  0.85159700495E+01  0.16123065957E+02  0.19668670562E+02  0.10566000000E+00 0. -1.
        996    1    1    2    0    0  0.73736311198E+01 -0.85159700495E+01  0.74105440976E+02  0.90102766684E+02  0.50000000000E+02 0.  0.
<mgrwt>
<rscale>  0 0.51253216E+02</rscale>
<asrwt>0</asrwt>
<pdfrwt beam="1">  1       13 0.10000000E+01 0.51253216E+02</pdfrwt>
<pdfrwt beam="2">  1       22 0.97714624E-01 0.51253216E+02</pdfrwt>
<totfact> 0.14550096E+00</totfact>
</mgrwt>
</event>
<event>
 4    1  0.2409985E+000  0.5182305E+02  0.7957747E-01  0.1435749E+00
         13   -1    0    0    0    0  0.00000000000E+00  0.00000000000E+00  0.99999944176E+02  0.99999999997E+02  0.10566000000E+00 0. -1.
         22   -1    0    0    0    0 -0.00000000000E+00 -0.00000000000E+00 -0.68091097586E+02  0.68091097586E+02  0.00000000000E+00 0.  1.
         13    1    1    2    0    0 -0.13058187618E+02 -0.38873873760E+01 -0.60569081885E+02  0.62082629527E+02  0.10566000000E+00 0.  1.
        996    1    1    2    0    0  0.13058187618E+02  0.38873873760E+01  0.92477928476E+02  0.10600846806E+03  0.50000000000E+02 0.  0.
<mgrwt>
<rscale>  0 0.51823045E+02</rscale>
<asrwt>0</asrwt>
<pdfrwt beam="1">  1       13 0.10000000E+01 0.51823045E+02</pdfrwt>
<pdfrwt beam="2">  1       22 0.68091107E+00 0.51823045E+02</pdfrwt>
<totfact> 0.83152105E-02</totfact>
</mgrwt>
</event>
<event>
 4    1  0.2409985E+000  0.5149490E+02  0.7957747E-01  0.1437441E+00
         13   -1    0    0    0    0  0.00000000000E+00  0.00000000000E+00  0.99999944178E+02  0.99999999998E+02  0.10566000000E+00 0. -1.
         22   -1    0    0    0    0 -0.00000000000E+00 -0.00000000000E+00 -0.22771129135E+02  0.22771129135E+02  0.00000000000E+00 0.  1.
         13    1    1    2    0    0 -0.12311879884E+02  0.37778864182E+00 -0.13606903177E+02  0.18354402432E+02  0.10566000000E+00 0.  1.
        996    1    1    2    0    0  0.12311879884E+02 -0.37778864182E+00  0.90835718220E+02  0.10441672670E+03  0.50000000000E+02 0.  0.
<mgrwt>
<rscale>  0 0.51494904E+02</rscale>
<asrwt>0</asrwt>
<pdfrwt beam="1">  1       13 0.10000000E+01 0.51494904E+02</pdfrwt>
<pdfrwt beam="2">  1       22 0.22771151E+00 0.51494904E+02</pdfrwt>
<totfact> 0.35356617E-01</totfact>
</mgrwt>
</event>
<event>
 4    1  0.2409985E+000  0.5263563E+02  0.7957747E-01  0.1431623E+00
         13   -1    0    0    0    0  0.00000000000E+00  0.00000000000E+00  0.99999944179E+02  0.99999999999E+02  0.10566000000E+00 0.  1.
         22   -1    0    0    0    0 -0.00000000000E+00 -0.00000000000E+00 -0.14253083966E+02  0.14253083966E+02  0.00000000000E+00 0.  1.
         13    1    1    2    0    0 -0.48005868024E+00  0.16440175949E+02  0.38370040305E+01  0.16889156448E+02  0.10566000000E+00 0. -1.
        996    1    1    2    0    0  0.48005868024E+00 -0.16440175949E+02  0.81909856182E+02  0.97363927516E+02  0.50000000000E+02 0.  0.
<mgrwt>
<rscale>  0 0.52635633E+02</rscale>
<asrwt>0</asrwt>
<pdfrwt beam="1">  1       13 0.10000000E+01 0.52635633E+02</pdfrwt>
<pdfrwt beam="2">  1       22 0.14253108E+00 0.52635633E+02</pdfrwt>
<totfact> 0.82014107E-01</totfact>
</mgrwt>
</event>
<event>
 4    1  0.2409985E+000  0.5660334E+02  0.7957747E-01  0.1412665E+00
         13   -1    0    0    0    0  0.00000000000E+00  0.00000000000E+00  0.99999944180E+02  0.10000000000E+03  0.10566000000E+00 0. -1.
         22   -1    0    0    0    0 -0.00000000000E+00 -0.00000000000E+00 -0.51242266304E+02  0.51242266304E+02  0.00000000000E+00 0.  1.
         13    1    1    2    0    0  0.73103481505E+01 -0.25504848276E+02 -0.38786464242E+02  0.46992972326E+02  0.10566000000E+00 0.  1.
        996    1    1    2    0    0 -0.73103481505E+01  0.25504848276E+02  0.87544142118E+02  0.10424929398E+03  0.50000000000E+02 0.  0.
<mgrwt>
<rscale>  0 0.56603343E+02</rscale>
<asrwt>0</asrwt>
<pdfrwt beam="1">  1       13 0.10000000E+01 0.56603343E+02</pdfrwt>
<pdfrwt beam="2">  1       22 0.51242280E+00 0.56603343E+02</pdfrwt>
<totfact> 0.69008621E-02</totfact>
</mgrwt>
</event>
<event>
 4    1  0.2409985E+000  0.5578047E+02  0.7957747E-01  0.1416444E+00
         13   -1    0    0    0    0  0.00000000000E+00  0.00000000000E+00  0.99999944167E+02  0.99999999987E+02  0.10566000000E+00 0.  1.
         22   -1    0    0    0    0 -0.00000000000E+00 -0.00000000000E+00 -0.23317573248E+02  0.23317573248E+02  0.00000000000E+00 0.  1.
         13    1    1    2    0    0  0.69655901004E+01 -0.23726395053E+02 -0.41834843339E+01  0.25079353517E+02  0.10566000000E+00 0. -1.
        996    1    1    2    0    0 -0.69655901004E+01  0.23726395053E+02  0.80865855253E+02  0.98238219718E+02  0.50000000000E+02 0.  0.
<mgrwt>
<rscale>  0 0.55780474E+02</rscale>
<asrwt>0</asrwt>
<pdfrwt beam="1">  1       13 0.10000000E+01 0.55780474E+02</pdfrwt>
<pdfrwt beam="2">  1       22 0.23317595E+00 0.55780474E+02</pdfrwt>
<totfact> 0.33995117E-01</totfact>
</mgrwt>
</event>
<event>
 4    1  0.2409985E+000  0.5343886E+02  0.7957747E-01  0.1427629E+00
         13   -1    0    0    0    0  0.00000000000E+00  0.00000000000E+00  0.99999944176E+02  0.99999999997E+02  0.10566000000E+00 0. -1.
         22   -1    0    0    0    0 -0.00000000000E+00 -0.00000000000E+00 -0.14324934619E+02  0.14324934619E+02  0.00000000000E+00 0.  1.
         13    1    1    2    0    0  0.17585826102E+02 -0.68154223174E+01  0.90849434159E+01  0.20934627342E+02  0.10566000000E+00 0.  1.
        996    1    1    2    0    0 -0.17585826102E+02  0.68154223174E+01  0.76590066142E+02  0.93390307273E+02  0.50000000000E+02 0.  0.
<mgrwt>
<rscale>  0 0.53438855E+02</rscale>
<asrwt>0</asrwt>
<pdfrwt beam="1">  1       13 0.10000000E+01 0.53438855E+02</pdfrwt>
<pdfrwt beam="2">  1       22 0.14324959E+00 0.53438855E+02</pdfrwt>
<totfact> 0.81476294E-01</totfact>
</mgrwt>
</event>
<event>
 4    1  0.2409985E+000  0.5259735E+02  0.7957747E-01  0.1431815E+00
         13   -1    0    0    0    0  0.00000000000E+00  0.00000000000E+00  0.99999944180E+02  0.10000000000E+03  0.10566000000E+00 0.  1.
         22   -1    0    0    0    0 -0.00000000000E+00 -0.00000000000E+00 -0.29535857077E+02  0.29535857077E+02  0.00000000000E+00 0. -1.
         13    1    1    2    0    0  0.14837423378E+02  0.68067494561E+01 -0.19434531237E+02  0.25380960169E+02  0.10566000000E+00 0. -1.
        996    1    1    2    0    0 -0.14837423378E+02 -0.68067494561E+01  0.89898618340E+02  0.10415489691E+03  0.50000000000E+02 0.  0.
<mgrwt>
<rscale>  0 0.52597348E+02</rscale>
<asrwt>0</asrwt>
<pdfrwt beam="1">  1       13 0.10000000E+01 0.52597348E+02</pdfrwt>
<pdfrwt beam="2">  1       22 0.29535877E+00 0.52597348E+02</pdfrwt>
<totfact> 0.21335596E-01</totfact>
</mgrwt>
</event>
<event>
 4    1  0.2409985E+000  0.5172413E+02  0.7957747E-01  0.1436258E+00
         13   -1    0    0    0    0  0.00000000000E+00  0.00000000000E+00  0.99999944181E+02  0.10000000000E+03  0.10566000000E+00 0. -1.
         22   -1    0    0    0    0 -0.00000000000E+00 -0.00000000000E+00 -0.12625220113E+02  0.12625220113E+02  0.00000000000E+00 0.  1.
         13    1    1    2    0    0  0.52395578640E+01  0.12162769286E+02  0.28760261134E+01  0.13552439395E+02  0.10566000000E+00 0.  1.
        996    1    1    2    0    0 -0.52395578640E+01 -0.12162769286E+02  0.84498697955E+02  0.99072780719E+02  0.50000000000E+02 0.  0.
<mgrwt>
<rscale>  0 0.51724133E+02</rscale>
<asrwt>0</asrwt>
<pdfrwt beam="1">  1       13 0.10000000E+01 0.51724133E+02</pdfrwt>
<pdfrwt beam="2">  1       22 0.12625245E+00 0.51724133E+02</pdfrwt>
<totfact> 0.99319528E-01</totfact>
</mgrwt>
</event>
<event>
 4    1  0.2409985E+000  0.5210755E+02  0.7957747E-01  0.1434295E+00
         13   -1    0    0    0    0  0.00000000000E+00  0.00000000000E+00  0.99999944178E+02  0.99999999998E+02  0.10566000000E+00 0. -1.
         22   -1    0    0    0    0 -0.00000000000E+00 -0.00000000000E+00 -0.13425248396E+02  0.13425248396E+02  0.00000000000E+00 0.  1.
         13    1    1    2    0    0 -0.12977434834E+02 -0.68398164513E+01  0.30565288333E+01  0.14985007057E+02  0.10566000000E+00 0.  1.
        996    1    1    2    0    0  0.12977434834E+02  0.68398164513E+01  0.83518166949E+02  0.98440241337E+02  0.50000000000E+02 0.  0.
<mgrwt>
<rscale>  0 0.52107551E+02</rscale>
<asrwt>0</asrwt>
<pdfrwt beam="1">  1       13 0.10000000E+01 0.52107551E+02</pdfrwt>
<pdfrwt beam="2">  1       22 0.13425273E+00 0.52107551E+02</pdfrwt>
<totfact> 0.90226270E-01</totfact>
</mgrwt>
</event>
<event>
 4    1  0.2409985E+000  0.5448324E+02  0.7957747E-01  0.1422559E+00
         13   -1    0    0    0    0  0.00000000000E+00  0.00000000000E+00  0.99999944176E+02  0.99999999996E+02  0.10566000000E+00 0. -1.
         22   -1    0    0    0    0 -0.00000000000E+00 -0.00000000000E+00 -0.25354649210E+02  0.25354649210E+02  0.00000000000E+00 0.  1.
         13    1    1    2    0    0 -0.21641517841E+02 -0.26165184784E+00 -0.10666899187E+02  0.24129186859E+02  0.10566000000E+00 0.  1.
        996    1    1    2    0    0  0.21641517841E+02  0.26165184784E+00  0.85312194153E+02  0.10122546235E+03  0.50000000000E+02 0.  0.
<mgrwt>
<rscale>  0 0.54483243E+02</rscale>
<asrwt>0</asrwt>
<pdfrwt beam="1">  1       13 0.10000000E+01 0.54483243E+02</pdfrwt>
<pdfrwt beam="2">  1       22 0.25354670E+00 0.54483243E+02</pdfrwt>
<totfact> 0.28781532E-01</totfact>
</mgrwt>
</event>
<event>
 4    1  0.2409985E+000  0.5150039E+02  0.7957747E-01  0.1437413E+00
         13   -1    0    0    0    0  0.00000000000E+00  0.00000000000E+00  0.99999944173E+02  0.99999999993E+02  0.10566000000E+00 0. -1.
         22   -1    0    0    0    0 -0.00000000000E+00 -0.00000000000E+00 -0.17532385961E+02  0.17532385961E+02  0.00000000000E+00 0.  1.
         13    1    1    2    0    0 -0.10359459183E+02 -0.67060952772E+01 -0.70828419353E+01  0.14229122333E+02  0.10566000000E+00 0.  1.
        996    1    1    2    0    0  0.10359459183E+02  0.67060952772E+01  0.89550400147E+02  0.10330326362E+03  0.50000000000E+02 0.  0.
<mgrwt>
<rscale>  0 0.51500389E+02</rscale>
<asrwt>0</asrwt>
<pdfrwt beam="1">  1       13 0.10000000E+01 0.51500389E+02</pdfrwt>
<pdfrwt beam="2">  1       22 0.17532409E+00 0.51500389E+02</pdfrwt>
<totfact> 0.57525881E-01</totfact>
</mgrwt>
</event>
<event>
 4    1  0.2409985E+000  0.5632570E+02  0.7957747E-01  0.1413932E+00
         13   -1    0    0    0    0  0.00000000000E+00  0.00000000000E+00  0.99999944182E+02  0.10000000000E+03  0.10566000000E+00 0. -1.
         22   -1    0    0    0    0 -0.00000000000E+00 -0.00000000000E+00 -0.19257737529E+02  0.19257737529E+02  0.00000000000E+00 0.  1.
         13    1    1    2    0    0 -0.15140548195E+02  0.21055824777E+02  0.77653951699E+01  0.27072060928E+02  0.10566000000E+00 0.  1.
        996    1    1    2    0    0  0.15140548195E+02 -0.21055824777E+02  0.72976811483E+02  0.92185676604E+02  0.50000000000E+02 0.  0.
<mgrwt>
<rscale>  0 0.56325695E+02</rscale>
<asrwt>0</asrwt>
<pdfrwt beam="1">  1       13 0.10000000E+01 0.56325695E+02</pdfrwt>
<pdfrwt beam="2">  1       22 0.19257760E+00 0.56325695E+02</pdfrwt>
<totfact> 0.48966175E-01</totfact>
</mgrwt>
</event>
<event>
 4    1  0.2409985E+000  0.5115317E+02  0.7957747E-01  0.1439219E+00
         13   -1    0    0    0    0  0.00000000000E+00  0.00000000000E+00  0.99999944176E+02  0.99999999996E+02  0.10566000000E+00 0.  1.
         22   -1    0    0    0    0 -0.00000000000E+00 -0.00000000000E+00 -0.97053625330E+01  0.97053625330E+01  0.00000000000E+00 0.  1.
         13    1    1    2    0    0  0.33646379241E+01  0.10262852557E+02  0.11631592631E+02  0.15872997264E+02  0.10566000000E+00 0. -1.
        996    1    1    2    0    0 -0.33646379241E+01 -0.10262852557E+02  0.78662989012E+02  0.93832365265E+02  0.50000000000E+02 0.  0.
<mgrwt>
<rscale>  0 0.51153171E+02</rscale>
<asrwt>0</asrwt>
<pdfrwt beam="1">  1       13 0.10000000E+01 0.51153171E+02</pdfrwt>
<pdfrwt beam="2">  1       22 0.97053877E-01 0.51153171E+02</pdfrwt>
<totfact> 0.14689135E+00</totfact>
</mgrwt>
</event>
<event>
 4    1  0.2409985E+000  0.5424986E+02  0.7957747E-01  0.1423680E+00
         13   -1    0    0    0    0  0.00000000000E+00  0.00000000000E+00  0.99999944175E+02  0.99999999996E+02  0.10566000000E+00 0. -1.
         22   -1    0    0    0    0 -0.00000000000E+00 -0.00000000000E+00 -0.22898163579E+02  0.22898163579E+02  0.00000000000E+00 0.  1.
         13    1    1    2    0    0  0.17266374249E+02 -0.12038274480E+02 -0.75438350688E+01  0.22359971908E+02  0.10566000000E+00 0.  1.
        996    1    1    2    0    0 -0.17266374249E+02  0.12038274480E+02  0.84645615665E+02  0.10053819167E+03  0.50000000000E+02 0.  0.
<mgrwt>
<rscale>  0 0.54249864E+02</rscale>
<asrwt>0</asrwt>
<pdfrwt beam="1">  1       13 0.10000000E+01 0.54249864E+02</pdfrwt>
<pdfrwt beam="2">  1       22 0.22898185E+00 0.54249864E+02</pdfrwt>
<totfact> 0.35135140E-01</totfact>
</mgrwt>
</event>
<event>
 4    1  0.2409985E+000  0.5122662E+02  0.7957747E-01  0.1438836E+00
         13   -1    0    0    0    0  0.00000000000E+00  0.00000000000E+00  0.99999944179E+02  0.99999999999E+02  0.10566000000E+00 0.  1.
         22   -1    0    0    0    0 -0.00000000000E+00 -0.00000000000E+00 -0.12783041723E+02  0.12783041723E+02  0.00000000000E+00 0.  1.
         13    1    1    2    0    0 -0.10163115301E+02 -0.45691549892E+01  0.45127786259E+02  0.46483269534E+02  0.10566000000E+00 0. -1.
        996    1    1    2    0    0  0.10163115301E+02  0.45691549892E+01  0.42089116196E+02  0.66299772188E+02  0.50000000000E+02 0.  0.
<mgrwt>
<rscale>  0 0.51226615E+02</rscale>
<asrwt>0</asrwt>
<pdfrwt beam="1">  1       13 0.10000000E+01 0.51226615E+02</pdfrwt>
<pdfrwt beam="2">  1       22 0.12783066E+00 0.51226615E+02</pdfrwt>
<totfact> 0.97303827E-01</totfact>
</mgrwt>
</event>
<event>
 4    1  0.2409985E+000  0.5428677E+02  0.7957747E-01  0.1423502E+00
         13   -1    0    0    0    0  0.00000000000E+00  0.00000000000E+00  0.99999944174E+02  0.99999999994E+02  0.10566000000E+00 0.  1.
         22   -1    0    0    0    0 -0.00000000000E+00 -0.00000000000E+00 -0.30953348891E+02  0.30953348891E+02  0.00000000000E+00 0. -1.
         13    1    1    2    0    0 -0.19910281426E+02 -0.71157874838E+01 -0.18398260132E+02  0.28027858960E+02  0.10566000000E+00 0. -1.
        996    1    1    2    0    0  0.19910281426E+02  0.71157874838E+01  0.87444855415E+02  0.10292548993E+03  0.50000000000E+02 0.  0.
<mgrwt>
<rscale>  0 0.54286773E+02</rscale>
<asrwt>0</asrwt>
<pdfrwt beam="1">  1       13 0.10000000E+01 0.54286773E+02</pdfrwt>
<pdfrwt beam="2">  1       22 0.30953368E+00 0.54286773E+02</pdfrwt>
<totfact> 0.19595287E-01</totfact>
</mgrwt>
</event>
<event>
 4    1  0.2409985E+000  0.5117633E+02  0.7957747E-01  0.1439098E+00
         13   -1    0    0    0    0  0.00000000000E+00  0.00000000000E+00  0.99999944180E+02  0.10000000000E+03  0.10566000000E+00 0. -1.
         22   -1    0    0    0    0 -0.00000000000E+00 -0.00000000000E+00 -0.10645837102E+02  0.10645837102E+02  0.00000000000E+00 0. -1.
         13    1    1    2    0    0  0.72274692242E+01  0.81719042994E+01  0.31851348674E+02  0.33668025004E+02  0.10566000000E+00 0.  1.
        996    1    1    2    0    0 -0.72274692242E+01 -0.81719042994E+01  0.57502758404E+02  0.76977812098E+02  0.50000000000E+02 0.  0.
<mgrwt>
<rscale>  0 0.51176326E+02</rscale>
<asrwt>0</asrwt>
<pdfrwt beam="1">  1       13 0.10000000E+01 0.51176326E+02</pdfrwt>
<pdfrwt beam="2">  1       22 0.10645862E+00 0.51176326E+02</pdfrwt>
<totfact> 0.12840916E+00</totfact>
</mgrwt>
</event>
<event>
 4    1  0.2409985E+000  0.5862071E+02  0.7957747E-01  0.1403713E+00
         13   -1    0    0    0    0  0.00000000000E+00  0.00000000000E+00  0.99999944179E+02  0.99999999999E+02  0.10566000000E+00 0.  1.
         22   -1    0    0    0    0 -0.00000000000E+00 -0.00000000000E+00 -0.37070782990E+02  0.37070782990E+02  0.00000000000E+00 0. -1.
         13    1    1    2    0    0  0.26289009400E+02  0.15661266784E+02 -0.19230926103E+02  0.36141762205E+02  0.10566000000E+00 0. -1.
        996    1    1    2    0    0 -0.26289009400E+02 -0.15661266784E+02  0.82160087292E+02  0.10092902078E+03  0.50000000000E+02 0.  0.
<mgrwt>
<rscale>  0 0.58620707E+02</rscale>
<asrwt>0</asrwt>
<pdfrwt beam="1">  1       13 0.10000000E+01 0.58620707E+02</pdfrwt>
<pdfrwt beam="2">  1       22 0.37070801E+00 0.58620707E+02</pdfrwt>
<totfact> 0.14290655E-01</totfact>
</mgrwt>
</event>
<event>
 4    1  0.2409985E+000  0.5192452E+02  0.7957747E-01  0.1435229E+00
         13   -1    0    0    0    0  0.00000000000E+00  0.00000000000E+00  0.99999944174E+02  0.99999999994E+02  0.10566000000E+00 0.  1.
         22   -1    0    0    0    0 -0.00000000000E+00 -0.00000000000E+00 -0.13328347246E+02  0.13328347246E+02  0.00000000000E+00 0.  1.
         13    1    1    2    0    0  0.11472019334E+00 -0.14005076335E+02  0.22054321566E+01  0.14178519630E+02  0.10566000000E+00 0. -1.
        996    1    1    2    0    0 -0.11472019334E+00  0.14005076335E+02  0.84466164772E+02  0.99149827610E+02  0.50000000000E+02 0.  0.
<mgrwt>
<rscale>  0 0.51924516E+02</rscale>
<asrwt>0</asrwt>
<pdfrwt beam="1">  1       13 0.10000000E+01 0.51924516E+02</pdfrwt>
<pdfrwt beam="2">  1       22 0.13328371E+00 0.51924516E+02</pdfrwt>
<totfact> 0.91237141E-01</totfact>
</mgrwt>
</event>
<event>
 4    1  0.2409985E+000  0.5336531E+02  0.7957747E-01  0.1427991E+00
         13   -1    0    0    0    0  0.00000000000E+00  0.00000000000E+00  0.99999944169E+02  0.99999999989E+02  0.10566000000E+00 0.  1.
         22   -1    0    0    0    0 -0.00000000000E+00 -0.00000000000E+00 -0.20842296559E+02  0.20842296559E+02  0.00000000000E+00 0. -1.
         13    1    1    2    0    0 -0.12788001534E+02  0.13576555077E+02 -0.66436725299E+01  0.19799125731E+02  0.10566000000E+00 0. -1.
        996    1    1    2    0    0  0.12788001534E+02 -0.13576555077E+02  0.85801320140E+02  0.10104317082E+03  0.50000000000E+02 0.  0.
<mgrwt>
<rscale>  0 0.53365305E+02</rscale>
<asrwt>0</asrwt>
<pdfrwt beam="1">  1       13 0.10000000E+01 0.53365305E+02</pdfrwt>
<pdfrwt beam="2">  1       22 0.20842319E+00 0.53365305E+02</pdfrwt>
<totfact> 0.42028479E-01</totfact>
</mgrwt>
</event>
<event>
 4    1  0.2409985E+000  0.5645292E+02  0.7957747E-01  0.1413350E+00
         13   -1    0    0    0    0  0.00000000000E+00  0.00000000000E+00  0.99999944185E+02  0.10000000001E+03  0.10566000000E+00 0. -1.
         22   -1    0    0    0    0 -0.00000000000E+00 -0.00000000000E+00 -0.45439558801E+02  0.45439558801E+02  0.00000000000E+00 0.  1.
         13    1    1    2    0    0  0.15089328144E+01  0.26165915359E+02 -0.32454565107E+02  0.41716207463E+02  0.10566000000E+00 0.  1.
        996    1    1    2    0    0 -0.15089328144E+01 -0.26165915359E+02  0.87014950491E+02  0.10372335134E+03  0.50000000000E+02 0.  0.
<mgrwt>
<rscale>  0 0.56452918E+02</rscale>
<asrwt>0</asrwt>
<pdfrwt beam="1">  1       13 0.10000000E+01 0.56452918E+02</pdfrwt>
<pdfrwt beam="2">  1       22 0.45439574E+00 0.56452918E+02</pdfrwt>
<totfact> 0.94659633E-02</totfact>
</mgrwt>
</event>
<event>
 4    1  0.2409985E+000  0.5252938E+02  0.7957747E-01  0.1432157E+00
         13   -1    0    0    0    0  0.00000000000E+00  0.00000000000E+00  0.99999944177E+02  0.99999999997E+02  0.10566000000E+00 0.  1.
         22   -1    0    0    0    0 -0.00000000000E+00 -0.00000000000E+00 -0.18208031683E+02  0.18208031683E+02  0.00000000000E+00 0. -1.
         13    1    1    2    0    0  0.76629205262E+01  0.14163890618E+02 -0.49087262937E+01  0.16835762717E+02  0.10566000000E+00 0. -1.
        996    1    1    2    0    0 -0.76629205262E+01 -0.14163890618E+02  0.86700638788E+02  0.10137226896E+03  0.50000000000E+02 0.  0.
<mgrwt>
<rscale>  0 0.52529384E+02</rscale>
<asrwt>0</asrwt>
<pdfrwt beam="1">  1       13 0.10000000E+01 0.52529384E+02</pdfrwt>
<pdfrwt beam="2">  1       22 0.18208055E+00 0.52529384E+02</pdfrwt>
<totfact> 0.53870848E-01</totfact>
</mgrwt>
</event>
<event>
 4    1  0.2409985E+000  0.5479251E+02  0.7957747E-01  0.1421083E+00
         13   -1    0    0    0    0  0.00000000000E+00  0.00000000000E+00  0.99999944181E+02  0.10000000000E+03  0.10566000000E+00 0. -1.
         22   -1    0    0    0    0 -0.00000000000E+00 -0.00000000000E+00 -0.97694162081E+02  0.97694162081E+02  0.00000000000E+00 0.  1.
         13    1    1    2    0    0 -0.22076268235E+02  0.38544951585E+01 -0.88688744908E+02  0.91476354265E+02  0.10566000000E+00 0.  1.
        996    1    1    2    0    0  0.22076268235E+02 -0.38544951585E+01  0.90994527008E+02  0.10621780782E+03  0.50000000000E+02 0.  0.
<mgrwt>
<rscale>  0 0.54792506E+02</rscale>
<asrwt>0</asrwt>
<pdfrwt beam="1">  1       13 0.10000000E+01 0.54792506E+02</pdfrwt>
<pdfrwt beam="2">  1       22 0.97694163E+00 0.54792506E+02</pdfrwt>
<totfact> 0.17641615E-03</totfact>
</mgrwt>
</event>
<event>
 4    1  0.2409985E+000  0.5181349E+02  0.7957747E-01  0.1435799E+00
         13   -1    0    0    0    0  0.00000000000E+00  0.00000000000E+00  0.99999944177E+02  0.99999999997E+02  0.10566000000E+00 0. -1.
         22   -1    0    0    0    0 -0.00000000000E+00 -0.00000000000E+00 -0.25085100759E+02  0.25085100759E+02  0.00000000000E+00 0.  1.
         13    1    1    2    0    0  0.71763318509E+01  0.11538533001E+02 -0.15662318590E+02  0.20735401378E+02  0.10566000000E+00 0.  1.
        996    1    1    2    0    0 -0.71763318509E+01 -0.11538533001E+02  0.90577162009E+02  0.10434969938E+03  0.50000000000E+02 0.  0.
<mgrwt>
<rscale>  0 0.51813487E+02</rscale>
<asrwt>0</asrwt>
<pdfrwt beam="1">  1       13 0.10000000E+01 0.51813487E+02</pdfrwt>
<pdfrwt beam="2">  1       22 0.25085122E+00 0.51813487E+02</pdfrwt>
<totfact> 0.29274310E-01</totfact>
</mgrwt>
</event>
<event>
 4    1  0.2409985E+000  0.5110979E+02  0.7957747E-01  0.1439446E+00
         13   -1    0    0    0    0  0.00000000000E+00  0.00000000000E+00  0.99999944173E+02  0.99999999993E+02  0.10566000000E+00 0.  1.
         22   -1    0    0    0    0 -0.00000000000E+00 -0.00000000000E+00 -0.14850697967E+02  0.14850697967E+02  0.00000000000E+00 0. -1.
         13    1    1    2    0    0  0.10588163834E+02 -0.31913724753E+00 -0.46155669706E+01  0.11555331429E+02  0.10566000000E+00 0. -1.
        996    1    1    2    0    0 -0.10588163834E+02  0.31913724753E+00  0.89764813177E+02  0.10329536653E+03  0.50000000000E+02 0.  0.
<mgrwt>
<rscale>  0 0.51109794E+02</rscale>
<asrwt>0</asrwt>
<pdfrwt beam="1">  1       13 0.10000000E+01 0.51109794E+02</pdfrwt>
<pdfrwt beam="2">  1       22 0.14850722E+00 0.51109794E+02</pdfrwt>
<totfact> 0.76413527E-01</totfact>
</mgrwt>
</event>
<event>
 4    1  0.2409985E+000  0.5235689E+02  0.7957747E-01  0.1433028E+00
         13   -1    0    0    0    0  0.00000000000E+00  0.00000000000E+00  0.99999944180E+02  0.10000000000E+03  0.10566000000E+00 0.  1.
         22   -1    0    0    0    0 -0.00000000000E+00 -0.00000000000E+00 -0.19194507095E+02  0.19194507095E+02  0.00000000000E+00 0. -1.
         13    1    1    2    0    0 -0.15517218135E+02  0.67813787722E+00 -0.69426875192E+01  0.17013406586E+02  0.10566000000E+00 0. -1.
        996    1    1    2    0    0  0.15517218135E+02 -0.67813787722E+00  0.87748124605E+02  0.10218110051E+03  0.50000000000E+02 0.  0.
<mgrwt>
<rscale>  0 0.52356890E+02</rscale>
<asrwt>0</asrwt>
<pdfrwt beam="1">  1       13 0.10000000E+01 0.52356890E+02</pdfrwt>
<pdfrwt beam="2">  1       22 0.19194530E+00 0.52356890E+02</pdfrwt>
<totfact> 0.48923207E-01</totfact>
</mgrwt>
</event>
<event>
 4    1  0.2409985E+000  0.5152747E+02  0.7957747E-01  0.1437273E+00
         13   -1    0    0    0    0  0.00000000000E+00  0.00000000000E+00  0.99999944173E+02  0.99999999993E+02  0.10566000000E+00 0. -1.
         22   -1    0    0    0    0 -0.00000000000E+00 -0.00000000000E+00 -0.10487915131E+02  0.10487915131E+02  0.00000000000E+00 0. -1.
         13    1    1    2    0    0  0.84583105639E+01 -0.91398508875E+01  0.24941751080E+02  0.27877984196E+02  0.10566000000E+00 0.  1.
        996    1    1    2    0    0 -0.84583105639E+01  0.91398508875E+01  0.64570277962E+02  0.82609930928E+02  0.50000000000E+02 0.  0.
<mgrwt>
<rscale>  0 0.51527467E+02</rscale>
<asrwt>0</asrwt>
<pdfrwt beam="1">  1       13 0.10000000E+01 0.51527467E+02</pdfrwt>
<pdfrwt beam="2">  1       22 0.10487940E+00 0.51527467E+02</pdfrwt>
<totfact> 0.13137138E+00</totfact>
</mgrwt>
</event>
<event>
 4    1  0.2409985E+000  0.6371212E+02  0.7957747E-01  0.1382883E+00
         13   -1    0    0    0    0  0.00000000000E+00  0.00000000000E+00  0.99999944174E+02  0.99999999994E+02  0.10566000000E+00 0. -1.
         22   -1    0    0    0    0 -0.00000000000E+00 -0.00000000000E+00 -0.64378149827E+02  0.64378149827E+02  0.00000000000E+00 0.  1.
         13    1    1    2    0    0  0.35580553301E+02 -0.17124782176E+02 -0.46135931216E+02  0.60727005944E+02  0.10566000000E+00 0.  1.
        996    1    1    2    0    0 -0.35580553301E+02  0.17124782176E+02  0.81757725563E+02  0.10365114388E+03  0.50000000000E+02 0.  0.
<mgrwt>
<rscale>  0 0.63712118E+02</rscale>
<asrwt>0</asrwt>
<pdfrwt beam="1">  1       13 0.10000000E+01 0.63712118E+02</pdfrwt>
<pdfrwt beam="2">  1       22 0.64378160E+00 0.63712118E+02</pdfrwt>
<totfact> 0.84722212E-02</totfact>
</mgrwt>
</event>
<event>
 4    1  0.2409985E+000  0.5116022E+02  0.7957747E-01  0.1439182E+00
         13   -1    0    0    0    0  0.00000000000E+00  0.00000000000E+00  0.99999944174E+02  0.99999999995E+02  0.10566000000E+00 0. -1.
         22   -1    0    0    0    0 -0.00000000000E+00 -0.00000000000E+00 -0.18373601344E+02  0.18373601344E+02  0.00000000000E+00 0.  1.
         13    1    1    2    0    0  0.10156793453E+02 -0.37693029829E+01 -0.91448677756E+01  0.14177724390E+02  0.10566000000E+00 0.  1.
        996    1    1    2    0    0 -0.10156793453E+02  0.37693029829E+01  0.90771210606E+02  0.10419587695E+03  0.50000000000E+02 0.  0.
<mgrwt>
<rscale>  0 0.51160220E+02</rscale>
<asrwt>0</asrwt>
<pdfrwt beam="1">  1       13 0.10000000E+01 0.51160220E+02</pdfrwt>
<pdfrwt beam="2">  1       22 0.18373624E+00 0.51160220E+02</pdfrwt>
<totfact> 0.52861950E-01</totfact>
</mgrwt>
</event>
<event>
 4    1  0.2409985E+000  0.5245372E+02  0.7957747E-01  0.1432539E+00
         13   -1    0    0    0    0  0.00000000000E+00  0.00000000000E+00  0.99999944179E+02  0.99999999999E+02  0.10566000000E+00 0.  1.
         22   -1    0    0    0    0 -0.00000000000E+00 -0.00000000000E+00 -0.12186364875E+02  0.12186364875E+02  0.00000000000E+00 0.  1.
         13    1    1    2    0    0 -0.15474686390E+02  0.34534805755E+01  0.31265056430E+02  0.35055775053E+02  0.10566000000E+00 0. -1.
        996    1    1    2    0    0  0.15474686390E+02 -0.34534805755E+01  0.56548522874E+02  0.77130589821E+02  0.50000000000E+02 0.  0.
<mgrwt>
<rscale>  0 0.52453717E+02</rscale>
<asrwt>0</asrwt>
<pdfrwt beam="1">  1       13 0.10000000E+01 0.52453717E+02</pdfrwt>
<pdfrwt beam="2">  1       22 0.12186389E+00 0.52453717E+02</pdfrwt>
<totfact> 0.10508491E+00</totfact>
</mgrwt>
</event>
<event>
 4    1  0.2409985E+000  0.5136013E+02  0.7957747E-01  0.1438140E+00
         13   -1    0    0    0    0  0.00000000000E+00  0.00000000000E+00  0.99999944180E+02  0.10000000000E+03  0.10566000000E+00 0.  1.
         22   -1    0    0    0    0 -0.00000000000E+00 -0.00000000000E+00 -0.19556588953E+02  0.19556588953E+02  0.00000000000E+00 0.  1.
         13    1    1    2    0    0 -0.39668752465E+01 -0.11051100565E+02 -0.10081906530E+02  0.15476399007E+02  0.10566000000E+00 0. -1.
        996    1    1    2    0    0  0.39668752465E+01  0.11051100565E+02  0.90525261758E+02  0.10408018995E+03  0.50000000000E+02 0.  0.
<mgrwt>
<rscale>  0 0.51360130E+02</rscale>
<asrwt>0</asrwt>
<pdfrwt beam="1">  1       13 0.10000000E+01 0.51360130E+02</pdfrwt>
<pdfrwt beam="2">  1       22 0.19556611E+00 0.51360130E+02</pdfrwt>
<totfact> 0.47179872E-01</totfact>
</mgrwt>
</event>
<event>
 4    1  0.2409985E+000  0.5756125E+02  0.7957747E-01  0.1408361E+00
         13   -1    0    0    0    0  0.00000000000E+00  0.00000000000E+00  0.99999944178E+02  0.99999999998E+02  0.10566000000E+00 0.  1.
         22   -1    0    0    0    0 -0.00000000000E+00 -0.00000000000E+00 -0.20492359714E+02  0.20492359714E+02  0.00000000000E+00 0. -1.
         13    1    1    2    0    0 -0.56919380301E+01  0.27944586526E+02  0.99457031294E+01  0.30203083442E+02  0.10566000000E+00 0. -1.
        996    1    1    2    0    0  0.56919380301E+01 -0.27944586526E+02  0.69561881334E+02  0.90289276270E+02  0.50000000000E+02 0.  0.
<mgrwt>
<rscale>  0 0.57561255E+02</rscale>
<asrwt>0</asrwt>
<pdfrwt beam="1">  1       13 0.10000000E+01 0.57561255E+02</pdfrwt>
<pdfrwt beam="2">  1       22 0.20492382E+00 0.57561255E+02</pdfrwt>
<totfact> 0.43695841E-01</totfact>
</mgrwt>
</event>
<event>
 4    1  0.2409985E+000  0.5184017E+02  0.7957747E-01  0.1435662E+00
         13   -1    0    0    0    0  0.00000000000E+00  0.00000000000E+00  0.99999944186E+02  0.10000000001E+03  0.10566000000E+00 0.  1.
         22   -1    0    0    0    0 -0.00000000000E+00 -0.00000000000E+00 -0.10771857731E+02  0.10771857731E+02  0.00000000000E+00 0.  1.
         13    1    1    2    0    0 -0.57855253219E+01  0.12406872493E+02  0.21348529221E+02  0.25360868523E+02  0.10566000000E+00 0. -1.
        996    1    1    2    0    0  0.57855253219E+01 -0.12406872493E+02  0.67879557234E+02  0.85410989214E+02  0.50000000000E+02 0.  0.
<mgrwt>
<rscale>  0 0.51840166E+02</rscale>
<asrwt>0</asrwt>
<pdfrwt beam="1">  1       13 0.10000000E+01 0.51840166E+02</pdfrwt>
<pdfrwt beam="2">  1       22 0.10771883E+00 0.51840166E+02</pdfrwt>
<totfact> 0.12639581E+00</totfact>
</mgrwt>
</event>
<event>
 4    1  0.2409985E+000  0.5125003E+02  0.7957747E-01  0.1438714E+00
         13   -1    0    0    0    0  0.00000000000E+00  0.00000000000E+00  0.99999944176E+02  0.99999999996E+02  0.10566000000E+00 0. -1.
         22   -1    0    0    0    0 -0.00000000000E+00 -0.00000000000E+00 -0.27279377755E+02  0.27279377755E+02  0.00000000000E+00 0.  1.
         13    1    1    2    0    0  0.53966964528E+01  0.98712543221E+01 -0.19075259400E+02  0.22145940479E+02  0.10566000000E+00 0.  1.
        996    1    1    2    0    0 -0.53966964528E+01 -0.98712543221E+01  0.91795825821E+02  0.10513343727E+03  0.50000000000E+02 0.  0.
<mgrwt>
<rscale>  0 0.51250034E+02</rscale>
<asrwt>0</asrwt>
<pdfrwt beam="1">  1       13 0.10000000E+01 0.51250034E+02</pdfrwt>
<pdfrwt beam="2">  1       22 0.27279398E+00 0.51250034E+02</pdfrwt>
<totfact> 0.24810672E-01</totfact>
</mgrwt>
</event>
<event>
 4    1  0.2409985E+000  0.5380339E+02  0.7957747E-01  0.1425844E+00
         13   -1    0    0    0    0  0.00000000000E+00  0.00000000000E+00  0.99999944179E+02  0.99999999999E+02  0.10566000000E+00 0.  1.
         22   -1    0    0    0    0 -0.00000000000E+00 -0.00000000000E+00 -0.26034934749E+02  0.26034934749E+02  0.00000000000E+00 0.  1.
         13    1    1    2    0    0 -0.19824275654E+02  0.13425728289E+01  0.69228330253E+02  0.72023449519E+02  0.10566000000E+00 0. -1.
        996    1    1    2    0    0  0.19824275654E+02 -0.13425728289E+01  0.47366791772E+01  0.54011485229E+02  0.50000000000E+02 0.  0.
<mgrwt>
<rscale>  0 0.53803387E+02</rscale>
<asrwt>0</asrwt>
<pdfrwt beam="1">  1       13 0.10000000E+01 0.53803387E+02</pdfrwt>
<pdfrwt beam="2">  1       22 0.26034955E+00 0.53803387E+02</pdfrwt>
<totfact> 0.27291356E-01</totfact>
</mgrwt>
</event>
<event>
 4    1  0.2409985E+000  0.5176619E+02  0.7957747E-01  0.1436042E+00
         13   -1    0    0    0    0  0.00000000000E+00  0.00000000000E+00  0.99999944182E+02  0.10000000000E+03  0.10566000000E+00 0. -1.
         22   -1    0    0    0    0 -0.00000000000E+00 -0.00000000000E+00 -0.10709331805E+02  0.10709331805E+02  0.00000000000E+00 0. -1.
         13    1    1    2    0    0 -0.11557915172E+02  0.67935732854E+01  0.22712863247E+02  0.26374672737E+02  0.10566000000E+00 0.  1.
        996    1    1    2    0    0  0.11557915172E+02 -0.67935732854E+01  0.66577749131E+02  0.84334659070E+02  0.50000000000E+02 0.  0.
<mgrwt>
<rscale>  0 0.51766186E+02</rscale>
<asrwt>0</asrwt>
<pdfrwt beam="1">  1       13 0.10000000E+01 0.51766186E+02</pdfrwt>
<pdfrwt beam="2">  1       22 0.10709357E+00 0.51766186E+02</pdfrwt>
<totfact> 0.12746552E+00</totfact>
</mgrwt>
</event>
<event>
 4    1  0.2409985E+000  0.5173952E+02  0.7957747E-01  0.1436179E+00
         13   -1    0    0    0    0  0.00000000000E+00  0.00000000000E+00  0.99999944173E+02  0.99999999993E+02  0.10566000000E+00 0.  1.
         22   -1    0    0    0    0 -0.00000000000E+00 -0.00000000000E+00 -0.22270197964E+02  0.22270197964E+02  0.00000000000E+00 0. -1.
         13    1    1    2    0    0  0.79118943850E+01 -0.10694836083E+02 -0.12502515923E+02  0.18256551154E+02  0.10566000000E+00 0. -1.
        996    1    1    2    0    0 -0.79118943850E+01  0.10694836083E+02  0.90232262133E+02  0.10401364680E+03  0.50000000000E+02 0.  0.
<mgrwt>
<rscale>  0 0.51739517E+02</rscale>
<asrwt>0</asrwt>
<pdfrwt beam="1">  1       13 0.10000000E+01 0.51739517E+02</pdfrwt>
<pdfrwt beam="2">  1       22 0.22270220E+00 0.51739517E+02</pdfrwt>
<totfact> 0.36925995E-01</totfact>
</mgrwt>
</event>
<event>
 4    1  0.2409985E+000  0.5314681E+02  0.7957747E-01  0.1429072E+00
         13   -1    0    0    0    0  0.00000000000E+00  0.00000000000E+00  0.99999944179E+02  0.99999999999E+02  0.10566000000E+00 0.  1.
         22   -1    0    0    0    0 -0.00000000000E+00 -0.00000000000E+00 -0.32453392819E+02  0.32453392819E+02  0.00000000000E+00 0. -1.
         13    1    1    2    0    0 -0.13614026133E+02 -0.11800094455E+02 -0.21930833899E+02  0.28382328591E+02  0.10566000000E+00 0. -1.
        996    1    1    2    0    0  0.13614026133E+02  0.11800094455E+02  0.89477385259E+02  0.10407106423E+03  0.50000000000E+02 0.  0.
<mgrwt>
<rscale>  0 0.53146815E+02</rscale>
<asrwt>0</asrwt>
<pdfrwt beam="1">  1       13 0.10000000E+01 0.53146815E+02</pdfrwt>
<pdfrwt beam="2">  1       22 0.32453412E+00 0.53146815E+02</pdfrwt>
<totfact> 0.17965862E-01</totfact>
</mgrwt>
</event>
<event>
 4    1  0.2409985E+000  0.5267667E+02  0.7957747E-01  0.1431417E+00
         13   -1    0    0    0    0  0.00000000000E+00  0.00000000000E+00  0.99999944176E+02  0.99999999996E+02  0.10566000000E+00 0.  1.
         22   -1    0    0    0    0 -0.00000000000E+00 -0.00000000000E+00 -0.11994959342E+02  0.11994959342E+02  0.00000000000E+00 0.  1.
         13    1    1    2    0    0  0.10419831772E+02  0.12894150617E+02  0.20167815233E+02  0.26107162803E+02  0.10566000000E+00 0. -1.
        996    1    1    2    0    0 -0.10419831772E+02 -0.12894150617E+02  0.67837169600E+02  0.85887796535E+02  0.50000000000E+02 0.  0.
<mgrwt>
<rscale>  0 0.52676674E+02</rscale>
<asrwt>0</asrwt>
<pdfrwt beam="1">  1       13 0.10000000E+01 0.52676674E+02</pdfrwt>
<pdfrwt beam="2">  1       22 0.11994984E+00 0.52676674E+02</pdfrwt>
<totfact> 0.10772486E+00</totfact>
</mgrwt>
</event>
<event>
 4    1  0.2409985E+000  0.5141564E+02  0.7957747E-01  0.1437852E+00
         13   -1    0    0    0    0  0.00000000000E+00  0.00000000000E+00  0.99999944174E+02  0.99999999994E+02  0.10566000000E+00 0. -1.
         22   -1    0    0    0    0 -0.00000000000E+00 -0.00000000000E+00 -0.10057554356E+02  0.10057554356E+02  0.00000000000E+00 0.  1.
         13    1    1    2    0    0 -0.20314967860E+01 -0.11808517014E+02  0.18334712090E+02  0.21902988032E+02  0.10566000000E+00 0.  1.
        996    1    1    2    0    0  0.20314967860E+01  0.11808517014E+02  0.71607677728E+02  0.88154566319E+02  0.50000000000E+02 0.  0.
<mgrwt>
<rscale>  0 0.51415640E+02</rscale>
<asrwt>0</asrwt>
<pdfrwt beam="1">  1       13 0.10000000E+01 0.51415640E+02</pdfrwt>
<pdfrwt beam="2">  1       22 0.10057579E+00 0.51415640E+02</pdfrwt>
<totfact> 0.13961375E+00</totfact>
</mgrwt>
</event>
<event>
 4    1  0.2409985E+000  0.5154599E+02  0.7957747E-01  0.1437177E+00
         13   -1    0    0    0    0  0.00000000000E+00  0.00000000000E+00  0.99999944167E+02  0.99999999987E+02  0.10566000000E+00 0. -1.
         22   -1    0    0    0    0 -0.00000000000E+00 -0.00000000000E+00 -0.16820512118E+02  0.16820512118E+02  0.00000000000E+00 0.  1.
         13    1    1    2    0    0 -0.68166275671E+01 -0.10512999796E+02 -0.59408719138E+01  0.13867036426E+02  0.10566000000E+00 0.  1.
        996    1    1    2    0    0  0.68166275671E+01  0.10512999796E+02  0.89120303962E+02  0.10295347568E+03  0.50000000000E+02 0.  0.
<mgrwt>
<rscale>  0 0.51545995E+02</rscale>
<asrwt>0</asrwt>
<pdfrwt beam="1">  1       13 0.10000000E+01 0.51545995E+02</pdfrwt>
<pdfrwt beam="2">  1       22 0.16820535E+00 0.51545995E+02</pdfrwt>
<totfact> 0.61882344E-01</totfact>
</mgrwt>
</event>
<event>
 4    1  0.2409985E+000  0.5114287E+02  0.7957747E-01  0.1439273E+00
         13   -1    0    0    0    0  0.00000000000E+00  0.00000000000E+00  0.99999944186E+02  0.10000000001E+03  0.10566000000E+00 0.  1.
         22   -1    0    0    0    0 -0.00000000000E+00 -0.00000000000E+00 -0.10340659477E+02  0.10340659477E+02  0.00000000000E+00 0.  1.
         13    1    1    2    0    0 -0.81760526499E+01  0.69817800954E+01  0.60701443564E+01  0.12347101149E+02  0.10566000000E+00 0. -1.
        996    1    1    2    0    0  0.81760526499E+01 -0.69817800954E+01  0.83589140353E+02  0.97993558335E+02  0.50000000000E+02 0.  0.
<mgrwt>
<rscale>  0 0.51142869E+02</rscale>
<asrwt>0</asrwt>
<pdfrwt beam="1">  1       13 0.10000000E+01 0.51142869E+02</pdfrwt>
<pdfrwt beam="2">  1       22 0.10340685E+00 0.51142869E+02</pdfrwt>
<totfact> 0.13399623E+00</totfact>
</mgrwt>
</event>
<event>
 4    1  0.2409985E+000  0.5327848E+02  0.7957747E-01  0.1428420E+00
         13   -1    0    0    0    0  0.00000000000E+00  0.00000000000E+00  0.99999944178E+02  0.99999999998E+02  0.10566000000E+00 0. -1.
         22   -1    0    0    0    0 -0.00000000000E+00 -0.00000000000E+00 -0.12893224741E+02  0.12893224741E+02  0.00000000000E+00 0. -1.
         13    1    1    2    0    0 -0.30313966299E+01 -0.18149568855E+02  0.19421625060E+02  0.26754567819E+02  0.10566000000E+00 0.  1.
        996    1    1    2    0    0  0.30313966299E+01  0.18149568855E+02  0.67685094377E+02  0.86138656920E+02  0.50000000000E+02 0.  0.
<mgrwt>
<rscale>  0 0.53278478E+02</rscale>
<asrwt>0</asrwt>
<pdfrwt beam="1">  1       13 0.10000000E+01 0.53278478E+02</pdfrwt>
<pdfrwt beam="2">  1       22 0.12893249E+00 0.53278478E+02</pdfrwt>
<totfact> 0.96430099E-01</totfact>
</mgrwt>
</event>
<event>
 4    1  0.2409985E+000  0.5246998E+02  0.7957747E-01  0.1432457E+00
         13   -1    0    0    0    0  0.00000000000E+00  0.00000000000E+00  0.99999944179E+02  0.10000000000E+03  0.10566000000E+00 0.  1.
         22   -1    0    0    0    0 -0.00000000000E+00 -0.00000000000E+00 -0.13198409592E+02  0.13198409592E+02  0.00000000000E+00 0.  1.
         13    1    1    2    0    0 -0.57791985823E+01  0.14822261423E+02  0.63097643368E+01  0.17114989336E+02  0.10566000000E+00 0. -1.
        996    1    1    2    0    0  0.57791985823E+01 -0.14822261423E+02  0.80491770251E+02  0.96083420256E+02  0.50000000000E+02 0.  0.
<mgrwt>
<rscale>  0 0.52469978E+02</rscale>
<asrwt>0</asrwt>
<pdfrwt beam="1">  1       13 0.10000000E+01 0.52469978E+02</pdfrwt>
<pdfrwt beam="2">  1       22 0.13198434E+00 0.52469978E+02</pdfrwt>
<totfact> 0.92775227E-01</totfact>
</mgrwt>
</event>
<event>
 4    1  0.2409985E+000  0.5112105E+02  0.7957747E-01  0.1439387E+00
         13   -1    0    0    0    0  0.00000000000E+00  0.00000000000E+00  0.99999944179E+02  0.99999999999E+02  0.10566000000E+00 0. -1.
         22   -1    0    0    0    0 -0.00000000000E+00 -0.00000000000E+00 -0.42859063058E+02  0.42859063058E+02  0.00000000000E+00 0.  1.
         13    1    1    2    0    0  0.31782764720E+01  0.10161710799E+02 -0.35492872928E+02  0.37055593375E+02  0.10566000000E+00 0.  1.
        996    1    1    2    0    0 -0.31782764720E+01 -0.10161710799E+02  0.92633754049E+02  0.10580346968E+03  0.50000000000E+02 0.  0.
<mgrwt>
<rscale>  0 0.51121051E+02</rscale>
<asrwt>0</asrwt>
<pdfrwt beam="1">  1       13 0.10000000E+01 0.51121051E+02</pdfrwt>
<pdfrwt beam="2">  1       22 0.42859079E+00 0.51121051E+02</pdfrwt>
<totfact> 0.10764656E-01</totfact>
</mgrwt>
</event>
<event>
 4    1  0.2409985E+000  0.8904774E+02  0.7957747E-01  0.1305174E+00
         13   -1    0    0    0    0  0.00000000000E+00  0.00000000000E+00  0.99999944166E+02  0.99999999986E+02  0.10566000000E+00 0. -1.
         22   -1    0    0    0    0 -0.00000000000E+00 -0.00000000000E+00 -0.72217705334E+02  0.72217705334E+02  0.00000000000E+00 0.  1.
         13    1    1    2    0    0 -0.70826677090E+02 -0.20324427891E+02 -0.12055540253E+02  0.74664903212E+02  0.10566000000E+00 0.  1.
        996    1    1    2    0    0  0.70826677090E+02  0.20324427891E+02  0.39837779085E+02  0.97552802108E+02  0.50000000000E+02 0.  0.
<mgrwt>
<rscale>  0 0.89047743E+02</rscale>
<asrwt>0</asrwt>
<pdfrwt beam="1">  1       13 0.10000000E+01 0.89047743E+02</pdfrwt>
<pdfrwt beam="2">  1       22 0.72217713E+00 0.89047743E+02</pdfrwt>
<totfact> 0.62841694E-02</totfact>
</mgrwt>
</event>
<event>
 4    1  0.2409985E+000  0.5105981E+02  0.7957747E-01  0.1439708E+00
         13   -1    0    0    0    0  0.00000000000E+00  0.00000000000E+00  0.99999944180E+02  0.10000000000E+03  0.10566000000E+00 0.  1.
         22   -1    0    0    0    0 -0.00000000000E+00 -0.00000000000E+00 -0.15081075050E+02  0.15081075050E+02  0.00000000000E+00 0. -1.
         13    1    1    2    0    0  0.95412237372E+01  0.40086782223E+01 -0.51392279547E+01  0.11555400447E+02  0.10566000000E+00 0. -1.
        996    1    1    2    0    0 -0.95412237372E+01 -0.40086782223E+01  0.90058097084E+02  0.10352567460E+03  0.50000000000E+02 0.  0.
<mgrwt>
<rscale>  0 0.51059812E+02</rscale>
<asrwt>0</asrwt>
<pdfrwt beam="1">  1       13 0.10000000E+01 0.51059812E+02</pdfrwt>
<pdfrwt beam="2">  1       22 0.15081099E+00 0.51059812E+02</pdfrwt>
<totfact> 0.74474688E-01</totfact>
</mgrwt>
</event>
<event>
 4    1  0.2409985E+000  0.5143728E+02  0.7957747E-01  0.1437740E+00
         13   -1    0    0    0    0  0.00000000000E+00  0.00000000000E+00  0.99999944179E+02  0.99999999999E+02  0.10566000000E+00 0. -1.
         22   -1    0    0    0    0 -0.00000000000E+00 -0.00000000000E+00 -0.10127819921E+02  0.10127819921E+02  0.00000000000E+00 0. -1.
         13    1    1    2    0    0  0.12058897396E+02 -0.61410340289E+00  0.14375540651E+02  0.18773957027E+02  0.10566000000E+00 0.  1.
        996    1    1    2    0    0 -0.12058897396E+02  0.61410340289E+00  0.75496583607E+02  0.91353862894E+02  0.50000000000E+02 0.  0.
<mgrwt>
<rscale>  0 0.51437283E+02</rscale>
<asrwt>0</asrwt>
<pdfrwt beam="1">  1       13 0.10000000E+01 0.51437283E+02</pdfrwt>
<pdfrwt beam="2">  1       22 0.10127845E+00 0.51437283E+02</pdfrwt>
<totfact> 0.13821699E+00</totfact>
</mgrwt>
</event>
<event>
 4    1  0.2409985E+000  0.5550995E+02  0.7957747E-01  0.1417703E+00
         13   -1    0    0    0    0  0.00000000000E+00  0.00000000000E+00  0.99999944179E+02  0.10000000000E+03  0.10566000000E+00 0. -1.
         22   -1    0    0    0    0 -0.00000000000E+00 -0.00000000000E+00 -0.57869809259E+02  0.57869809259E+02  0.00000000000E+00 0.  1.
         13    1    1    2    0    0  0.24098449599E+02  0.78670353686E+00 -0.47024934180E+02  0.52846095166E+02  0.10566000000E+00 0.  1.
        996    1    1    2    0    0 -0.24098449599E+02 -0.78670353686E+00  0.89155069101E+02  0.10502371409E+03  0.50000000000E+02 0.  0.
<mgrwt>
<rscale>  0 0.55509947E+02</rscale>
<asrwt>0</asrwt>
<pdfrwt beam="1">  1       13 0.10000000E+01 0.55509947E+02</pdfrwt>
<pdfrwt beam="2">  1       22 0.57869821E+00 0.55509947E+02</pdfrwt>
<totfact> 0.58161736E-02</totfact>
</mgrwt>
</event>
<event>
 4    1  0.2409985E+000  0.5391508E+02  0.7957747E-01  0.1425300E+00
         13   -1    0    0    0    0  0.00000000000E+00  0.00000000000E+00  0.99999944184E+02  0.10000000000E+03  0.10566000000E+00 0.  1.
         22   -1    0    0    0    0 -0.00000000000E+00 -0.00000000000E+00 -0.26415502567E+02  0.26415502567E+02  0.00000000000E+00 0. -1.
         13    1    1    2    0    0 -0.20024977331E+02 -0.24157966413E+01 -0.13301093469E+02  0.24161250837E+02  0.10566000000E+00 0. -1.
        996    1    1    2    0    0  0.20024977331E+02  0.24157966413E+01  0.86885535086E+02  0.10225425173E+03  0.50000000000E+02 0.  0.
<mgrwt>
<rscale>  0 0.53915079E+02</rscale>
<asrwt>0</asrwt>
<pdfrwt beam="1">  1       13 0.10000000E+01 0.53915079E+02</pdfrwt>
<pdfrwt beam="2">  1       22 0.26415523E+00 0.53915079E+02</pdfrwt>
<totfact> 0.26527540E-01</totfact>
</mgrwt>
</event>
<event>
 4    1  0.2409985E+000  0.5139709E+02  0.7957747E-01  0.1437948E+00
         13   -1    0    0    0    0  0.00000000000E+00  0.00000000000E+00  0.99999944181E+02  0.10000000000E+03  0.10566000000E+00 0.  1.
         22   -1    0    0    0    0 -0.00000000000E+00 -0.00000000000E+00 -0.14344374434E+02  0.14344374434E+02  0.00000000000E+00 0. -1.
         13    1    1    2    0    0 -0.95157753314E+01 -0.71491735756E+01 -0.26280760776E+01  0.12189282624E+02  0.10566000000E+00 0. -1.
        996    1    1    2    0    0  0.95157753314E+01  0.71491735756E+01  0.88283645824E+02  0.10215509181E+03  0.50000000000E+02 0.  0.
<mgrwt>
<rscale>  0 0.51397088E+02</rscale>
<asrwt>0</asrwt>
<pdfrwt beam="1">  1       13 0.10000000E+01 0.51397088E+02</pdfrwt>
<pdfrwt beam="2">  1       22 0.14344398E+00 0.51397088E+02</pdfrwt>
<totfact> 0.80953799E-01</totfact>
</mgrwt>
</event>
<event>
 4    1  0.2409985E+000  0.5146917E+02  0.7957747E-01  0.1437575E+00
         13   -1    0    0    0    0  0.00000000000E+00  0.00000000000E+00  0.99999944175E+02  0.99999999996E+02  0.10566000000E+00 0. -1.
         22   -1    0    0    0    0 -0.00000000000E+00 -0.00000000000E+00 -0.12572706184E+02  0.12572706184E+02  0.00000000000E+00 0. -1.
         13    1    1    2    0    0  0.11561284302E+02 -0.39258155676E+01  0.42612407185E+02  0.44327234661E+02  0.10566000000E+00 0.  1.
        996    1    1    2    0    0 -0.11561284302E+02  0.39258155676E+01  0.44814830807E+02  0.68245471519E+02  0.50000000000E+02 0.  0.
<mgrwt>
<rscale>  0 0.51469169E+02</rscale>
<asrwt>0</asrwt>
<pdfrwt beam="1">  1       13 0.10000000E+01 0.51469169E+02</pdfrwt>
<pdfrwt beam="2">  1       22 0.12572731E+00 0.51469169E+02</pdfrwt>
<totfact> 0.99910118E-01</totfact>
</mgrwt>
</event>
<event>
 4    1  0.2409985E+000  0.5129575E+02  0.7957747E-01  0.1438475E+00
         13   -1    0    0    0    0  0.00000000000E+00  0.00000000000E+00  0.99999944178E+02  0.99999999998E+02  0.10566000000E+00 0.  1.
         22   -1    0    0    0    0 -0.00000000000E+00 -0.00000000000E+00 -0.32753766491E+02  0.32753766491E+02  0.00000000000E+00 0. -1.
         13    1    1    2    0    0  0.50917694776E+01  0.10262954194E+02 -0.24834143676E+02  0.27349592343E+02  0.10566000000E+00 0. -1.
        996    1    1    2    0    0 -0.50917694776E+01 -0.10262954194E+02  0.92080321363E+02  0.10540417415E+03  0.50000000000E+02 0.  0.
<mgrwt>
<rscale>  0 0.51295754E+02</rscale>
<asrwt>0</asrwt>
<pdfrwt beam="1">  1       13 0.10000000E+01 0.51295754E+02</pdfrwt>
<pdfrwt beam="2">  1       22 0.32753785E+00 0.51295754E+02</pdfrwt>
<totfact> 0.17636336E-01</totfact>
</mgrwt>
</event>
<event>
 4    1  0.2409985E+000  0.5252783E+02  0.7957747E-01  0.1432165E+00
         13   -1    0    0    0    0  0.00000000000E+00  0.00000000000E+00  0.99999944184E+02  0.10000000000E+03  0.10566000000E+00 0. -1.
         22   -1    0    0    0    0 -0.00000000000E+00 -0.00000000000E+00 -0.12401800813E+02  0.12401800813E+02  0.00000000000E+00 0. -1.
         13    1    1    2    0    0  0.14073760830E+02  0.78168075918E+01  0.10905460151E+02  0.19445139495E+02  0.10566000000E+00 0.  1.
        996    1    1    2    0    0 -0.14073760830E+02 -0.78168075918E+01  0.76692683220E+02  0.92956661323E+02  0.50000000000E+02 0.  0.
<mgrwt>
<rscale>  0 0.52527833E+02</rscale>
<asrwt>0</asrwt>
<pdfrwt beam="1">  1       13 0.10000000E+01 0.52527833E+02</pdfrwt>
<pdfrwt beam="2">  1       22 0.12401825E+00 0.52527833E+02</pdfrwt>
<totfact> 0.10229452E+00</totfact>
</mgrwt>
</event>
<event>
 4    1  0.2409985E+000  0.5204853E+02  0.7957747E-01  0.1434595E+00
         13   -1    0    0    0    0  0.00000000000E+00  0.00000000000E+00  0.99999944176E+02  0.99999999996E+02  0.10566000000E+00 0.  1.
         22   -1    0    0    0    0 -0.00000000000E+00 -0.00000000000E+00 -0.18593466587E+02  0.18593466587E+02  0.00000000000E+00 0. -1.
         13    1    1    2    0    0 -0.14169261109E+02 -0.28777461098E+01 -0.69529229783E+01  0.16043805192E+02  0.10566000000E+00 0. -1.
        996    1    1    2    0    0  0.14169261109E+02  0.28777461098E+01  0.88359400566E+02  0.10254966139E+03  0.50000000000E+02 0.  0.
<mgrwt>
<rscale>  0 0.52048529E+02</rscale>
<asrwt>0</asrwt>
<pdfrwt beam="1">  1       13 0.10000000E+01 0.52048529E+02</pdfrwt>
<pdfrwt beam="2">  1       22 0.18593489E+00 0.52048529E+02</pdfrwt>
<totfact> 0.51821702E-01</totfact>
</mgrwt>
</event>
<event>
 4    1  0.2409985E+000  0.5106828E+02  0.7957747E-01  0.1439663E+00
         13   -1    0    0    0    0  0.00000000000E+00  0.00000000000E+00  0.99999944180E+02  0.10000000000E+03  0.10566000000E+00 0.  1.
         22   -1    0    0    0    0 -0.00000000000E+00 -0.00000000000E+00 -0.10659425459E+02  0.10659425459E+02  0.00000000000E+00 0. -1.
         13    1    1    2    0    0 -0.28058553477E+01  0.10004807507E+02  0.38584714620E+01  0.11084582245E+02  0.10566000000E+00 0. -1.
        996    1    1    2    0    0  0.28058553477E+01 -0.10004807507E+02  0.85482047259E+02  0.99574843214E+02  0.50000000000E+02 0.  0.
<mgrwt>
<rscale>  0 0.51068278E+02</rscale>
<asrwt>0</asrwt>
<pdfrwt beam="1">  1       13 0.10000000E+01 0.51068278E+02</pdfrwt>
<pdfrwt beam="2">  1       22 0.10659450E+00 0.51068278E+02</pdfrwt>
<totfact> 0.12813508E+00</totfact>
</mgrwt>
</event>
<event>
 4    1  0.2409985E+000  0.5196856E+02  0.7957747E-01  0.1435004E+00
         13   -1    0    0    0    0  0.00000000000E+00  0.00000000000E+00  0.99999944175E+02  0.99999999995E+02  0.10566000000E+00 0.  1.
         22   -1    0    0    0    0 -0.00000000000E+00 -0.00000000000E+00 -0.11049312266E+02  0.11049312266E+02  0.00000000000E+00 0.  1.
         13    1    1    2    0    0  0.94885523547E+01  0.10521329985E+02  0.14676450985E+02  0.20399519308E+02  0.10566000000E+00 0. -1.
        996    1    1    2    0    0 -0.94885523547E+01 -0.10521329985E+02  0.74274180924E+02  0.90649792953E+02  0.50000000000E+02 0.  0.
<mgrwt>
<rscale>  0 0.51968558E+02</rscale>
<asrwt>0</asrwt>
<pdfrwt beam="1">  1       13 0.10000000E+01 0.51968558E+02</pdfrwt>
<pdfrwt beam="2">  1       22 0.11049337E+00 0.51968558E+02</pdfrwt>
<totfact> 0.12174999E+00</totfact>
</mgrwt>
</event>
<event>
 4    1  0.2409985E+000  0.5157625E+02  0.7957747E-01  0.1437020E+00
         13   -1    0    0    0    0  0.00000000000E+00  0.00000000000E+00  0.99999944182E+02  0.10000000000E+03  0.10566000000E+00 0. -1.
         22   -1    0    0    0    0 -0.00000000000E+00 -0.00000000000E+00 -0.12942470693E+02  0.12942470693E+02  0.00000000000E+00 0.  1.
         13    1    1    2    0    0  0.11657926043E+02 -0.49196257487E+01  0.11036812380E+01  0.12701938177E+02  0.10566000000E+00 0.  1.
        996    1    1    2    0    0 -0.11657926043E+02  0.49196257487E+01  0.85953792252E+02  0.10024053252E+03  0.50000000000E+02 0.  0.
<mgrwt>
<rscale>  0 0.51576254E+02</rscale>
<asrwt>0</asrwt>
<pdfrwt beam="1">  1       13 0.10000000E+01 0.51576254E+02</pdfrwt>
<pdfrwt beam="2">  1       22 0.12942495E+00 0.51576254E+02</pdfrwt>
<totfact> 0.95503337E-01</totfact>
</mgrwt>
</event>
<event>
 4    1  0.2409985E+000  0.5373628E+02  0.7957747E-01  0.1426171E+00
         13   -1    0    0    0    0  0.00000000000E+00  0.00000000000E+00  0.99999944186E+02  0.10000000001E+03  0.10566000000E+00 0. -1.
         22   -1    0    0    0    0 -0.00000000000E+00 -0.00000000000E+00 -0.41681598202E+02  0.41681598202E+02  0.00000000000E+00 0.  1.
         13    1    1    2    0    0 -0.19487625771E+02 -0.27964246783E+01 -0.31423503767E+02  0.37081468447E+02  0.10566000000E+00 0.  1.
        996    1    1    2    0    0  0.19487625771E+02  0.27964246783E+01  0.89741849751E+02  0.10460012976E+03  0.50000000000E+02 0.  0.
<mgrwt>
<rscale>  0 0.53736278E+02</rscale>
<asrwt>0</asrwt>
<pdfrwt beam="1">  1       13 0.10000000E+01 0.53736278E+02</pdfrwt>
<pdfrwt beam="2">  1       22 0.41681615E+00 0.53736278E+02</pdfrwt>
<totfact> 0.11424592E-01</totfact>
</mgrwt>
</event>
<event>
 4    1  0.2409985E+000  0.5109418E+02  0.7957747E-01  0.1439528E+00
         13   -1    0    0    0    0  0.00000000000E+00  0.00000000000E+00  0.99999944187E+02  0.10000000001E+03  0.10566000000E+00 0.  1.
         22   -1    0    0    0    0 -0.00000000000E+00 -0.00000000000E+00 -0.99626537887E+01  0.99626537887E+01  0.00000000000E+00 0. -1.
         13    1    1    2    0    0  0.68458088909E+01  0.79843596405E+01  0.76035772310E+01  0.12978468669E+02  0.10566000000E+00 0. -1.
        996    1    1    2    0    0 -0.68458088909E+01 -0.79843596405E+01  0.82433713167E+02  0.96984185127E+02  0.50000000000E+02 0.  0.
<mgrwt>
<rscale>  0 0.51094179E+02</rscale>
<asrwt>0</asrwt>
<pdfrwt beam="1">  1       13 0.10000000E+01 0.51094179E+02</pdfrwt>
<pdfrwt beam="2">  1       22 0.99626789E-01 0.51094179E+02</pdfrwt>
<totfact> 0.14143357E+00</totfact>
</mgrwt>
</event>
<event>
 4    1  0.2409985E+000  0.5817816E+02  0.7957747E-01  0.1405640E+00
         13   -1    0    0    0    0  0.00000000000E+00  0.00000000000E+00  0.99999944177E+02  0.99999999997E+02  0.10566000000E+00 0. -1.
         22   -1    0    0    0    0 -0.00000000000E+00 -0.00000000000E+00 -0.64932283748E+02  0.64932283748E+02  0.00000000000E+00 0.  1.
         13    1    1    2    0    0 -0.29470432877E+02 -0.40238997849E+01 -0.52182502630E+02  0.60064323255E+02  0.10566000000E+00 0.  1.
        996    1    1    2    0    0  0.29470432877E+02  0.40238997849E+01  0.87250163059E+02  0.10486796049E+03  0.50000000000E+02 0.  0.
<mgrwt>
<rscale>  0 0.58178159E+02</rscale>
<asrwt>0</asrwt>
<pdfrwt beam="1">  1       13 0.10000000E+01 0.58178159E+02</pdfrwt>
<pdfrwt beam="2">  1       22 0.64932294E+00 0.58178159E+02</pdfrwt>
<totfact> 0.86239541E-02</totfact>
</mgrwt>
</event>
<event>
 4    1  0.2409985E+000  0.6267826E+02  0.7957747E-01  0.1386924E+00
         13   -1    0    0    0    0  0.00000000000E+00  0.00000000000E+00  0.99999944186E+02  0.10000000001E+03  0.10566000000E+00 0. -1.
         22   -1    0    0    0    0 -0.00000000000E+00 -0.00000000000E+00 -0.25561919499E+02  0.25561919499E+02  0.00000000000E+00 0.  1.
         13    1    1    2    0    0  0.57105389812E+01 -0.37362469146E+02  0.34969594403E+02  0.51492213517E+02  0.10566000000E+00 0.  1.
        996    1    1    2    0    0 -0.57105389812E+01  0.37362469146E+02  0.39468430284E+02  0.74069705988E+02  0.50000000000E+02 0.  0.
<mgrwt>
<rscale>  0 0.62678261E+02</rscale>
<asrwt>0</asrwt>
<pdfrwt beam="1">  1       13 0.10000000E+01 0.62678261E+02</pdfrwt>
<pdfrwt beam="2">  1       22 0.25561940E+00 0.62678261E+02</pdfrwt>
<totfact> 0.28640910E-01</totfact>
</mgrwt>
</event>
<event>
 4    1  0.2409985E+000  0.5118014E+02  0.7957747E-01  0.1439078E+00
         13   -1    0    0    0    0  0.00000000000E+00  0.00000000000E+00  0.99999944180E+02  0.10000000000E+03  0.10566000000E+00 0.  1.
         22   -1    0    0    0    0 -0.00000000000E+00 -0.00000000000E+00 -0.42588305898E+02  0.42588305898E+02  0.00000000000E+00 0. -1.
         13    1    1    2    0    0 -0.69718391718E+01  0.84142563414E+01 -0.35155400687E+02  0.36814665729E+02  0.10566000000E+00 0. -1.
        996    1    1    2    0    0  0.69718391718E+01 -0.84142563414E+01  0.92567038969E+02  0.10577364017E+03  0.50000000000E+02 0.  0.
<mgrwt>
<rscale>  0 0.51180135E+02</rscale>
<asrwt>0</asrwt>
<pdfrwt beam="1">  1       13 0.10000000E+01 0.51180135E+02</pdfrwt>
<pdfrwt beam="2">  1       22 0.42588322E+00 0.51180135E+02</pdfrwt>
<totfact> 0.10909950E-01</totfact>
</mgrwt>
</event>
<event>
 4    1  0.2409985E+000  0.5430172E+02  0.7957747E-01  0.1423430E+00
         13   -1    0    0    0    0  0.00000000000E+00  0.00000000000E+00  0.99999944169E+02  0.99999999989E+02  0.10566000000E+00 0. -1.
         22   -1    0    0    0    0 -0.00000000000E+00 -0.00000000000E+00 -0.14423162831E+02  0.14423162831E+02  0.00000000000E+00 0.  1.
         13    1    1    2    0    0  0.62395665130E+01  0.20242152093E+02  0.18517527533E+02  0.28135154195E+02  0.10566000000E+00 0.  1.
        996    1    1    2    0    0 -0.62395665130E+01 -0.20242152093E+02  0.67059253805E+02  0.86288008625E+02  0.50000000000E+02 0.  0.
<mgrwt>
<rscale>  0 0.54301721E+02</rscale>
<asrwt>0</asrwt>
<pdfrwt beam="1">  1       13 0.10000000E+01 0.54301721E+02</pdfrwt>
<pdfrwt beam="2">  1       22 0.14423187E+00 0.54301721E+02</pdfrwt>
<totfact> 0.80708120E-01</totfact>
</mgrwt>
</event>
<event>
 4    1  0.2409985E+000  0.5134284E+02  0.7957747E-01  0.1438230E+00
         13   -1    0    0    0    0  0.00000000000E+00  0.00000000000E+00  0.99999944173E+02  0.99999999993E+02  0.10566000000E+00 0.  1.
         22   -1    0    0    0    0 -0.00000000000E+00 -0.00000000000E+00 -0.43590082325E+02  0.43590082325E+02  0.00000000000E+00 0. -1.
         13    1    1    2    0    0  0.11473851332E+02 -0.21065669374E+01 -0.36017514299E+02  0.37859733080E+02  0.10566000000E+00 0. -1.
        996    1    1    2    0    0 -0.11473851332E+02  0.21065669374E+01  0.92427376146E+02  0.10573034924E+03  0.50000000000E+02 0.  0.
<mgrwt>
<rscale>  0 0.51342837E+02</rscale>
<asrwt>0</asrwt>
<pdfrwt beam="1">  1       13 0.10000000E+01 0.51342837E+02</pdfrwt>
<pdfrwt beam="2">  1       22 0.43590098E+00 0.51342837E+02</pdfrwt>
<totfact> 0.10380282E-01</totfact>
</mgrwt>
</event>
<event>
 4    1  0.2409985E+000  0.5223022E+02  0.7957747E-01  0.1433671E+00
         13   -1    0    0    0    0  0.00000000000E+00  0.00000000000E+00  0.99999944175E+02  0.99999999995E+02  0.10566000000E+00 0.  1.
         22   -1    0    0    0    0 -0.00000000000E+00 -0.00000000000E+00 -0.80029769916E+02  0.80029769916E+02  0.00000000000E+00 0. -1.
         13    1    1    2    0    0  0.13853228681E+02  0.60069788519E+01 -0.72377071587E+02  0.73935427201E+02  0.10566000000E+00 0. -1.
        996    1    1    2    0    0 -0.13853228681E+02 -0.60069788519E+01  0.92347245845E+02  0.10609434271E+03  0.50000000000E+02 0.  0.
<mgrwt>
<rscale>  0 0.52230219E+02</rscale>
<asrwt>0</asrwt>
<pdfrwt beam="1">  1       13 0.10000000E+01 0.52230219E+02</pdfrwt>
<pdfrwt beam="2">  1       22 0.80029776E+00 0.52230219E+02</pdfrwt>
<totfact> 0.30803475E-02</totfact>
</mgrwt>
</event>
<event>
 4    1  0.2409985E+000  0.5259648E+02  0.7957747E-01  0.1431820E+00
         13   -1    0    0    0    0  0.00000000000E+00  0.00000000000E+00  0.99999944178E+02  0.99999999998E+02  0.10566000000E+00 0.  1.
         22   -1    0    0    0    0 -0.00000000000E+00 -0.00000000000E+00 -0.27142955738E+02  0.27142955738E+02  0.00000000000E+00 0. -1.
         13    1    1    2    0    0  0.10351985541E+02  0.12618466802E+02 -0.16656732910E+02  0.23320532248E+02  0.10566000000E+00 0. -1.
        996    1    1    2    0    0 -0.10351985541E+02 -0.12618466802E+02  0.89513721349E+02  0.10382242349E+03  0.50000000000E+02 0.  0.
<mgrwt>
<rscale>  0 0.52596476E+02</rscale>
<asrwt>0</asrwt>
<pdfrwt beam="1">  1       13 0.10000000E+01 0.52596476E+02</pdfrwt>
<pdfrwt beam="2">  1       22 0.27142976E+00 0.52596476E+02</pdfrwt>
<totfact> 0.25104130E-01</totfact>
</mgrwt>
</event>
<event>
 4    1  0.2409985E+000  0.5115381E+02  0.7957747E-01  0.1439216E+00
         13   -1    0    0    0    0  0.00000000000E+00  0.00000000000E+00  0.99999944178E+02  0.99999999998E+02  0.10566000000E+00 0.  1.
         22   -1    0    0    0    0 -0.00000000000E+00 -0.00000000000E+00 -0.10547942400E+02  0.10547942400E+02  0.00000000000E+00 0.  1.
         13    1    1    2    0    0 -0.94319165909E+01 -0.52679537147E+01  0.52177663386E+01  0.11997859664E+02  0.10566000000E+00 0. -1.
        996    1    1    2    0    0  0.94319165909E+01  0.52679537147E+01  0.84234235439E+02  0.98550082734E+02  0.50000000000E+02 0.  0.
<mgrwt>
<rscale>  0 0.51153811E+02</rscale>
<asrwt>0</asrwt>
<pdfrwt beam="1">  1       13 0.10000000E+01 0.51153811E+02</pdfrwt>
<pdfrwt beam="2">  1       22 0.10547967E+00 0.51153811E+02</pdfrwt>
<totfact> 0.13015928E+00</totfact>
</mgrwt>
</event>
<event>
 4    1  0.2409985E+000  0.5176487E+02  0.7957747E-01  0.1436048E+00
         13   -1    0    0    0    0  0.00000000000E+00  0.00000000000E+00  0.99999944179E+02  0.99999999999E+02  0.10566000000E+00 0.  1.
         22   -1    0    0    0    0 -0.00000000000E+00 -0.00000000000E+00 -0.12399575995E+02  0.12399575995E+02  0.00000000000E+00 0. -1.
         13    1    1    2    0    0 -0.12057060455E+01  0.13347211709E+02  0.38520133160E+01  0.13944567333E+02  0.10566000000E+00 0. -1.
        996    1    1    2    0    0  0.12057060455E+01 -0.13347211709E+02  0.83748354868E+02  0.98455008662E+02  0.50000000000E+02 0.  0.
<mgrwt>
<rscale>  0 0.51764870E+02</rscale>
<asrwt>0</asrwt>
<pdfrwt beam="1">  1       13 0.10000000E+01 0.51764870E+02</pdfrwt>
<pdfrwt beam="2">  1       22 0.12399600E+00 0.51764870E+02</pdfrwt>
<totfact> 0.10215133E+00</totfact>
</mgrwt>
</event>
<event>
 4    1  0.2409985E+000  0.5147497E+02  0.7957747E-01  0.1437545E+00
         13   -1    0    0    0    0  0.00000000000E+00  0.00000000000E+00  0.99999944183E+02  0.10000000000E+03  0.10566000000E+00 0. -1.
         22   -1    0    0    0    0 -0.00000000000E+00 -0.00000000000E+00 -0.14053059026E+02  0.14053059026E+02  0.00000000000E+00 0.  1.
         13    1    1    2    0    0  0.10094012282E+02  0.69125303284E+01 -0.17561594588E+01  0.12359911795E+02  0.10566000000E+00 0.  1.
        996    1    1    2    0    0 -0.10094012282E+02 -0.69125303284E+01  0.87703044616E+02  0.10169314723E+03  0.50000000000E+02 0.  0.
<mgrwt>
<rscale>  0 0.51474966E+02</rscale>
<asrwt>0</asrwt>
<pdfrwt beam="1">  1       13 0.10000000E+01 0.51474966E+02</pdfrwt>
<pdfrwt beam="2">  1       22 0.14053083E+00 0.51474966E+02</pdfrwt>
<totfact> 0.83719016E-01</totfact>
</mgrwt>
</event>
<event>
 4    1  0.2409985E+000  0.5099071E+02  0.7957747E-01  0.1440070E+00
         13   -1    0    0    0    0  0.00000000000E+00  0.00000000000E+00  0.99999944177E+02  0.99999999998E+02  0.10566000000E+00 0.  1.
         22   -1    0    0    0    0 -0.00000000000E+00 -0.00000000000E+00 -0.11812330200E+02  0.11812330200E+02  0.00000000000E+00 0.  1.
         13    1    1    2    0    0 -0.94920286482E+01  0.31549856993E+01  0.68365395866E-01  0.10003418440E+02  0.10566000000E+00 0. -1.
        996    1    1    2    0    0  0.94920286482E+01 -0.31549856993E+01  0.88119248582E+02  0.10180891176E+03  0.50000000000E+02 0.  0.
<mgrwt>
<rscale>  0 0.50990710E+02</rscale>
<asrwt>0</asrwt>
<pdfrwt beam="1">  1       13 0.10000000E+01 0.50990710E+02</pdfrwt>
<pdfrwt beam="2">  1       22 0.11812355E+00 0.50990710E+02</pdfrwt>
<totfact> 0.10986134E+00</totfact>
</mgrwt>
</event>
<event>
 4    1  0.2409985E+000  0.5308386E+02  0.7957747E-01  0.1429384E+00
         13   -1    0    0    0    0  0.00000000000E+00  0.00000000000E+00  0.99999944172E+02  0.99999999993E+02  0.10566000000E+00 0. -1.
         22   -1    0    0    0    0 -0.00000000000E+00 -0.00000000000E+00 -0.15031865689E+02  0.15031865689E+02  0.00000000000E+00 0.  1.
         13    1    1    2    0    0  0.94732652771E+01  0.15104746244E+02  0.40964127016E+01  0.18294476630E+02  0.10566000000E+00 0.  1.
        996    1    1    2    0    0 -0.94732652771E+01 -0.15104746244E+02  0.80871665782E+02  0.96737389051E+02  0.50000000000E+02 0.  0.
<mgrwt>
<rscale>  0 0.53083859E+02</rscale>
<asrwt>0</asrwt>
<pdfrwt beam="1">  1       13 0.10000000E+01 0.53083859E+02</pdfrwt>
<pdfrwt beam="2">  1       22 0.15031889E+00 0.53083859E+02</pdfrwt>
<totfact> 0.75191160E-01</totfact>
</mgrwt>
</event>
<event>
 4    1  0.2409985E+000  0.5319505E+02  0.7957747E-01  0.1428833E+00
         13   -1    0    0    0    0  0.00000000000E+00  0.00000000000E+00  0.99999944177E+02  0.99999999997E+02  0.10566000000E+00 0.  1.
         22   -1    0    0    0    0 -0.00000000000E+00 -0.00000000000E+00 -0.16045156960E+02  0.16045156960E+02  0.00000000000E+00 0. -1.
         13    1    1    2    0    0  0.93239845329E+01  0.15581284799E+02  0.19018405060E+01  0.18257636345E+02  0.10566000000E+00 0. -1.
        996    1    1    2    0    0 -0.93239845329E+01 -0.15581284799E+02  0.82052946710E+02  0.97787520612E+02  0.50000000000E+02 0.  0.
<mgrwt>
<rscale>  0 0.53195048E+02</rscale>
<asrwt>0</asrwt>
<pdfrwt beam="1">  1       13 0.10000000E+01 0.53195048E+02</pdfrwt>
<pdfrwt beam="2">  1       22 0.16045180E+00 0.53195048E+02</pdfrwt>
<totfact> 0.67357816E-01</totfact>
</mgrwt>
</event>
<event>
 4    1  0.2409985E+000  0.5175359E+02  0.7957747E-01  0.1436106E+00
         13   -1    0    0    0    0  0.00000000000E+00  0.00000000000E+00  0.99999944178E+02  0.99999999998E+02  0.10566000000E+00 0. -1.
         22   -1    0    0    0    0 -0.00000000000E+00 -0.00000000000E+00 -0.11079555594E+02  0.11079555594E+02  0.00000000000E+00 0.  1.
         13    1    1    2    0    0  0.41909618556E+01 -0.12683436950E+02  0.99298809193E+01  0.16644741910E+02  0.10566000000E+00 0.  1.
        996    1    1    2    0    0 -0.41909618556E+01  0.12683436950E+02  0.78990507664E+02  0.94434813682E+02  0.50000000000E+02 0.  0.
<mgrwt>
<rscale>  0 0.51753587E+02</rscale>
<asrwt>0</asrwt>
<pdfrwt beam="1">  1       13 0.10000000E+01 0.51753587E+02</pdfrwt>
<pdfrwt beam="2">  1       22 0.11079580E+00 0.51753587E+02</pdfrwt>
<totfact> 0.12119472E+00</totfact>
</mgrwt>
</event>
<event>
 4    1  0.2409985E+000  0.5353452E+02  0.7957747E-01  0.1427159E+00
         13   -1    0    0    0    0  0.00000000000E+00  0.00000000000E+00  0.99999944173E+02  0.99999999993E+02  0.10566000000E+00 0.  1.
         22   -1    0    0    0    0 -0.00000000000E+00 -0.00000000000E+00 -0.20253821327E+02  0.20253821327E+02  0.00000000000E+00 0. -1.
         13    1    1    2    0    0  0.14566063359E+02 -0.12400610064E+02 -0.52194528353E+01  0.19829250709E+02  0.10566000000E+00 0. -1.
        996    1    1    2    0    0 -0.14566063359E+02  0.12400610064E+02  0.84965575681E+02  0.10042457061E+03  0.50000000000E+02 0.  0.
<mgrwt>
<rscale>  0 0.53534525E+02</rscale>
<asrwt>0</asrwt>
<pdfrwt beam="1">  1       13 0.10000000E+01 0.53534525E+02</pdfrwt>
<pdfrwt beam="2">  1       22 0.20253844E+00 0.53534525E+02</pdfrwt>
<totfact> 0.44371600E-01</totfact>
</mgrwt>
</event>
<event>
 4    1  0.2409985E+000  0.5791626E+02  0.7957747E-01  0.1406790E+00
         13   -1    0    0    0    0  0.00000000000E+00  0.00000000000E+00  0.99999944178E+02  0.99999999998E+02  0.10566000000E+00 0. -1.
         22   -1    0    0    0    0 -0.00000000000E+00 -0.00000000000E+00 -0.33546470591E+02  0.33546470591E+02  0.00000000000E+00 0. -1.
         13    1    1    2    0    0  0.89971872842E+01 -0.27809056090E+02 -0.15585300061E+02  0.33124095786E+02  0.10566000000E+00 0.  1.
        996    1    1    2    0    0 -0.89971872842E+01  0.27809056090E+02  0.82038773647E+02  0.10042237480E+03  0.50000000000E+02 0.  0.
<mgrwt>
<rscale>  0 0.57916258E+02</rscale>
<asrwt>0</asrwt>
<pdfrwt beam="1">  1       13 0.10000000E+01 0.57916258E+02</pdfrwt>
<pdfrwt beam="2">  1       22 0.33546489E+00 0.57916258E+02</pdfrwt>
<totfact> 0.17029010E-01</totfact>
</mgrwt>
</event>
<event>
 4    1  0.2409985E+000  0.5111463E+02  0.7957747E-01  0.1439421E+00
         13   -1    0    0    0    0  0.00000000000E+00  0.00000000000E+00  0.99999944183E+02  0.10000000000E+03  0.10566000000E+00 0. -1.
         22   -1    0    0    0    0 -0.00000000000E+00 -0.00000000000E+00 -0.95294672751E+01  0.95294672751E+01  0.00000000000E+00 0. -1.
         13    1    1    2    0    0  0.79798793263E+01 -0.70019226561E+01  0.16245925740E+02  0.19407386793E+02  0.10566000000E+00 0.  1.
        996    1    1    2    0    0 -0.79798793263E+01  0.70019226561E+01  0.74224551168E+02  0.90122080485E+02  0.50000000000E+02 0.  0.
<mgrwt>
<rscale>  0 0.51114630E+02</rscale>
<asrwt>0</asrwt>
<pdfrwt beam="1">  1       13 0.10000000E+01 0.51114630E+02</pdfrwt>
<pdfrwt beam="2">  1       22 0.95294925E-01 0.51114630E+02</pdfrwt>
<totfact> 0.15077840E+00</totfact>
</mgrwt>
</event>
<event>
 4    1  0.2409985E+000  0.5142844E+02  0.7957747E-01  0.1437786E+00
         13   -1    0    0    0    0  0.00000000000E+00  0.00000000000E+00  0.99999944178E+02  0.99999999998E+02  0.10566000000E+00 0.  1.
         22   -1    0    0    0    0 -0.00000000000E+00 -0.00000000000E+00 -0.12508616970E+02  0.12508616970E+02  0.00000000000E+00 0.  1.
         13    1    1    2    0    0  0.10760544238E+02  0.53939472503E+01  0.12562990300E+01  0.12102620812E+02  0.10566000000E+00 0. -1.
        996    1    1    2    0    0 -0.10760544238E+02 -0.53939472503E+01  0.86235028177E+02  0.10040599616E+03  0.50000000000E+02 0.  0.
<mgrwt>
<rscale>  0 0.51428436E+02</rscale>
<asrwt>0</asrwt>
<pdfrwt beam="1">  1       13 0.10000000E+01 0.51428436E+02</pdfrwt>
<pdfrwt beam="2">  1       22 0.12508641E+00 0.51428436E+02</pdfrwt>
<totfact> 0.10069808E+00</totfact>
</mgrwt>
</event>
<event>
 4    1  0.2409985E+000  0.5275653E+02  0.7957747E-01  0.1431016E+00
         13   -1    0    0    0    0  0.00000000000E+00  0.00000000000E+00  0.99999944173E+02  0.99999999993E+02  0.10566000000E+00 0.  1.
         22   -1    0    0    0    0 -0.00000000000E+00 -0.00000000000E+00 -0.15067981003E+02  0.15067981003E+02  0.00000000000E+00 0.  1.
         13    1    1    2    0    0 -0.97230433533E+01  0.13737334269E+02  0.22380738597E+01  0.16978576604E+02  0.10566000000E+00 0. -1.
        996    1    1    2    0    0  0.97230433533E+01 -0.13737334269E+02  0.82693889310E+02  0.98089404392E+02  0.50000000000E+02 0.  0.
<mgrwt>
<rscale>  0 0.52756534E+02</rscale>
<asrwt>0</asrwt>
<pdfrwt beam="1">  1       13 0.10000000E+01 0.52756534E+02</pdfrwt>
<pdfrwt beam="2">  1       22 0.15068005E+00 0.52756534E+02</pdfrwt>
<totfact> 0.74841711E-01</totfact>
</mgrwt>
</event>
<event>
 4    1  0.2409985E+000  0.5331483E+02  0.7957747E-01  0.1428240E+00
         13   -1    0    0    0    0  0.00000000000E+00  0.00000000000E+00  0.99999944178E+02  0.99999999998E+02  0.10566000000E+00 0.  1.
         22   -1    0    0    0    0 -0.00000000000E+00 -0.00000000000E+00 -0.12911722063E+02  0.12911722063E+02  0.00000000000E+00 0.  1.
         13    1    1    2    0    0  0.17401154988E+02  0.62984657702E+01  0.24208990437E+02  0.30472237331E+02  0.10566000000E+00 0. -1.
        996    1    1    2    0    0 -0.17401154988E+02 -0.62984657702E+01  0.62879231679E+02  0.82439484730E+02  0.50000000000E+02 0.  0.
<mgrwt>
<rscale>  0 0.53314828E+02</rscale>
<asrwt>0</asrwt>
<pdfrwt beam="1">  1       13 0.10000000E+01 0.53314828E+02</pdfrwt>
<pdfrwt beam="2">  1       22 0.12911746E+00 0.53314828E+02</pdfrwt>
<totfact> 0.96220376E-01</totfact>
</mgrwt>
</event>
<event>
 4    1  0.2409985E+000  0.5162819E+02  0.7957747E-01  0.1436752E+00
         13   -1    0    0    0    0  0.00000000000E+00  0.00000000000E+00  0.99999944186E+02  0.10000000001E+03  0.10566000000E+00 0.  1.
         22   -1    0    0    0    0 -0.00000000000E+00 -0.00000000000E+00 -0.19335767095E+02  0.19335767095E+02  0.00000000000E+00 0. -1.
         13    1    1    2    0    0  0.12740236261E+02  0.17767155388E+01 -0.91181370236E+01  0.15767749520E+02  0.10566000000E+00 0. -1.
        996    1    1    2    0    0 -0.12740236261E+02 -0.17767155388E+01  0.89782314114E+02  0.10356801758E+03  0.50000000000E+02 0.  0.
<mgrwt>
<rscale>  0 0.51628193E+02</rscale>
<asrwt>0</asrwt>
<pdfrwt beam="1">  1       13 0.10000000E+01 0.51628193E+02</pdfrwt>
<pdfrwt beam="2">  1       22 0.19335790E+00 0.51628193E+02</pdfrwt>
<totfact> 0.48203172E-01</totfact>
</mgrwt>
</event>
<event>
 4    1  0.2409985E+000  0.5280017E+02  0.7957747E-01  0.1430798E+00
         13   -1    0    0    0    0  0.00000000000E+00  0.00000000000E+00  0.99999944185E+02  0.10000000001E+03  0.10566000000E+00 0. -1.
         22   -1    0    0    0    0 -0.00000000000E+00 -0.00000000000E+00 -0.17944327867E+02  0.17944327867E+02  0.00000000000E+00 0.  1.
         13    1    1    2    0    0  0.79672212539E+01  0.14979351101E+02 -0.35793378669E+01  0.17340138336E+02  0.10566000000E+00 0.  1.
        996    1    1    2    0    0 -0.79672212539E+01 -0.14979351101E+02  0.85634954185E+02  0.10060418954E+03  0.50000000000E+02 0.  0.
<mgrwt>
<rscale>  0 0.52800166E+02</rscale>
<asrwt>0</asrwt>
<pdfrwt beam="1">  1       13 0.10000000E+01 0.52800166E+02</pdfrwt>
<pdfrwt beam="2">  1       22 0.17944351E+00 0.52800166E+02</pdfrwt>
<totfact> 0.55329182E-01</totfact>
</mgrwt>
</event>
<event>
 4    1  0.2409985E+000  0.5245106E+02  0.7957747E-01  0.1432552E+00
         13   -1    0    0    0    0  0.00000000000E+00  0.00000000000E+00  0.99999944174E+02  0.99999999995E+02  0.10566000000E+00 0.  1.
         22   -1    0    0    0    0 -0.00000000000E+00 -0.00000000000E+00 -0.59886383791E+02  0.59886383791E+02  0.00000000000E+00 0. -1.
         13    1    1    2    0    0  0.15753575745E+02  0.17141597483E+01 -0.51739856916E+02  0.54112267095E+02  0.10566000000E+00 0. -1.
        996    1    1    2    0    0 -0.15753575745E+02 -0.17141597483E+01  0.91853417299E+02  0.10577411669E+03  0.50000000000E+02 0.  0.
<mgrwt>
<rscale>  0 0.52451058E+02</rscale>
<asrwt>0</asrwt>
<pdfrwt beam="1">  1       13 0.10000000E+01 0.52451058E+02</pdfrwt>
<pdfrwt beam="2">  1       22 0.59886395E+00 0.52451058E+02</pdfrwt>
<totfact> 0.63176631E-02</totfact>
</mgrwt>
</event>
<event>
 4    1  0.2409985E+000  0.5170740E+02  0.7957747E-01  0.1436344E+00
         13   -1    0    0    0    0  0.00000000000E+00  0.00000000000E+00  0.99999944179E+02  0.99999999999E+02  0.10566000000E+00 0.  1.
         22   -1    0    0    0    0 -0.00000000000E+00 -0.00000000000E+00 -0.11396262378E+02  0.11396262378E+02  0.00000000000E+00 0.  1.
         13    1    1    2    0    0  0.57283646555E+01  0.11867659001E+02  0.73616470007E+01  0.15095048936E+02  0.10566000000E+00 0. -1.
        996    1    1    2    0    0 -0.57283646555E+01 -0.11867659001E+02  0.81242034800E+02  0.96301213441E+02  0.50000000000E+02 0.  0.
<mgrwt>
<rscale>  0 0.51707403E+02</rscale>
<asrwt>0</asrwt>
<pdfrwt beam="1">  1       13 0.10000000E+01 0.51707403E+02</pdfrwt>
<pdfrwt beam="2">  1       22 0.11396287E+00 0.51707403E+02</pdfrwt>
<totfact> 0.11617412E+00</totfact>
</mgrwt>
</event>
<event>
 4    1  0.2409985E+000  0.5163290E+02  0.7957747E-01  0.1436728E+00
         13   -1    0    0    0    0  0.00000000000E+00  0.00000000000E+00  0.99999944179E+02  0.10000000000E+03  0.10566000000E+00 0. -1.
         22   -1    0    0    0    0 -0.00000000000E+00 -0.00000000000E+00 -0.12370015702E+02  0.12370015702E+02  0.00000000000E+00 0. -1.
         13    1    1    2    0    0  0.98520514650E+01  0.83002351085E+01  0.29915758933E+01  0.13225638407E+02  0.10566000000E+00 0.  1.
        996    1    1    2    0    0 -0.98520514650E+01 -0.83002351085E+01  0.84638352584E+02  0.99144377294E+02  0.50000000000E+02 0.  0.
<mgrwt>
<rscale>  0 0.51632904E+02</rscale>
<asrwt>0</asrwt>
<pdfrwt beam="1">  1       13 0.10000000E+01 0.51632904E+02</pdfrwt>
<pdfrwt beam="2">  1       22 0.12370040E+00 0.51632904E+02</pdfrwt>
<totfact> 0.10249950E+00</totfact>
</mgrwt>
</event>
<event>
 4    1  0.2409985E+000  0.5158256E+02  0.7957747E-01  0.1436988E+00
         13   -1    0    0    0    0  0.00000000000E+00  0.00000000000E+00  0.99999944171E+02  0.99999999991E+02  0.10566000000E+00 0. -1.
         22   -1    0    0    0    0 -0.00000000000E+00 -0.00000000000E+00 -0.31990096184E+02  0.31990096184E+02  0.00000000000E+00 0.  1.
         13    1    1    2    0    0 -0.22729502967E+01 -0.12473740054E+02 -0.23637512605E+02  0.26823565389E+02  0.10566000000E+00 0.  1.
        996    1    1    2    0    0  0.22729502967E+01  0.12473740054E+02  0.91647360592E+02  0.10516653079E+03  0.50000000000E+02 0.  0.
<mgrwt>
<rscale>  0 0.51582560E+02</rscale>
<asrwt>0</asrwt>
<pdfrwt beam="1">  1       13 0.10000000E+01 0.51582560E+02</pdfrwt>
<pdfrwt beam="2">  1       22 0.31990115E+00 0.51582560E+02</pdfrwt>
<totfact> 0.18399051E-01</totfact>
</mgrwt>
</event>
<event>
 4    1  0.2409985E+000  0.5575336E+02  0.7957747E-01  0.1416569E+00
         13   -1    0    0    0    0  0.00000000000E+00  0.00000000000E+00  0.99999944177E+02  0.99999999997E+02  0.10566000000E+00 0. -1.
         22   -1    0    0    0    0 -0.00000000000E+00 -0.00000000000E+00 -0.23341544178E+02  0.23341544178E+02  0.00000000000E+00 0.  1.
         13    1    1    2    0    0 -0.18047915301E+02 -0.16813978085E+02 -0.43037945029E+01  0.25039387311E+02  0.10566000000E+00 0.  1.
        996    1    1    2    0    0  0.18047915301E+02  0.16813978085E+02  0.80962194502E+02  0.98302156865E+02  0.50000000000E+02 0.  0.
<mgrwt>
<rscale>  0 0.55753360E+02</rscale>
<asrwt>0</asrwt>
<pdfrwt beam="1">  1       13 0.10000000E+01 0.55753360E+02</pdfrwt>
<pdfrwt beam="2">  1       22 0.23341566E+00 0.55753360E+02</pdfrwt>
<totfact> 0.33925551E-01</totfact>
</mgrwt>
</event>
<event>
 4    1  0.2409985E+000  0.5138277E+02  0.7957747E-01  0.1438023E+00
         13   -1    0    0    0    0  0.00000000000E+00  0.00000000000E+00  0.99999944178E+02  0.99999999998E+02  0.10566000000E+00 0.  1.
         22   -1    0    0    0    0 -0.00000000000E+00 -0.00000000000E+00 -0.53578343027E+02  0.53578343027E+02  0.00000000000E+00 0. -1.
         13    1    1    2    0    0  0.93911445245E+01  0.72108172097E+01 -0.46181337518E+02  0.47675114885E+02  0.10566000000E+00 0. -1.
        996    1    1    2    0    0 -0.93911445245E+01 -0.72108172097E+01  0.92602938669E+02  0.10590322814E+03  0.50000000000E+02 0.  0.
<mgrwt>
<rscale>  0 0.51382774E+02</rscale>
<asrwt>0</asrwt>
<pdfrwt beam="1">  1       13 0.10000000E+01 0.51382774E+02</pdfrwt>
<pdfrwt beam="2">  1       22 0.53578356E+00 0.51382774E+02</pdfrwt>
<totfact> 0.61566728E-02</totfact>
</mgrwt>
</event>
<event>
 4    1  0.2409985E+000  0.5283231E+02  0.7957747E-01  0.1430637E+00
         13   -1    0    0    0    0  0.00000000000E+00  0.00000000000E+00  0.99999944181E+02  0.10000000000E+03  0.10566000000E+00 0.  1.
         22   -1    0    0    0    0 -0.00000000000E+00 -0.00000000000E+00 -0.29773324028E+02  0.29773324028E+02  0.00000000000E+00 0. -1.
         13    1    1    2    0    0  0.12689142762E+02 -0.11412212205E+02 -0.19335198861E+02  0.25789804390E+02  0.10566000000E+00 0. -1.
        996    1    1    2    0    0 -0.12689142762E+02  0.11412212205E+02  0.89561819015E+02  0.10398351964E+03  0.50000000000E+02 0.  0.
<mgrwt>
<rscale>  0 0.52832310E+02</rscale>
<asrwt>0</asrwt>
<pdfrwt beam="1">  1       13 0.10000000E+01 0.52832310E+02</pdfrwt>
<pdfrwt beam="2">  1       22 0.29773344E+00 0.52832310E+02</pdfrwt>
<totfact> 0.21022622E-01</totfact>
</mgrwt>
</event>
<event>
 4    1  0.2409985E+000  0.5243034E+02  0.7957747E-01  0.1432657E+00
         13   -1    0    0    0    0  0.00000000000E+00  0.00000000000E+00  0.99999944187E+02  0.10000000001E+03  0.10566000000E+00 0.  1.
         22   -1    0    0    0    0 -0.00000000000E+00 -0.00000000000E+00 -0.11718341530E+02  0.11718341530E+02  0.00000000000E+00 0.  1.
         13    1    1    2    0    0  0.58905998254E+01 -0.14636992309E+02  0.16524940420E+02  0.22847878021E+02  0.10566000000E+00 0. -1.
        996    1    1    2    0    0 -0.58905998254E+01  0.14636992309E+02  0.71756662237E+02  0.88870463516E+02  0.50000000000E+02 0.  0.
<mgrwt>
<rscale>  0 0.52430342E+02</rscale>
<asrwt>0</asrwt>
<pdfrwt beam="1">  1       13 0.10000000E+01 0.52430342E+02</pdfrwt>
<pdfrwt beam="2">  1       22 0.11718366E+00 0.52430342E+02</pdfrwt>
<totfact> 0.11156626E+00</totfact>
</mgrwt>
</event>
<event>
 4    1  0.2409985E+000  0.5101417E+02  0.7957747E-01  0.1439947E+00
         13   -1    0    0    0    0  0.00000000000E+00  0.00000000000E+00  0.99999944174E+02  0.99999999994E+02  0.10566000000E+00 0. -1.
         22   -1    0    0    0    0 -0.00000000000E+00 -0.00000000000E+00 -0.15192654313E+02  0.15192654313E+02  0.00000000000E+00 0. -1.
         13    1    1    2    0    0 -0.92724924459E+01  0.40578585818E+01 -0.54649258126E+01  0.11503126123E+02  0.10566000000E+00 0.  1.
        996    1    1    2    0    0  0.92724924459E+01 -0.40578585818E+01  0.90272215674E+02  0.10368952818E+03  0.50000000000E+02 0.  0.
<mgrwt>
<rscale>  0 0.51014168E+02</rscale>
<asrwt>0</asrwt>
<pdfrwt beam="1">  1       13 0.10000000E+01 0.51014168E+02</pdfrwt>
<pdfrwt beam="2">  1       22 0.15192678E+00 0.51014168E+02</pdfrwt>
<totfact> 0.73556372E-01</totfact>
</mgrwt>
</event>
<event>
 4    1  0.2409985E+000  0.5127257E+02  0.7957747E-01  0.1438596E+00
         13   -1    0    0    0    0  0.00000000000E+00  0.00000000000E+00  0.99999944183E+02  0.10000000000E+03  0.10566000000E+00 0.  1.
         22   -1    0    0    0    0 -0.00000000000E+00 -0.00000000000E+00 -0.18214707265E+02  0.18214707265E+02  0.00000000000E+00 0. -1.
         13    1    1    2    0    0  0.59654231604E+01 -0.96587090048E+01 -0.86386807612E+01  0.14265864939E+02  0.10566000000E+00 0. -1.
        996    1    1    2    0    0 -0.59654231604E+01  0.96587090048E+01  0.90423917679E+02  0.10394884233E+03  0.50000000000E+02 0.  0.
<mgrwt>
<rscale>  0 0.51272575E+02</rscale>
<asrwt>0</asrwt>
<pdfrwt beam="1">  1       13 0.10000000E+01 0.51272575E+02</pdfrwt>
<pdfrwt beam="2">  1       22 0.18214730E+00 0.51272575E+02</pdfrwt>
<totfact> 0.53708081E-01</totfact>
</mgrwt>
</event>
<event>
 4    1  0.2409985E+000  0.5472472E+02  0.7957747E-01  0.1421405E+00
         13   -1    0    0    0    0  0.00000000000E+00  0.00000000000E+00  0.99999944187E+02  0.10000000001E+03  0.10566000000E+00 0.  1.
         22   -1    0    0    0    0 -0.00000000000E+00 -0.00000000000E+00 -0.22047539803E+02  0.22047539803E+02  0.00000000000E+00 0. -1.
         13    1    1    2    0    0 -0.13884293015E+01 -0.22200614139E+02 -0.48770408255E+01  0.22772608444E+02  0.10566000000E+00 0. -1.
        996    1    1    2    0    0  0.13884293015E+01  0.22200614139E+02  0.82829445210E+02  0.99274931367E+02  0.50000000000E+02 0.  0.
<mgrwt>
<rscale>  0 0.54724720E+02</rscale>
<asrwt>0</asrwt>
<pdfrwt beam="1">  1       13 0.10000000E+01 0.54724720E+02</pdfrwt>
<pdfrwt beam="2">  1       22 0.22047562E+00 0.54724720E+02</pdfrwt>
<totfact> 0.37834862E-01</totfact>
</mgrwt>
</event>
<event>
 4    1  0.2409985E+000  0.5231072E+02  0.7957747E-01  0.1433262E+00
         13   -1    0    0    0    0  0.00000000000E+00  0.00000000000E+00  0.99999944181E+02  0.10000000000E+03  0.10566000000E+00 0. -1.
         22   -1    0    0    0    0 -0.00000000000E+00 -0.00000000000E+00 -0.14143513158E+02  0.14143513158E+02  0.00000000000E+00 0. -1.
         13    1    1    2    0    0  0.34323547287E+01  0.14987659544E+02  0.22770789377E+01  0.15543720601E+02  0.10566000000E+00 0.  1.
        996    1    1    2    0    0 -0.34323547287E+01 -0.14987659544E+02  0.83579352086E+02  0.98599792559E+02  0.50000000000E+02 0.  0.
<mgrwt>
<rscale>  0 0.52310716E+02</rscale>
<asrwt>0</asrwt>
<pdfrwt beam="1">  1       13 0.10000000E+01 0.52310716E+02</pdfrwt>
<pdfrwt beam="2">  1       22 0.14143537E+00 0.52310716E+02</pdfrwt>
<totfact> 0.82996346E-01</totfact>
</mgrwt>
</event>
<event>
 4    1  0.2409985E+000  0.5171473E+02  0.7957747E-01  0.1436306E+00
         13   -1    0    0    0    0  0.00000000000E+00  0.00000000000E+00  0.99999944170E+02  0.99999999990E+02  0.10566000000E+00 0.  1.
         22   -1    0    0    0    0 -0.00000000000E+00 -0.00000000000E+00 -0.59898747974E+02  0.59898747974E+02  0.00000000000E+00 0. -1.
         13    1    1    2    0    0  0.18287875777E+01  0.13079324460E+02 -0.52337120952E+02  0.53977760104E+02  0.10566000000E+00 0. -1.
        996    1    1    2    0    0 -0.18287875777E+01 -0.13079324460E+02  0.92438317147E+02  0.10592098786E+03  0.50000000000E+02 0.  0.
<mgrwt>
<rscale>  0 0.51714729E+02</rscale>
<asrwt>0</asrwt>
<pdfrwt beam="1">  1       13 0.10000000E+01 0.51714729E+02</pdfrwt>
<pdfrwt beam="2">  1       22 0.59898759E+00 0.51714729E+02</pdfrwt>
<totfact> 0.63213226E-02</totfact>
</mgrwt>
</event>
<event>
 4    1  0.2409985E+000  0.5377290E+02  0.7957747E-01  0.1425993E+00
         13   -1    0    0    0    0  0.00000000000E+00  0.00000000000E+00  0.99999944179E+02  0.99999999999E+02  0.10566000000E+00 0. -1.
         22   -1    0    0    0    0 -0.00000000000E+00 -0.00000000000E+00 -0.24648770516E+02  0.24648770516E+02  0.00000000000E+00 0.  1.
         13    1    1    2    0    0  0.19765681328E+02 -0.91797921501E+00 -0.11212270970E+02  0.22743153443E+02  0.10566000000E+00 0.  1.
        996    1    1    2    0    0 -0.19765681328E+02  0.91797921501E+00  0.86563444633E+02  0.10190561707E+03  0.50000000000E+02 0.  0.
<mgrwt>
<rscale>  0 0.53772901E+02</rscale>
<asrwt>0</asrwt>
<pdfrwt beam="1">  1       13 0.10000000E+01 0.53772901E+02</pdfrwt>
<pdfrwt beam="2">  1       22 0.24648792E+00 0.53772901E+02</pdfrwt>
<totfact> 0.30394815E-01</totfact>
</mgrwt>
</event>
<event>
 4    1  0.2409985E+000  0.5189145E+02  0.7957747E-01  0.1435399E+00
         13   -1    0    0    0    0  0.00000000000E+00  0.00000000000E+00  0.99999944183E+02  0.10000000000E+03  0.10566000000E+00 0. -1.
         22   -1    0    0    0    0 -0.00000000000E+00 -0.00000000000E+00 -0.11284626552E+02  0.11284626552E+02  0.00000000000E+00 0. -1.
         13    1    1    2    0    0  0.10979631737E+02 -0.84953038009E+01  0.10436492334E+02  0.17368190349E+02  0.10566000000E+00 0.  1.
        996    1    1    2    0    0 -0.10979631737E+02  0.84953038009E+01  0.78278825297E+02  0.93916436206E+02  0.50000000000E+02 0.  0.
<mgrwt>
<rscale>  0 0.51891449E+02</rscale>
<asrwt>0</asrwt>
<pdfrwt beam="1">  1       13 0.10000000E+01 0.51891449E+02</pdfrwt>
<pdfrwt beam="2">  1       22 0.11284651E+00 0.51891449E+02</pdfrwt>
<totfact> 0.11795402E+00</totfact>
</mgrwt>
</event>
<event>
 4    1  0.2409985E+000  0.5099251E+02  0.7957747E-01  0.1440061E+00
         13   -1    0    0    0    0  0.00000000000E+00  0.00000000000E+00  0.99999944178E+02  0.99999999999E+02  0.10566000000E+00 0. -1.
         22   -1    0    0    0    0 -0.00000000000E+00 -0.00000000000E+00 -0.94020688074E+01  0.94020688074E+01  0.00000000000E+00 0. -1.
         13    1    1    2    0    0 -0.91550090878E+01 -0.40523327344E+01  0.11029592370E+02  0.14896263420E+02  0.10566000000E+00 0.  1.
        996    1    1    2    0    0  0.91550090878E+01  0.40523327344E+01  0.79568283001E+02  0.94505805386E+02  0.50000000000E+02 0.  0.
<mgrwt>
<rscale>  0 0.50992505E+02</rscale>
<asrwt>0</asrwt>
<pdfrwt beam="1">  1       13 0.10000000E+01 0.50992505E+02</pdfrwt>
<pdfrwt beam="2">  1       22 0.94020941E-01 0.50992505E+02</pdfrwt>
<totfact> 0.15365617E+00</totfact>
</mgrwt>
</event>
<event>
 4    1  0.2409985E+000  0.5211896E+02  0.7957747E-01  0.1434236E+00
         13   -1    0    0    0    0  0.00000000000E+00  0.00000000000E+00  0.99999944180E+02  0.10000000000E+03  0.10566000000E+00 0. -1.
         22   -1    0    0    0    0 -0.00000000000E+00 -0.00000000000E+00 -0.11195802057E+02  0.11195802057E+02  0.00000000000E+00 0. -1.
         13    1    1    2    0    0  0.14363148747E+02  0.31759129467E+01  0.17212925326E+02  0.22642491632E+02  0.10566000000E+00 0.  1.
        996    1    1    2    0    0 -0.14363148747E+02 -0.31759129467E+01  0.71591216797E+02  0.88553310426E+02  0.50000000000E+02 0.  0.
<mgrwt>
<rscale>  0 0.52118965E+02</rscale>
<asrwt>0</asrwt>
<pdfrwt beam="1">  1       13 0.10000000E+01 0.52118965E+02</pdfrwt>
<pdfrwt beam="2">  1       22 0.11195827E+00 0.52118965E+02</pdfrwt>
<totfact> 0.11942066E+00</totfact>
</mgrwt>
</event>
<event>
 4    1  0.2409985E+000  0.5102450E+02  0.7957747E-01  0.1439893E+00
         13   -1    0    0    0    0  0.00000000000E+00  0.00000000000E+00  0.99999944184E+02  0.10000000000E+03  0.10566000000E+00 0.  1.
         22   -1    0    0    0    0 -0.00000000000E+00 -0.00000000000E+00 -0.93765300556E+01  0.93765300556E+01  0.00000000000E+00 0.  1.
         13    1    1    2    0    0  0.84716179668E+01  0.56330394488E+01  0.13568206545E+02  0.16958975125E+02  0.10566000000E+00 0. -1.
        996    1    1    2    0    0 -0.84716179668E+01 -0.56330394488E+01  0.77055207584E+02  0.92417554935E+02  0.50000000000E+02 0.  0.
<mgrwt>
<rscale>  0 0.51024498E+02</rscale>
<asrwt>0</asrwt>
<pdfrwt beam="1">  1       13 0.10000000E+01 0.51024498E+02</pdfrwt>
<pdfrwt beam="2">  1       22 0.93765554E-01 0.51024498E+02</pdfrwt>
<totfact> 0.15426498E+00</totfact>
</mgrwt>
</event>
<event>
 4    1  0.2409985E+000  0.5891583E+02  0.7957747E-01  0.1402439E+00
         13   -1    0    0    0    0  0.00000000000E+00  0.00000000000E+00  0.99999944176E+02  0.99999999996E+02  0.10566000000E+00 0.  1.
         22   -1    0    0    0    0 -0.00000000000E+00 -0.00000000000E+00 -0.68549058562E+02  0.68549058562E+02  0.00000000000E+00 0. -1.
         13    1    1    2    0    0  0.12188668210E+02 -0.28679458805E+02 -0.55422246195E+02  0.63582320872E+02  0.10566000000E+00 0. -1.
        996    1    1    2    0    0 -0.12188668210E+02  0.28679458805E+02  0.86873131809E+02  0.10496673769E+03  0.50000000000E+02 0.  0.
<mgrwt>
<rscale>  0 0.58915830E+02</rscale>
<asrwt>0</asrwt>
<pdfrwt beam="1">  1       13 0.10000000E+01 0.58915830E+02</pdfrwt>
<pdfrwt beam="2">  1       22 0.68549067E+00 0.58915830E+02</pdfrwt>
<totfact> 0.81383482E-02</totfact>
</mgrwt>
</event>
<event>
 4    1  0.2409985E+000  0.5119676E+02  0.7957747E-01  0.1438991E+00
         13   -1    0    0    0    0  0.00000000000E+00  0.00000000000E+00  0.99999944180E+02  0.10000000000E+03  0.10566000000E+00 0. -1.
         22   -1    0    0    0    0 -0.00000000000E+00 -0.00000000000E+00 -0.97561787940E+01  0.97561787940E+01  0.00000000000E+00 0. -1.
         13    1    1    2    0    0  0.10641473611E+02  0.28049414194E+01  0.20100856823E+02  0.22916462773E+02  0.10566000000E+00 0.  1.
        996    1    1    2    0    0 -0.10641473611E+02 -0.28049414194E+01  0.70142908563E+02  0.86839716021E+02  0.50000000000E+02 0.  0.
<mgrwt>
<rscale>  0 0.51196764E+02</rscale>
<asrwt>0</asrwt>
<pdfrwt beam="1">  1       13 0.10000000E+01 0.51196764E+02</pdfrwt>
<pdfrwt beam="2">  1       22 0.97562040E-01 0.51196764E+02</pdfrwt>
<totfact> 0.14580831E+00</totfact>
</mgrwt>
</event>
<event>
 4    1  0.2409985E+000  0.6085642E+02  0.7957747E-01  0.1394272E+00
         13   -1    0    0    0    0  0.00000000000E+00  0.00000000000E+00  0.99999944184E+02  0.10000000000E+03  0.10566000000E+00 0. -1.
         22   -1    0    0    0    0 -0.00000000000E+00 -0.00000000000E+00 -0.41298042066E+02  0.41298042066E+02  0.00000000000E+00 0.  1.
         13    1    1    2    0    0 -0.34149394702E+02  0.61091879367E+01 -0.21354229389E+02  0.40737177278E+02  0.10566000000E+00 0.  1.
        996    1    1    2    0    0  0.34149394702E+02 -0.61091879367E+01  0.80056131508E+02  0.10056086479E+03  0.50000000000E+02 0.  0.
<mgrwt>
<rscale>  0 0.60856416E+02</rscale>
<asrwt>0</asrwt>
<pdfrwt beam="1">  1       13 0.10000000E+01 0.60856416E+02</pdfrwt>
<pdfrwt beam="2">  1       22 0.41298058E+00 0.60856416E+02</pdfrwt>
<totfact> 0.11693778E-01</totfact>
</mgrwt>
</event>
<event>
 4    1  0.2409985E+000  0.5118287E+02  0.7957747E-01  0.1439064E+00
         13   -1    0    0    0    0  0.00000000000E+00  0.00000000000E+00  0.99999944180E+02  0.10000000000E+03  0.10566000000E+00 0.  1.
         22   -1    0    0    0    0 -0.00000000000E+00 -0.00000000000E+00 -0.10182163897E+02  0.10182163897E+02  0.00000000000E+00 0.  1.
         13    1    1    2    0    0  0.10487943637E+01 -0.10889710405E+02  0.75524075887E+01  0.13294201245E+02  0.10566000000E+00 0. -1.
        996    1    1    2    0    0 -0.10487943637E+01  0.10889710405E+02  0.82265372694E+02  0.96887962652E+02  0.50000000000E+02 0.  0.
<mgrwt>
<rscale>  0 0.51182866E+02</rscale>
<asrwt>0</asrwt>
<pdfrwt beam="1">  1       13 0.10000000E+01 0.51182866E+02</pdfrwt>
<pdfrwt beam="2">  1       22 0.10182189E+00 0.51182866E+02</pdfrwt>
<totfact> 0.13706142E+00</totfact>
</mgrwt>
</event>
<event>
 4    1  0.2409985E+000  0.5246636E+02  0.7957747E-01  0.1432475E+00
         13   -1    0    0    0    0  0.00000000000E+00  0.00000000000E+00  0.99999944181E+02  0.10000000000E+03  0.10566000000E+00 0. -1.
         22   -1    0    0    0    0 -0.00000000000E+00 -0.00000000000E+00 -0.15127390578E+02  0.15127390578E+02  0.00000000000E+00 0. -1.
         13    1    1    2    0    0  0.15884849840E+02 -0.62472529709E+00  0.49143161074E+02  0.51650558376E+02  0.10566000000E+00 0.  1.
        996    1    1    2    0    0 -0.15884849840E+02  0.62472529709E+00  0.35729392529E+02  0.63476832204E+02  0.50000000000E+02 0.  0.
<mgrwt>
<rscale>  0 0.52466358E+02</rscale>
<asrwt>0</asrwt>
<pdfrwt beam="1">  1       13 0.10000000E+01 0.52466358E+02</pdfrwt>
<pdfrwt beam="2">  1       22 0.15127414E+00 0.52466358E+02</pdfrwt>
<totfact> 0.74308114E-01</totfact>
</mgrwt>
</event>
<event>
 4    1  0.2409985E+000  0.5114249E+02  0.7957747E-01  0.1439275E+00
         13   -1    0    0    0    0  0.00000000000E+00  0.00000000000E+00  0.99999944167E+02  0.99999999987E+02  0.10566000000E+00 0.  1.
         22   -1    0    0    0    0 -0.00000000000E+00 -0.00000000000E+00 -0.25347597362E+02  0.25347597362E+02  0.00000000000E+00 0. -1.
         13    1    1    2    0    0 -0.11189842780E+01 -0.10691210609E+02 -0.17161680617E+02  0.20250643342E+02  0.10566000000E+00 0. -1.
        996    1    1    2    0    0  0.11189842780E+01  0.10691210609E+02  0.91814027422E+02  0.10509695401E+03  0.50000000000E+02 0.  0.
<mgrwt>
<rscale>  0 0.51142488E+02</rscale>
<asrwt>0</asrwt>
<pdfrwt beam="1">  1       13 0.10000000E+01 0.51142488E+02</pdfrwt>
<pdfrwt beam="2">  1       22 0.25347618E+00 0.51142488E+02</pdfrwt>
<totfact> 0.28650612E-01</totfact>
</mgrwt>
</event>
<event>
 4    1  0.2409985E+000  0.5369456E+02  0.7957747E-01  0.1426375E+00
         13   -1    0    0    0    0  0.00000000000E+00  0.00000000000E+00  0.99999944179E+02  0.99999999999E+02  0.10566000000E+00 0.  1.
         22   -1    0    0    0    0 -0.00000000000E+00 -0.00000000000E+00 -0.13635169693E+02  0.13635169693E+02  0.00000000000E+00 0. -1.
         13    1    1    2    0    0 -0.97619474573E+01  0.16964954580E+02  0.17065428824E+02  0.25968159870E+02  0.10566000000E+00 0. -1.
        996    1    1    2    0    0  0.97619474573E+01 -0.16964954580E+02  0.69299345662E+02  0.87667009822E+02  0.50000000000E+02 0.  0.
<mgrwt>
<rscale>  0 0.53694556E+02</rscale>
<asrwt>0</asrwt>
<pdfrwt beam="1">  1       13 0.10000000E+01 0.53694556E+02</pdfrwt>
<pdfrwt beam="2">  1       22 0.13635194E+00 0.53694556E+02</pdfrwt>
<totfact> 0.88307209E-01</totfact>
</mgrwt>
</event>
<event>
 4    1  0.2409985E+000  0.5287748E+02  0.7957747E-01  0.1430412E+00
         13   -1    0    0    0    0  0.00000000000E+00  0.00000000000E+00  0.99999944179E+02  0.99999999999E+02  0.10566000000E+00 0.  1.
         22   -1    0    0    0    0 -0.00000000000E+00 -0.00000000000E+00 -0.12839485646E+02  0.12839485646E+02  0.00000000000E+00 0. -1.
         13    1    1    2    0    0  0.80549550509E+01 -0.15203472468E+02  0.12143747525E+02  0.21059668657E+02  0.10566000000E+00 0. -1.
        996    1    1    2    0    0 -0.80549550509E+01  0.15203472468E+02  0.75016711008E+02  0.91779816988E+02  0.50000000000E+02 0.  0.
<mgrwt>
<rscale>  0 0.52877480E+02</rscale>
<asrwt>0</asrwt>
<pdfrwt beam="1">  1       13 0.10000000E+01 0.52877480E+02</pdfrwt>
<pdfrwt beam="2">  1       22 0.12839510E+00 0.52877480E+02</pdfrwt>
<totfact> 0.96982000E-01</totfact>
</mgrwt>
</event>
<event>
 4    1  0.2409985E+000  0.5152831E+02  0.7957747E-01  0.1437268E+00
         13   -1    0    0    0    0  0.00000000000E+00  0.00000000000E+00  0.99999944178E+02  0.99999999999E+02  0.10566000000E+00 0. -1.
         22   -1    0    0    0    0 -0.00000000000E+00 -0.00000000000E+00 -0.10574330910E+02  0.10574330910E+02  0.00000000000E+00 0. -1.
         13    1    1    2    0    0 -0.68564066109E+01 -0.10399837824E+02  0.10371181778E+02  0.16209241620E+02  0.10566000000E+00 0.  1.
        996    1    1    2    0    0  0.68564066109E+01  0.10399837824E+02  0.79054431490E+02  0.94365089289E+02  0.50000000000E+02 0.  0.
<mgrwt>
<rscale>  0 0.51528312E+02</rscale>
<asrwt>0</asrwt>
<pdfrwt beam="1">  1       13 0.10000000E+01 0.51528312E+02</pdfrwt>
<pdfrwt beam="2">  1       22 0.10574356E+00 0.51528312E+02</pdfrwt>
<totfact> 0.12979766E+00</totfact>
</mgrwt>
</event>
<event>
 4    1  0.2409985E+000  0.5312269E+02  0.7957747E-01  0.1429191E+00
         13   -1    0    0    0    0  0.00000000000E+00  0.00000000000E+00  0.99999944180E+02  0.10000000000E+03  0.10566000000E+00 0. -1.
         22   -1    0    0    0    0 -0.00000000000E+00 -0.00000000000E+00 -0.13651811410E+02  0.13651811410E+02  0.00000000000E+00 0.  1.
         13    1    1    2    0    0 -0.16359128150E+02 -0.73755574816E+01  0.97136008369E+01  0.20405517079E+02  0.10566000000E+00 0.  1.
        996    1    1    2    0    0  0.16359128150E+02  0.73755574816E+01  0.76634531933E+02  0.93246294332E+02  0.50000000000E+02 0.  0.
<mgrwt>
<rscale>  0 0.53122687E+02</rscale>
<asrwt>0</asrwt>
<pdfrwt beam="1">  1       13 0.10000000E+01 0.53122687E+02</pdfrwt>
<pdfrwt beam="2">  1       22 0.13651836E+00 0.53122687E+02</pdfrwt>
<totfact> 0.88030559E-01</totfact>
</mgrwt>
</event>
<event>
 4    1  0.2409985E+000  0.5155006E+02  0.7957747E-01  0.1437156E+00
         13   -1    0    0    0    0  0.00000000000E+00  0.00000000000E+00  0.99999944181E+02  0.10000000000E+03  0.10566000000E+00 0. -1.
         22   -1    0    0    0    0 -0.00000000000E+00 -0.00000000000E+00 -0.10730652755E+02  0.10730652755E+02  0.00000000000E+00 0. -1.
         13    1    1    2    0    0  0.12524211580E+02  0.74381028517E+00  0.94304391186E+01  0.15695651482E+02  0.10566000000E+00 0.  1.
        996    1    1    2    0    0 -0.12524211580E+02 -0.74381028517E+00  0.79838852308E+02  0.95035001275E+02  0.50000000000E+02 0.  0.
<mgrwt>
<rscale>  0 0.51550064E+02</rscale>
<asrwt>0</asrwt>
<pdfrwt beam="1">  1       13 0.10000000E+01 0.51550064E+02</pdfrwt>
<pdfrwt beam="2">  1       22 0.10730678E+00 0.51550064E+02</pdfrwt>
<totfact> 0.12702727E+00</totfact>
</mgrwt>
</event>
<event>
 4    1  0.2409985E+000  0.5714997E+02  0.7957747E-01  0.1410197E+00
         13   -1    0    0    0    0  0.00000000000E+00  0.00000000000E+00  0.99999944184E+02  0.10000000000E+03  0.10566000000E+00 0.  1.
         22   -1    0    0    0    0 -0.00000000000E+00 -0.00000000000E+00 -0.56176899715E+02  0.56176899715E+02  0.00000000000E+00 0. -1.
         13    1    1    2    0    0  0.67755537369E+01  0.26836751107E+02 -0.43651918519E+02  0.51687720910E+02  0.10566000000E+00 0. -1.
        996    1    1    2    0    0 -0.67755537369E+01 -0.26836751107E+02  0.87474962988E+02  0.10448917881E+03  0.50000000000E+02 0.  0.
<mgrwt>
<rscale>  0 0.57149972E+02</rscale>
<asrwt>0</asrwt>
<pdfrwt beam="1">  1       13 0.10000000E+01 0.57149972E+02</pdfrwt>
<pdfrwt beam="2">  1       22 0.56176912E+00 0.57149972E+02</pdfrwt>
<totfact> 0.58379164E-02</totfact>
</mgrwt>
</event>
<event>
 4    1  0.2409985E+000  0.5341229E+02  0.7957747E-01  0.1427760E+00
         13   -1    0    0    0    0  0.00000000000E+00  0.00000000000E+00  0.99999944186E+02  0.10000000001E+03  0.10566000000E+00 0. -1.
         22   -1    0    0    0    0 -0.00000000000E+00 -0.00000000000E+00 -0.26779946670E+02  0.26779946670E+02  0.00000000000E+00 0.  1.
         13    1    1    2    0    0  0.18617419260E+02  0.25028700437E+01 -0.14736728758E+02  0.23875824528E+02  0.10566000000E+00 0.  1.
        996    1    1    2    0    0 -0.18617419260E+02 -0.25028700437E+01  0.87956726274E+02  0.10290412215E+03  0.50000000000E+02 0.  0.
<mgrwt>
<rscale>  0 0.53412289E+02</rscale>
<asrwt>0</asrwt>
<pdfrwt beam="1">  1       13 0.10000000E+01 0.53412289E+02</pdfrwt>
<pdfrwt beam="2">  1       22 0.26779967E+00 0.53412289E+02</pdfrwt>
<totfact> 0.25804825E-01</totfact>
</mgrwt>
</event>
<event>
 4    1  0.2409985E+000  0.5368403E+02  0.7957747E-01  0.1426427E+00
         13   -1    0    0    0    0  0.00000000000E+00  0.00000000000E+00  0.99999944182E+02  0.10000000000E+03  0.10566000000E+00 0. -1.
         22   -1    0    0    0    0 -0.00000000000E+00 -0.00000000000E+00 -0.23226710251E+02  0.23226710251E+02  0.00000000000E+00 0.  1.
         13    1    1    2    0    0  0.16846460827E+02 -0.99081917126E+01 -0.94092703509E+01  0.21691496905E+02  0.10566000000E+00 0.  1.
        996    1    1    2    0    0 -0.16846460827E+02  0.99081917126E+01  0.86182504282E+02  0.10153521335E+03  0.50000000000E+02 0.  0.
<mgrwt>
<rscale>  0 0.53684034E+02</rscale>
<asrwt>0</asrwt>
<pdfrwt beam="1">  1       13 0.10000000E+01 0.53684034E+02</pdfrwt>
<pdfrwt beam="2">  1       22 0.23226732E+00 0.53684034E+02</pdfrwt>
<totfact> 0.34143209E-01</totfact>
</mgrwt>
</event>
<event>
 4    1  0.2409985E+000  0.6769854E+02  0.7957747E-01  0.1368099E+00
         13   -1    0    0    0    0  0.00000000000E+00  0.00000000000E+00  0.99999944182E+02  0.10000000000E+03  0.10566000000E+00 0.  1.
         22   -1    0    0    0    0 -0.00000000000E+00 -0.00000000000E+00 -0.37723030799E+02  0.37723030799E+02  0.00000000000E+00 0. -1.
         13    1    1    2    0    0  0.27094725695E+02  0.36728306467E+02 -0.14072718944E+00  0.45641249156E+02  0.10566000000E+00 0. -1.
        996    1    1    2    0    0 -0.27094725695E+02 -0.36728306467E+02  0.62417640572E+02  0.92081781645E+02  0.50000000000E+02 0.  0.
<mgrwt>
<rscale>  0 0.67698542E+02</rscale>
<asrwt>0</asrwt>
<pdfrwt beam="1">  1       13 0.10000000E+01 0.67698542E+02</pdfrwt>
<pdfrwt beam="2">  1       22 0.37723048E+00 0.67698542E+02</pdfrwt>
<totfact> 0.13943511E-01</totfact>
</mgrwt>
</event>
<event>
 4    1  0.2409985E+000  0.5169433E+02  0.7957747E-01  0.1436411E+00
         13   -1    0    0    0    0  0.00000000000E+00  0.00000000000E+00  0.99999944182E+02  0.10000000000E+03  0.10566000000E+00 0. -1.
         22   -1    0    0    0    0 -0.00000000000E+00 -0.00000000000E+00 -0.18216666209E+02  0.18216666209E+02  0.00000000000E+00 0. -1.
         13    1    1    2    0    0 -0.12238600737E+02  0.47455551234E+01 -0.74481499947E+01  0.15092704986E+02  0.10566000000E+00 0.  1.
        996    1    1    2    0    0  0.12238600737E+02 -0.47455551234E+01  0.89231427968E+02  0.10312396122E+03  0.50000000000E+02 0.  0.
<mgrwt>
<rscale>  0 0.51694329E+02</rscale>
<asrwt>0</asrwt>
<pdfrwt beam="1">  1       13 0.10000000E+01 0.51694329E+02</pdfrwt>
<pdfrwt beam="2">  1       22 0.18216689E+00 0.51694329E+02</pdfrwt>
<totfact> 0.53740667E-01</totfact>
</mgrwt>
</event>
<event>
 4    1  0.2409985E+000  0.5179062E+02  0.7957747E-01  0.1435916E+00
         13   -1    0    0    0    0  0.00000000000E+00  0.00000000000E+00  0.99999944171E+02  0.99999999991E+02  0.10566000000E+00 0.  1.
         22   -1    0    0    0    0 -0.00000000000E+00 -0.00000000000E+00 -0.20224425135E+02  0.20224425135E+02  0.00000000000E+00 0. -1.
         13    1    1    2    0    0 -0.15954425817E+01  0.13406060956E+02 -0.98491859679E+01  0.16711838189E+02  0.10566000000E+00 0. -1.
        996    1    1    2    0    0  0.15954425817E+01 -0.13406060956E+02  0.89624705004E+02  0.10351258694E+03  0.50000000000E+02 0.  0.
<mgrwt>
<rscale>  0 0.51790616E+02</rscale>
<asrwt>0</asrwt>
<pdfrwt beam="1">  1       13 0.10000000E+01 0.51790616E+02</pdfrwt>
<pdfrwt beam="2">  1       22 0.20224447E+00 0.51790616E+02</pdfrwt>
<totfact> 0.44356065E-01</totfact>
</mgrwt>
</event>
<event>
 4    1  0.2409985E+000  0.5469442E+02  0.7957747E-01  0.1421550E+00
         13   -1    0    0    0    0  0.00000000000E+00  0.00000000000E+00  0.99999944176E+02  0.99999999996E+02  0.10566000000E+00 0. -1.
         22   -1    0    0    0    0 -0.00000000000E+00 -0.00000000000E+00 -0.15131301644E+02  0.15131301644E+02  0.00000000000E+00 0. -1.
         13    1    1    2    0    0  0.19177628770E+02 -0.11121976467E+02  0.16828160949E+02  0.27833037397E+02  0.10566000000E+00 0.  1.
        996    1    1    2    0    0 -0.19177628770E+02  0.11121976467E+02  0.68040481583E+02  0.87298264243E+02  0.50000000000E+02 0.  0.
<mgrwt>
<rscale>  0 0.54694422E+02</rscale>
<asrwt>0</asrwt>
<pdfrwt beam="1">  1       13 0.10000000E+01 0.54694422E+02</pdfrwt>
<pdfrwt beam="2">  1       22 0.15131325E+00 0.54694422E+02</pdfrwt>
<totfact> 0.74602954E-01</totfact>
</mgrwt>
</event>
<event>
 4    1  0.2409985E+000  0.5372555E+02  0.7957747E-01  0.1426224E+00
         13   -1    0    0    0    0  0.00000000000E+00  0.00000000000E+00  0.99999944180E+02  0.10000000000E+03  0.10566000000E+00 0. -1.
         22   -1    0    0    0    0 -0.00000000000E+00 -0.00000000000E+00 -0.45942289815E+02  0.45942289815E+02  0.00000000000E+00 0.  1.
         13    1    1    2    0    0 -0.12782797614E+02 -0.14934360334E+02 -0.36033946681E+02  0.41047430015E+02  0.10566000000E+00 0.  1.
        996    1    1    2    0    0  0.12782797614E+02  0.14934360334E+02  0.90091601046E+02  0.10489485980E+03  0.50000000000E+02 0.  0.
<mgrwt>
<rscale>  0 0.53725553E+02</rscale>
<asrwt>0</asrwt>
<pdfrwt beam="1">  1       13 0.10000000E+01 0.53725553E+02</pdfrwt>
<pdfrwt beam="2">  1       22 0.45942305E+00 0.53725553E+02</pdfrwt>
<totfact> 0.92040343E-02</totfact>
</mgrwt>
</event>
<event>
 4    1  0.2409985E+000  0.5346690E+02  0.7957747E-01  0.1427491E+00
         13   -1    0    0    0    0  0.00000000000E+00  0.00000000000E+00  0.99999944179E+02  0.99999999999E+02  0.10566000000E+00 0. -1.
         22   -1    0    0    0    0 -0.00000000000E+00 -0.00000000000E+00 -0.17699540847E+02  0.17699540847E+02  0.00000000000E+00 0. -1.
         13    1    1    2    0    0 -0.43472750857E+01 -0.18433962422E+02 -0.71805049769E+00  0.18953536129E+02  0.10566000000E+00 0.  1.
        996    1    1    2    0    0  0.43472750857E+01  0.18433962422E+02  0.83018453830E+02  0.98746004717E+02  0.50000000000E+02 0.  0.
<mgrwt>
<rscale>  0 0.53466904E+02</rscale>
<asrwt>0</asrwt>
<pdfrwt beam="1">  1       13 0.10000000E+01 0.53466904E+02</pdfrwt>
<pdfrwt beam="2">  1       22 0.17699564E+00 0.53466904E+02</pdfrwt>
<totfact> 0.56773987E-01</totfact>
</mgrwt>
</event>
<event>
 4    1  0.2409985E+000  0.5108165E+02  0.7957747E-01  0.1439593E+00
         13   -1    0    0    0    0  0.00000000000E+00  0.00000000000E+00  0.99999944175E+02  0.99999999995E+02  0.10566000000E+00 0. -1.
         22   -1    0    0    0    0 -0.00000000000E+00 -0.00000000000E+00 -0.11509704681E+02  0.11509704681E+02  0.00000000000E+00 0.  1.
         13    1    1    2    0    0 -0.78590844389E+01  0.68970469739E+01  0.14082298257E+01  0.10551243550E+02  0.10566000000E+00 0.  1.
        996    1    1    2    0    0  0.78590844389E+01 -0.68970469739E+01  0.87082009668E+02  0.10095846113E+03  0.50000000000E+02 0.  0.
<mgrwt>
<rscale>  0 0.51081645E+02</rscale>
<asrwt>0</asrwt>
<pdfrwt beam="1">  1       13 0.10000000E+01 0.51081645E+02</pdfrwt>
<pdfrwt beam="2">  1       22 0.11509729E+00 0.51081645E+02</pdfrwt>
<totfact> 0.11428918E+00</totfact>
</mgrwt>
</event>
<event>
 4    1  0.2409985E+000  0.5527119E+02  0.7957747E-01  0.1418821E+00
         13   -1    0    0    0    0  0.00000000000E+00  0.00000000000E+00  0.99999944171E+02  0.99999999991E+02  0.10566000000E+00 0. -1.
         22   -1    0    0    0    0 -0.00000000000E+00 -0.00000000000E+00 -0.32689406870E+02  0.32689406870E+02  0.00000000000E+00 0.  1.
         13    1    1    2    0    0 -0.11568604695E+02  0.20520026407E+02 -0.18955272587E+02  0.30236031836E+02  0.10566000000E+00 0.  1.
        996    1    1    2    0    0  0.11568604695E+02 -0.20520026407E+02  0.86265809888E+02  0.10245337502E+03  0.50000000000E+02 0.  0.
<mgrwt>
<rscale>  0 0.55271187E+02</rscale>
<asrwt>0</asrwt>
<pdfrwt beam="1">  1       13 0.10000000E+01 0.55271187E+02</pdfrwt>
<pdfrwt beam="2">  1       22 0.32689426E+00 0.55271187E+02</pdfrwt>
<totfact> 0.17778144E-01</totfact>
</mgrwt>
</event>
<event>
 4    1  0.2409985E+000  0.5340607E+02  0.7957747E-01  0.1427791E+00
         13   -1    0    0    0    0  0.00000000000E+00  0.00000000000E+00  0.99999944174E+02  0.99999999994E+02  0.10566000000E+00 0. -1.
         22   -1    0    0    0    0 -0.00000000000E+00 -0.00000000000E+00 -0.14174743012E+02  0.14174743012E+02  0.00000000000E+00 0. -1.
         13    1    1    2    0    0 -0.67703929033E+01  0.17503416629E+02  0.95398318101E+01  0.21052965795E+02  0.10566000000E+00 0.  1.
        996    1    1    2    0    0  0.67703929033E+01 -0.17503416629E+02  0.76285369352E+02  0.93121777211E+02  0.50000000000E+02 0.  0.
<mgrwt>
<rscale>  0 0.53406065E+02</rscale>
<asrwt>0</asrwt>
<pdfrwt beam="1">  1       13 0.10000000E+01 0.53406065E+02</pdfrwt>
<pdfrwt beam="2">  1       22 0.14174767E+00 0.53406065E+02</pdfrwt>
<totfact> 0.82885229E-01</totfact>
</mgrwt>
</event>
<event>
 4    1  0.2409985E+000  0.5472471E+02  0.7957747E-01  0.1421405E+00
         13   -1    0    0    0    0  0.00000000000E+00  0.00000000000E+00  0.99999944175E+02  0.99999999995E+02  0.10566000000E+00 0.  1.
         22   -1    0    0    0    0 -0.00000000000E+00 -0.00000000000E+00 -0.47637719395E+02  0.47637719395E+02  0.00000000000E+00 0. -1.
         13    1    1    2    0    0  0.16829505414E+02  0.14545153500E+02 -0.36811881864E+02  0.43010691150E+02  0.10566000000E+00 0. -1.
        996    1    1    2    0    0 -0.16829505414E+02 -0.14545153500E+02  0.89174106643E+02  0.10462702824E+03  0.50000000000E+02 0.  0.
<mgrwt>
<rscale>  0 0.54724709E+02</rscale>
<asrwt>0</asrwt>
<pdfrwt beam="1">  1       13 0.10000000E+01 0.54724709E+02</pdfrwt>
<pdfrwt beam="2">  1       22 0.47637734E+00 0.54724709E+02</pdfrwt>
<totfact> 0.84023150E-02</totfact>
</mgrwt>
</event>
<event>
 4    1  0.2409985E+000  0.5604011E+02  0.7957747E-01  0.1415243E+00
         13   -1    0    0    0    0  0.00000000000E+00  0.00000000000E+00  0.99999944183E+02  0.10000000000E+03  0.10566000000E+00 0.  1.
         22   -1    0    0    0    0 -0.00000000000E+00 -0.00000000000E+00 -0.24505530297E+02  0.24505530297E+02  0.00000000000E+00 0. -1.
         13    1    1    2    0    0 -0.20054253507E+02  0.15437634886E+02 -0.56109312016E+01  0.25922719139E+02  0.10566000000E+00 0. -1.
        996    1    1    2    0    0  0.20054253507E+02 -0.15437634886E+02  0.81105345087E+02  0.98582811161E+02  0.50000000000E+02 0.  0.
<mgrwt>
<rscale>  0 0.56040108E+02</rscale>
<asrwt>0</asrwt>
<pdfrwt beam="1">  1       13 0.10000000E+01 0.56040108E+02</pdfrwt>
<pdfrwt beam="2">  1       22 0.24505551E+00 0.56040108E+02</pdfrwt>
<totfact> 0.30850079E-01</totfact>
</mgrwt>
</event>
<event>
 4    1  0.2409985E+000  0.5137258E+02  0.7957747E-01  0.1438076E+00
         13   -1    0    0    0    0  0.00000000000E+00  0.00000000000E+00  0.99999944173E+02  0.99999999993E+02  0.10566000000E+00 0.  1.
         22   -1    0    0    0    0 -0.00000000000E+00 -0.00000000000E+00 -0.24692578213E+02  0.24692578213E+02  0.00000000000E+00 0. -1.
         13    1    1    2    0    0 -0.88636649572E+01 -0.77831445907E+01 -0.16027953521E+02  0.19900963652E+02  0.10566000000E+00 0. -1.
        996    1    1    2    0    0  0.88636649572E+01  0.77831445907E+01  0.91335319481E+02  0.10479161455E+03  0.50000000000E+02 0.  0.
<mgrwt>
<rscale>  0 0.51372579E+02</rscale>
<asrwt>0</asrwt>
<pdfrwt beam="1">  1       13 0.10000000E+01 0.51372579E+02</pdfrwt>
<pdfrwt beam="2">  1       22 0.24692599E+00 0.51372579E+02</pdfrwt>
<totfact> 0.30175180E-01</totfact>
</mgrwt>
</event>
<event>
 4    1  0.2409985E+000  0.5166521E+02  0.7957747E-01  0.1436561E+00
         13   -1    0    0    0    0  0.00000000000E+00  0.00000000000E+00  0.99999944175E+02  0.99999999995E+02  0.10566000000E+00 0. -1.
         22   -1    0    0    0    0 -0.00000000000E+00 -0.00000000000E+00 -0.10460874108E+02  0.10460874108E+02  0.00000000000E+00 0. -1.
         13    1    1    2    0    0 -0.11849584536E+02  0.53741501862E+01  0.18787505185E+02  0.22853351155E+02  0.10566000000E+00 0.  1.
        996    1    1    2    0    0  0.11849584536E+02 -0.53741501862E+01  0.70751564882E+02  0.87607522948E+02  0.50000000000E+02 0.  0.
<mgrwt>
<rscale>  0 0.51665212E+02</rscale>
<asrwt>0</asrwt>
<pdfrwt beam="1">  1       13 0.10000000E+01 0.51665212E+02</pdfrwt>
<pdfrwt beam="2">  1       22 0.10460899E+00 0.51665212E+02</pdfrwt>
<totfact> 0.13191288E+00</totfact>
</mgrwt>
</event>
<event>
 4    1  0.2409985E+000  0.5164368E+02  0.7957747E-01  0.1436672E+00
         13   -1    0    0    0    0  0.00000000000E+00  0.00000000000E+00  0.99999944183E+02  0.10000000000E+03  0.10566000000E+00 0.  1.
         22   -1    0    0    0    0 -0.00000000000E+00 -0.00000000000E+00 -0.70071638322E+02  0.70071638322E+02  0.00000000000E+00 0. -1.
         13    1    1    2    0    0 -0.12222693400E+02  0.42041946746E+01 -0.62700488024E+02  0.64018996004E+02  0.10566000000E+00 0. -1.
        996    1    1    2    0    0  0.12222693400E+02 -0.42041946746E+01  0.92628793885E+02  0.10605264232E+03  0.50000000000E+02 0.  0.
<mgrwt>
<rscale>  0 0.51643678E+02</rscale>
<asrwt>0</asrwt>
<pdfrwt beam="1">  1       13 0.10000000E+01 0.51643678E+02</pdfrwt>
<pdfrwt beam="2">  1       22 0.70071647E+00 0.51643678E+02</pdfrwt>
<totfact> 0.74284346E-02</totfact>
</mgrwt>
</event>
<event>
 4    1  0.2409985E+000  0.5525237E+02  0.7957747E-01  0.1418909E+00
         13   -1    0    0    0    0  0.00000000000E+00  0.00000000000E+00  0.99999944176E+02  0.99999999997E+02  0.10566000000E+00 0. -1.
         22   -1    0    0    0    0 -0.00000000000E+00 -0.00000000000E+00 -0.24180504488E+02  0.24180504488E+02  0.00000000000E+00 0.  1.
         13    1    1    2    0    0 -0.64693714895E+01 -0.22604691196E+02 -0.70801832356E+01  0.24555345451E+02  0.10566000000E+00 0.  1.
        996    1    1    2    0    0  0.64693714895E+01  0.22604691196E+02  0.82899622924E+02  0.99625159034E+02  0.50000000000E+02 0.  0.
<mgrwt>
<rscale>  0 0.55252374E+02</rscale>
<asrwt>0</asrwt>
<pdfrwt beam="1">  1       13 0.10000000E+01 0.55252374E+02</pdfrwt>
<pdfrwt beam="2">  1       22 0.24180526E+00 0.55252374E+02</pdfrwt>
<totfact> 0.31633668E-01</totfact>
</mgrwt>
</event>
<event>
 4    1  0.2409985E+000  0.5632669E+02  0.7957747E-01  0.1413927E+00
         13   -1    0    0    0    0  0.00000000000E+00  0.00000000000E+00  0.99999944182E+02  0.10000000000E+03  0.10566000000E+00 0.  1.
         22   -1    0    0    0    0 -0.00000000000E+00 -0.00000000000E+00 -0.26611252360E+02  0.26611252360E+02  0.00000000000E+00 0.  1.
         13    1    1    2    0    0  0.11024983627E+02  0.23476485734E+02 -0.84355877452E+01  0.27273906046E+02  0.10566000000E+00 0. -1.
        996    1    1    2    0    0 -0.11024983627E+02 -0.23476485734E+02  0.81824279567E+02  0.99337346316E+02  0.50000000000E+02 0.  0.
<mgrwt>
<rscale>  0 0.56326687E+02</rscale>
<asrwt>0</asrwt>
<pdfrwt beam="1">  1       13 0.10000000E+01 0.56326687E+02</pdfrwt>
<pdfrwt beam="2">  1       22 0.26611273E+00 0.56326687E+02</pdfrwt>
<totfact> 0.26234218E-01</totfact>
</mgrwt>
</event>
<event>
 4    1  0.2409985E+000  0.5269038E+02  0.7957747E-01  0.1431348E+00
         13   -1    0    0    0    0  0.00000000000E+00  0.00000000000E+00  0.99999944186E+02  0.10000000001E+03  0.10566000000E+00 0.  1.
         22   -1    0    0    0    0 -0.00000000000E+00 -0.00000000000E+00 -0.23837998093E+02  0.23837998093E+02  0.00000000000E+00 0. -1.
         13    1    1    2    0    0  0.16598643591E+02 -0.87252462135E+00 -0.12433939668E+02  0.20757897003E+02  0.10566000000E+00 0. -1.
        996    1    1    2    0    0 -0.16598643591E+02  0.87252462135E+00  0.88595885761E+02  0.10308010110E+03  0.50000000000E+02 0.  0.
<mgrwt>
<rscale>  0 0.52690381E+02</rscale>
<asrwt>0</asrwt>
<pdfrwt beam="1">  1       13 0.10000000E+01 0.52690381E+02</pdfrwt>
<pdfrwt beam="2">  1       22 0.23838019E+00 0.52690381E+02</pdfrwt>
<totfact> 0.32401991E-01</totfact>
</mgrwt>
</event>
<event>
 4    1  0.2409985E+000  0.5101530E+02  0.7957747E-01  0.1439941E+00
         13   -1    0    0    0    0  0.00000000000E+00  0.00000000000E+00  0.99999944171E+02  0.99999999991E+02  0.10566000000E+00 0. -1.
         22   -1    0    0    0    0 -0.00000000000E+00 -0.00000000000E+00 -0.12303396703E+02  0.12303396703E+02  0.00000000000E+00 0. -1.
         13    1    1    2    0    0 -0.86418684484E+00  0.10090287494E+02  0.43943800155E+02  0.45095780919E+02  0.10566000000E+00 0.  1.
        996    1    1    2    0    0  0.86418684484E+00 -0.10090287494E+02  0.43752747314E+02  0.67207615775E+02  0.50000000000E+02 0.  0.
<mgrwt>
<rscale>  0 0.51015299E+02</rscale>
<asrwt>0</asrwt>
<pdfrwt beam="1">  1       13 0.10000000E+01 0.51015299E+02</pdfrwt>
<pdfrwt beam="2">  1       22 0.12303421E+00 0.51015299E+02</pdfrwt>
<totfact> 0.10321577E+00</totfact>
</mgrwt>
</event>
<event>
 4    1  0.2409985E+000  0.5975918E+02  0.7957747E-01  0.1398845E+00
         13   -1    0    0    0    0  0.00000000000E+00  0.00000000000E+00  0.99999944180E+02  0.10000000000E+03  0.10566000000E+00 0. -1.
         22   -1    0    0    0    0 -0.00000000000E+00 -0.00000000000E+00 -0.21647775848E+02  0.21647775848E+02  0.00000000000E+00 0.  1.
         13    1    1    2    0    0  0.25372163680E+02 -0.20673978441E+02  0.21453423660E+02  0.39133369714E+02  0.10566000000E+00 0.  1.
        996    1    1    2    0    0 -0.25372163680E+02  0.20673978441E+02  0.56898744671E+02  0.82514406133E+02  0.50000000000E+02 0.  0.
<mgrwt>
<rscale>  0 0.59759184E+02</rscale>
<asrwt>0</asrwt>
<pdfrwt beam="1">  1       13 0.10000000E+01 0.59759184E+02</pdfrwt>
<pdfrwt beam="2">  1       22 0.21647798E+00 0.59759184E+02</pdfrwt>
<totfact> 0.39496239E-01</totfact>
</mgrwt>
</event>
<event>
 4    1  0.2409985E+000  0.5458995E+02  0.7957747E-01  0.1422048E+00
         13   -1    0    0    0    0  0.00000000000E+00  0.00000000000E+00  0.99999944182E+02  0.10000000000E+03  0.10566000000E+00 0.  1.
         22   -1    0    0    0    0 -0.00000000000E+00 -0.00000000000E+00 -0.64620305151E+02  0.64620305151E+02  0.00000000000E+00 0. -1.
         13    1    1    2    0    0  0.16333637999E+02 -0.14603937614E+02 -0.54904739652E+02  0.59115178460E+02  0.10566000000E+00 0. -1.
        996    1    1    2    0    0 -0.16333637999E+02  0.14603937614E+02  0.90284378683E+02  0.10550512669E+03  0.50000000000E+02 0.  0.
<mgrwt>
<rscale>  0 0.54589951E+02</rscale>
<asrwt>0</asrwt>
<pdfrwt beam="1">  1       13 0.10000000E+01 0.54589951E+02</pdfrwt>
<pdfrwt beam="2">  1       22 0.64620315E+00 0.54589951E+02</pdfrwt>
<totfact> 0.85442327E-02</totfact>
</mgrwt>
</event>
<event>
 4    1  0.2409985E+000  0.5359412E+02  0.7957747E-01  0.1426867E+00
         13   -1    0    0    0    0  0.00000000000E+00  0.00000000000E+00  0.99999944174E+02  0.99999999995E+02  0.10566000000E+00 0. -1.
         22   -1    0    0    0    0 -0.00000000000E+00 -0.00000000000E+00 -0.24875429317E+02  0.24875429317E+02  0.00000000000E+00 0.  1.
         13    1    1    2    0    0 -0.82335901367E+01  0.17451019631E+02 -0.11900898207E+02  0.22670964577E+02  0.10566000000E+00 0.  1.
        996    1    1    2    0    0  0.82335901367E+01 -0.17451019631E+02  0.87025413064E+02  0.10220446473E+03  0.50000000000E+02 0.  0.
<mgrwt>
<rscale>  0 0.53594124E+02</rscale>
<asrwt>0</asrwt>
<pdfrwt beam="1">  1       13 0.10000000E+01 0.53594124E+02</pdfrwt>
<pdfrwt beam="2">  1       22 0.24875450E+00 0.53594124E+02</pdfrwt>
<totfact> 0.29844077E-01</totfact>
</mgrwt>
</event>
<event>
 4    1  0.2409985E+000  0.5247223E+02  0.7957747E-01  0.1432446E+00
         13   -1    0    0    0    0  0.00000000000E+00  0.00000000000E+00  0.99999944177E+02  0.99999999997E+02  0.10566000000E+00 0.  1.
         22   -1    0    0    0    0 -0.00000000000E+00 -0.00000000000E+00 -0.11739730515E+02  0.11739730515E+02  0.00000000000E+00 0.  1.
         13    1    1    2    0    0  0.65539095973E+01  0.14504514583E+02  0.17643229122E+02  0.23761931154E+02  0.10566000000E+00 0. -1.
        996    1    1    2    0    0 -0.65539095973E+01 -0.14504514583E+02  0.70616984540E+02  0.87977799358E+02  0.50000000000E+02 0.  0.
<mgrwt>
<rscale>  0 0.52472228E+02</rscale>
<asrwt>0</asrwt>
<pdfrwt beam="1">  1       13 0.10000000E+01 0.52472228E+02</pdfrwt>
<pdfrwt beam="2">  1       22 0.11739755E+00 0.52472228E+02</pdfrwt>
<totfact> 0.11126816E+00</totfact>
</mgrwt>
</event>
<event>
 4    1  0.2409985E+000  0.5592810E+02  0.7957747E-01  0.1415760E+00
         13   -1    0    0    0    0  0.00000000000E+00  0.00000000000E+00  0.99999944179E+02  0.99999999999E+02  0.10566000000E+00 0.  1.
         22   -1    0    0    0    0 -0.00000000000E+00 -0.00000000000E+00 -0.16411058205E+02  0.16411058205E+02  0.00000000000E+00 0.  1.
         13    1    1    2    0    0  0.12750431849E+02  0.21572629736E+02  0.24320905363E+02  0.34920903021E+02  0.10566000000E+00 0. -1.
        996    1    1    2    0    0 -0.12750431849E+02 -0.21572629736E+02  0.59267980611E+02  0.81490155183E+02  0.50000000000E+02 0.  0.
<mgrwt>
<rscale>  0 0.55928095E+02</rscale>
<asrwt>0</asrwt>
<pdfrwt beam="1">  1       13 0.10000000E+01 0.55928095E+02</pdfrwt>
<pdfrwt beam="2">  1       22 0.16411082E+00 0.55928095E+02</pdfrwt>
<totfact> 0.65126408E-01</totfact>
</mgrwt>
</event>
<event>
 4    1  0.2409985E+000  0.5107214E+02  0.7957747E-01  0.1439643E+00
         13   -1    0    0    0    0  0.00000000000E+00  0.00000000000E+00  0.99999944180E+02  0.10000000000E+03  0.10566000000E+00 0.  1.
         22   -1    0    0    0    0 -0.00000000000E+00 -0.00000000000E+00 -0.15722167807E+02  0.15722167807E+02  0.00000000000E+00 0. -1.
         13    1    1    2    0    0 -0.85789169884E+01 -0.58962304991E+01 -0.59880758812E+01  0.12009644774E+02  0.10566000000E+00 0. -1.
        996    1    1    2    0    0  0.85789169884E+01  0.58962304991E+01  0.90265852255E+02  0.10371252303E+03  0.50000000000E+02 0.  0.
<mgrwt>
<rscale>  0 0.51072139E+02</rscale>
<asrwt>0</asrwt>
<pdfrwt beam="1">  1       13 0.10000000E+01 0.51072139E+02</pdfrwt>
<pdfrwt beam="2">  1       22 0.15722191E+00 0.51072139E+02</pdfrwt>
<totfact> 0.69439636E-01</totfact>
</mgrwt>
</event>
<event>
 4    1  0.2409985E+000  0.5818781E+02  0.7957747E-01  0.1405598E+00
         13   -1    0    0    0    0  0.00000000000E+00  0.00000000000E+00  0.99999944181E+02  0.10000000000E+03  0.10566000000E+00 0. -1.
         22   -1    0    0    0    0 -0.00000000000E+00 -0.00000000000E+00 -0.21381548625E+02  0.21381548625E+02  0.00000000000E+00 0.  1.
         13    1    1    2    0    0  0.29751824886E+02  0.80647718941E+00  0.45671940585E+02  0.54513840539E+02  0.10566000000E+00 0.  1.
        996    1    1    2    0    0 -0.29751824886E+02 -0.80647718941E+00  0.32946454971E+02  0.66867708086E+02  0.50000000000E+02 0.  0.
<mgrwt>
<rscale>  0 0.58187812E+02</rscale>
<asrwt>0</asrwt>
<pdfrwt beam="1">  1       13 0.10000000E+01 0.58187812E+02</pdfrwt>
<pdfrwt beam="2">  1       22 0.21381571E+00 0.58187812E+02</pdfrwt>
<totfact> 0.40348470E-01</totfact>
</mgrwt>
</event>
<event>
 4    1  0.2409985E+000  0.5105272E+02  0.7957747E-01  0.1439745E+00
         13   -1    0    0    0    0  0.00000000000E+00  0.00000000000E+00  0.99999944184E+02  0.10000000000E+03  0.10566000000E+00 0.  1.
         22   -1    0    0    0    0 -0.00000000000E+00 -0.00000000000E+00 -0.10185153407E+02  0.10185153407E+02  0.00000000000E+00 0.  1.
         13    1    1    2    0    0  0.19942240779E+01 -0.10119468419E+02  0.56870228874E+01  0.11778538284E+02  0.10566000000E+00 0. -1.
        996    1    1    2    0    0 -0.19942240779E+01  0.10119468419E+02  0.84127767889E+02  0.98406615127E+02  0.50000000000E+02 0.  0.
<mgrwt>
<rscale>  0 0.51052723E+02</rscale>
<asrwt>0</asrwt>
<pdfrwt beam="1">  1       13 0.10000000E+01 0.51052723E+02</pdfrwt>
<pdfrwt beam="2">  1       22 0.10185178E+00 0.51052723E+02</pdfrwt>
<totfact> 0.13695969E+00</totfact>
</mgrwt>
</event>
<event>
 4    1  0.2409985E+000  0.5230648E+02  0.7957747E-01  0.1433284E+00
         13   -1    0    0    0    0  0.00000000000E+00  0.00000000000E+00  0.99999944171E+02  0.99999999991E+02  0.10566000000E+00 0. -1.
         22   -1    0    0    0    0 -0.00000000000E+00 -0.00000000000E+00 -0.16252511966E+02  0.16252511966E+02  0.00000000000E+00 0.  1.
         13    1    1    2    0    0  0.15348418274E+02 -0.62750581530E+00 -0.23214055877E+01  0.15536016059E+02  0.10566000000E+00 0.  1.
        996    1    1    2    0    0 -0.15348418274E+02  0.62750581530E+00  0.86068837793E+02  0.10071649590E+03  0.50000000000E+02 0.  0.
<mgrwt>
<rscale>  0 0.52306479E+02</rscale>
<asrwt>0</asrwt>
<pdfrwt beam="1">  1       13 0.10000000E+01 0.52306479E+02</pdfrwt>
<pdfrwt beam="2">  1       22 0.16252535E+00 0.52306479E+02</pdfrwt>
<totfact> 0.65775203E-01</totfact>
</mgrwt>
</event>
<event>
 4    1  0.2409985E+000  0.5431835E+02  0.7957747E-01  0.1423350E+00
         13   -1    0    0    0    0  0.00000000000E+00  0.00000000000E+00  0.99999944180E+02  0.10000000000E+03  0.10566000000E+00 0. -1.
         22   -1    0    0    0    0 -0.00000000000E+00 -0.00000000000E+00 -0.15011714864E+02  0.15011714864E+02  0.00000000000E+00 0. -1.
         13    1    1    2    0    0 -0.15168670789E+02 -0.14845696581E+02  0.13219988487E+02  0.25005250251E+02  0.10566000000E+00 0.  1.
        996    1    1    2    0    0  0.15168670789E+02  0.14845696581E+02  0.71768240830E+02  0.90006464614E+02  0.50000000000E+02 0.  0.
<mgrwt>
<rscale>  0 0.54318351E+02</rscale>
<asrwt>0</asrwt>
<pdfrwt beam="1">  1       13 0.10000000E+01 0.54318351E+02</pdfrwt>
<pdfrwt beam="2">  1       22 0.15011739E+00 0.54318351E+02</pdfrwt>
<totfact> 0.75543213E-01</totfact>
</mgrwt>
</event>
<event>
 4    1  0.2409985E+000  0.5161766E+02  0.7957747E-01  0.1436807E+00
         13   -1    0    0    0    0  0.00000000000E+00  0.00000000000E+00  0.99999944176E+02  0.99999999997E+02  0.10566000000E+00 0. -1.
         22   -1    0    0    0    0 -0.00000000000E+00 -0.00000000000E+00 -0.44275539584E+02  0.44275539584E+02  0.00000000000E+00 0. -1.
         13    1    1    2    0    0 -0.70454809517E+01 -0.10711876583E+02 -0.36446110247E+02  0.38635646985E+02  0.10566000000E+00 0.  1.
        996    1    1    2    0    0  0.70454809517E+01  0.10711876583E+02  0.92170514840E+02  0.10563989260E+03  0.50000000000E+02 0.  0.
<mgrwt>
<rscale>  0 0.51617663E+02</rscale>
<asrwt>0</asrwt>
<pdfrwt beam="1">  1       13 0.10000000E+01 0.51617663E+02</pdfrwt>
<pdfrwt beam="2">  1       22 0.44275555E+00 0.51617663E+02</pdfrwt>
<totfact> 0.10027272E-01</totfact>
</mgrwt>
</event>
<event>
 4    1  0.2409985E+000  0.5158424E+02  0.7957747E-01  0.1436979E+00
         13   -1    0    0    0    0  0.00000000000E+00  0.00000000000E+00  0.99999944174E+02  0.99999999994E+02  0.10566000000E+00 0. -1.
         22   -1    0    0    0    0 -0.00000000000E+00 -0.00000000000E+00 -0.10343532190E+02  0.10343532190E+02  0.00000000000E+00 0. -1.
         13    1    1    2    0    0  0.12335952842E+02 -0.29594207936E+01  0.19510307340E+02  0.23272240126E+02  0.10566000000E+00 0.  1.
        996    1    1    2    0    0 -0.12335952842E+02  0.29594207936E+01  0.70146104643E+02  0.87071292058E+02  0.50000000000E+02 0.  0.
<mgrwt>
<rscale>  0 0.51584241E+02</rscale>
<asrwt>0</asrwt>
<pdfrwt beam="1">  1       13 0.10000000E+01 0.51584241E+02</pdfrwt>
<pdfrwt beam="2">  1       22 0.10343557E+00 0.51584241E+02</pdfrwt>
<totfact> 0.13408357E+00</totfact>
</mgrwt>
</event>
<event>
 4    1  0.2409985E+000  0.8129748E+02  0.7957747E-01  0.1325409E+00
         13   -1    0    0    0    0  0.00000000000E+00  0.00000000000E+00  0.99999944177E+02  0.99999999998E+02  0.10566000000E+00 0. -1.
         22   -1    0    0    0    0 -0.00000000000E+00 -0.00000000000E+00 -0.65562524525E+02  0.65562524525E+02  0.00000000000E+00 0.  1.
         13    1    1    2    0    0  0.24042775046E+02 -0.59424106555E+02 -0.20663188981E+02  0.67351748416E+02  0.10566000000E+00 0.  1.
        996    1    1    2    0    0 -0.24042775046E+02  0.59424106555E+02  0.55100608634E+02  0.98210776107E+02  0.50000000000E+02 0.  0.
<mgrwt>
<rscale>  0 0.81297475E+02</rscale>
<asrwt>0</asrwt>
<pdfrwt beam="1">  1       13 0.10000000E+01 0.81297475E+02</pdfrwt>
<pdfrwt beam="2">  1       22 0.65562534E+00 0.81297475E+02</pdfrwt>
<totfact> 0.87143982E-02</totfact>
</mgrwt>
</event>
<event>
 4    1  0.2409985E+000  0.5279133E+02  0.7957747E-01  0.1430842E+00
         13   -1    0    0    0    0  0.00000000000E+00  0.00000000000E+00  0.99999944174E+02  0.99999999994E+02  0.10566000000E+00 0.  1.
         22   -1    0    0    0    0 -0.00000000000E+00 -0.00000000000E+00 -0.12881078615E+02  0.12881078615E+02  0.00000000000E+00 0.  1.
         13    1    1    2    0    0 -0.15152783489E+02 -0.75708196912E+01  0.34026444635E+02  0.38009660046E+02  0.10566000000E+00 0. -1.
        996    1    1    2    0    0  0.15152783489E+02  0.75708196912E+01  0.53092420924E+02  0.74871418564E+02  0.50000000000E+02 0.  0.
<mgrwt>
<rscale>  0 0.52791327E+02</rscale>
<asrwt>0</asrwt>
<pdfrwt beam="1">  1       13 0.10000000E+01 0.52791327E+02</pdfrwt>
<pdfrwt beam="2">  1       22 0.12881103E+00 0.52791327E+02</pdfrwt>
<totfact> 0.96473012E-01</totfact>
</mgrwt>
</event>
<event>
 4    1  0.2409985E+000  0.5155812E+02  0.7957747E-01  0.1437114E+00
         13   -1    0    0    0    0  0.00000000000E+00  0.00000000000E+00  0.99999944185E+02  0.10000000001E+03  0.10566000000E+00 0. -1.
         22   -1    0    0    0    0 -0.00000000000E+00 -0.00000000000E+00 -0.10383376546E+02  0.10383376546E+02  0.00000000000E+00 0. -1.
         13    1    1    2    0    0  0.12546529187E+02  0.90779516084E+00  0.13540589217E+02  0.18482375580E+02  0.10566000000E+00 0.  1.
        996    1    1    2    0    0 -0.12546529187E+02 -0.90779516084E+00  0.76075978422E+02  0.91901000972E+02  0.50000000000E+02 0.  0.
<mgrwt>
<rscale>  0 0.51558118E+02</rscale>
<asrwt>0</asrwt>
<pdfrwt beam="1">  1       13 0.10000000E+01 0.51558118E+02</pdfrwt>
<pdfrwt beam="2">  1       22 0.10383402E+00 0.51558118E+02</pdfrwt>
<totfact> 0.13332352E+00</totfact>
</mgrwt>
</event>
<event>
 4    1  0.2409985E+000  0.5525971E+02  0.7957747E-01  0.1418875E+00
         13   -1    0    0    0    0  0.00000000000E+00  0.00000000000E+00  0.99999944176E+02  0.99999999996E+02  0.10566000000E+00 0.  1.
         22   -1    0    0    0    0 -0.00000000000E+00 -0.00000000000E+00 -0.23859056413E+02  0.23859056413E+02  0.00000000000E+00 0. -1.
         13    1    1    2    0    0 -0.21148698104E+02 -0.10313504698E+02 -0.65309703357E+01  0.24419265923E+02  0.10566000000E+00 0. -1.
        996    1    1    2    0    0  0.21148698104E+02  0.10313504698E+02  0.82671858098E+02  0.99439790486E+02  0.50000000000E+02 0.  0.
<mgrwt>
<rscale>  0 0.55259712E+02</rscale>
<asrwt>0</asrwt>
<pdfrwt beam="1">  1       13 0.10000000E+01 0.55259712E+02</pdfrwt>
<pdfrwt beam="2">  1       22 0.23859078E+00 0.55259712E+02</pdfrwt>
<totfact> 0.32475865E-01</totfact>
</mgrwt>
</event>
<event>
 4    1  0.2409985E+000  0.5507560E+02  0.7957747E-01  0.1419742E+00
         13   -1    0    0    0    0  0.00000000000E+00  0.00000000000E+00  0.99999944185E+02  0.10000000001E+03  0.10566000000E+00 0. -1.
         22   -1    0    0    0    0 -0.00000000000E+00 -0.00000000000E+00 -0.16923123480E+02  0.16923123480E+02  0.00000000000E+00 0. -1.
         13    1    1    2    0    0  0.19624508469E+02 -0.12173738600E+02  0.93942606633E+01  0.24931597254E+02  0.10566000000E+00 0.  1.
        996    1    1    2    0    0 -0.19624508469E+02  0.12173738600E+02  0.73682560042E+02  0.91991526232E+02  0.50000000000E+02 0.  0.
<mgrwt>
<rscale>  0 0.55075596E+02</rscale>
<asrwt>0</asrwt>
<pdfrwt beam="1">  1       13 0.10000000E+01 0.55075596E+02</pdfrwt>
<pdfrwt beam="2">  1       22 0.16923147E+00 0.55075596E+02</pdfrwt>
<totfact> 0.61638455E-01</totfact>
</mgrwt>
</event>
<event>
 4    1  0.2409985E+000  0.6254785E+02  0.7957747E-01  0.1387440E+00
         13   -1    0    0    0    0  0.00000000000E+00  0.00000000000E+00  0.99999944175E+02  0.99999999995E+02  0.10566000000E+00 0.  1.
         22   -1    0    0    0    0 -0.00000000000E+00 -0.00000000000E+00 -0.78340988339E+02  0.78340988339E+02  0.00000000000E+00 0. -1.
         13    1    1    2    0    0  0.60918015771E+01  0.37082654267E+02 -0.62834846280E+02  0.73215178516E+02  0.10566000000E+00 0. -1.
        996    1    1    2    0    0 -0.60918015771E+01 -0.37082654267E+02  0.84493802116E+02  0.10512580982E+03  0.50000000000E+02 0.  0.
<mgrwt>
<rscale>  0 0.62547848E+02</rscale>
<asrwt>0</asrwt>
<pdfrwt beam="1">  1       13 0.10000000E+01 0.62547848E+02</pdfrwt>
<pdfrwt beam="2">  1       22 0.78340994E+00 0.62547848E+02</pdfrwt>
<totfact> 0.35953141E-02</totfact>
</mgrwt>
</event>
<event>
 4    1  0.2409985E+000  0.5102296E+02  0.7957747E-01  0.1439901E+00
         13   -1    0    0    0    0  0.00000000000E+00  0.00000000000E+00  0.99999944178E+02  0.99999999999E+02  0.10566000000E+00 0. -1.
         22   -1    0    0    0    0 -0.00000000000E+00 -0.00000000000E+00 -0.11747359997E+02  0.11747359997E+02  0.00000000000E+00 0. -1.
         13    1    1    2    0    0  0.10161029355E+02 -0.30904415110E+00  0.42568255013E+00  0.10175185282E+02  0.10566000000E+00 0.  1.
        996    1    1    2    0    0 -0.10161029355E+02  0.30904415110E+00  0.87826901632E+02  0.10157217471E+03  0.50000000000E+02 0.  0.
<mgrwt>
<rscale>  0 0.51022956E+02</rscale>
<asrwt>0</asrwt>
<pdfrwt beam="1">  1       13 0.10000000E+01 0.51022956E+02</pdfrwt>
<pdfrwt beam="2">  1       22 0.11747385E+00 0.51022956E+02</pdfrwt>
<totfact> 0.11079408E+00</totfact>
</mgrwt>
</event>
<event>
 4    1  0.2409985E+000  0.6030303E+02  0.7957747E-01  0.1396564E+00
         13   -1    0    0    0    0  0.00000000000E+00  0.00000000000E+00  0.99999944181E+02  0.10000000000E+03  0.10566000000E+00 0. -1.
         22   -1    0    0    0    0 -0.00000000000E+00 -0.00000000000E+00 -0.28912261999E+02  0.28912261999E+02  0.00000000000E+00 0.  1.
         13    1    1    2    0    0 -0.33146484351E+02 -0.61454267294E+01 -0.24625123418E+01  0.33801343547E+02  0.10566000000E+00 0.  1.
        996    1    1    2    0    0  0.33146484351E+02  0.61454267294E+01  0.73550194523E+02  0.95110918453E+02  0.50000000000E+02 0.  0.
<mgrwt>
<rscale>  0 0.60303032E+02</rscale>
<asrwt>0</asrwt>
<pdfrwt beam="1">  1       13 0.10000000E+01 0.60303032E+02</pdfrwt>
<pdfrwt beam="2">  1       22 0.28912282E+00 0.60303032E+02</pdfrwt>
<totfact> 0.22435206E-01</totfact>
</mgrwt>
</event>
<event>
 4    1  0.2409985E+000  0.5148056E+02  0.7957747E-01  0.1437516E+00
         13   -1    0    0    0    0  0.00000000000E+00  0.00000000000E+00  0.99999944173E+02  0.99999999993E+02  0.10566000000E+00 0. -1.
         22   -1    0    0    0    0 -0.00000000000E+00 -0.00000000000E+00 -0.12952039159E+02  0.12952039159E+02  0.00000000000E+00 0.  1.
         13    1    1    2    0    0  0.11854903736E+02 -0.31160439121E+01  0.52161813307E+00  0.12269136961E+02  0.10566000000E+00 0.  1.
        996    1    1    2    0    0 -0.11854903736E+02  0.31160439121E+01  0.86526286881E+02  0.10068290219E+03  0.50000000000E+02 0.  0.
<mgrwt>
<rscale>  0 0.51480564E+02</rscale>
<asrwt>0</asrwt>
<pdfrwt beam="1">  1       13 0.10000000E+01 0.51480564E+02</pdfrwt>
<pdfrwt beam="2">  1       22 0.12952063E+00 0.51480564E+02</pdfrwt>
<totfact> 0.95372416E-01</totfact>
</mgrwt>
</event>
<event>
 4    1  0.2409985E+000  0.5349036E+02  0.7957747E-01  0.1427376E+00
         13   -1    0    0    0    0  0.00000000000E+00  0.00000000000E+00  0.99999944182E+02  0.10000000000E+03  0.10566000000E+00 0.  1.
         22   -1    0    0    0    0 -0.00000000000E+00 -0.00000000000E+00 -0.14384743096E+02  0.14384743096E+02  0.00000000000E+00 0.  1.
         13    1    1    2    0    0 -0.84963618626E+01  0.17000890367E+02  0.92192093086E+01  0.21124001100E+02  0.10566000000E+00 0. -1.
        996    1    1    2    0    0  0.84963618626E+01 -0.17000890367E+02  0.76395991778E+02  0.93260741998E+02  0.50000000000E+02 0.  0.
<mgrwt>
<rscale>  0 0.53490358E+02</rscale>
<asrwt>0</asrwt>
<pdfrwt beam="1">  1       13 0.10000000E+01 0.53490358E+02</pdfrwt>
<pdfrwt beam="2">  1       22 0.14384767E+00 0.53490358E+02</pdfrwt>
<totfact> 0.80930671E-01</totfact>
</mgrwt>
</event>
<event>
 4    1  0.2409985E+000  0.7640436E+02  0.7957747E-01  0.1339577E+00
         13   -1    0    0    0    0  0.00000000000E+00  0.00000000000E+00  0.99999944180E+02  0.10000000000E+03  0.10566000000E+00 0. -1.
         22   -1    0    0    0    0 -0.00000000000E+00 -0.00000000000E+00 -0.76932624633E+02  0.76932624633E+02  0.00000000000E+00 0.  1.
         13    1    1    2    0    0 -0.30472191205E+01 -0.57691768774E+02 -0.46068875994E+02  0.73891665484E+02  0.10566000000E+00 0.  1.
        996    1    1    2    0    0  0.30472191205E+01  0.57691768774E+02  0.69136195541E+02  0.10304095915E+03  0.50000000000E+02 0.  0.
<mgrwt>
<rscale>  0 0.76404357E+02</rscale>
<asrwt>0</asrwt>
<pdfrwt beam="1">  1       13 0.10000000E+01 0.76404357E+02</pdfrwt>
<pdfrwt beam="2">  1       22 0.76932631E+00 0.76404357E+02</pdfrwt>
<totfact> 0.40950734E-02</totfact>
</mgrwt>
</event>
<event>
 4    1  0.2409985E+000  0.5516577E+02  0.7957747E-01  0.1419317E+00
         13   -1    0    0    0    0  0.00000000000E+00  0.00000000000E+00  0.99999944181E+02  0.10000000000E+03  0.10566000000E+00 0.  1.
         22   -1    0    0    0    0 -0.00000000000E+00 -0.00000000000E+00 -0.16763554256E+02  0.16763554256E+02  0.00000000000E+00 0. -1.
         13    1    1    2    0    0  0.21385739190E+02  0.92688940672E+01  0.10736936750E+02  0.25662330618E+02  0.10566000000E+00 0. -1.
        996    1    1    2    0    0 -0.21385739190E+02 -0.92688940672E+01  0.72499453175E+02  0.91101223639E+02  0.50000000000E+02 0.  0.
<mgrwt>
<rscale>  0 0.55165771E+02</rscale>
<asrwt>0</asrwt>
<pdfrwt beam="1">  1       13 0.10000000E+01 0.55165771E+02</pdfrwt>
<pdfrwt beam="2">  1       22 0.16763577E+00 0.55165771E+02</pdfrwt>
<totfact> 0.62678126E-01</totfact>
</mgrwt>
</event>
<event>
 4    1  0.2409985E+000  0.5596105E+02  0.7957747E-01  0.1415608E+00
         13   -1    0    0    0    0  0.00000000000E+00  0.00000000000E+00  0.99999944179E+02  0.99999999999E+02  0.10566000000E+00 0.  1.
         22   -1    0    0    0    0 -0.00000000000E+00 -0.00000000000E+00 -0.21659886569E+02  0.21659886569E+02  0.00000000000E+00 0. -1.
         13    1    1    2    0    0  0.58351701972E+01  0.24445647596E+02 -0.30792070951E+00  0.25134535540E+02  0.10566000000E+00 0. -1.
        996    1    1    2    0    0 -0.58351701972E+01 -0.24445647596E+02  0.78647978319E+02  0.96525351029E+02  0.50000000000E+02 0.  0.
<mgrwt>
<rscale>  0 0.55961048E+02</rscale>
<asrwt>0</asrwt>
<pdfrwt beam="1">  1       13 0.10000000E+01 0.55961048E+02</pdfrwt>
<pdfrwt beam="2">  1       22 0.21659908E+00 0.55961048E+02</pdfrwt>
<totfact> 0.39224693E-01</totfact>
</mgrwt>
</event>
<event>
 4    1  0.2409985E+000  0.5313123E+02  0.7957747E-01  0.1429149E+00
         13   -1    0    0    0    0  0.00000000000E+00  0.00000000000E+00  0.99999944177E+02  0.99999999997E+02  0.10566000000E+00 0.  1.
         22   -1    0    0    0    0 -0.00000000000E+00 -0.00000000000E+00 -0.16271406045E+02  0.16271406045E+02  0.00000000000E+00 0. -1.
         13    1    1    2    0    0  0.14886171206E+02  0.10066239833E+02  0.10605458299E+01  0.18001755443E+02  0.10566000000E+00 0. -1.
        996    1    1    2    0    0 -0.14886171206E+02 -0.10066239833E+02  0.82667992302E+02  0.98269650599E+02  0.50000000000E+02 0.  0.
<mgrwt>
<rscale>  0 0.53131227E+02</rscale>
<asrwt>0</asrwt>
<pdfrwt beam="1">  1       13 0.10000000E+01 0.53131227E+02</pdfrwt>
<pdfrwt beam="2">  1       22 0.16271429E+00 0.53131227E+02</pdfrwt>
<totfact> 0.65749244E-01</totfact>
</mgrwt>
</event>
<event>
 4    1  0.2409985E+000  0.5215321E+02  0.7957747E-01  0.1434062E+00
         13   -1    0    0    0    0  0.00000000000E+00  0.00000000000E+00  0.99999944182E+02  0.10000000000E+03  0.10566000000E+00 0.  1.
         22   -1    0    0    0    0 -0.00000000000E+00 -0.00000000000E+00 -0.57355103931E+02  0.57355103931E+02  0.00000000000E+00 0. -1.
         13    1    1    2    0    0 -0.15510326134E+01  0.14749621221E+02 -0.49390969675E+02  0.51569720552E+02  0.10566000000E+00 0. -1.
        996    1    1    2    0    0  0.15510326134E+01 -0.14749621221E+02  0.92035809926E+02  0.10578538338E+03  0.50000000000E+02 0.  0.
<mgrwt>
<rscale>  0 0.52153207E+02</rscale>
<asrwt>0</asrwt>
<pdfrwt beam="1">  1       13 0.10000000E+01 0.52153207E+02</pdfrwt>
<pdfrwt beam="2">  1       22 0.57355116E+00 0.52153207E+02</pdfrwt>
<totfact> 0.57811062E-02</totfact>
</mgrwt>
</event>
<event>
 4    1  0.2409985E+000  0.5141793E+02  0.7957747E-01  0.1437840E+00
         13   -1    0    0    0    0  0.00000000000E+00  0.00000000000E+00  0.99999944183E+02  0.10000000000E+03  0.10566000000E+00 0.  1.
         22   -1    0    0    0    0 -0.00000000000E+00 -0.00000000000E+00 -0.11888617812E+02  0.11888617812E+02  0.00000000000E+00 0.  1.
         13    1    1    2    0    0 -0.11642707242E+02 -0.28725048191E+01  0.38935208513E+02  0.40740220198E+02  0.10566000000E+00 0. -1.
        996    1    1    2    0    0  0.11642707242E+02  0.28725048191E+01  0.49176117858E+02  0.71148397617E+02  0.50000000000E+02 0.  0.
<mgrwt>
<rscale>  0 0.51417934E+02</rscale>
<asrwt>0</asrwt>
<pdfrwt beam="1">  1       13 0.10000000E+01 0.51417934E+02</pdfrwt>
<pdfrwt beam="2">  1       22 0.11888642E+00 0.51417934E+02</pdfrwt>
<totfact> 0.10889492E+00</totfact>
</mgrwt>
</event>
<event>
 4    1  0.2409985E+000  0.5148828E+02  0.7957747E-01  0.1437476E+00
         13   -1    0    0    0    0  0.00000000000E+00  0.00000000000E+00  0.99999944181E+02  0.10000000000E+03  0.10566000000E+00 0. -1.
         22   -1    0    0    0    0 -0.00000000000E+00 -0.00000000000E+00 -0.18994896034E+02  0.18994896034E+02  0.00000000000E+00 0.  1.
         13    1    1    2    0    0  0.89881867613E+01 -0.83818631253E+01 -0.90479135313E+01  0.15261685163E+02  0.10566000000E+00 0.  1.
        996    1    1    2    0    0 -0.89881867613E+01  0.83818631253E+01  0.90052961678E+02  0.10373321087E+03  0.50000000000E+02 0.  0.
<mgrwt>
<rscale>  0 0.51488281E+02</rscale>
<asrwt>0</asrwt>
<pdfrwt beam="1">  1       13 0.10000000E+01 0.51488281E+02</pdfrwt>
<pdfrwt beam="2">  1       22 0.18994919E+00 0.51488281E+02</pdfrwt>
<totfact> 0.49790666E-01</totfact>
</mgrwt>
</event>
<event>
 4    1  0.2409985E+000  0.5203314E+02  0.7957747E-01  0.1434674E+00
         13   -1    0    0    0    0  0.00000000000E+00  0.00000000000E+00  0.99999944177E+02  0.99999999997E+02  0.10566000000E+00 0.  1.
         22   -1    0    0    0    0 -0.00000000000E+00 -0.00000000000E+00 -0.77011983095E+02  0.77011983095E+02  0.00000000000E+00 0. -1.
         13    1    1    2    0    0  0.46471035790E+01  0.13632769473E+02 -0.69454116095E+02  0.70931892557E+02  0.10566000000E+00 0. -1.
        996    1    1    2    0    0 -0.46471035790E+01 -0.13632769473E+02  0.92442077177E+02  0.10608009054E+03  0.50000000000E+02 0.  0.
<mgrwt>
<rscale>  0 0.52033143E+02</rscale>
<asrwt>0</asrwt>
<pdfrwt beam="1">  1       13 0.10000000E+01 0.52033143E+02</pdfrwt>
<pdfrwt beam="2">  1       22 0.77011990E+00 0.52033143E+02</pdfrwt>
<totfact> 0.40677855E-02</totfact>
</mgrwt>
</event>
<event>
 4    1  0.2409985E+000  0.5737540E+02  0.7957747E-01  0.1409188E+00
         13   -1    0    0    0    0  0.00000000000E+00  0.00000000000E+00  0.99999944181E+02  0.10000000000E+03  0.10566000000E+00 0. -1.
         22   -1    0    0    0    0 -0.00000000000E+00 -0.00000000000E+00 -0.32230733291E+02  0.32230733291E+02  0.00000000000E+00 0.  1.
         13    1    1    2    0    0  0.11599111141E+02 -0.25639755661E+02 -0.14712980586E+02  0.31755620154E+02  0.10566000000E+00 0.  1.
        996    1    1    2    0    0 -0.11599111141E+02  0.25639755661E+02  0.82482191476E+02  0.10047511314E+03  0.50000000000E+02 0.  0.
<mgrwt>
<rscale>  0 0.57375399E+02</rscale>
<asrwt>0</asrwt>
<pdfrwt beam="1">  1       13 0.10000000E+01 0.57375399E+02</pdfrwt>
<pdfrwt beam="2">  1       22 0.32230752E+00 0.57375399E+02</pdfrwt>
<totfact> 0.18274203E-01</totfact>
</mgrwt>
</event>
<event>
 4    1  0.2409985E+000  0.5113792E+02  0.7957747E-01  0.1439299E+00
         13   -1    0    0    0    0  0.00000000000E+00  0.00000000000E+00  0.99999944183E+02  0.10000000000E+03  0.10566000000E+00 0. -1.
         22   -1    0    0    0    0 -0.00000000000E+00 -0.00000000000E+00 -0.21318635004E+02  0.21318635004E+02  0.00000000000E+00 0.  1.
         13    1    1    2    0    0  0.99145977426E+01 -0.40972446830E+01 -0.12685830548E+02  0.16614094111E+02  0.10566000000E+00 0.  1.
        996    1    1    2    0    0 -0.99145977426E+01  0.40972446830E+01  0.91367139727E+02  0.10470454090E+03  0.50000000000E+02 0.  0.
<mgrwt>
<rscale>  0 0.51137918E+02</rscale>
<asrwt>0</asrwt>
<pdfrwt beam="1">  1       13 0.10000000E+01 0.51137918E+02</pdfrwt>
<pdfrwt beam="2">  1       22 0.21318657E+00 0.51137918E+02</pdfrwt>
<totfact> 0.40107798E-01</totfact>
</mgrwt>
</event>
<event>
 4    1  0.2409985E+000  0.5146444E+02  0.7957747E-01  0.1437599E+00
         13   -1    0    0    0    0  0.00000000000E+00  0.00000000000E+00  0.99999944183E+02  0.10000000000E+03  0.10566000000E+00 0.  1.
         22   -1    0    0    0    0 -0.00000000000E+00 -0.00000000000E+00 -0.11707467548E+02  0.11707467548E+02  0.00000000000E+00 0.  1.
         13    1    1    2    0    0 -0.89762131998E+01  0.82471977617E+01  0.37369986481E+02  0.39307960109E+02  0.10566000000E+00 0. -1.
        996    1    1    2    0    0  0.89762131998E+01 -0.82471977617E+01  0.50922490154E+02  0.72399507442E+02  0.50000000000E+02 0.  0.
<mgrwt>
<rscale>  0 0.51464441E+02</rscale>
<asrwt>0</asrwt>
<pdfrwt beam="1">  1       13 0.10000000E+01 0.51464441E+02</pdfrwt>
<pdfrwt beam="2">  1       22 0.11707492E+00 0.51464441E+02</pdfrwt>
<totfact> 0.11148008E+00</totfact>
</mgrwt>
</event>
<event>
 4    1  0.2409985E+000  0.5107643E+02  0.7957747E-01  0.1439621E+00
         13   -1    0    0    0    0  0.00000000000E+00  0.00000000000E+00  0.99999944179E+02  0.99999999999E+02  0.10566000000E+00 0. -1.
         22   -1    0    0    0    0 -0.00000000000E+00 -0.00000000000E+00 -0.10822394193E+02  0.10822394193E+02  0.00000000000E+00 0. -1.
         13    1    1    2    0    0 -0.71314224526E+01  0.76121201280E+01  0.33670695421E+01  0.10961290087E+02  0.10566000000E+00 0.  1.
        996    1    1    2    0    0  0.71314224526E+01 -0.76121201280E+01  0.85810480444E+02  0.99861104105E+02  0.50000000000E+02 0.  0.
<mgrwt>
<rscale>  0 0.51076429E+02</rscale>
<asrwt>0</asrwt>
<pdfrwt beam="1">  1       13 0.10000000E+01 0.51076429E+02</pdfrwt>
<pdfrwt beam="2">  1       22 0.10822419E+00 0.51076429E+02</pdfrwt>
<totfact> 0.12529830E+00</totfact>
</mgrwt>
</event>
<event>
 4    1  0.2409985E+000  0.5163272E+02  0.7957747E-01  0.1436729E+00
         13   -1    0    0    0    0  0.00000000000E+00  0.00000000000E+00  0.99999944172E+02  0.99999999992E+02  0.10566000000E+00 0. -1.
         22   -1    0    0    0    0 -0.00000000000E+00 -0.00000000000E+00 -0.11885520725E+02  0.11885520725E+02  0.00000000000E+00 0.  1.
         13    1    1    2    0    0  0.30175916237E+01  0.12523275558E+02  0.45608578024E+01  0.13665682487E+02  0.10566000000E+00 0.  1.
        996    1    1    2    0    0 -0.30175916237E+01 -0.12523275558E+02  0.83553565644E+02  0.98219838229E+02  0.50000000000E+02 0.  0.
<mgrwt>
<rscale>  0 0.51632725E+02</rscale>
<asrwt>0</asrwt>
<pdfrwt beam="1">  1       13 0.10000000E+01 0.51632725E+02</pdfrwt>
<pdfrwt beam="2">  1       22 0.11885545E+00 0.51632725E+02</pdfrwt>
<totfact> 0.10899123E+00</totfact>
</mgrwt>
</event>
<event>
 4    1  0.2409985E+000  0.5099824E+02  0.7957747E-01  0.1440030E+00
         13   -1    0    0    0    0  0.00000000000E+00  0.00000000000E+00  0.99999944176E+02  0.99999999996E+02  0.10566000000E+00 0.  1.
         22   -1    0    0    0    0 -0.00000000000E+00 -0.00000000000E+00 -0.13060329086E+02  0.13060329086E+02  0.00000000000E+00 0. -1.
         13    1    1    2    0    0 -0.10040769407E+02 -0.61612611088E-01 -0.22769598836E+01  0.10296434176E+02  0.10566000000E+00 0. -1.
        996    1    1    2    0    0  0.10040769407E+02  0.61612611088E-01  0.89216574973E+02  0.10276389491E+03  0.50000000000E+02 0.  0.
<mgrwt>
<rscale>  0 0.50998244E+02</rscale>
<asrwt>0</asrwt>
<pdfrwt beam="1">  1       13 0.10000000E+01 0.50998244E+02</pdfrwt>
<pdfrwt beam="2">  1       22 0.13060353E+00 0.50998244E+02</pdfrwt>
<totfact> 0.94030054E-01</totfact>
</mgrwt>
</event>
<event>
 4    1  0.2409985E+000  0.5151866E+02  0.7957747E-01  0.1437318E+00
         13   -1    0    0    0    0  0.00000000000E+00  0.00000000000E+00  0.99999944178E+02  0.99999999998E+02  0.10566000000E+00 0. -1.
         22   -1    0    0    0    0 -0.00000000000E+00 -0.00000000000E+00 -0.13817172922E+02  0.13817172922E+02  0.00000000000E+00 0. -1.
         13    1    1    2    0    0  0.11550358282E+02  0.45564662476E+01 -0.10982830772E+01  0.12465534520E+02  0.10566000000E+00 0.  1.
        996    1    1    2    0    0 -0.11550358282E+02 -0.45564662476E+01  0.87281054332E+02  0.10135163840E+03  0.50000000000E+02 0.  0.
<mgrwt>
<rscale>  0 0.51518658E+02</rscale>
<asrwt>0</asrwt>
<pdfrwt beam="1">  1       13 0.10000000E+01 0.51518658E+02</pdfrwt>
<pdfrwt beam="2">  1       22 0.13817197E+00 0.51518658E+02</pdfrwt>
<totfact> 0.86050662E-01</totfact>
</mgrwt>
</event>
<event>
 4    1  0.2409985E+000  0.5341789E+02  0.7957747E-01  0.1427732E+00
         13   -1    0    0    0    0  0.00000000000E+00  0.00000000000E+00  0.99999944180E+02  0.10000000000E+03  0.10566000000E+00 0. -1.
         22   -1    0    0    0    0 -0.00000000000E+00 -0.00000000000E+00 -0.13678302062E+02  0.13678302062E+02  0.00000000000E+00 0.  1.
         13    1    1    2    0    0 -0.16553002257E+02  0.89145309665E+01  0.12579646624E+02  0.22621437162E+02  0.10566000000E+00 0.  1.
        996    1    1    2    0    0  0.16553002257E+02 -0.89145309665E+01  0.73741995493E+02  0.91056864900E+02  0.50000000000E+02 0.  0.
<mgrwt>
<rscale>  0 0.53417888E+02</rscale>
<asrwt>0</asrwt>
<pdfrwt beam="1">  1       13 0.10000000E+01 0.53417888E+02</pdfrwt>
<pdfrwt beam="2">  1       22 0.13678326E+00 0.53417888E+02</pdfrwt>
<totfact> 0.87810478E-01</totfact>
</mgrwt>
</event>
<event>
 4    1  0.2409985E+000  0.5114790E+02  0.7957747E-01  0.1439247E+00
         13   -1    0    0    0    0  0.00000000000E+00  0.00000000000E+00  0.99999944178E+02  0.99999999998E+02  0.10566000000E+00 0. -1.
         22   -1    0    0    0    0 -0.00000000000E+00 -0.00000000000E+00 -0.56729602326E+02  0.56729602326E+02  0.00000000000E+00 0.  1.
         13    1    1    2    0    0  0.32560090461E+01  0.10271595830E+02 -0.49572441210E+02  0.50730122880E+02  0.10566000000E+00 0.  1.
        996    1    1    2    0    0 -0.32560090461E+01 -0.10271595830E+02  0.92842783062E+02  0.10599947944E+03  0.50000000000E+02 0.  0.
<mgrwt>
<rscale>  0 0.51147896E+02</rscale>
<asrwt>0</asrwt>
<pdfrwt beam="1">  1       13 0.10000000E+01 0.51147896E+02</pdfrwt>
<pdfrwt beam="2">  1       22 0.56729614E+00 0.51147896E+02</pdfrwt>
<totfact> 0.57906136E-02</totfact>
</mgrwt>
</event>
<event>
 4    1  0.2409985E+000  0.7906296E+02  0.7957747E-01  0.1331732E+00
         13   -1    0    0    0    0  0.00000000000E+00  0.00000000000E+00  0.99999944177E+02  0.99999999998E+02  0.10566000000E+00 0. -1.
         22   -1    0    0    0    0 -0.00000000000E+00 -0.00000000000E+00 -0.50816221482E+02  0.50816221482E+02  0.00000000000E+00 0.  1.
         13    1    1    2    0    0  0.16754319350E+02  0.58908782223E+02  0.82900808593E+01  0.61803628086E+02  0.10566000000E+00 0.  1.
        996    1    1    2    0    0 -0.16754319350E+02 -0.58908782223E+02  0.40893641836E+02  0.89012593393E+02  0.50000000000E+02 0.  0.
<mgrwt>
<rscale>  0 0.79062961E+02</rscale>
<asrwt>0</asrwt>
<pdfrwt beam="1">  1       13 0.10000000E+01 0.79062961E+02</pdfrwt>
<pdfrwt beam="2">  1       22 0.50816235E+00 0.79062961E+02</pdfrwt>
<totfact> 0.71093316E-02</totfact>
</mgrwt>
</event>
<event>
 4    1  0.2409985E+000  0.5218757E+02  0.7957747E-01  0.1433887E+00
         13   -1    0    0    0    0  0.00000000000E+00  0.00000000000E+00  0.99999944185E+02  0.10000000001E+03  0.10566000000E+00 0.  1.
         22   -1    0    0    0    0 -0.00000000000E+00 -0.00000000000E+00 -0.14958283204E+02  0.14958283204E+02  0.00000000000E+00 0.  1.
         13    1    1    2    0    0  0.18221077183E+01  0.14839888533E+02 -0.26544159368E+00  0.14954062708E+02  0.10566000000E+00 0. -1.
        996    1    1    2    0    0 -0.18221077183E+01 -0.14839888533E+02  0.85307102575E+02  0.10000422050E+03  0.50000000000E+02 0.  0.
<mgrwt>
<rscale>  0 0.52187569E+02</rscale>
<asrwt>0</asrwt>
<pdfrwt beam="1">  1       13 0.10000000E+01 0.52187569E+02</pdfrwt>
<pdfrwt beam="2">  1       22 0.14958307E+00 0.52187569E+02</pdfrwt>
<totfact> 0.75671193E-01</totfact>
</mgrwt>
</event>
<event>
 4    1  0.2409985E+000  0.5420938E+02  0.7957747E-01  0.1423875E+00
         13   -1    0    0    0    0  0.00000000000E+00  0.00000000000E+00  0.99999944177E+02  0.99999999997E+02  0.10566000000E+00 0. -1.
         22   -1    0    0    0    0 -0.00000000000E+00 -0.00000000000E+00 -0.20279598755E+02  0.20279598755E+02  0.00000000000E+00 0.  1.
         13    1    1    2    0    0  0.24545133108E+00 -0.20942686228E+02 -0.32245845358E+01  0.21191164722E+02  0.10566000000E+00 0.  1.
        996    1    1    2    0    0 -0.24545133108E+00  0.20942686228E+02  0.82944929958E+02  0.99088434030E+02  0.50000000000E+02 0.  0.
<mgrwt>
<rscale>  0 0.54209375E+02</rscale>
<asrwt>0</asrwt>
<pdfrwt beam="1">  1       13 0.10000000E+01 0.54209375E+02</pdfrwt>
<pdfrwt beam="2">  1       22 0.20279621E+00 0.54209375E+02</pdfrwt>
<totfact> 0.44317185E-01</totfact>
</mgrwt>
</event>
<event>
 4    1  0.2409985E+000  0.5194554E+02  0.7957747E-01  0.1435122E+00
         13   -1    0    0    0    0  0.00000000000E+00  0.00000000000E+00  0.99999944182E+02  0.10000000000E+03  0.10566000000E+00 0. -1.
         22   -1    0    0    0    0 -0.00000000000E+00 -0.00000000000E+00 -0.42651293556E+02  0.42651293556E+02  0.00000000000E+00 0.  1.
         13    1    1    2    0    0 -0.14080764101E+02  0.26729250254E+00 -0.34426035185E+02  0.37195462432E+02  0.10566000000E+00 0.  1.
        996    1    1    2    0    0  0.14080764101E+02 -0.26729250254E+00  0.91774685811E+02  0.10545583113E+03  0.50000000000E+02 0.  0.
<mgrwt>
<rscale>  0 0.51945542E+02</rscale>
<asrwt>0</asrwt>
<pdfrwt beam="1">  1       13 0.10000000E+01 0.51945542E+02</pdfrwt>
<pdfrwt beam="2">  1       22 0.42651310E+00 0.51945542E+02</pdfrwt>
<totfact> 0.10881835E-01</totfact>
</mgrwt>
</event>
<event>
 4    1  0.2409985E+000  0.5124866E+02  0.7957747E-01  0.1438721E+00
         13   -1    0    0    0    0  0.00000000000E+00  0.00000000000E+00  0.99999944175E+02  0.99999999995E+02  0.10566000000E+00 0. -1.
         22   -1    0    0    0    0 -0.00000000000E+00 -0.00000000000E+00 -0.15834271500E+02  0.15834271500E+02  0.00000000000E+00 0. -1.
         13    1    1    2    0    0  0.10530450868E+02 -0.39414735319E+01  0.56474158552E+02  0.57582700156E+02  0.10566000000E+00 0.  1.
        996    1    1    2    0    0 -0.10530450868E+02  0.39414735319E+01  0.27691514122E+02  0.58251571339E+02  0.50000000000E+02 0.  0.
<mgrwt>
<rscale>  0 0.51248664E+02</rscale>
<asrwt>0</asrwt>
<pdfrwt beam="1">  1       13 0.10000000E+01 0.51248664E+02</pdfrwt>
<pdfrwt beam="2">  1       22 0.15834295E+00 0.51248664E+02</pdfrwt>
<totfact> 0.68631009E-01</totfact>
</mgrwt>
</event>
<event>
 4    1  0.2409985E+000  0.5149743E+02  0.7957747E-01  0.1437428E+00
         13   -1    0    0    0    0  0.00000000000E+00  0.00000000000E+00  0.99999944181E+02  0.10000000000E+03  0.10566000000E+00 0.  1.
         22   -1    0    0    0    0 -0.00000000000E+00 -0.00000000000E+00 -0.27622099568E+02  0.27622099568E+02  0.00000000000E+00 0. -1.
         13    1    1    2    0    0 -0.78521263626E+01  0.95041659276E+01 -0.19048384842E+02  0.22690023964E+02  0.10566000000E+00 0. -1.
        996    1    1    2    0    0  0.78521263626E+01 -0.95041659276E+01  0.91426229455E+02  0.10493207561E+03  0.50000000000E+02 0.  0.
<mgrwt>
<rscale>  0 0.51497428E+02</rscale>
<asrwt>0</asrwt>
<pdfrwt beam="1">  1       13 0.10000000E+01 0.51497428E+02</pdfrwt>
<pdfrwt beam="2">  1       22 0.27622120E+00 0.51497428E+02</pdfrwt>
<totfact> 0.24223790E-01</totfact>
</mgrwt>
</event>
<event>
 4    1  0.2409985E+000  0.5221697E+02  0.7957747E-01  0.1433738E+00
         13   -1    0    0    0    0  0.00000000000E+00  0.00000000000E+00  0.99999944185E+02  0.10000000000E+03  0.10566000000E+00 0.  1.
         22   -1    0    0    0    0 -0.00000000000E+00 -0.00000000000E+00 -0.44027911125E+02  0.44027911125E+02  0.00000000000E+00 0. -1.
         13    1    1    2    0    0 -0.15004782027E+02 -0.12116875106E+01 -0.35578841487E+02  0.38632587228E+02  0.10566000000E+00 0. -1.
        996    1    1    2    0    0  0.15004782027E+02  0.12116875106E+01  0.91550874546E+02  0.10539532390E+03  0.50000000000E+02 0.  0.
<mgrwt>
<rscale>  0 0.52216967E+02</rscale>
<asrwt>0</asrwt>
<pdfrwt beam="1">  1       13 0.10000000E+01 0.52216967E+02</pdfrwt>
<pdfrwt beam="2">  1       22 0.44027927E+00 0.52216967E+02</pdfrwt>
<totfact> 0.10158475E-01</totfact>
</mgrwt>
</event>
<event>
 4    1  0.2409985E+000  0.5381286E+02  0.7957747E-01  0.1425798E+00
         13   -1    0    0    0    0  0.00000000000E+00  0.00000000000E+00  0.99999944181E+02  0.10000000000E+03  0.10566000000E+00 0.  1.
         22   -1    0    0    0    0 -0.00000000000E+00 -0.00000000000E+00 -0.33649638012E+02  0.33649638012E+02  0.00000000000E+00 0. -1.
         13    1    1    2    0    0  0.11006980077E+02 -0.16573171271E+02 -0.22337201875E+02  0.29912963210E+02  0.10566000000E+00 0. -1.
        996    1    1    2    0    0 -0.11006980077E+02  0.16573171271E+02  0.88687508043E+02  0.10373667480E+03  0.50000000000E+02 0.  0.
<mgrwt>
<rscale>  0 0.53812857E+02</rscale>
<asrwt>0</asrwt>
<pdfrwt beam="1">  1       13 0.10000000E+01 0.53812857E+02</pdfrwt>
<pdfrwt beam="2">  1       22 0.33649657E+00 0.53812857E+02</pdfrwt>
<totfact> 0.16865415E-01</totfact>
</mgrwt>
</event>
<event>
 4    1  0.2409985E+000  0.5101122E+02  0.7957747E-01  0.1439962E+00
         13   -1    0    0    0    0  0.00000000000E+00  0.00000000000E+00  0.99999944175E+02  0.99999999996E+02  0.10566000000E+00 0.  1.
         22   -1    0    0    0    0 -0.00000000000E+00 -0.00000000000E+00 -0.95446876993E+01  0.95446876993E+01  0.00000000000E+00 0.  1.
         13    1    1    2    0    0 -0.48522586623E+01  0.88656840961E+01  0.95803508102E+01  0.13926200282E+02  0.10566000000E+00 0. -1.
        996    1    1    2    0    0  0.48522586623E+01 -0.88656840961E+01  0.80874905666E+02  0.95618487413E+02  0.50000000000E+02 0.  0.
<mgrwt>
<rscale>  0 0.51011222E+02</rscale>
<asrwt>0</asrwt>
<pdfrwt beam="1">  1       13 0.10000000E+01 0.51011222E+02</pdfrwt>
<pdfrwt beam="2">  1       22 0.95447129E-01 0.51011222E+02</pdfrwt>
<totfact> 0.15039602E+00</totfact>
</mgrwt>
</event>
<event>
 4    1  0.2409985E+000  0.5980822E+02  0.7957747E-01  0.1398638E+00
         13   -1    0    0    0    0  0.00000000000E+00  0.00000000000E+00  0.99999944183E+02  0.10000000000E+03  0.10566000000E+00 0.  1.
         22   -1    0    0    0    0 -0.00000000000E+00 -0.00000000000E+00 -0.21548320170E+02  0.21548320170E+02  0.00000000000E+00 0.  1.
         13    1    1    2    0    0 -0.12542199102E+02  0.30326821671E+02  0.23902958745E+02  0.40600313691E+02  0.10566000000E+00 0. -1.
        996    1    1    2    0    0  0.12542199102E+02 -0.30326821671E+02  0.54548665267E+02  0.80948006482E+02  0.50000000000E+02 0.  0.
<mgrwt>
<rscale>  0 0.59808217E+02</rscale>
<asrwt>0</asrwt>
<pdfrwt beam="1">  1       13 0.10000000E+01 0.59808217E+02</pdfrwt>
<pdfrwt beam="2">  1       22 0.21548342E+00 0.59808217E+02</pdfrwt>
<totfact> 0.39849782E-01</totfact>
</mgrwt>
</event>
<event>
 4    1  0.2409985E+000  0.5130277E+02  0.7957747E-01  0.1438439E+00
         13   -1    0    0    0    0  0.00000000000E+00  0.00000000000E+00  0.99999944178E+02  0.99999999998E+02  0.10566000000E+00 0. -1.
         22   -1    0    0    0    0 -0.00000000000E+00 -0.00000000000E+00 -0.29161763219E+02  0.29161763219E+02  0.00000000000E+00 0.  1.
         13    1    1    2    0    0 -0.67059936574E+01  0.93275841924E+01 -0.21016294143E+02  0.23951408337E+02  0.10566000000E+00 0.  1.
        996    1    1    2    0    0  0.67059936574E+01 -0.93275841924E+01  0.91854475102E+02  0.10521035488E+03  0.50000000000E+02 0.  0.
<mgrwt>
<rscale>  0 0.51302770E+02</rscale>
<asrwt>0</asrwt>
<pdfrwt beam="1">  1       13 0.10000000E+01 0.51302770E+02</pdfrwt>
<pdfrwt beam="2">  1       22 0.29161783E+00 0.51302770E+02</pdfrwt>
<totfact> 0.21818527E-01</totfact>
</mgrwt>
</event>
<event>
 4    1  0.2409985E+000  0.5270357E+02  0.7957747E-01  0.1431282E+00
         13   -1    0    0    0    0  0.00000000000E+00  0.00000000000E+00  0.99999944177E+02  0.99999999998E+02  0.10566000000E+00 0.  1.
         22   -1    0    0    0    0 -0.00000000000E+00 -0.00000000000E+00 -0.24470947139E+02  0.24470947139E+02  0.00000000000E+00 0. -1.
         13    1    1    2    0    0  0.13861205857E+02  0.92484318855E+01 -0.13207647705E+02  0.21263105184E+02  0.10566000000E+00 0. -1.
        996    1    1    2    0    0 -0.13861205857E+02 -0.92484318855E+01  0.88736644744E+02  0.10320784195E+03  0.50000000000E+02 0.  0.
<mgrwt>
<rscale>  0 0.52703572E+02</rscale>
<asrwt>0</asrwt>
<pdfrwt beam="1">  1       13 0.10000000E+01 0.52703572E+02</pdfrwt>
<pdfrwt beam="2">  1       22 0.24470968E+00 0.52703572E+02</pdfrwt>
<totfact> 0.30779394E-01</totfact>
</mgrwt>
</event>
<event>
 4    1  0.2409985E+000  0.5230887E+02  0.7957747E-01  0.1433272E+00
         13   -1    0    0    0    0  0.00000000000E+00  0.00000000000E+00  0.99999944180E+02  0.10000000000E+03  0.10566000000E+00 0.  1.
         22   -1    0    0    0    0 -0.00000000000E+00 -0.00000000000E+00 -0.29629243441E+02  0.29629243441E+02  0.00000000000E+00 0. -1.
         13    1    1    2    0    0 -0.11716534403E+02  0.99468877595E+01 -0.19992669675E+02  0.25217766739E+02  0.10566000000E+00 0. -1.
        996    1    1    2    0    0  0.11716534403E+02 -0.99468877595E+01  0.90363370414E+02  0.10441147670E+03  0.50000000000E+02 0.  0.
<mgrwt>
<rscale>  0 0.52308869E+02</rscale>
<asrwt>0</asrwt>
<pdfrwt beam="1">  1       13 0.10000000E+01 0.52308869E+02</pdfrwt>
<pdfrwt beam="2">  1       22 0.29629263E+00 0.52308869E+02</pdfrwt>
<totfact> 0.21200798E-01</totfact>
</mgrwt>
</event>
<event>
 4    1  0.2409985E+000  0.5364538E+02  0.7957747E-01  0.1426616E+00
         13   -1    0    0    0    0  0.00000000000E+00  0.00000000000E+00  0.99999944181E+02  0.10000000000E+03  0.10566000000E+00 0. -1.
         22   -1    0    0    0    0 -0.00000000000E+00 -0.00000000000E+00 -0.14882958760E+02  0.14882958760E+02  0.00000000000E+00 0. -1.
         13    1    1    2    0    0 -0.13064920325E+02  0.14392178264E+02  0.81780318438E+01  0.21088345292E+02  0.10566000000E+00 0.  1.
        996    1    1    2    0    0  0.13064920325E+02 -0.14392178264E+02  0.76938953578E+02  0.93794613470E+02  0.50000000000E+02 0.  0.
<mgrwt>
<rscale>  0 0.53645381E+02</rscale>
<asrwt>0</asrwt>
<pdfrwt beam="1">  1       13 0.10000000E+01 0.53645381E+02</pdfrwt>
<pdfrwt beam="2">  1       22 0.14882983E+00 0.53645381E+02</pdfrwt>
<totfact> 0.76532824E-01</totfact>
</mgrwt>
</event>
<event>
 4    1  0.2409985E+000  0.5296663E+02  0.7957747E-01  0.1429967E+00
         13   -1    0    0    0    0  0.00000000000E+00  0.00000000000E+00  0.99999944182E+02  0.10000000000E+03  0.10566000000E+00 0.  1.
         22   -1    0    0    0    0 -0.00000000000E+00 -0.00000000000E+00 -0.13880209919E+02  0.13880209919E+02  0.00000000000E+00 0. -1.
         13    1    1    2    0    0  0.16528339982E+02  0.56813220504E+01  0.73543593058E+01  0.18962099241E+02  0.10566000000E+00 0. -1.
        996    1    1    2    0    0 -0.16528339982E+02 -0.56813220504E+01  0.78765374958E+02  0.94918110680E+02  0.50000000000E+02 0.  0.
<mgrwt>
<rscale>  0 0.52966626E+02</rscale>
<asrwt>0</asrwt>
<pdfrwt beam="1">  1       13 0.10000000E+01 0.52966626E+02</pdfrwt>
<pdfrwt beam="2">  1       22 0.13880234E+00 0.52966626E+02</pdfrwt>
<totfact> 0.85681048E-01</totfact>
</mgrwt>
</event>
<event>
 4    1  0.2409985E+000  0.5460512E+02  0.7957747E-01  0.1421976E+00
         13   -1    0    0    0    0  0.00000000000E+00  0.00000000000E+00  0.99999944180E+02  0.10000000000E+03  0.10566000000E+00 0. -1.
         22   -1    0    0    0    0 -0.00000000000E+00 -0.00000000000E+00 -0.30330755189E+02  0.30330755189E+02  0.00000000000E+00 0.  1.
         13    1    1    2    0    0  0.16613910684E+01 -0.21885130933E+02 -0.17090488255E+02  0.27817532764E+02  0.10566000000E+00 0.  1.
        996    1    1    2    0    0 -0.16613910684E+01  0.21885130933E+02  0.86759677245E+02  0.10251322243E+03  0.50000000000E+02 0.  0.
<mgrwt>
<rscale>  0 0.54605120E+02</rscale>
<asrwt>0</asrwt>
<pdfrwt beam="1">  1       13 0.10000000E+01 0.54605120E+02</pdfrwt>
<pdfrwt beam="2">  1       22 0.30330775E+00 0.54605120E+02</pdfrwt>
<totfact> 0.20351744E-01</totfact>
</mgrwt>
</event>
<event>
 4    1  0.2409985E+000  0.5267231E+02  0.7957747E-01  0.1431439E+00
         13   -1    0    0    0    0  0.00000000000E+00  0.00000000000E+00  0.99999944189E+02  0.10000000001E+03  0.10566000000E+00 0.  1.
         22   -1    0    0    0    0 -0.00000000000E+00 -0.00000000000E+00 -0.41696249679E+02  0.41696249679E+02  0.00000000000E+00 0. -1.
         13    1    1    2    0    0 -0.31771218319E+01 -0.16256632726E+02 -0.32638753975E+02  0.36601525048E+02  0.10566000000E+00 0. -1.
        996    1    1    2    0    0  0.31771218319E+01  0.16256632726E+02  0.90942448485E+02  0.10509472464E+03  0.50000000000E+02 0.  0.
<mgrwt>
<rscale>  0 0.52672310E+02</rscale>
<asrwt>0</asrwt>
<pdfrwt beam="1">  1       13 0.10000000E+01 0.52672310E+02</pdfrwt>
<pdfrwt beam="2">  1       22 0.41696266E+00 0.52672310E+02</pdfrwt>
<totfact> 0.11407982E-01</totfact>
</mgrwt>
</event>
<event>
 4    1  0.2409985E+000  0.5154755E+02  0.7957747E-01  0.1437169E+00
         13   -1    0    0    0    0  0.00000000000E+00  0.00000000000E+00  0.99999944172E+02  0.99999999992E+02  0.10566000000E+00 0.  1.
         22   -1    0    0    0    0 -0.00000000000E+00 -0.00000000000E+00 -0.42945807708E+02  0.42945807708E+02  0.00000000000E+00 0. -1.
         13    1    1    2    0    0 -0.11702724247E+02  0.44939716464E+01 -0.35145669371E+02  0.37314591992E+02  0.10566000000E+00 0. -1.
        996    1    1    2    0    0  0.11702724247E+02 -0.44939716464E+01  0.92199805835E+02  0.10563121571E+03  0.50000000000E+02 0.  0.
<mgrwt>
<rscale>  0 0.51547546E+02</rscale>
<asrwt>0</asrwt>
<pdfrwt beam="1">  1       13 0.10000000E+01 0.51547546E+02</pdfrwt>
<pdfrwt beam="2">  1       22 0.42945824E+00 0.51547546E+02</pdfrwt>
<totfact> 0.10721580E-01</totfact>
</mgrwt>
</event>
<event>
 4    1  0.2409985E+000  0.5451605E+02  0.7957747E-01  0.1422401E+00
         13   -1    0    0    0    0  0.00000000000E+00  0.00000000000E+00  0.99999944186E+02  0.10000000001E+03  0.10566000000E+00 0. -1.
         22   -1    0    0    0    0 -0.00000000000E+00 -0.00000000000E+00 -0.20350965319E+02  0.20350965319E+02  0.00000000000E+00 0.  1.
         13    1    1    2    0    0  0.14055848014E+02  0.16565998599E+02 -0.23829683717E+01  0.21856094694E+02  0.10566000000E+00 0.  1.
        996    1    1    2    0    0 -0.14055848014E+02 -0.16565998599E+02  0.82031947238E+02  0.98494870631E+02  0.50000000000E+02 0.  0.
<mgrwt>
<rscale>  0 0.54516045E+02</rscale>
<asrwt>0</asrwt>
<pdfrwt beam="1">  1       13 0.10000000E+01 0.54516045E+02</pdfrwt>
<pdfrwt beam="2">  1       22 0.20350988E+00 0.54516045E+02</pdfrwt>
<totfact> 0.44048748E-01</totfact>
</mgrwt>
</event>
<event>
 4    1  0.2409985E+000  0.5240793E+02  0.7957747E-01  0.1432770E+00
         13   -1    0    0    0    0  0.00000000000E+00  0.00000000000E+00  0.99999944176E+02  0.99999999996E+02  0.10566000000E+00 0. -1.
         22   -1    0    0    0    0 -0.00000000000E+00 -0.00000000000E+00 -0.21596494613E+02  0.21596494613E+02  0.00000000000E+00 0.  1.
         13    1    1    2    0    0 -0.68295214407E+01 -0.14140332756E+02 -0.10149104183E+02  0.18697776695E+02  0.10566000000E+00 0.  1.
        996    1    1    2    0    0  0.68295214407E+01  0.14140332756E+02  0.88552553746E+02  0.10289871791E+03  0.50000000000E+02 0.  0.
<mgrwt>
<rscale>  0 0.52407932E+02</rscale>
<asrwt>0</asrwt>
<pdfrwt beam="1">  1       13 0.10000000E+01 0.52407932E+02</pdfrwt>
<pdfrwt beam="2">  1       22 0.21596517E+00 0.52407932E+02</pdfrwt>
<totfact> 0.39215142E-01</totfact>
</mgrwt>
</event>
<event>
 4    1  0.2409985E+000  0.5748140E+02  0.7957747E-01  0.1408716E+00
         13   -1    0    0    0    0  0.00000000000E+00  0.00000000000E+00  0.99999944177E+02  0.99999999997E+02  0.10566000000E+00 0. -1.
         22   -1    0    0    0    0 -0.00000000000E+00 -0.00000000000E+00 -0.26177119722E+02  0.26177119722E+02  0.00000000000E+00 0.  1.
         13    1    1    2    0    0 -0.60559148882E+01 -0.27702655946E+02 -0.48229188608E+01  0.28764265365E+02  0.10566000000E+00 0.  1.
        996    1    1    2    0    0  0.60559148882E+01  0.27702655946E+02  0.78645743316E+02  0.97412854354E+02  0.50000000000E+02 0.  0.
<mgrwt>
<rscale>  0 0.57481399E+02</rscale>
<asrwt>0</asrwt>
<pdfrwt beam="1">  1       13 0.10000000E+01 0.57481399E+02</pdfrwt>
<pdfrwt beam="2">  1       22 0.26177140E+00 0.57481399E+02</pdfrwt>
<totfact> 0.27140661E-01</totfact>
</mgrwt>
</event>
<event>
 4    1  0.2409985E+000  0.5104594E+02  0.7957747E-01  0.1439780E+00
         13   -1    0    0    0    0  0.00000000000E+00  0.00000000000E+00  0.99999944184E+02  0.10000000000E+03  0.10566000000E+00 0.  1.
         22   -1    0    0    0    0 -0.00000000000E+00 -0.00000000000E+00 -0.10238096702E+02  0.10238096702E+02  0.00000000000E+00 0.  1.
         13    1    1    2    0    0 -0.82806580650E+01 -0.60925509237E+01  0.53442249273E+01  0.11587078098E+02  0.10566000000E+00 0. -1.
        996    1    1    2    0    0  0.82806580650E+01  0.60925509237E+01  0.84417622554E+02  0.98651018608E+02  0.50000000000E+02 0.  0.
<mgrwt>
<rscale>  0 0.51045945E+02</rscale>
<asrwt>0</asrwt>
<pdfrwt beam="1">  1       13 0.10000000E+01 0.51045945E+02</pdfrwt>
<pdfrwt beam="2">  1       22 0.10238122E+00 0.51045945E+02</pdfrwt>
<totfact> 0.13592747E+00</totfact>
</mgrwt>
</event>
<event>
 4    1  0.2409985E+000  0.5265040E+02  0.7957747E-01  0.1431549E+00
         13   -1    0    0    0    0  0.00000000000E+00  0.00000000000E+00  0.99999944176E+02  0.99999999996E+02  0.10566000000E+00 0.  1.
         22   -1    0    0    0    0 -0.00000000000E+00 -0.00000000000E+00 -0.38921979187E+02  0.38921979187E+02  0.00000000000E+00 0. -1.
         13    1    1    2    0    0 -0.16492574530E+02 -0.24496104267E+00 -0.29704327499E+02  0.33976804687E+02  0.10566000000E+00 0. -1.
        996    1    1    2    0    0  0.16492574530E+02  0.24496104267E+00  0.90782292488E+02  0.10494517450E+03  0.50000000000E+02 0.  0.
<mgrwt>
<rscale>  0 0.52650404E+02</rscale>
<asrwt>0</asrwt>
<pdfrwt beam="1">  1       13 0.10000000E+01 0.52650404E+02</pdfrwt>
<pdfrwt beam="2">  1       22 0.38921996E+00 0.52650404E+02</pdfrwt>
<totfact> 0.13021887E-01</totfact>
</mgrwt>
</event>
<event>
 4    1  0.2409985E+000  0.5190417E+02  0.7957747E-01  0.1435333E+00
         13   -1    0    0    0    0  0.00000000000E+00  0.00000000000E+00  0.99999944183E+02  0.10000000000E+03  0.10566000000E+00 0.  1.
         22   -1    0    0    0    0 -0.00000000000E+00 -0.00000000000E+00 -0.17438444453E+02  0.17438444453E+02  0.00000000000E+00 0. -1.
         13    1    1    2    0    0  0.10981898055E+02 -0.85697589672E+01 -0.56959689396E+01  0.15049853150E+02  0.10566000000E+00 0. -1.
        996    1    1    2    0    0 -0.10981898055E+02  0.85697589672E+01  0.88257468670E+02  0.10238859131E+03  0.50000000000E+02 0.  0.
<mgrwt>
<rscale>  0 0.51904170E+02</rscale>
<asrwt>0</asrwt>
<pdfrwt beam="1">  1       13 0.10000000E+01 0.51904170E+02</pdfrwt>
<pdfrwt beam="2">  1       22 0.17438468E+00 0.51904170E+02</pdfrwt>
<totfact> 0.58121308E-01</totfact>
</mgrwt>
</event>
<event>
 4    1  0.2409985E+000  0.5288032E+02  0.7957747E-01  0.1430397E+00
         13   -1    0    0    0    0  0.00000000000E+00  0.00000000000E+00  0.99999944180E+02  0.10000000000E+03  0.10566000000E+00 0.  1.
         22   -1    0    0    0    0 -0.00000000000E+00 -0.00000000000E+00 -0.13447511094E+02  0.13447511094E+02  0.00000000000E+00 0. -1.
         13    1    1    2    0    0 -0.99053946133E+01  0.14078748445E+02  0.85784115772E+01  0.19233520464E+02  0.10566000000E+00 0. -1.
        996    1    1    2    0    0  0.99053946133E+01 -0.14078748445E+02  0.77974021509E+02  0.94213990630E+02  0.50000000000E+02 0.  0.
<mgrwt>
<rscale>  0 0.52880318E+02</rscale>
<asrwt>0</asrwt>
<pdfrwt beam="1">  1       13 0.10000000E+01 0.52880318E+02</pdfrwt>
<pdfrwt beam="2">  1       22 0.13447535E+00 0.52880318E+02</pdfrwt>
<totfact> 0.90135380E-01</totfact>
</mgrwt>
</event>
<event>
 4    1  0.2409985E+000  0.5246500E+02  0.7957747E-01  0.1432482E+00
         13   -1    0    0    0    0  0.00000000000E+00  0.00000000000E+00  0.99999944181E+02  0.10000000000E+03  0.10566000000E+00 0.  1.
         22   -1    0    0    0    0 -0.00000000000E+00 -0.00000000000E+00 -0.21294290911E+02  0.21294290911E+02  0.00000000000E+00 0. -1.
         13    1    1    2    0    0 -0.12512397720E+02  0.97987836258E+01 -0.96083235766E+01  0.18571680141E+02  0.10566000000E+00 0. -1.
        996    1    1    2    0    0  0.12512397720E+02 -0.97987836258E+01  0.88313976847E+02  0.10272261077E+03  0.50000000000E+02 0.  0.
<mgrwt>
<rscale>  0 0.52465000E+02</rscale>
<asrwt>0</asrwt>
<pdfrwt beam="1">  1       13 0.10000000E+01 0.52465000E+02</pdfrwt>
<pdfrwt beam="2">  1       22 0.21294313E+00 0.52465000E+02</pdfrwt>
<totfact> 0.40288309E-01</totfact>
</mgrwt>
</event>
<event>
 4    1  0.2409985E+000  0.5237495E+02  0.7957747E-01  0.1432937E+00
         13   -1    0    0    0    0  0.00000000000E+00  0.00000000000E+00  0.99999944179E+02  0.99999999999E+02  0.10566000000E+00 0.  1.
         22   -1    0    0    0    0 -0.00000000000E+00 -0.00000000000E+00 -0.11550300294E+02  0.11550300294E+02  0.00000000000E+00 0.  1.
         13    1    1    2    0    0  0.12767133769E+02  0.89518619559E+01  0.20765245888E+02  0.25968098467E+02  0.10566000000E+00 0. -1.
        996    1    1    2    0    0 -0.12767133769E+02 -0.89518619559E+01  0.67684397997E+02  0.85582201826E+02  0.50000000000E+02 0.  0.
<mgrwt>
<rscale>  0 0.52374951E+02</rscale>
<asrwt>0</asrwt>
<pdfrwt beam="1">  1       13 0.10000000E+01 0.52374951E+02</pdfrwt>
<pdfrwt beam="2">  1       22 0.11550325E+00 0.52374951E+02</pdfrwt>
<totfact> 0.11401945E+00</totfact>
</mgrwt>
</event>
<event>
 4    1  0.2409985E+000  0.5101956E+02  0.7957747E-01  0.1439919E+00
         13   -1    0    0    0    0  0.00000000000E+00  0.00000000000E+00  0.99999944177E+02  0.99999999997E+02  0.10566000000E+00 0. -1.
         22   -1    0    0    0    0 -0.00000000000E+00 -0.00000000000E+00 -0.24996256850E+02  0.24996256850E+02  0.00000000000E+00 0.  1.
         13    1    1    2    0    0  0.11764067638E+01 -0.10080264209E+02 -0.16996584632E+02  0.19796229757E+02  0.10566000000E+00 0.  1.
        996    1    1    2    0    0 -0.11764067638E+01  0.10080264209E+02  0.92000271959E+02  0.10520002709E+03  0.50000000000E+02 0.  0.
<mgrwt>
<rscale>  0 0.51019562E+02</rscale>
<asrwt>0</asrwt>
<pdfrwt beam="1">  1       13 0.10000000E+01 0.51019562E+02</pdfrwt>
<pdfrwt beam="2">  1       22 0.24996278E+00 0.51019562E+02</pdfrwt>
<totfact> 0.29442193E-01</totfact>
</mgrwt>
</event>
<event>
 4    1  0.2409985E+000  0.7254409E+02  0.7957747E-01  0.1351649E+00
         13   -1    0    0    0    0  0.00000000000E+00  0.00000000000E+00  0.99999944179E+02  0.10000000000E+03  0.10566000000E+00 0.  1.
         22   -1    0    0    0    0 -0.00000000000E+00 -0.00000000000E+00 -0.62892066674E+02  0.62892066674E+02  0.00000000000E+00 0. -1.
         13    1    1    2    0    0 -0.51199799513E+02 -0.11883842131E+02 -0.32955532038E+02  0.62038080482E+02  0.10566000000E+00 0. -1.
        996    1    1    2    0    0  0.51199799513E+02  0.11883842131E+02  0.70063409543E+02  0.10085398619E+03  0.50000000000E+02 0.  0.
<mgrwt>
<rscale>  0 0.72544091E+02</rscale>
<asrwt>0</asrwt>
<pdfrwt beam="1">  1       13 0.10000000E+01 0.72544091E+02</pdfrwt>
<pdfrwt beam="2">  1       22 0.62892077E+00 0.72544091E+02</pdfrwt>
<totfact> 0.78175119E-02</totfact>
</mgrwt>
</event>
<event>
 4    1  0.2409985E+000  0.5127428E+02  0.7957747E-01  0.1438587E+00
         13   -1    0    0    0    0  0.00000000000E+00  0.00000000000E+00  0.99999944174E+02  0.99999999994E+02  0.10566000000E+00 0.  1.
         22   -1    0    0    0    0 -0.00000000000E+00 -0.00000000000E+00 -0.25109027819E+02  0.25109027819E+02  0.00000000000E+00 0. -1.
         13    1    1    2    0    0 -0.10557400733E+02  0.41943578314E+01 -0.16667502327E+02  0.20170972850E+02  0.10566000000E+00 0. -1.
        996    1    1    2    0    0  0.10557400733E+02 -0.41943578314E+01  0.91558418682E+02  0.10493805496E+03  0.50000000000E+02 0.  0.
<mgrwt>
<rscale>  0 0.51274276E+02</rscale>
<asrwt>0</asrwt>
<pdfrwt beam="1">  1       13 0.10000000E+01 0.51274276E+02</pdfrwt>
<pdfrwt beam="2">  1       22 0.25109049E+00 0.51274276E+02</pdfrwt>
<totfact> 0.29194593E-01</totfact>
</mgrwt>
</event>
<event>
 4    1  0.2409985E+000  0.5168489E+02  0.7957747E-01  0.1436460E+00
         13   -1    0    0    0    0  0.00000000000E+00  0.00000000000E+00  0.99999944173E+02  0.99999999993E+02  0.10566000000E+00 0. -1.
         22   -1    0    0    0    0 -0.00000000000E+00 -0.00000000000E+00 -0.13671935400E+02  0.13671935400E+02  0.00000000000E+00 0.  1.
         13    1    1    2    0    0  0.13042373096E+02  0.11063724501E+01  0.40945055111E-01  0.13089705746E+02  0.10566000000E+00 0.  1.
        996    1    1    2    0    0 -0.13042373096E+02 -0.11063724501E+01  0.86287063717E+02  0.10058222965E+03  0.50000000000E+02 0.  0.
<mgrwt>
<rscale>  0 0.51684887E+02</rscale>
<asrwt>0</asrwt>
<pdfrwt beam="1">  1       13 0.10000000E+01 0.51684887E+02</pdfrwt>
<pdfrwt beam="2">  1       22 0.13671960E+00 0.51684887E+02</pdfrwt>
<totfact> 0.87557161E-01</totfact>
</mgrwt>
</event>
<event>
 4    1  0.2409985E+000  0.5859555E+02  0.7957747E-01  0.1403822E+00
         13   -1    0    0    0    0  0.00000000000E+00  0.00000000000E+00  0.99999944174E+02  0.99999999994E+02  0.10566000000E+00 0.  1.
         22   -1    0    0    0    0 -0.00000000000E+00 -0.00000000000E+00 -0.58057368639E+02  0.58057368639E+02  0.00000000000E+00 0. -1.
         13    1    1    2    0    0 -0.17038275683E+02  0.25360119094E+02 -0.44286844133E+02  0.53803105914E+02  0.10566000000E+00 0. -1.
        996    1    1    2    0    0  0.17038275683E+02 -0.25360119094E+02  0.86229419668E+02  0.10425426272E+03  0.50000000000E+02 0.  0.
<mgrwt>
<rscale>  0 0.58595550E+02</rscale>
<asrwt>0</asrwt>
<pdfrwt beam="1">  1       13 0.10000000E+01 0.58595550E+02</pdfrwt>
<pdfrwt beam="2">  1       22 0.58057380E+00 0.58595550E+02</pdfrwt>
<totfact> 0.58462431E-02</totfact>
</mgrwt>
</event>
<event>
 4    1  0.2409985E+000  0.5159867E+02  0.7957747E-01  0.1436905E+00
         13   -1    0    0    0    0  0.00000000000E+00  0.00000000000E+00  0.99999944181E+02  0.10000000000E+03  0.10566000000E+00 0. -1.
         22   -1    0    0    0    0 -0.00000000000E+00 -0.00000000000E+00 -0.12854861664E+02  0.12854861664E+02  0.00000000000E+00 0.  1.
         13    1    1    2    0    0  0.12294683567E+02  0.33560662335E+01  0.14535558912E+01  0.12827564591E+02  0.10566000000E+00 0.  1.
        996    1    1    2    0    0 -0.12294683567E+02 -0.33560662335E+01  0.85691526626E+02  0.10002729707E+03  0.50000000000E+02 0.  0.
<mgrwt>
<rscale>  0 0.51598667E+02</rscale>
<asrwt>0</asrwt>
<pdfrwt beam="1">  1       13 0.10000000E+01 0.51598667E+02</pdfrwt>
<pdfrwt beam="2">  1       22 0.12854886E+00 0.51598667E+02</pdfrwt>
<totfact> 0.96532381E-01</totfact>
</mgrwt>
</event>
<event>
 4    1  0.2409985E+000  0.5121772E+02  0.7957747E-01  0.1438882E+00
         13   -1    0    0    0    0  0.00000000000E+00  0.00000000000E+00  0.99999944179E+02  0.99999999999E+02  0.10566000000E+00 0. -1.
         22   -1    0    0    0    0 -0.00000000000E+00 -0.00000000000E+00 -0.10319422239E+02  0.10319422239E+02  0.00000000000E+00 0.  1.
         13    1    1    2    0    0  0.25920839533E+01 -0.10795179655E+02  0.72079565672E+01  0.13237092011E+02  0.10566000000E+00 0.  1.
        996    1    1    2    0    0 -0.25920839533E+01  0.10795179655E+02  0.82472565373E+02  0.97082330226E+02  0.50000000000E+02 0.  0.
<mgrwt>
<rscale>  0 0.51217720E+02</rscale>
<asrwt>0</asrwt>
<pdfrwt beam="1">  1       13 0.10000000E+01 0.51217720E+02</pdfrwt>
<pdfrwt beam="2">  1       22 0.10319447E+00 0.51217720E+02</pdfrwt>
<totfact> 0.13442345E+00</totfact>
</mgrwt>
</event>
<event>
 4    1  0.2409985E+000  0.5173185E+02  0.7957747E-01  0.1436218E+00
         13   -1    0    0    0    0  0.00000000000E+00  0.00000000000E+00  0.99999944180E+02  0.10000000000E+03  0.10566000000E+00 0.  1.
         22   -1    0    0    0    0 -0.00000000000E+00 -0.00000000000E+00 -0.11692683523E+02  0.11692683523E+02  0.00000000000E+00 0.  1.
         13    1    1    2    0    0  0.12943020642E+02 -0.29432447104E+01  0.62072082199E+01  0.14653500288E+02  0.10566000000E+00 0. -1.
        996    1    1    2    0    0 -0.12943020642E+02  0.29432447104E+01  0.82100052437E+02  0.97039183235E+02  0.50000000000E+02 0.  0.
<mgrwt>
<rscale>  0 0.51731852E+02</rscale>
<asrwt>0</asrwt>
<pdfrwt beam="1">  1       13 0.10000000E+01 0.51731852E+02</pdfrwt>
<pdfrwt beam="2">  1       22 0.11692708E+00 0.51731852E+02</pdfrwt>
<totfact> 0.11176186E+00</totfact>
</mgrwt>
</event>
<event>
 4    1  0.2409985E+000  0.5100484E+02  0.7957747E-01  0.1439996E+00
         13   -1    0    0    0    0  0.00000000000E+00  0.00000000000E+00  0.99999944176E+02  0.99999999996E+02  0.10566000000E+00 0.  1.
         22   -1    0    0    0    0 -0.00000000000E+00 -0.00000000000E+00 -0.14078991041E+02  0.14078991041E+02  0.00000000000E+00 0.  1.
         13    1    1    2    0    0 -0.67605630799E+01  0.74691642460E+01 -0.38863730027E+01  0.10798550219E+02  0.10566000000E+00 0. -1.
        996    1    1    2    0    0  0.67605630799E+01 -0.74691642460E+01  0.89807326137E+02  0.10328044082E+03  0.50000000000E+02 0.  0.
<mgrwt>
<rscale>  0 0.51004839E+02</rscale>
<asrwt>0</asrwt>
<pdfrwt beam="1">  1       13 0.10000000E+01 0.51004839E+02</pdfrwt>
<pdfrwt beam="2">  1       22 0.14079015E+00 0.51004839E+02</pdfrwt>
<totfact> 0.83385334E-01</totfact>
</mgrwt>
</event>
<event>
 4    1  0.2409985E+000  0.5179388E+02  0.7957747E-01  0.1435899E+00
         13   -1    0    0    0    0  0.00000000000E+00  0.00000000000E+00  0.99999944185E+02  0.10000000001E+03  0.10566000000E+00 0. -1.
         22   -1    0    0    0    0 -0.00000000000E+00 -0.00000000000E+00 -0.13198172373E+02  0.13198172373E+02  0.00000000000E+00 0. -1.
         13    1    1    2    0    0 -0.13364551591E+02 -0.19987602326E+01  0.43933992438E+02  0.45965347135E+02  0.10566000000E+00 0.  1.
        996    1    1    2    0    0  0.13364551591E+02  0.19987602326E+01  0.42867779374E+02  0.67232825243E+02  0.50000000000E+02 0.  0.
<mgrwt>
<rscale>  0 0.51793883E+02</rscale>
<asrwt>0</asrwt>
<pdfrwt beam="1">  1       13 0.10000000E+01 0.51793883E+02</pdfrwt>
<pdfrwt beam="2">  1       22 0.13198197E+00 0.51793883E+02</pdfrwt>
<totfact> 0.92643257E-01</totfact>
</mgrwt>
</event>
<event>
 4    1  0.2409985E+000  0.5138318E+02  0.7957747E-01  0.1438021E+00
         13   -1    0    0    0    0  0.00000000000E+00  0.00000000000E+00  0.99999944181E+02  0.10000000000E+03  0.10566000000E+00 0. -1.
         22   -1    0    0    0    0 -0.00000000000E+00 -0.00000000000E+00 -0.69780678886E+02  0.69780678886E+02  0.00000000000E+00 0.  1.
         13    1    1    2    0    0  0.58977975933E+01  0.10268735416E+02 -0.62588019442E+02  0.63698526554E+02  0.10566000000E+00 0.  1.
        996    1    1    2    0    0 -0.58977975933E+01 -0.10268735416E+02  0.92807284737E+02  0.10608215233E+03  0.50000000000E+02 0.  0.
<mgrwt>
<rscale>  0 0.51383178E+02</rscale>
<asrwt>0</asrwt>
<pdfrwt beam="1">  1       13 0.10000000E+01 0.51383178E+02</pdfrwt>
<pdfrwt beam="2">  1       22 0.69780687E+00 0.51383178E+02</pdfrwt>
<totfact> 0.75755777E-02</totfact>
</mgrwt>
</event>
<event>
 4    1  0.2409985E+000  0.5105916E+02  0.7957747E-01  0.1439711E+00
         13   -1    0    0    0    0  0.00000000000E+00  0.00000000000E+00  0.99999944171E+02  0.99999999992E+02  0.10566000000E+00 0.  1.
         22   -1    0    0    0    0 -0.00000000000E+00 -0.00000000000E+00 -0.17536985102E+02  0.17536985102E+02  0.00000000000E+00 0.  1.
         13    1    1    2    0    0  0.10173682080E+02  0.18798987171E+01 -0.83891557139E+01  0.13320169815E+02  0.10566000000E+00 0. -1.
        996    1    1    2    0    0 -0.10173682080E+02 -0.18798987171E+01  0.90852114783E+02  0.10421681528E+03  0.50000000000E+02 0.  0.
<mgrwt>
<rscale>  0 0.51059160E+02</rscale>
<asrwt>0</asrwt>
<pdfrwt beam="1">  1       13 0.10000000E+01 0.51059160E+02</pdfrwt>
<pdfrwt beam="2">  1       22 0.17537008E+00 0.51059160E+02</pdfrwt>
<totfact> 0.57449955E-01</totfact>
</mgrwt>
</event>
<event>
 4    1  0.2409985E+000  0.5438164E+02  0.7957747E-01  0.1423046E+00
         13   -1    0    0    0    0  0.00000000000E+00  0.00000000000E+00  0.99999944188E+02  0.10000000001E+03  0.10566000000E+00 0.  1.
         22   -1    0    0    0    0 -0.00000000000E+00 -0.00000000000E+00 -0.30000825009E+02  0.30000825009E+02  0.00000000000E+00 0. -1.
         13    1    1    2    0    0  0.86566476112E+01 -0.19555682901E+02 -0.17056884716E+02  0.27355269362E+02  0.10566000000E+00 0. -1.
        996    1    1    2    0    0 -0.86566476112E+01  0.19555682901E+02  0.87056003896E+02  0.10264555566E+03  0.50000000000E+02 0.  0.
<mgrwt>
<rscale>  0 0.54381636E+02</rscale>
<asrwt>0</asrwt>
<pdfrwt beam="1">  1       13 0.10000000E+01 0.54381636E+02</pdfrwt>
<pdfrwt beam="2">  1       22 0.30000845E+00 0.54381636E+02</pdfrwt>
<totfact> 0.20765621E-01</totfact>
</mgrwt>
</event>
<event>
 4    1  0.2409985E+000  0.5323538E+02  0.7957747E-01  0.1428633E+00
         13   -1    0    0    0    0  0.00000000000E+00  0.00000000000E+00  0.99999944174E+02  0.99999999994E+02  0.10566000000E+00 0. -1.
         22   -1    0    0    0    0 -0.00000000000E+00 -0.00000000000E+00 -0.14641661699E+02  0.14641661699E+02  0.00000000000E+00 0. -1.
         13    1    1    2    0    0  0.16680229254E+02  0.74683134332E+01  0.63019897457E+01  0.19332149189E+02  0.10566000000E+00 0.  1.
        996    1    1    2    0    0 -0.16680229254E+02 -0.74683134332E+01  0.79056292730E+02  0.95309512504E+02  0.50000000000E+02 0.  0.
<mgrwt>
<rscale>  0 0.53235381E+02</rscale>
<asrwt>0</asrwt>
<pdfrwt beam="1">  1       13 0.10000000E+01 0.53235381E+02</pdfrwt>
<pdfrwt beam="2">  1       22 0.14641686E+00 0.53235381E+02</pdfrwt>
<totfact> 0.78568057E-01</totfact>
</mgrwt>
</event>
<event>
 4    1  0.2409985E+000  0.5103794E+02  0.7957747E-01  0.1439822E+00
         13   -1    0    0    0    0  0.00000000000E+00  0.00000000000E+00  0.99999944179E+02  0.99999999999E+02  0.10566000000E+00 0. -1.
         22   -1    0    0    0    0 -0.00000000000E+00 -0.00000000000E+00 -0.22863768819E+02  0.22863768819E+02  0.00000000000E+00 0.  1.
         13    1    1    2    0    0 -0.10189122978E+02  0.10263367190E+01 -0.14630678793E+02  0.17858877907E+02  0.10566000000E+00 0.  1.
        996    1    1    2    0    0  0.10189122978E+02 -0.10263367190E+01  0.91766854153E+02  0.10500489091E+03  0.50000000000E+02 0.  0.
<mgrwt>
<rscale>  0 0.51037943E+02</rscale>
<asrwt>0</asrwt>
<pdfrwt beam="1">  1       13 0.10000000E+01 0.51037943E+02</pdfrwt>
<pdfrwt beam="2">  1       22 0.22863790E+00 0.51037943E+02</pdfrwt>
<totfact> 0.35052150E-01</totfact>
</mgrwt>
</event>
<event>
 4    1  0.2409985E+000  0.5222224E+02  0.7957747E-01  0.1433711E+00
         13   -1    0    0    0    0  0.00000000000E+00  0.00000000000E+00  0.99999944185E+02  0.10000000000E+03  0.10566000000E+00 0. -1.
         22   -1    0    0    0    0 -0.00000000000E+00 -0.00000000000E+00 -0.26824704506E+02  0.26824704506E+02  0.00000000000E+00 0.  1.
         13    1    1    2    0    0  0.79194507544E+01  0.12823591579E+02 -0.16937999178E+02  0.22673093777E+02  0.10566000000E+00 0.  1.
        996    1    1    2    0    0 -0.79194507544E+01 -0.12823591579E+02  0.90113238856E+02  0.10415161073E+03  0.50000000000E+02 0.  0.
<mgrwt>
<rscale>  0 0.52222239E+02</rscale>
<asrwt>0</asrwt>
<pdfrwt beam="1">  1       13 0.10000000E+01 0.52222239E+02</pdfrwt>
<pdfrwt beam="2">  1       22 0.26824725E+00 0.52222239E+02</pdfrwt>
<totfact> 0.25675894E-01</totfact>
</mgrwt>
</event>
<event>
 4    1  0.2409985E+000  0.5214682E+02  0.7957747E-01  0.1434095E+00
         13   -1    0    0    0    0  0.00000000000E+00  0.00000000000E+00  0.99999944191E+02  0.10000000001E+03  0.10566000000E+00 0. -1.
         22   -1    0    0    0    0 -0.00000000000E+00 -0.00000000000E+00 -0.17019755887E+02  0.17019755887E+02  0.00000000000E+00 0. -1.
         13    1    1    2    0    0 -0.13835098720E+02 -0.52801962526E+01 -0.42362523359E+01  0.15402838276E+02  0.10566000000E+00 0.  1.
        996    1    1    2    0    0  0.13835098720E+02  0.52801962526E+01  0.87216440640E+02  0.10161691762E+03  0.50000000000E+02 0.  0.
<mgrwt>
<rscale>  0 0.52146816E+02</rscale>
<asrwt>0</asrwt>
<pdfrwt beam="1">  1       13 0.10000000E+01 0.52146816E+02</pdfrwt>
<pdfrwt beam="2">  1       22 0.17019779E+00 0.52146816E+02</pdfrwt>
<totfact> 0.60692060E-01</totfact>
</mgrwt>
</event>
<event>
 4    1  0.2409985E+000  0.5132402E+02  0.7957747E-01  0.1438328E+00
         13   -1    0    0    0    0  0.00000000000E+00  0.00000000000E+00  0.99999944183E+02  0.10000000000E+03  0.10566000000E+00 0.  1.
         22   -1    0    0    0    0 -0.00000000000E+00 -0.00000000000E+00 -0.69877211997E+02  0.69877211997E+02  0.00000000000E+00 0. -1.
         13    1    1    2    0    0 -0.11035369520E+01 -0.11529827753E+02 -0.62726503141E+02  0.63786989913E+02  0.10566000000E+00 0. -1.
        996    1    1    2    0    0  0.11035369520E+01  0.11529827753E+02  0.92849235327E+02  0.10609022209E+03  0.50000000000E+02 0.  0.
<mgrwt>
<rscale>  0 0.51324017E+02</rscale>
<asrwt>0</asrwt>
<pdfrwt beam="1">  1       13 0.10000000E+01 0.51324017E+02</pdfrwt>
<pdfrwt beam="2">  1       22 0.69877220E+00 0.51324017E+02</pdfrwt>
<totfact> 0.75272297E-02</totfact>
</mgrwt>
</event>
<event>
 4    1  0.2409985E+000  0.5265883E+02  0.7957747E-01  0.1431506E+00
         13   -1    0    0    0    0  0.00000000000E+00  0.00000000000E+00  0.99999944176E+02  0.99999999996E+02  0.10566000000E+00 0. -1.
         22   -1    0    0    0    0 -0.00000000000E+00 -0.00000000000E+00 -0.11982018254E+02  0.11982018254E+02  0.00000000000E+00 0. -1.
         13    1    1    2    0    0 -0.11603241307E+02 -0.11760809890E+02  0.22863724021E+02  0.28208383475E+02  0.10566000000E+00 0.  1.
        996    1    1    2    0    0  0.11603241307E+02  0.11760809890E+02  0.65154201901E+02  0.83773634776E+02  0.50000000000E+02 0.  0.
<mgrwt>
<rscale>  0 0.52658825E+02</rscale>
<asrwt>0</asrwt>
<pdfrwt beam="1">  1       13 0.10000000E+01 0.52658825E+02</pdfrwt>
<pdfrwt beam="2">  1       22 0.11982043E+00 0.52658825E+02</pdfrwt>
<totfact> 0.10789890E+00</totfact>
</mgrwt>
</event>
<event>
 4    1  0.2409985E+000  0.5144742E+02  0.7957747E-01  0.1437687E+00
         13   -1    0    0    0    0  0.00000000000E+00  0.00000000000E+00  0.99999944177E+02  0.99999999997E+02  0.10566000000E+00 0.  1.
         22   -1    0    0    0    0 -0.00000000000E+00 -0.00000000000E+00 -0.36390304591E+02  0.36390304591E+02  0.00000000000E+00 0. -1.
         13    1    1    2    0    0 -0.97419899650E+01  0.72062725880E+01 -0.28453901200E+02  0.30926887826E+02  0.10566000000E+00 0. -1.
        996    1    1    2    0    0  0.97419899650E+01 -0.72062725880E+01  0.92063540786E+02  0.10546341676E+03  0.50000000000E+02 0.  0.
<mgrwt>
<rscale>  0 0.51447417E+02</rscale>
<asrwt>0</asrwt>
<pdfrwt beam="1">  1       13 0.10000000E+01 0.51447417E+02</pdfrwt>
<pdfrwt beam="2">  1       22 0.36390322E+00 0.51447417E+02</pdfrwt>
<totfact> 0.14672299E-01</totfact>
</mgrwt>
</event>
<event>
 4    1  0.2409985E+000  0.5426475E+02  0.7957747E-01  0.1423608E+00
         13   -1    0    0    0    0  0.00000000000E+00  0.00000000000E+00  0.99999944177E+02  0.99999999997E+02  0.10566000000E+00 0.  1.
         22   -1    0    0    0    0 -0.00000000000E+00 -0.00000000000E+00 -0.23480043144E+02  0.23480043144E+02  0.00000000000E+00 0. -1.
         13    1    1    2    0    0  0.10987738383E+02 -0.17998115897E+02 -0.84033329994E+01  0.22699994277E+02  0.10566000000E+00 0. -1.
        996    1    1    2    0    0 -0.10987738383E+02  0.17998115897E+02  0.84923234032E+02  0.10078004886E+03  0.50000000000E+02 0.  0.
<mgrwt>
<rscale>  0 0.54264745E+02</rscale>
<asrwt>0</asrwt>
<pdfrwt beam="1">  1       13 0.10000000E+01 0.54264745E+02</pdfrwt>
<pdfrwt beam="2">  1       22 0.23480065E+00 0.54264745E+02</pdfrwt>
<totfact> 0.33458552E-01</totfact>
</mgrwt>
</event>
<event>
 4    1  0.2409985E+000  0.5238411E+02  0.7957747E-01  0.1432891E+00
         13   -1    0    0    0    0  0.00000000000E+00  0.00000000000E+00  0.99999944175E+02  0.99999999995E+02  0.10566000000E+00 0. -1.
         22   -1    0    0    0    0 -0.00000000000E+00 -0.00000000000E+00 -0.15146917227E+02  0.15146917227E+02  0.00000000000E+00 0.  1.
         13    1    1    2    0    0 -0.14269466773E+02  0.63621445555E+01  0.23393248395E+00  0.15625634507E+02  0.10566000000E+00 0.  1.
        996    1    1    2    0    0  0.14269466773E+02 -0.63621445555E+01  0.84619094464E+02  0.99521282715E+02  0.50000000000E+02 0.  0.
<mgrwt>
<rscale>  0 0.52384106E+02</rscale>
<asrwt>0</asrwt>
<pdfrwt beam="1">  1       13 0.10000000E+01 0.52384106E+02</pdfrwt>
<pdfrwt beam="2">  1       22 0.15146941E+00 0.52384106E+02</pdfrwt>
<totfact> 0.74135754E-01</totfact>
</mgrwt>
</event>
<event>
 4    1  0.2409985E+000  0.5109398E+02  0.7957747E-01  0.1439529E+00
         13   -1    0    0    0    0  0.00000000000E+00  0.00000000000E+00  0.99999944180E+02  0.10000000000E+03  0.10566000000E+00 0. -1.
         22   -1    0    0    0    0 -0.00000000000E+00 -0.00000000000E+00 -0.66181965932E+02  0.66181965932E+02  0.00000000000E+00 0.  1.
         13    1    1    2    0    0  0.94634091258E+01  0.45867580150E+01 -0.59161343479E+02  0.60088852441E+02  0.10566000000E+00 0.  1.
        996    1    1    2    0    0 -0.94634091258E+01 -0.45867580150E+01  0.92979321727E+02  0.10609311349E+03  0.50000000000E+02 0.  0.
<mgrwt>
<rscale>  0 0.51093977E+02</rscale>
<asrwt>0</asrwt>
<pdfrwt beam="1">  1       13 0.10000000E+01 0.51093977E+02</pdfrwt>
<pdfrwt beam="2">  1       22 0.66181975E+00 0.51093977E+02</pdfrwt>
<totfact> 0.87219779E-02</totfact>
</mgrwt>
</event>
<event>
 4    1  0.2409985E+000  0.5282748E+02  0.7957747E-01  0.1430661E+00
         13   -1    0    0    0    0  0.00000000000E+00  0.00000000000E+00  0.99999944176E+02  0.99999999996E+02  0.10566000000E+00 0.  1.
         22   -1    0    0    0    0 -0.00000000000E+00 -0.00000000000E+00 -0.39198042698E+02  0.39198042698E+02  0.00000000000E+00 0. -1.
         13    1    1    2    0    0  0.16473056006E+02 -0.44024518237E+01 -0.29792040979E+02  0.34326666398E+02  0.10566000000E+00 0. -1.
        996    1    1    2    0    0 -0.16473056006E+02  0.44024518237E+01  0.90593942457E+02  0.10487137630E+03  0.50000000000E+02 0.  0.
<mgrwt>
<rscale>  0 0.52827485E+02</rscale>
<asrwt>0</asrwt>
<pdfrwt beam="1">  1       13 0.10000000E+01 0.52827485E+02</pdfrwt>
<pdfrwt beam="2">  1       22 0.39198060E+00 0.52827485E+02</pdfrwt>
<totfact> 0.12854964E-01</totfact>
</mgrwt>
</event>
<event>
 4    1  0.2409985E+000  0.5122487E+02  0.7957747E-01  0.1438845E+00
         13   -1    0    0    0    0  0.00000000000E+00  0.00000000000E+00  0.99999944174E+02  0.99999999994E+02  0.10566000000E+00 0. -1.
         22   -1    0    0    0    0 -0.00000000000E+00 -0.00000000000E+00 -0.52046721968E+02  0.52046721968E+02  0.00000000000E+00 0.  1.
         13    1    1    2    0    0  0.90122545508E+01 -0.65395780816E+01 -0.44759541419E+02  0.46123904059E+02  0.10566000000E+00 0.  1.
        996    1    1    2    0    0 -0.90122545508E+01  0.65395780816E+01  0.92712763625E+02  0.10592281790E+03  0.50000000000E+02 0.  0.
<mgrwt>
<rscale>  0 0.51224865E+02</rscale>
<asrwt>0</asrwt>
<pdfrwt beam="1">  1       13 0.10000000E+01 0.51224865E+02</pdfrwt>
<pdfrwt beam="2">  1       22 0.52046735E+00 0.51224865E+02</pdfrwt>
<totfact> 0.66122390E-02</totfact>
</mgrwt>
</event>
<event>
 4    1  0.2409985E+000  0.5414712E+02  0.7957747E-01  0.1424176E+00
         13   -1    0    0    0    0  0.00000000000E+00  0.00000000000E+00  0.99999944177E+02  0.99999999997E+02  0.10566000000E+00 0.  1.
         22   -1    0    0    0    0 -0.00000000000E+00 -0.00000000000E+00 -0.40539509889E+02  0.40539509889E+02  0.00000000000E+00 0. -1.
         13    1    1    2    0    0 -0.10903881292E+02  0.17692270636E+02 -0.29685545110E+02  0.36237464315E+02  0.10566000000E+00 0. -1.
        996    1    1    2    0    0  0.10903881292E+02 -0.17692270636E+02  0.89145979398E+02  0.10430204557E+03  0.50000000000E+02 0.  0.
<mgrwt>
<rscale>  0 0.54147124E+02</rscale>
<asrwt>0</asrwt>
<pdfrwt beam="1">  1       13 0.10000000E+01 0.54147124E+02</pdfrwt>
<pdfrwt beam="2">  1       22 0.40539527E+00 0.54147124E+02</pdfrwt>
<totfact> 0.12073708E-01</totfact>
</mgrwt>
</event>
<event>
 4    1  0.2409985E+000  0.5494702E+02  0.7957747E-01  0.1420350E+00
         13   -1    0    0    0    0  0.00000000000E+00  0.00000000000E+00  0.99999944174E+02  0.99999999995E+02  0.10566000000E+00 0.  1.
         22   -1    0    0    0    0 -0.00000000000E+00 -0.00000000000E+00 -0.83602404576E+02  0.83602404576E+02  0.00000000000E+00 0. -1.
         13    1    1    2    0    0 -0.21013112720E+02 -0.88104478948E+01 -0.74213634737E+02  0.77632787166E+02  0.10566000000E+00 0. -1.
        996    1    1    2    0    0  0.21013112720E+02  0.88104478948E+01  0.90611174336E+02  0.10596961740E+03  0.50000000000E+02 0.  0.
<mgrwt>
<rscale>  0 0.54947019E+02</rscale>
<asrwt>0</asrwt>
<pdfrwt beam="1">  1       13 0.10000000E+01 0.54947019E+02</pdfrwt>
<pdfrwt beam="2">  1       22 0.83602409E+00 0.54947019E+02</pdfrwt>
<totfact> 0.21916908E-02</totfact>
</mgrwt>
</event>
<event>
 4    1  0.2409985E+000  0.5239827E+02  0.7957747E-01  0.1432819E+00
         13   -1    0    0    0    0  0.00000000000E+00  0.00000000000E+00  0.99999944175E+02  0.99999999995E+02  0.10566000000E+00 0.  1.
         22   -1    0    0    0    0 -0.00000000000E+00 -0.00000000000E+00 -0.12329743480E+02  0.12329743480E+02  0.00000000000E+00 0. -1.
         13    1    1    2    0    0  0.60431343472E+01 -0.14458897846E+02  0.33391155615E+02  0.36885764693E+02  0.10566000000E+00 0. -1.
        996    1    1    2    0    0 -0.60431343472E+01  0.14458897846E+02  0.54279045080E+02  0.75443978782E+02  0.50000000000E+02 0.  0.
<mgrwt>
<rscale>  0 0.52398275E+02</rscale>
<asrwt>0</asrwt>
<pdfrwt beam="1">  1       13 0.10000000E+01 0.52398275E+02</pdfrwt>
<pdfrwt beam="2">  1       22 0.12329768E+00 0.52398275E+02</pdfrwt>
<totfact> 0.10319226E+00</totfact>
</mgrwt>
</event>
<event>
 4    1  0.2409985E+000  0.5375926E+02  0.7957747E-01  0.1426059E+00
         13   -1    0    0    0    0  0.00000000000E+00  0.00000000000E+00  0.99999944177E+02  0.99999999997E+02  0.10566000000E+00 0. -1.
         22   -1    0    0    0    0 -0.00000000000E+00 -0.00000000000E+00 -0.15859115391E+02  0.15859115391E+02  0.00000000000E+00 0. -1.
         13    1    1    2    0    0  0.18370292407E+02  0.72519356012E+01  0.53262199018E+01  0.20455757027E+02  0.10566000000E+00 0.  1.
        996    1    1    2    0    0 -0.18370292407E+02 -0.72519356012E+01  0.78814608884E+02  0.95403358361E+02  0.50000000000E+02 0.  0.
<mgrwt>
<rscale>  0 0.53759262E+02</rscale>
<asrwt>0</asrwt>
<pdfrwt beam="1">  1       13 0.10000000E+01 0.53759262E+02</pdfrwt>
<pdfrwt beam="2">  1       22 0.15859139E+00 0.53759262E+02</pdfrwt>
<totfact> 0.68788528E-01</totfact>
</mgrwt>
</event>
<event>
 4    1  0.2409985E+000  0.5122724E+02  0.7957747E-01  0.1438832E+00
         13   -1    0    0    0    0  0.00000000000E+00  0.00000000000E+00  0.99999944180E+02  0.10000000000E+03  0.10566000000E+00 0.  1.
         22   -1    0    0    0    0 -0.00000000000E+00 -0.00000000000E+00 -0.10125658421E+02  0.10125658421E+02  0.00000000000E+00 0.  1.
         13    1    1    2    0    0  0.78986998434E+01 -0.78638889795E+01  0.25695971985E+02  0.28009361817E+02  0.10566000000E+00 0. -1.
        996    1    1    2    0    0 -0.78986998434E+01  0.78638889795E+01  0.64178313774E+02  0.82116296604E+02  0.50000000000E+02 0.  0.
<mgrwt>
<rscale>  0 0.51227241E+02</rscale>
<asrwt>0</asrwt>
<pdfrwt beam="1">  1       13 0.10000000E+01 0.51227241E+02</pdfrwt>
<pdfrwt beam="2">  1       22 0.10125684E+00 0.51227241E+02</pdfrwt>
<totfact> 0.13818970E+00</totfact>
</mgrwt>
</event>
<event>
 4    1  0.2409985E+000  0.5190989E+02  0.7957747E-01  0.1435304E+00
         13   -1    0    0    0    0  0.00000000000E+00  0.00000000000E+00  0.99999944180E+02  0.10000000000E+03  0.10566000000E+00 0. -1.
         22   -1    0    0    0    0 -0.00000000000E+00 -0.00000000000E+00 -0.15688299391E+02  0.15688299391E+02  0.00000000000E+00 0. -1.
         13    1    1    2    0    0 -0.12441885823E+02  0.63115843499E+01 -0.28500959795E+01  0.14239762321E+02  0.10566000000E+00 0.  1.
        996    1    1    2    0    0  0.12441885823E+02 -0.63115843499E+01  0.87161740769E+02  0.10144853707E+03  0.50000000000E+02 0.  0.
<mgrwt>
<rscale>  0 0.51909889E+02</rscale>
<asrwt>0</asrwt>
<pdfrwt beam="1">  1       13 0.10000000E+01 0.51909889E+02</pdfrwt>
<pdfrwt beam="2">  1       22 0.15688323E+00 0.51909889E+02</pdfrwt>
<totfact> 0.69812456E-01</totfact>
</mgrwt>
</event>
<event>
 4    1  0.2409985E+000  0.5287880E+02  0.7957747E-01  0.1430405E+00
         13   -1    0    0    0    0  0.00000000000E+00  0.00000000000E+00  0.99999944177E+02  0.99999999997E+02  0.10566000000E+00 0. -1.
         22   -1    0    0    0    0 -0.00000000000E+00 -0.00000000000E+00 -0.31372134242E+02  0.31372134242E+02  0.00000000000E+00 0.  1.
         13    1    1    2    0    0 -0.12842696906E+02 -0.11455697687E+02 -0.21096060266E+02  0.27225407180E+02  0.10566000000E+00 0.  1.
        996    1    1    2    0    0  0.12842696906E+02  0.11455697687E+02  0.89723870201E+02  0.10414672706E+03  0.50000000000E+02 0.  0.
<mgrwt>
<rscale>  0 0.52878804E+02</rscale>
<asrwt>0</asrwt>
<pdfrwt beam="1">  1       13 0.10000000E+01 0.52878804E+02</pdfrwt>
<pdfrwt beam="2">  1       22 0.31372153E+00 0.52878804E+02</pdfrwt>
<totfact> 0.19088074E-01</totfact>
</mgrwt>
</event>
<event>
 4    1  0.2409985E+000  0.5192330E+02  0.7957747E-01  0.1435235E+00
         13   -1    0    0    0    0  0.00000000000E+00  0.00000000000E+00  0.99999944174E+02  0.99999999994E+02  0.10566000000E+00 0. -1.
         22   -1    0    0    0    0 -0.00000000000E+00 -0.00000000000E+00 -0.30682829948E+02  0.30682829948E+02  0.00000000000E+00 0.  1.
         13    1    1    2    0    0 -0.10926059209E+02  0.87550441362E+01 -0.21741916858E+02  0.25860233572E+02  0.10566000000E+00 0.  1.
        996    1    1    2    0    0  0.10926059209E+02 -0.87550441362E+01  0.91059031085E+02  0.10482259637E+03  0.50000000000E+02 0.  0.
<mgrwt>
<rscale>  0 0.51923305E+02</rscale>
<asrwt>0</asrwt>
<pdfrwt beam="1">  1       13 0.10000000E+01 0.51923305E+02</pdfrwt>
<pdfrwt beam="2">  1       22 0.30682849E+00 0.51923305E+02</pdfrwt>
<totfact> 0.19855105E-01</totfact>
</mgrwt>
</event>
<event>
 4    1  0.2409985E+000  0.5279749E+02  0.7957747E-01  0.1430811E+00
         13   -1    0    0    0    0  0.00000000000E+00  0.00000000000E+00  0.99999944178E+02  0.99999999998E+02  0.10566000000E+00 0. -1.
         22   -1    0    0    0    0 -0.00000000000E+00 -0.00000000000E+00 -0.15839869731E+02  0.15839869731E+02  0.00000000000E+00 0.  1.
         13    1    1    2    0    0  0.14554054999E+02 -0.87036900144E+01  0.56511557525E+00  0.16967771109E+02  0.10566000000E+00 0.  1.
        996    1    1    2    0    0 -0.14554054999E+02  0.87036900144E+01  0.83594958872E+02  0.98872098620E+02  0.50000000000E+02 0.  0.
<mgrwt>
<rscale>  0 0.52797488E+02</rscale>
<asrwt>0</asrwt>
<pdfrwt beam="1">  1       13 0.10000000E+01 0.52797488E+02</pdfrwt>
<pdfrwt beam="2">  1       22 0.15839893E+00 0.52797488E+02</pdfrwt>
<totfact> 0.68802177E-01</totfact>
</mgrwt>
</event>
<event>
 4    1  0.2409985E+000  0.5350616E+02  0.7957747E-01  0.1427298E+00
         13   -1    0    0    0    0  0.00000000000E+00  0.00000000000E+00  0.99999944181E+02  0.10000000000E+03  0.10566000000E+00 0.  1.
         22   -1    0    0    0    0 -0.00000000000E+00 -0.00000000000E+00 -0.13990181432E+02  0.13990181432E+02  0.00000000000E+00 0.  1.
         13    1    1    2    0    0  0.12327362105E+02  0.14523960675E+02  0.11477860971E+02  0.22240992484E+02  0.10566000000E+00 0. -1.
        996    1    1    2    0    0 -0.12327362105E+02 -0.14523960675E+02  0.74531901778E+02  0.91749188949E+02  0.50000000000E+02 0.  0.
<mgrwt>
<rscale>  0 0.53506161E+02</rscale>
<asrwt>0</asrwt>
<pdfrwt beam="1">  1       13 0.10000000E+01 0.53506161E+02</pdfrwt>
<pdfrwt beam="2">  1       22 0.13990205E+00 0.53506161E+02</pdfrwt>
<totfact> 0.84687202E-01</totfact>
</mgrwt>
</event>
<event>
 4    1  0.2409985E+000  0.5402790E+02  0.7957747E-01  0.1424753E+00
         13   -1    0    0    0    0  0.00000000000E+00  0.00000000000E+00  0.99999944180E+02  0.10000000000E+03  0.10566000000E+00 0. -1.
         22   -1    0    0    0    0 -0.00000000000E+00 -0.00000000000E+00 -0.16450772190E+02  0.16450772190E+02  0.00000000000E+00 0.  1.
         13    1    1    2    0    0  0.11449892030E+02  0.16968018588E+02  0.49274266560E+01  0.21054794698E+02  0.10566000000E+00 0.  1.
        996    1    1    2    0    0 -0.11449892030E+02 -0.16968018588E+02  0.78621745334E+02  0.95395977492E+02  0.50000000000E+02 0.  0.
<mgrwt>
<rscale>  0 0.54027897E+02</rscale>
<asrwt>0</asrwt>
<pdfrwt beam="1">  1       13 0.10000000E+01 0.54027897E+02</pdfrwt>
<pdfrwt beam="2">  1       22 0.16450796E+00 0.54027897E+02</pdfrwt>
<totfact> 0.64626909E-01</totfact>
</mgrwt>
</event>
<event>
 4    1  0.2409985E+000  0.5118397E+02  0.7957747E-01  0.1439058E+00
         13   -1    0    0    0    0  0.00000000000E+00  0.00000000000E+00  0.99999944178E+02  0.99999999998E+02  0.10566000000E+00 0. -1.
         22   -1    0    0    0    0 -0.00000000000E+00 -0.00000000000E+00 -0.20923846465E+02  0.20923846465E+02  0.00000000000E+00 0. -1.
         13    1    1    2    0    0 -0.41218877419E+01 -0.10139491310E+02 -0.12129225812E+02  0.16337947405E+02  0.10566000000E+00 0.  1.
        996    1    1    2    0    0  0.41218877419E+01  0.10139491310E+02  0.91205323525E+02  0.10458589906E+03  0.50000000000E+02 0.  0.
<mgrwt>
<rscale>  0 0.51183974E+02</rscale>
<asrwt>0</asrwt>
<pdfrwt beam="1">  1       13 0.10000000E+01 0.51183974E+02</pdfrwt>
<pdfrwt beam="2">  1       22 0.20923869E+00 0.51183974E+02</pdfrwt>
<totfact> 0.41560298E-01</totfact>
</mgrwt>
</event>
<event>
 4    1  0.2409985E+000  0.5123748E+02  0.7957747E-01  0.1438779E+00
         13   -1    0    0    0    0  0.00000000000E+00  0.00000000000E+00  0.99999944178E+02  0.99999999998E+02  0.10566000000E+00 0.  1.
         22   -1    0    0    0    0 -0.00000000000E+00 -0.00000000000E+00 -0.14141433138E+02  0.14141433138E+02  0.00000000000E+00 0.  1.
         13    1    1    2    0    0  0.10645043313E+02 -0.34586506864E+01 -0.29827278084E+01  0.11583913023E+02  0.10566000000E+00 0. -1.
        996    1    1    2    0    0 -0.10645043313E+02  0.34586506864E+01  0.88841238848E+02  0.10255752011E+03  0.50000000000E+02 0.  0.
<mgrwt>
<rscale>  0 0.51237479E+02</rscale>
<asrwt>0</asrwt>
<pdfrwt beam="1">  1       13 0.10000000E+01 0.51237479E+02</pdfrwt>
<pdfrwt beam="2">  1       22 0.14141457E+00 0.51237479E+02</pdfrwt>
<totfact> 0.82829029E-01</totfact>
</mgrwt>
</event>
<event>
 4    1  0.2409985E+000  0.6882838E+02  0.7957747E-01  0.1364123E+00
         13   -1    0    0    0    0  0.00000000000E+00  0.00000000000E+00  0.99999944183E+02  0.10000000000E+03  0.10566000000E+00 0.  1.
         22   -1    0    0    0    0 -0.00000000000E+00 -0.00000000000E+00 -0.36648578427E+02  0.36648578427E+02  0.00000000000E+00 0. -1.
         13    1    1    2    0    0 -0.18967744191E+01 -0.47262538279E+02  0.72508334230E+01  0.47853223790E+02  0.10566000000E+00 0. -1.
        996    1    1    2    0    0  0.18967744191E+01  0.47262538279E+02  0.56100532333E+02  0.88795354641E+02  0.50000000000E+02 0.  0.
<mgrwt>
<rscale>  0 0.68828376E+02</rscale>
<asrwt>0</asrwt>
<pdfrwt beam="1">  1       13 0.10000000E+01 0.68828376E+02</pdfrwt>
<pdfrwt beam="2">  1       22 0.36648596E+00 0.68828376E+02</pdfrwt>
<totfact> 0.14699649E-01</totfact>
</mgrwt>
</event>
<event>
 4    1  0.2409985E+000  0.5310388E+02  0.7957747E-01  0.1429285E+00
         13   -1    0    0    0    0  0.00000000000E+00  0.00000000000E+00  0.99999944182E+02  0.10000000000E+03  0.10566000000E+00 0.  1.
         22   -1    0    0    0    0 -0.00000000000E+00 -0.00000000000E+00 -0.13270054374E+02  0.13270054374E+02  0.00000000000E+00 0. -1.
         13    1    1    2    0    0  0.16374772447E+02 -0.72034232681E+01  0.11800789366E+02  0.21431105272E+02  0.10566000000E+00 0. -1.
        996    1    1    2    0    0 -0.16374772447E+02  0.72034232681E+01  0.74929100442E+02  0.91838949104E+02  0.50000000000E+02 0.  0.
<mgrwt>
<rscale>  0 0.53103884E+02</rscale>
<asrwt>0</asrwt>
<pdfrwt beam="1">  1       13 0.10000000E+01 0.53103884E+02</pdfrwt>
<pdfrwt beam="2">  1       22 0.13270079E+00 0.53103884E+02</pdfrwt>
<totfact> 0.92105277E-01</totfact>
</mgrwt>
</event>
<event>
 4    1  0.2409985E+000  0.5245536E+02  0.7957747E-01  0.1432531E+00
         13   -1    0    0    0    0  0.00000000000E+00  0.00000000000E+00  0.99999944175E+02  0.99999999995E+02  0.10566000000E+00 0. -1.
         22   -1    0    0    0    0 -0.00000000000E+00 -0.00000000000E+00 -0.15695097605E+02  0.15695097605E+02  0.00000000000E+00 0. -1.
         13    1    1    2    0    0  0.14123233905E+02  0.72179601892E+01 -0.62340994176E+00  0.15873389342E+02  0.10566000000E+00 0.  1.
        996    1    1    2    0    0 -0.14123233905E+02 -0.72179601892E+01  0.84928256512E+02  0.99821708257E+02  0.50000000000E+02 0.  0.
<mgrwt>
<rscale>  0 0.52455359E+02</rscale>
<asrwt>0</asrwt>
<pdfrwt beam="1">  1       13 0.10000000E+01 0.52455359E+02</pdfrwt>
<pdfrwt beam="2">  1       22 0.15695121E+00 0.52455359E+02</pdfrwt>
<totfact> 0.69837269E-01</totfact>
</mgrwt>
</event>
<event>
 4    1  0.2409985E+000  0.5310029E+02  0.7957747E-01  0.1429302E+00
         13   -1    0    0    0    0  0.00000000000E+00  0.00000000000E+00  0.99999944181E+02  0.10000000000E+03  0.10566000000E+00 0.  1.
         22   -1    0    0    0    0 -0.00000000000E+00 -0.00000000000E+00 -0.12931951901E+02  0.12931951901E+02  0.00000000000E+00 0. -1.
         13    1    1    2    0    0  0.45041057254E+01  0.17301850614E+02  0.14548047376E+02  0.23049899122E+02  0.10566000000E+00 0. -1.
        996    1    1    2    0    0 -0.45041057254E+01 -0.17301850614E+02  0.72519944904E+02  0.89882052780E+02  0.50000000000E+02 0.  0.
<mgrwt>
<rscale>  0 0.53100292E+02</rscale>
<asrwt>0</asrwt>
<pdfrwt beam="1">  1       13 0.10000000E+01 0.53100292E+02</pdfrwt>
<pdfrwt beam="2">  1       22 0.12931976E+00 0.53100292E+02</pdfrwt>
<totfact> 0.95940119E-01</totfact>
</mgrwt>
</event>
<event>
 4    1  0.2409985E+000  0.5398881E+02  0.7957747E-01  0.1424942E+00
         13   -1    0    0    0    0  0.00000000000E+00  0.00000000000E+00  0.99999944183E+02  0.10000000000E+03  0.10566000000E+00 0.  1.
         22   -1    0    0    0    0 -0.00000000000E+00 -0.00000000000E+00 -0.15285420427E+02  0.15285420427E+02  0.00000000000E+00 0. -1.
         13    1    1    2    0    0 -0.25466348239E+01  0.20206577276E+02  0.89344291190E+01  0.22240195634E+02  0.10566000000E+00 0. -1.
        996    1    1    2    0    0  0.25466348239E+01 -0.20206577276E+02  0.75780094637E+02  0.93045224796E+02  0.50000000000E+02 0.  0.
<mgrwt>
<rscale>  0 0.53988805E+02</rscale>
<asrwt>0</asrwt>
<pdfrwt beam="1">  1       13 0.10000000E+01 0.53988805E+02</pdfrwt>
<pdfrwt beam="2">  1       22 0.15285444E+00 0.53988805E+02</pdfrwt>
<totfact> 0.73246265E-01</totfact>
</mgrwt>
</event>
<event>
 4    1  0.2409985E+000  0.5133145E+02  0.7957747E-01  0.1438290E+00
         13   -1    0    0    0    0  0.00000000000E+00  0.00000000000E+00  0.99999944173E+02  0.99999999993E+02  0.10566000000E+00 0. -1.
         22   -1    0    0    0    0 -0.00000000000E+00 -0.00000000000E+00 -0.30365084101E+02  0.30365084101E+02  0.00000000000E+00 0.  1.
         13    1    1    2    0    0 -0.39875313454E+01  0.10909498260E+02 -0.22258292512E+02  0.25106977279E+02  0.10566000000E+00 0.  1.
        996    1    1    2    0    0  0.39875313454E+01 -0.10909498260E+02  0.91893152583E+02  0.10525810681E+03  0.50000000000E+02 0.  0.
<mgrwt>
<rscale>  0 0.51331448E+02</rscale>
<asrwt>0</asrwt>
<pdfrwt beam="1">  1       13 0.10000000E+01 0.51331448E+02</pdfrwt>
<pdfrwt beam="2">  1       22 0.30365104E+00 0.51331448E+02</pdfrwt>
<totfact> 0.20224531E-01</totfact>
</mgrwt>
</event>
<event>
 4    1  0.2409985E+000  0.5133935E+02  0.7957747E-01  0.1438248E+00
         13   -1    0    0    0    0  0.00000000000E+00  0.00000000000E+00  0.99999944181E+02  0.10000000000E+03  0.10566000000E+00 0.  1.
         22   -1    0    0    0    0 -0.00000000000E+00 -0.00000000000E+00 -0.99759083079E+01  0.99759083079E+01  0.00000000000E+00 0.  1.
         13    1    1    2    0    0 -0.11635148872E+02  0.59372346881E+00  0.13591003539E+02  0.17901277554E+02  0.10566000000E+00 0. -1.
        996    1    1    2    0    0  0.11635148872E+02 -0.59372346881E+00  0.76433032334E+02  0.92074630754E+02  0.50000000000E+02 0.  0.
<mgrwt>
<rscale>  0 0.51339353E+02</rscale>
<asrwt>0</asrwt>
<pdfrwt beam="1">  1       13 0.10000000E+01 0.51339353E+02</pdfrwt>
<pdfrwt beam="2">  1       22 0.99759334E-01 0.51339353E+02</pdfrwt>
<totfact> 0.14124612E+00</totfact>
</mgrwt>
</event>
<event>
 4    1  0.2409985E+000  0.5225098E+02  0.7957747E-01  0.1433565E+00
         13   -1    0    0    0    0  0.00000000000E+00  0.00000000000E+00  0.99999944175E+02  0.99999999996E+02  0.10566000000E+00 0.  1.
         22   -1    0    0    0    0 -0.00000000000E+00 -0.00000000000E+00 -0.17758799548E+02  0.17758799548E+02  0.00000000000E+00 0. -1.
         13    1    1    2    0    0  0.10507064149E+02 -0.10943810056E+02 -0.50792230727E+01  0.15999220188E+02  0.10566000000E+00 0. -1.
        996    1    1    2    0    0 -0.10507064149E+02  0.10943810056E+02  0.87320367700E+02  0.10175957936E+03  0.50000000000E+02 0.  0.
<mgrwt>
<rscale>  0 0.52250984E+02</rscale>
<asrwt>0</asrwt>
<pdfrwt beam="1">  1       13 0.10000000E+01 0.52250984E+02</pdfrwt>
<pdfrwt beam="2">  1       22 0.17758823E+00 0.52250984E+02</pdfrwt>
<totfact> 0.56308582E-01</totfact>
</mgrwt>
</event>
<event>
 4    1  0.2409985E+000  0.5660731E+02  0.7957747E-01  0.1412647E+00
         13   -1    0    0    0    0  0.00000000000E+00  0.00000000000E+00  0.99999944173E+02  0.99999999994E+02  0.10566000000E+00 0. -1.
         22   -1    0    0    0    0 -0.00000000000E+00 -0.00000000000E+00 -0.43361632407E+02  0.43361632407E+02  0.00000000000E+00 0.  1.
         13    1    1    2    0    0 -0.19399598014E+02  0.18111960681E+02 -0.29883134770E+02  0.39967492172E+02  0.10566000000E+00 0.  1.
        996    1    1    2    0    0  0.19399598014E+02 -0.18111960681E+02  0.86521446537E+02  0.10339414023E+03  0.50000000000E+02 0.  0.
<mgrwt>
<rscale>  0 0.56607310E+02</rscale>
<asrwt>0</asrwt>
<pdfrwt beam="1">  1       13 0.10000000E+01 0.56607310E+02</pdfrwt>
<pdfrwt beam="2">  1       22 0.43361648E+00 0.56607310E+02</pdfrwt>
<totfact> 0.10534814E-01</totfact>
</mgrwt>
</event>
<event>
 4    1  0.2409985E+000  0.5133003E+02  0.7957747E-01  0.1438297E+00
         13   -1    0    0    0    0  0.00000000000E+00  0.00000000000E+00  0.99999944179E+02  0.99999999999E+02  0.10566000000E+00 0.  1.
         22   -1    0    0    0    0 -0.00000000000E+00 -0.00000000000E+00 -0.15318442982E+02  0.15318442982E+02  0.00000000000E+00 0.  1.
         13    1    1    2    0    0  0.80541629452E+01 -0.83607468285E+01 -0.44744744716E+01  0.12442014070E+02  0.10566000000E+00 0. -1.
        996    1    1    2    0    0 -0.80541629452E+01  0.83607468285E+01  0.89155975669E+02  0.10287642891E+03  0.50000000000E+02 0.  0.
<mgrwt>
<rscale>  0 0.51330027E+02</rscale>
<asrwt>0</asrwt>
<pdfrwt beam="1">  1       13 0.10000000E+01 0.51330027E+02</pdfrwt>
<pdfrwt beam="2">  1       22 0.15318467E+00 0.51330027E+02</pdfrwt>
<totfact> 0.72594362E-01</totfact>
</mgrwt>
</event>
<event>
 4    1  0.2409985E+000  0.5314374E+02  0.7957747E-01  0.1429087E+00
         13   -1    0    0    0    0  0.00000000000E+00  0.00000000000E+00  0.99999944179E+02  0.99999999999E+02  0.10566000000E+00 0. -1.
         22   -1    0    0    0    0 -0.00000000000E+00 -0.00000000000E+00 -0.14125228835E+02  0.14125228835E+02  0.00000000000E+00 0. -1.
         13    1    1    2    0    0 -0.34629471713E+01  0.17671038700E+02  0.76710772589E+01  0.19573303303E+02  0.10566000000E+00 0.  1.
        996    1    1    2    0    0  0.34629471713E+01 -0.17671038700E+02  0.78203638086E+02  0.94551925531E+02  0.50000000000E+02 0.  0.
<mgrwt>
<rscale>  0 0.53143745E+02</rscale>
<asrwt>0</asrwt>
<pdfrwt beam="1">  1       13 0.10000000E+01 0.53143745E+02</pdfrwt>
<pdfrwt beam="2">  1       22 0.14125253E+00 0.53143745E+02</pdfrwt>
<totfact> 0.83314300E-01</totfact>
</mgrwt>
</event>
<event>
 4    1  0.2409985E+000  0.5191151E+02  0.7957747E-01  0.1435296E+00
         13   -1    0    0    0    0  0.00000000000E+00  0.00000000000E+00  0.99999944180E+02  0.10000000000E+03  0.10566000000E+00 0.  1.
         22   -1    0    0    0    0 -0.00000000000E+00 -0.00000000000E+00 -0.10902519356E+02  0.10902519356E+02  0.00000000000E+00 0. -1.
         13    1    1    2    0    0  0.11626553034E+02 -0.77219205826E+01  0.15767922185E+02  0.21058094097E+02  0.10566000000E+00 0. -1.
        996    1    1    2    0    0 -0.11626553034E+02  0.77219205826E+01  0.73329502639E+02  0.89844425260E+02  0.50000000000E+02 0.  0.
<mgrwt>
<rscale>  0 0.51911509E+02</rscale>
<asrwt>0</asrwt>
<pdfrwt beam="1">  1       13 0.10000000E+01 0.51911509E+02</pdfrwt>
<pdfrwt beam="2">  1       22 0.10902544E+00 0.51911509E+02</pdfrwt>
<totfact> 0.12417904E+00</totfact>
</mgrwt>
</event>
<event>
 4    1  0.2409985E+000  0.5411190E+02  0.7957747E-01  0.1424346E+00
         13   -1    0    0    0    0  0.00000000000E+00  0.00000000000E+00  0.99999944176E+02  0.99999999997E+02  0.10566000000E+00 0.  1.
         22   -1    0    0    0    0 -0.00000000000E+00 -0.00000000000E+00 -0.30070145495E+02  0.30070145495E+02  0.00000000000E+00 0. -1.
         13    1    1    2    0    0 -0.79796232608E+01  0.19089878339E+02 -0.17600531429E+02  0.27164088665E+02  0.10566000000E+00 0. -1.
        996    1    1    2    0    0  0.79796232608E+01 -0.19089878339E+02  0.87530330110E+02  0.10290605683E+03  0.50000000000E+02 0.  0.
<mgrwt>
<rscale>  0 0.54111901E+02</rscale>
<asrwt>0</asrwt>
<pdfrwt beam="1">  1       13 0.10000000E+01 0.54111901E+02</pdfrwt>
<pdfrwt beam="2">  1       22 0.30070165E+00 0.54111901E+02</pdfrwt>
<totfact> 0.20669055E-01</totfact>
</mgrwt>
</event>
<event>
 4    1  0.2409985E+000  0.5318488E+02  0.7957747E-01  0.1428883E+00
         13   -1    0    0    0    0  0.00000000000E+00  0.00000000000E+00  0.99999944181E+02  0.10000000000E+03  0.10566000000E+00 0.  1.
         22   -1    0    0    0    0 -0.00000000000E+00 -0.00000000000E+00 -0.17565300618E+02  0.17565300618E+02  0.00000000000E+00 0.  1.
         13    1    1    2    0    0  0.14674938030E+02 -0.10643191893E+02 -0.15092504776E+01  0.18191216037E+02  0.10566000000E+00 0. -1.
        996    1    1    2    0    0 -0.14674938030E+02  0.10643191893E+02  0.83943894041E+02  0.99374084582E+02  0.50000000000E+02 0.  0.
<mgrwt>
<rscale>  0 0.53184879E+02</rscale>
<asrwt>0</asrwt>
<pdfrwt beam="1">  1       13 0.10000000E+01 0.53184879E+02</pdfrwt>
<pdfrwt beam="2">  1       22 0.17565324E+00 0.53184879E+02</pdfrwt>
<totfact> 0.57518212E-01</totfact>
</mgrwt>
</event>
<event>
 4    1  0.2409985E+000  0.5414773E+02  0.7957747E-01  0.1424173E+00
         13   -1    0    0    0    0  0.00000000000E+00  0.00000000000E+00  0.99999944176E+02  0.99999999996E+02  0.10566000000E+00 0. -1.
         22   -1    0    0    0    0 -0.00000000000E+00 -0.00000000000E+00 -0.14608630194E+02  0.14608630194E+02  0.00000000000E+00 0. -1.
         13    1    1    2    0    0  0.12350586729E+02 -0.16716457225E+02  0.34628085503E+02  0.40386785021E+02  0.10566000000E+00 0.  1.
        996    1    1    2    0    0 -0.12350586729E+02  0.16716457225E+02  0.50763228479E+02  0.74221845169E+02  0.50000000000E+02 0.  0.
<mgrwt>
<rscale>  0 0.54147732E+02</rscale>
<asrwt>0</asrwt>
<pdfrwt beam="1">  1       13 0.10000000E+01 0.54147732E+02</pdfrwt>
<pdfrwt beam="2">  1       22 0.14608654E+00 0.54147732E+02</pdfrwt>
<totfact> 0.79004976E-01</totfact>
</mgrwt>
</event>
<event>
 4    1  0.2409985E+000  0.5129972E+02  0.7957747E-01  0.1438455E+00
         13   -1    0    0    0    0  0.00000000000E+00  0.00000000000E+00  0.99999944176E+02  0.99999999996E+02  0.10566000000E+00 0. -1.
         22   -1    0    0    0    0 -0.00000000000E+00 -0.00000000000E+00 -0.27496100173E+02  0.27496100173E+02  0.00000000000E+00 0. -1.
         13    1    1    2    0    0 -0.31063014550E+01  0.11045904773E+02 -0.19229490273E+02  0.22392980623E+02  0.10566000000E+00 0.  1.
        996    1    1    2    0    0  0.31063014550E+01 -0.11045904773E+02  0.91733334276E+02  0.10510311955E+03  0.50000000000E+02 0.  0.
<mgrwt>
<rscale>  0 0.51299719E+02</rscale>
<asrwt>0</asrwt>
<pdfrwt beam="1">  1       13 0.10000000E+01 0.51299719E+02</pdfrwt>
<pdfrwt beam="2">  1       22 0.27496120E+00 0.51299719E+02</pdfrwt>
<totfact> 0.24433027E-01</totfact>
</mgrwt>
</event>
<event>
 4    1  0.2409985E+000  0.6287558E+02  0.7957747E-01  0.1386146E+00
         13   -1    0    0    0    0  0.00000000000E+00  0.00000000000E+00  0.99999944183E+02  0.10000000000E+03  0.10566000000E+00 0. -1.
         22   -1    0    0    0    0 -0.00000000000E+00 -0.00000000000E+00 -0.44281210717E+02  0.44281210717E+02  0.00000000000E+00 0.  1.
         13    1    1    2    0    0 -0.30261384635E+01  0.38002374895E+02 -0.22233014131E+02  0.44132256831E+02  0.10566000000E+00 0.  1.
        996    1    1    2    0    0  0.30261384635E+01 -0.38002374895E+02  0.77951747597E+02  0.10014895389E+03  0.50000000000E+02 0.  0.
<mgrwt>
<rscale>  0 0.62875576E+02</rscale>
<asrwt>0</asrwt>
<pdfrwt beam="1">  1       13 0.10000000E+01 0.62875576E+02</pdfrwt>
<pdfrwt beam="2">  1       22 0.44281226E+00 0.62875576E+02</pdfrwt>
<totfact> 0.10088009E-01</totfact>
</mgrwt>
</event>
<event>
 4    1  0.2409985E+000  0.5152324E+02  0.7957747E-01  0.1437295E+00
         13   -1    0    0    0    0  0.00000000000E+00  0.00000000000E+00  0.99999944176E+02  0.99999999996E+02  0.10566000000E+00 0.  1.
         22   -1    0    0    0    0 -0.00000000000E+00 -0.00000000000E+00 -0.10786058458E+02  0.10786058458E+02  0.00000000000E+00 0.  1.
         13    1    1    2    0    0  0.12235235777E+02  0.22232976315E+01  0.86239659535E+01  0.15133671057E+02  0.10566000000E+00 0. -1.
        996    1    1    2    0    0 -0.12235235777E+02 -0.22232976315E+01  0.80589919765E+02  0.95652387396E+02  0.50000000000E+02 0.  0.
<mgrwt>
<rscale>  0 0.51523238E+02</rscale>
<asrwt>0</asrwt>
<pdfrwt beam="1">  1       13 0.10000000E+01 0.51523238E+02</pdfrwt>
<pdfrwt beam="2">  1       22 0.10786083E+00 0.51523238E+02</pdfrwt>
<totfact> 0.12605616E+00</totfact>
</mgrwt>
</event>
<event>
 4    1  0.2409985E+000  0.5793190E+02  0.7957747E-01  0.1406721E+00
         13   -1    0    0    0    0  0.00000000000E+00  0.00000000000E+00  0.99999944177E+02  0.99999999997E+02  0.10566000000E+00 0. -1.
         22   -1    0    0    0    0 -0.00000000000E+00 -0.00000000000E+00 -0.24111502111E+02  0.24111502111E+02  0.00000000000E+00 0.  1.
         13    1    1    2    0    0 -0.18726197846E+02  0.22481859004E+02  0.79683973441E+00  0.29270302144E+02  0.10566000000E+00 0.  1.
        996    1    1    2    0    0  0.18726197846E+02 -0.22481859004E+02  0.75091602331E+02  0.94841199964E+02  0.50000000000E+02 0.  0.
<mgrwt>
<rscale>  0 0.57931895E+02</rscale>
<asrwt>0</asrwt>
<pdfrwt beam="1">  1       13 0.10000000E+01 0.57931895E+02</pdfrwt>
<pdfrwt beam="2">  1       22 0.24111523E+00 0.57931895E+02</pdfrwt>
<totfact> 0.31937325E-01</totfact>
</mgrwt>
</event>
<event>
 4    1  0.2409985E+000  0.5124731E+02  0.7957747E-01  0.1438728E+00
         13   -1    0    0    0    0  0.00000000000E+00  0.00000000000E+00  0.99999944177E+02  0.99999999997E+02  0.10566000000E+00 0. -1.
         22   -1    0    0    0    0 -0.00000000000E+00 -0.00000000000E+00 -0.10253141587E+02  0.10253141587E+02  0.00000000000E+00 0. -1.
         13    1    1    2    0    0 -0.52250932240E+01  0.99491522037E+01  0.80905096553E+01  0.13847553549E+02  0.10566000000E+00 0.  1.
        996    1    1    2    0    0  0.52250932240E+01 -0.99491522037E+01  0.81656292934E+02  0.96405588036E+02  0.50000000000E+02 0.  0.
<mgrwt>
<rscale>  0 0.51247314E+02</rscale>
<asrwt>0</asrwt>
<pdfrwt beam="1">  1       13 0.10000000E+01 0.51247314E+02</pdfrwt>
<pdfrwt beam="2">  1       22 0.10253167E+00 0.51247314E+02</pdfrwt>
<totfact> 0.13570288E+00</totfact>
</mgrwt>
</event>
<event>
 4    1  0.2409985E+000  0.5231568E+02  0.7957747E-01  0.1433237E+00
         13   -1    0    0    0    0  0.00000000000E+00  0.00000000000E+00  0.99999944179E+02  0.99999999999E+02  0.10566000000E+00 0.  1.
         22   -1    0    0    0    0 -0.00000000000E+00 -0.00000000000E+00 -0.13860021533E+02  0.13860021533E+02  0.00000000000E+00 0.  1.
         13    1    1    2    0    0 -0.15105762490E+02 -0.29574057367E+01  0.30808054543E+01  0.15698179365E+02  0.10566000000E+00 0. -1.
        996    1    1    2    0    0  0.15105762490E+02  0.29574057367E+01  0.83059117192E+02  0.98161842168E+02  0.50000000000E+02 0.  0.
<mgrwt>
<rscale>  0 0.52315679E+02</rscale>
<asrwt>0</asrwt>
<pdfrwt beam="1">  1       13 0.10000000E+01 0.52315679E+02</pdfrwt>
<pdfrwt beam="2">  1       22 0.13860046E+00 0.52315679E+02</pdfrwt>
<totfact> 0.85766386E-01</totfact>
</mgrwt>
</event>
<event>
 4    1  0.2409985E+000  0.5580244E+02  0.7957747E-01  0.1416342E+00
         13   -1    0    0    0    0  0.00000000000E+00  0.00000000000E+00  0.99999944180E+02  0.10000000000E+03  0.10566000000E+00 0. -1.
         22   -1    0    0    0    0 -0.00000000000E+00 -0.00000000000E+00 -0.37321396752E+02  0.37321396752E+02  0.00000000000E+00 0.  1.
         13    1    1    2    0    0  0.73347854779E+01 -0.23666718316E+02 -0.23829568575E+02  0.34376912839E+02  0.10566000000E+00 0.  1.
        996    1    1    2    0    0 -0.73347854779E+01  0.23666718316E+02  0.86508116002E+02  0.10294448391E+03  0.50000000000E+02 0.  0.
<mgrwt>
<rscale>  0 0.55802443E+02</rscale>
<asrwt>0</asrwt>
<pdfrwt beam="1">  1       13 0.10000000E+01 0.55802443E+02</pdfrwt>
<pdfrwt beam="2">  1       22 0.37321414E+00 0.55802443E+02</pdfrwt>
<totfact> 0.14086864E-01</totfact>
</mgrwt>
</event>
<event>
 4    1  0.2409985E+000  0.5140501E+02  0.7957747E-01  0.1437907E+00
         13   -1    0    0    0    0  0.00000000000E+00  0.00000000000E+00  0.99999944183E+02  0.10000000000E+03  0.10566000000E+00 0.  1.
         22   -1    0    0    0    0 -0.00000000000E+00 -0.00000000000E+00 -0.11772668372E+02  0.11772668372E+02  0.00000000000E+00 0.  1.
         13    1    1    2    0    0  0.10702515592E+02  0.52850114887E+01  0.31068874612E+01  0.12334467972E+02  0.10566000000E+00 0. -1.
        996    1    1    2    0    0 -0.10702515592E+02 -0.52850114887E+01  0.85120388350E+02  0.99438200403E+02  0.50000000000E+02 0.  0.
<mgrwt>
<rscale>  0 0.51405011E+02</rscale>
<asrwt>0</asrwt>
<pdfrwt beam="1">  1       13 0.10000000E+01 0.51405011E+02</pdfrwt>
<pdfrwt beam="2">  1       22 0.11772693E+00 0.51405011E+02</pdfrwt>
<totfact> 0.11052916E+00</totfact>
</mgrwt>
</event>
<event>
 4    1  0.2409985E+000  0.5114529E+02  0.7957747E-01  0.1439260E+00
         13   -1    0    0    0    0  0.00000000000E+00  0.00000000000E+00  0.99999944181E+02  0.10000000000E+03  0.10566000000E+00 0.  1.
         22   -1    0    0    0    0 -0.00000000000E+00 -0.00000000000E+00 -0.10623378434E+02  0.10623378434E+02  0.00000000000E+00 0.  1.
         13    1    1    2    0    0  0.21175675273E+01  0.10552574240E+02  0.48006818417E+01  0.11785526102E+02  0.10566000000E+00 0. -1.
        996    1    1    2    0    0 -0.21175675273E+01 -0.10552574240E+02  0.84575883905E+02  0.98837852332E+02  0.50000000000E+02 0.  0.
<mgrwt>
<rscale>  0 0.51145292E+02</rscale>
<asrwt>0</asrwt>
<pdfrwt beam="1">  1       13 0.10000000E+01 0.51145292E+02</pdfrwt>
<pdfrwt beam="2">  1       22 0.10623403E+00 0.51145292E+02</pdfrwt>
<totfact> 0.12879962E+00</totfact>
</mgrwt>
</event>
<event>
 4    1  0.2409985E+000  0.5184658E+02  0.7957747E-01  0.1435629E+00
         13   -1    0    0    0    0  0.00000000000E+00  0.00000000000E+00  0.99999944179E+02  0.99999999999E+02  0.10566000000E+00 0.  1.
         22   -1    0    0    0    0 -0.00000000000E+00 -0.00000000000E+00 -0.11167600013E+02  0.11167600013E+02  0.00000000000E+00 0.  1.
         13    1    1    2    0    0 -0.57923592002E+01  0.12430480748E+02  0.28433310536E+02  0.31567904409E+02  0.10566000000E+00 0. -1.
        996    1    1    2    0    0  0.57923592002E+01 -0.12430480748E+02  0.60399033630E+02  0.79599695604E+02  0.50000000000E+02 0.  0.
<mgrwt>
<rscale>  0 0.51846584E+02</rscale>
<asrwt>0</asrwt>
<pdfrwt beam="1">  1       13 0.10000000E+01 0.51846584E+02</pdfrwt>
<pdfrwt beam="2">  1       22 0.11167625E+00 0.51846584E+02</pdfrwt>
<totfact> 0.11979688E+00</totfact>
</mgrwt>
</event>
<event>
 4    1  0.2409985E+000  0.5341546E+02  0.7957747E-01  0.1427744E+00
         13   -1    0    0    0    0  0.00000000000E+00  0.00000000000E+00  0.99999944178E+02  0.99999999998E+02  0.10566000000E+00 0. -1.
         22   -1    0    0    0    0 -0.00000000000E+00 -0.00000000000E+00 -0.15710859718E+02  0.15710859718E+02  0.00000000000E+00 0.  1.
         13    1    1    2    0    0  0.17108860652E+02 -0.77780287670E+01  0.39018431766E+01  0.19194957372E+02  0.10566000000E+00 0.  1.
        996    1    1    2    0    0 -0.17108860652E+02  0.77780287670E+01  0.80387241283E+02  0.96515902345E+02  0.50000000000E+02 0.  0.
<mgrwt>
<rscale>  0 0.53415455E+02</rscale>
<asrwt>0</asrwt>
<pdfrwt beam="1">  1       13 0.10000000E+01 0.53415455E+02</pdfrwt>
<pdfrwt beam="2">  1       22 0.15710883E+00 0.53415455E+02</pdfrwt>
<totfact> 0.69850159E-01</totfact>
</mgrwt>
</event>
<event>
 4    1  0.2409985E+000  0.5111204E+02  0.7957747E-01  0.1439434E+00
         13   -1    0    0    0    0  0.00000000000E+00  0.00000000000E+00  0.99999944177E+02  0.99999999997E+02  0.10566000000E+00 0.  1.
         22   -1    0    0    0    0 -0.00000000000E+00 -0.00000000000E+00 -0.14494352150E+02  0.14494352150E+02  0.00000000000E+00 0. -1.
         13    1    1    2    0    0 -0.26293499586E+01  0.10272650346E+02 -0.40730189472E+01  0.11359642323E+02  0.10566000000E+00 0. -1.
        996    1    1    2    0    0  0.26293499586E+01 -0.10272650346E+02  0.89578610974E+02  0.10313470982E+03  0.50000000000E+02 0.  0.
<mgrwt>
<rscale>  0 0.51112042E+02</rscale>
<asrwt>0</asrwt>
<pdfrwt beam="1">  1       13 0.10000000E+01 0.51112042E+02</pdfrwt>
<pdfrwt beam="2">  1       22 0.14494376E+00 0.51112042E+02</pdfrwt>
<totfact> 0.79537888E-01</totfact>
</mgrwt>
</event>
<event>
 4    1  0.2409985E+000  0.5239284E+02  0.7957747E-01  0.1432847E+00
         13   -1    0    0    0    0  0.00000000000E+00  0.00000000000E+00  0.99999944174E+02  0.99999999995E+02  0.10566000000E+00 0. -1.
         22   -1    0    0    0    0 -0.00000000000E+00 -0.00000000000E+00 -0.12228629136E+02  0.12228629136E+02  0.00000000000E+00 0. -1.
         13    1    1    2    0    0  0.37662791500E+01 -0.15192907569E+02  0.10422070962E+02  0.18805319093E+02  0.10566000000E+00 0.  1.
        996    1    1    2    0    0 -0.37662791500E+01  0.15192907569E+02  0.77349244077E+02  0.93423310037E+02  0.50000000000E+02 0.  0.
<mgrwt>
<rscale>  0 0.52392836E+02</rscale>
<asrwt>0</asrwt>
<pdfrwt beam="1">  1       13 0.10000000E+01 0.52392836E+02</pdfrwt>
<pdfrwt beam="2">  1       22 0.12228654E+00 0.52392836E+02</pdfrwt>
<totfact> 0.10451167E+00</totfact>
</mgrwt>
</event>
<event>
 4    1  0.2409985E+000  0.5301663E+02  0.7957747E-01  0.1429718E+00
         13   -1    0    0    0    0  0.00000000000E+00  0.00000000000E+00  0.99999944182E+02  0.10000000000E+03  0.10566000000E+00 0.  1.
         22   -1    0    0    0    0 -0.00000000000E+00 -0.00000000000E+00 -0.14320370912E+02  0.14320370912E+02  0.00000000000E+00 0.  1.
         13    1    1    2    0    0  0.13376706302E+01  0.17577646410E+02  0.60142917040E+01  0.18626483424E+02  0.10566000000E+00 0. -1.
        996    1    1    2    0    0 -0.13376706302E+01 -0.17577646410E+02  0.79665281565E+02  0.95693887490E+02  0.50000000000E+02 0.  0.
<mgrwt>
<rscale>  0 0.53016630E+02</rscale>
<asrwt>0</asrwt>
<pdfrwt beam="1">  1       13 0.10000000E+01 0.53016630E+02</pdfrwt>
<pdfrwt beam="2">  1       22 0.14320395E+00 0.53016630E+02</pdfrwt>
<totfact> 0.81448917E-01</totfact>
</mgrwt>
</event>
<event>
 4    1  0.2409985E+000  0.5194414E+02  0.7957747E-01  0.1435129E+00
         13   -1    0    0    0    0  0.00000000000E+00  0.00000000000E+00  0.99999944181E+02  0.10000000000E+03  0.10566000000E+00 0.  1.
         22   -1    0    0    0    0 -0.00000000000E+00 -0.00000000000E+00 -0.13684317703E+02  0.13684317703E+02  0.00000000000E+00 0. -1.
         13    1    1    2    0    0 -0.13967589945E+02 -0.17607637264E+01  0.14091479061E+01  0.14148876974E+02  0.10566000000E+00 0. -1.
        996    1    1    2    0    0  0.13967589945E+02  0.17607637264E+01  0.84906478571E+02  0.99535440729E+02  0.50000000000E+02 0.  0.
<mgrwt>
<rscale>  0 0.51944142E+02</rscale>
<asrwt>0</asrwt>
<pdfrwt beam="1">  1       13 0.10000000E+01 0.51944142E+02</pdfrwt>
<pdfrwt beam="2">  1       22 0.13684342E+00 0.51944142E+02</pdfrwt>
<totfact> 0.87478257E-01</totfact>
</mgrwt>
</event>
<event>
 4    1  0.2409985E+000  0.5130204E+02  0.7957747E-01  0.1438443E+00
         13   -1    0    0    0    0  0.00000000000E+00  0.00000000000E+00  0.99999944177E+02  0.99999999997E+02  0.10566000000E+00 0.  1.
         22   -1    0    0    0    0 -0.00000000000E+00 -0.00000000000E+00 -0.44114303133E+02  0.44114303133E+02  0.00000000000E+00 0. -1.
         13    1    1    2    0    0  0.11456569562E+02 -0.80420172058E+00 -0.36596201122E+02  0.38356131545E+02  0.10566000000E+00 0. -1.
        996    1    1    2    0    0 -0.11456569562E+02  0.80420172058E+00  0.92481842166E+02  0.10575817159E+03  0.50000000000E+02 0.  0.
<mgrwt>
<rscale>  0 0.51302044E+02</rscale>
<asrwt>0</asrwt>
<pdfrwt beam="1">  1       13 0.10000000E+01 0.51302044E+02</pdfrwt>
<pdfrwt beam="2">  1       22 0.44114319E+00 0.51302044E+02</pdfrwt>
<totfact> 0.10108094E-01</totfact>
</mgrwt>
</event>
<event>
 4    1  0.2409985E+000  0.5367773E+02  0.7957747E-01  0.1426457E+00
         13   -1    0    0    0    0  0.00000000000E+00  0.00000000000E+00  0.99999944170E+02  0.99999999991E+02  0.10566000000E+00 0. -1.
         22   -1    0    0    0    0 -0.00000000000E+00 -0.00000000000E+00 -0.16078115591E+02  0.16078115591E+02  0.00000000000E+00 0. -1.
         13    1    1    2    0    0  0.15614116057E+01 -0.19464357427E+02  0.47092449158E+02  0.50980478107E+02  0.10566000000E+00 0.  1.
        996    1    1    2    0    0 -0.15614116057E+01  0.19464357427E+02  0.36829379421E+02  0.65097637475E+02  0.50000000000E+02 0.  0.
<mgrwt>
<rscale>  0 0.53677735E+02</rscale>
<asrwt>0</asrwt>
<pdfrwt beam="1">  1       13 0.10000000E+01 0.53677735E+02</pdfrwt>
<pdfrwt beam="2">  1       22 0.16078139E+00 0.53677735E+02</pdfrwt>
<totfact> 0.67183892E-01</totfact>
</mgrwt>
</event>
<event>
 4    1  0.2409985E+000  0.5324833E+02  0.7957747E-01  0.1428569E+00
         13   -1    0    0    0    0  0.00000000000E+00  0.00000000000E+00  0.99999944176E+02  0.99999999997E+02  0.10566000000E+00 0. -1.
         22   -1    0    0    0    0 -0.00000000000E+00 -0.00000000000E+00 -0.32470311358E+02  0.32470311358E+02  0.00000000000E+00 0.  1.
         13    1    1    2    0    0  0.18270813583E+02  0.12498789491E+01 -0.21801625489E+02  0.28472914574E+02  0.10566000000E+00 0.  1.
        996    1    1    2    0    0 -0.18270813583E+02 -0.12498789491E+01  0.89331258307E+02  0.10399739678E+03  0.50000000000E+02 0.  0.
<mgrwt>
<rscale>  0 0.53248332E+02</rscale>
<asrwt>0</asrwt>
<pdfrwt beam="1">  1       13 0.10000000E+01 0.53248332E+02</pdfrwt>
<pdfrwt beam="2">  1       22 0.32470330E+00 0.53248332E+02</pdfrwt>
<totfact> 0.17951300E-01</totfact>
</mgrwt>
</event>
<event>
 4    1  0.2409985E+000  0.5110003E+02  0.7957747E-01  0.1439497E+00
         13   -1    0    0    0    0  0.00000000000E+00  0.00000000000E+00  0.99999944179E+02  0.10000000000E+03  0.10566000000E+00 0.  1.
         22   -1    0    0    0    0 -0.00000000000E+00 -0.00000000000E+00 -0.96060244268E+01  0.96060244268E+01  0.00000000000E+00 0. -1.
         13    1    1    2    0    0 -0.98119333927E+01  0.38651135505E+01  0.11449446922E+02  0.15566442706E+02  0.10566000000E+00 0. -1.
        996    1    1    2    0    0  0.98119333927E+01 -0.38651135505E+01  0.78944472831E+02  0.94039581720E+02  0.50000000000E+02 0.  0.
<mgrwt>
<rscale>  0 0.51100031E+02</rscale>
<asrwt>0</asrwt>
<pdfrwt beam="1">  1       13 0.10000000E+01 0.51100031E+02</pdfrwt>
<pdfrwt beam="2">  1       22 0.96060497E-01 0.51100031E+02</pdfrwt>
<totfact> 0.14905603E+00</totfact>
</mgrwt>
</event>
<event>
 4    1  0.2409985E+000  0.5185399E+02  0.7957747E-01  0.1435591E+00
         13   -1    0    0    0    0  0.00000000000E+00  0.00000000000E+00  0.99999944174E+02  0.99999999995E+02  0.10566000000E+00 0. -1.
         22   -1    0    0    0    0 -0.00000000000E+00 -0.00000000000E+00 -0.13336199663E+02  0.13336199663E+02  0.00000000000E+00 0.  1.
         13    1    1    2    0    0 -0.13226479747E+02 -0.37277363894E+01  0.17659122556E+01  0.13855157711E+02  0.10566000000E+00 0.  1.
        996    1    1    2    0    0  0.13226479747E+02  0.37277363894E+01  0.84897832255E+02  0.99481041946E+02  0.50000000000E+02 0.  0.
<mgrwt>
<rscale>  0 0.51853985E+02</rscale>
<asrwt>0</asrwt>
<pdfrwt beam="1">  1       13 0.10000000E+01 0.51853985E+02</pdfrwt>
<pdfrwt beam="2">  1       22 0.13336224E+00 0.51853985E+02</pdfrwt>
<totfact> 0.91137915E-01</totfact>
</mgrwt>
</event>
<event>
 4    1  0.2409985E+000  0.5111355E+02  0.7957747E-01  0.1439426E+00
         13   -1    0    0    0    0  0.00000000000E+00  0.00000000000E+00  0.99999944180E+02  0.10000000000E+03  0.10566000000E+00 0. -1.
         22   -1    0    0    0    0 -0.00000000000E+00 -0.00000000000E+00 -0.96551158201E+01  0.96551158201E+01  0.00000000000E+00 0. -1.
         13    1    1    2    0    0  0.49895481856E+01  0.93648108915E+01  0.11103359642E+02  0.15358744529E+02  0.10566000000E+00 0.  1.
        996    1    1    2    0    0 -0.49895481856E+01 -0.93648108915E+01  0.79241468717E+02  0.94296371291E+02  0.50000000000E+02 0.  0.
<mgrwt>
<rscale>  0 0.51113553E+02</rscale>
<asrwt>0</asrwt>
<pdfrwt beam="1">  1       13 0.10000000E+01 0.51113553E+02</pdfrwt>
<pdfrwt beam="2">  1       22 0.96551410E-01 0.51113553E+02</pdfrwt>
<totfact> 0.14797560E+00</totfact>
</mgrwt>
</event>
<event>
 4    1  0.2409985E+000  0.5466248E+02  0.7957747E-01  0.1421702E+00
         13   -1    0    0    0    0  0.00000000000E+00  0.00000000000E+00  0.99999944184E+02  0.10000000000E+03  0.10566000000E+00 0. -1.
         22   -1    0    0    0    0 -0.00000000000E+00 -0.00000000000E+00 -0.15673233532E+02  0.15673233532E+02  0.00000000000E+00 0.  1.
         13    1    1    2    0    0 -0.19883606386E+02 -0.96243996237E+01  0.12401274216E+02  0.25333567401E+02  0.10566000000E+00 0.  1.
        996    1    1    2    0    0  0.19883606386E+02  0.96243996237E+01  0.71925436435E+02  0.90339666135E+02  0.50000000000E+02 0.  0.
<mgrwt>
<rscale>  0 0.54662481E+02</rscale>
<asrwt>0</asrwt>
<pdfrwt beam="1">  1       13 0.10000000E+01 0.54662481E+02</pdfrwt>
<pdfrwt beam="2">  1       22 0.15673257E+00 0.54662481E+02</pdfrwt>
<totfact> 0.70303495E-01</totfact>
</mgrwt>
</event>
<event>
 4    1  0.2409985E+000  0.5399181E+02  0.7957747E-01  0.1424928E+00
         13   -1    0    0    0    0  0.00000000000E+00  0.00000000000E+00  0.99999944179E+02  0.99999999999E+02  0.10566000000E+00 0. -1.
         22   -1    0    0    0    0 -0.00000000000E+00 -0.00000000000E+00 -0.13960062954E+02  0.13960062954E+02  0.00000000000E+00 0. -1.
         13    1    1    2    0    0  0.17991294651E+02  0.95618372422E+01  0.18771095368E+02  0.27703440220E+02  0.10566000000E+00 0.  1.
        996    1    1    2    0    0 -0.17991294651E+02 -0.95618372422E+01  0.67268785856E+02  0.86256622733E+02  0.50000000000E+02 0.  0.
<mgrwt>
<rscale>  0 0.53991809E+02</rscale>
<asrwt>0</asrwt>
<pdfrwt beam="1">  1       13 0.10000000E+01 0.53991809E+02</pdfrwt>
<pdfrwt beam="2">  1       22 0.13960087E+00 0.53991809E+02</pdfrwt>
<totfact> 0.85067349E-01</totfact>
</mgrwt>
</event>
<event>
 4    1  0.2409985E+000  0.6775993E+02  0.7957747E-01  0.1367881E+00
         13   -1    0    0    0    0  0.00000000000E+00  0.00000000000E+00  0.99999944183E+02  0.10000000000E+03  0.10566000000E+00 0.  1.
         22   -1    0    0    0    0 -0.00000000000E+00 -0.00000000000E+00 -0.35668572742E+02  0.35668572742E+02  0.00000000000E+00 0.  1.
         13    1    1    2    0    0  0.45446669144E+02 -0.50998516099E+01  0.47317009986E+02  0.65805158010E+02  0.10566000000E+00 0. -1.
        996    1    1    2    0    0 -0.45446669144E+02  0.50998516099E+01  0.17014361456E+02  0.69863414735E+02  0.50000000000E+02 0.  0.
<mgrwt>
<rscale>  0 0.67759931E+02</rscale>
<asrwt>0</asrwt>
<pdfrwt beam="1">  1       13 0.10000000E+01 0.67759931E+02</pdfrwt>
<pdfrwt beam="2">  1       22 0.35668591E+00 0.67759931E+02</pdfrwt>
<totfact> 0.15414197E-01</totfact>
</mgrwt>
</event>
<event>
 4    1  0.2409985E+000  0.5132782E+02  0.7957747E-01  0.1438308E+00
         13   -1    0    0    0    0  0.00000000000E+00  0.00000000000E+00  0.99999944180E+02  0.10000000000E+03  0.10566000000E+00 0.  1.
         22   -1    0    0    0    0 -0.00000000000E+00 -0.00000000000E+00 -0.25979089911E+02  0.25979089911E+02  0.00000000000E+00 0. -1.
         13    1    1    2    0    0  0.67174893417E+01  0.94562440572E+01 -0.17530620228E+02  0.21020918732E+02  0.10566000000E+00 0. -1.
        996    1    1    2    0    0 -0.67174893417E+01 -0.94562440572E+01  0.91551474497E+02  0.10495817118E+03  0.50000000000E+02 0.  0.
<mgrwt>
<rscale>  0 0.51327821E+02</rscale>
<asrwt>0</asrwt>
<pdfrwt beam="1">  1       13 0.10000000E+01 0.51327821E+02</pdfrwt>
<pdfrwt beam="2">  1       22 0.25979111E+00 0.51327821E+02</pdfrwt>
<totfact> 0.27304927E-01</totfact>
</mgrwt>
</event>
<event>
 4    1  0.2409985E+000  0.5357594E+02  0.7957747E-01  0.1426956E+00
         13   -1    0    0    0    0  0.00000000000E+00  0.00000000000E+00  0.99999944181E+02  0.10000000000E+03  0.10566000000E+00 0. -1.
         22   -1    0    0    0    0 -0.00000000000E+00 -0.00000000000E+00 -0.14540681123E+02  0.14540681123E+02  0.00000000000E+00 0.  1.
         13    1    1    2    0    0  0.19000093576E+02 -0.30623995234E+01  0.91710171560E+01  0.21319018890E+02  0.10566000000E+00 0.  1.
        996    1    1    2    0    0 -0.19000093576E+02  0.30623995234E+01  0.76288245902E+02  0.93221662234E+02  0.50000000000E+02 0.  0.
<mgrwt>
<rscale>  0 0.53575945E+02</rscale>
<asrwt>0</asrwt>
<pdfrwt beam="1">  1       13 0.10000000E+01 0.53575945E+02</pdfrwt>
<pdfrwt beam="2">  1       22 0.14540705E+00 0.53575945E+02</pdfrwt>
<totfact> 0.79523699E-01</totfact>
</mgrwt>
</event>
<event>
 4    1  0.2409985E+000  0.5271848E+02  0.7957747E-01  0.1431207E+00
         13   -1    0    0    0    0  0.00000000000E+00  0.00000000000E+00  0.99999944179E+02  0.10000000000E+03  0.10566000000E+00 0. -1.
         22   -1    0    0    0    0 -0.00000000000E+00 -0.00000000000E+00 -0.16448319831E+02  0.16448319831E+02  0.00000000000E+00 0.  1.
         13    1    1    2    0    0 -0.92476217822E+01 -0.13918337269E+02 -0.10738243754E+01  0.16745234659E+02  0.10566000000E+00 0.  1.
        996    1    1    2    0    0  0.92476217822E+01  0.13918337269E+02  0.84625448724E+02  0.99703085171E+02  0.50000000000E+02 0.  0.
<mgrwt>
<rscale>  0 0.52718485E+02</rscale>
<asrwt>0</asrwt>
<pdfrwt beam="1">  1       13 0.10000000E+01 0.52718485E+02</pdfrwt>
<pdfrwt beam="2">  1       22 0.16448343E+00 0.52718485E+02</pdfrwt>
<totfact> 0.64482035E-01</totfact>
</mgrwt>
</event>
<event>
 4    1  0.2409985E+000  0.5171323E+02  0.7957747E-01  0.1436314E+00
         13   -1    0    0    0    0  0.00000000000E+00  0.00000000000E+00  0.99999944171E+02  0.99999999992E+02  0.10566000000E+00 0.  1.
         22   -1    0    0    0    0 -0.00000000000E+00 -0.00000000000E+00 -0.37433648361E+02  0.37433648361E+02  0.00000000000E+00 0. -1.
         13    1    1    2    0    0  0.11660557417E+02 -0.61878358262E+01 -0.29230263078E+02  0.32073000407E+02  0.10566000000E+00 0. -1.
        996    1    1    2    0    0 -0.11660557417E+02  0.61878358262E+01  0.91796558889E+02  0.10536064794E+03  0.50000000000E+02 0.  0.
<mgrwt>
<rscale>  0 0.51713228E+02</rscale>
<asrwt>0</asrwt>
<pdfrwt beam="1">  1       13 0.10000000E+01 0.51713228E+02</pdfrwt>
<pdfrwt beam="2">  1       22 0.37433666E+00 0.51713228E+02</pdfrwt>
<totfact> 0.13961255E-01</totfact>
</mgrwt>
</event>
<event>
 4    1  0.2409985E+000  0.5162558E+02  0.7957747E-01  0.1436766E+00
         13   -1    0    0    0    0  0.00000000000E+00  0.00000000000E+00  0.99999944175E+02  0.99999999995E+02  0.10566000000E+00 0. -1.
         22   -1    0    0    0    0 -0.00000000000E+00 -0.00000000000E+00 -0.74352404547E+02  0.74352404547E+02  0.00000000000E+00 0.  1.
         13    1    1    2    0    0 -0.30868926203E+01  0.12476851156E+02 -0.67037945056E+02  0.68259050405E+02  0.10566000000E+00 0.  1.
        996    1    1    2    0    0  0.30868926203E+01 -0.12476851156E+02  0.92685484684E+02  0.10609335414E+03  0.50000000000E+02 0.  0.
<mgrwt>
<rscale>  0 0.51625582E+02</rscale>
<asrwt>0</asrwt>
<pdfrwt beam="1">  1       13 0.10000000E+01 0.51625582E+02</pdfrwt>
<pdfrwt beam="2">  1       22 0.74352412E+00 0.51625582E+02</pdfrwt>
<totfact> 0.52029501E-02</totfact>
</mgrwt>
</event>
<event>
 4    1  0.2409985E+000  0.5181278E+02  0.7957747E-01  0.1435802E+00
         13   -1    0    0    0    0  0.00000000000E+00  0.00000000000E+00  0.99999944182E+02  0.10000000000E+03  0.10566000000E+00 0. -1.
         22   -1    0    0    0    0 -0.00000000000E+00 -0.00000000000E+00 -0.13385677681E+02  0.13385677681E+02  0.00000000000E+00 0. -1.
         13    1    1    2    0    0 -0.91936101617E+01 -0.10002061775E+02  0.44770310764E+02  0.46786275739E+02  0.10566000000E+00 0.  1.
        996    1    1    2    0    0  0.91936101617E+01  0.10002061775E+02  0.41843955737E+02  0.66599401944E+02  0.50000000000E+02 0.  0.
<mgrwt>
<rscale>  0 0.51812776E+02</rscale>
<asrwt>0</asrwt>
<pdfrwt beam="1">  1       13 0.10000000E+01 0.51812776E+02</pdfrwt>
<pdfrwt beam="2">  1       22 0.13385702E+00 0.51812776E+02</pdfrwt>
<totfact> 0.90594409E-01</totfact>
</mgrwt>
</event>
<event>
 4    1  0.2409985E+000  0.5134710E+02  0.7957747E-01  0.1438208E+00
         13   -1    0    0    0    0  0.00000000000E+00  0.00000000000E+00  0.99999944182E+02  0.10000000000E+03  0.10566000000E+00 0. -1.
         22   -1    0    0    0    0 -0.00000000000E+00 -0.00000000000E+00 -0.19207375659E+02  0.19207375659E+02  0.00000000000E+00 0.  1.
         13    1    1    2    0    0  0.63188376851E+01  0.98283647137E+01 -0.96838798752E+01  0.15176071827E+02  0.10566000000E+00 0.  1.
        996    1    1    2    0    0 -0.63188376851E+01 -0.98283647137E+01  0.90476448398E+02  0.10403130383E+03  0.50000000000E+02 0.  0.
<mgrwt>
<rscale>  0 0.51347098E+02</rscale>
<asrwt>0</asrwt>
<pdfrwt beam="1">  1       13 0.10000000E+01 0.51347098E+02</pdfrwt>
<pdfrwt beam="2">  1       22 0.19207398E+00 0.51347098E+02</pdfrwt>
<totfact> 0.48772386E-01</totfact>
</mgrwt>
</event>
<event>
 4    1  0.2409985E+000  0.5133879E+02  0.7957747E-01  0.1438251E+00
         13   -1    0    0    0    0  0.00000000000E+00  0.00000000000E+00  0.99999944175E+02  0.99999999996E+02  0.10566000000E+00 0.  1.
         22   -1    0    0    0    0 -0.00000000000E+00 -0.00000000000E+00 -0.11497754182E+02  0.11497754182E+02  0.00000000000E+00 0. -1.
         13    1    1    2    0    0 -0.81961603903E+01 -0.82761300727E+01  0.34435268267E+01  0.12146621554E+02  0.10566000000E+00 0. -1.
        996    1    1    2    0    0  0.81961603903E+01  0.82761300727E+01  0.85058663166E+02  0.99351132624E+02  0.50000000000E+02 0.  0.
<mgrwt>
<rscale>  0 0.51338790E+02</rscale>
<asrwt>0</asrwt>
<pdfrwt beam="1">  1       13 0.10000000E+01 0.51338790E+02</pdfrwt>
<pdfrwt beam="2">  1       22 0.11497779E+00 0.51338790E+02</pdfrwt>
<totfact> 0.11453633E+00</totfact>
</mgrwt>
</event>
<event>
 4    1  0.2409985E+000  0.5676567E+02  0.7957747E-01  0.1411929E+00
         13   -1    0    0    0    0  0.00000000000E+00  0.00000000000E+00  0.99999944175E+02  0.99999999995E+02  0.10566000000E+00 0. -1.
         22   -1    0    0    0    0 -0.00000000000E+00 -0.00000000000E+00 -0.29903903285E+02  0.29903903285E+02  0.00000000000E+00 0.  1.
         13    1    1    2    0    0  0.20162778098E+02 -0.17770861671E+02 -0.12532645506E+02  0.29655008221E+02  0.10566000000E+00 0.  1.
        996    1    1    2    0    0 -0.20162778098E+02  0.17770861671E+02  0.82628686396E+02  0.10024889506E+03  0.50000000000E+02 0.  0.
<mgrwt>
<rscale>  0 0.56765669E+02</rscale>
<asrwt>0</asrwt>
<pdfrwt beam="1">  1       13 0.10000000E+01 0.56765669E+02</pdfrwt>
<pdfrwt beam="2">  1       22 0.29903923E+00 0.56765669E+02</pdfrwt>
<totfact> 0.20953584E-01</totfact>
</mgrwt>
</event>
<event>
 4    1  0.2409985E+000  0.5220179E+02  0.7957747E-01  0.1433815E+00
         13   -1    0    0    0    0  0.00000000000E+00  0.00000000000E+00  0.99999944173E+02  0.99999999994E+02  0.10566000000E+00 0. -1.
         22   -1    0    0    0    0 -0.00000000000E+00 -0.00000000000E+00 -0.23106458426E+02  0.23106458426E+02  0.00000000000E+00 0.  1.
         13    1    1    2    0    0 -0.11091931103E+02  0.10099280889E+02 -0.12540340762E+02  0.19552435156E+02  0.10566000000E+00 0.  1.
        996    1    1    2    0    0  0.11091931103E+02 -0.10099280889E+02  0.89433826509E+02  0.10355402326E+03  0.50000000000E+02 0.  0.
<mgrwt>
<rscale>  0 0.52201786E+02</rscale>
<asrwt>0</asrwt>
<pdfrwt beam="1">  1       13 0.10000000E+01 0.52201786E+02</pdfrwt>
<pdfrwt beam="2">  1       22 0.23106480E+00 0.52201786E+02</pdfrwt>
<totfact> 0.34407306E-01</totfact>
</mgrwt>
</event>
<event>
 4    1  0.2409985E+000  0.5154324E+02  0.7957747E-01  0.1437191E+00
         13   -1    0    0    0    0  0.00000000000E+00  0.00000000000E+00  0.99999944180E+02  0.10000000000E+03  0.10566000000E+00 0. -1.
         22   -1    0    0    0    0 -0.00000000000E+00 -0.00000000000E+00 -0.21644027685E+02  0.21644027685E+02  0.00000000000E+00 0.  1.
         13    1    1    2    0    0 -0.77428529204E+01 -0.98363479105E+01 -0.12178641170E+02  0.17465279166E+02  0.10566000000E+00 0.  1.
        996    1    1    2    0    0  0.77428529204E+01  0.98363479105E+01  0.90534557665E+02  0.10417874852E+03  0.50000000000E+02 0.  0.
<mgrwt>
<rscale>  0 0.51543239E+02</rscale>
<asrwt>0</asrwt>
<pdfrwt beam="1">  1       13 0.10000000E+01 0.51543239E+02</pdfrwt>
<pdfrwt beam="2">  1       22 0.21644050E+00 0.51543239E+02</pdfrwt>
<totfact> 0.38992378E-01</totfact>
</mgrwt>
</event>
<event>
 4    1  0.2409985E+000  0.5307647E+02  0.7957747E-01  0.1429421E+00
         13   -1    0    0    0    0  0.00000000000E+00  0.00000000000E+00  0.99999944181E+02  0.10000000000E+03  0.10566000000E+00 0.  1.
         22   -1    0    0    0    0 -0.00000000000E+00 -0.00000000000E+00 -0.47247253889E+02  0.47247253889E+02  0.00000000000E+00 0. -1.
         13    1    1    2    0    0 -0.19549046531E+01 -0.17699992020E+02 -0.38083382844E+02  0.42041248585E+02  0.10566000000E+00 0. -1.
        996    1    1    2    0    0  0.19549046531E+01  0.17699992020E+02  0.90836073135E+02  0.10520600531E+03  0.50000000000E+02 0.  0.
<mgrwt>
<rscale>  0 0.53076467E+02</rscale>
<asrwt>0</asrwt>
<pdfrwt beam="1">  1       13 0.10000000E+01 0.53076467E+02</pdfrwt>
<pdfrwt beam="2">  1       22 0.47247269E+00 0.53076467E+02</pdfrwt>
<totfact> 0.85766600E-02</totfact>
</mgrwt>
</event>
<event>
 4    1  0.2409985E+000  0.5196045E+02  0.7957747E-01  0.1435045E+00
         13   -1    0    0    0    0  0.00000000000E+00  0.00000000000E+00  0.99999944184E+02  0.10000000000E+03  0.10566000000E+00 0.  1.
         22   -1    0    0    0    0 -0.00000000000E+00 -0.00000000000E+00 -0.18206314335E+02  0.18206314335E+02  0.00000000000E+00 0.  1.
         13    1    1    2    0    0  0.14025671348E+02  0.17800537520E+01 -0.66533550873E+01  0.15625823053E+02  0.10566000000E+00 0. -1.
        996    1    1    2    0    0 -0.14025671348E+02 -0.17800537520E+01  0.88446984936E+02  0.10258049129E+03  0.50000000000E+02 0.  0.
<mgrwt>
<rscale>  0 0.51960447E+02</rscale>
<asrwt>0</asrwt>
<pdfrwt beam="1">  1       13 0.10000000E+01 0.51960447E+02</pdfrwt>
<pdfrwt beam="2">  1       22 0.18206337E+00 0.51960447E+02</pdfrwt>
<totfact> 0.53822708E-01</totfact>
</mgrwt>
</event>
<event>
 4    1  0.2409985E+000  0.5132483E+02  0.7957747E-01  0.1438324E+00
         13   -1    0    0    0    0  0.00000000000E+00  0.00000000000E+00  0.99999944182E+02  0.10000000000E+03  0.10566000000E+00 0.  1.
         22   -1    0    0    0    0 -0.00000000000E+00 -0.00000000000E+00 -0.10959646942E+02  0.10959646942E+02  0.00000000000E+00 0.  1.
         13    1    1    2    0    0 -0.11202227441E+02  0.29577458262E+01  0.32965372422E+02  0.34942311071E+02  0.10566000000E+00 0. -1.
        996    1    1    2    0    0  0.11202227441E+02 -0.29577458262E+01  0.56074924818E+02  0.76017335874E+02  0.50000000000E+02 0.  0.
<mgrwt>
<rscale>  0 0.51324830E+02</rscale>
<asrwt>0</asrwt>
<pdfrwt beam="1">  1       13 0.10000000E+01 0.51324830E+02</pdfrwt>
<pdfrwt beam="2">  1       22 0.10959672E+00 0.51324830E+02</pdfrwt>
<totfact> 0.12305051E+00</totfact>
</mgrwt>
</event>
<event>
 4    1  0.2409985E+000  0.5185740E+02  0.7957747E-01  0.1435573E+00
         13   -1    0    0    0    0  0.00000000000E+00  0.00000000000E+00  0.99999944175E+02  0.99999999995E+02  0.10566000000E+00 0.  1.
         22   -1    0    0    0    0 -0.00000000000E+00 -0.00000000000E+00 -0.10911583758E+02  0.10911583758E+02  0.00000000000E+00 0. -1.
         13    1    1    2    0    0 -0.13724936287E+02 -0.90309797812E+00  0.13733716758E+02  0.19437479314E+02  0.10566000000E+00 0. -1.
        996    1    1    2    0    0  0.13724936287E+02  0.90309797812E+00  0.75354643659E+02  0.91474104440E+02  0.50000000000E+02 0.  0.
<mgrwt>
<rscale>  0 0.51857395E+02</rscale>
<asrwt>0</asrwt>
<pdfrwt beam="1">  1       13 0.10000000E+01 0.51857395E+02</pdfrwt>
<pdfrwt beam="2">  1       22 0.10911609E+00 0.51857395E+02</pdfrwt>
<totfact> 0.12401037E+00</totfact>
</mgrwt>
</event>
<event>
 4    1  0.2409985E+000  0.5100040E+02  0.7957747E-01  0.1440019E+00
         13   -1    0    0    0    0  0.00000000000E+00  0.00000000000E+00  0.99999944180E+02  0.10000000000E+03  0.10566000000E+00 0.  1.
         22   -1    0    0    0    0 -0.00000000000E+00 -0.00000000000E+00 -0.19693790844E+02  0.19693790844E+02  0.00000000000E+00 0. -1.
         13    1    1    2    0    0 -0.93217783014E+01  0.37610123032E+01 -0.11129041379E+02  0.14996916026E+02  0.10566000000E+00 0. -1.
        996    1    1    2    0    0  0.93217783014E+01 -0.37610123032E+01  0.91435194714E+02  0.10469687482E+03  0.50000000000E+02 0.  0.
<mgrwt>
<rscale>  0 0.51000400E+02</rscale>
<asrwt>0</asrwt>
<pdfrwt beam="1">  1       13 0.10000000E+01 0.51000400E+02</pdfrwt>
<pdfrwt beam="2">  1       22 0.19693813E+00 0.51000400E+02</pdfrwt>
<totfact> 0.46542051E-01</totfact>
</mgrwt>
</event>
<event>
 4    1  0.2409985E+000  0.5360937E+02  0.7957747E-01  0.1426792E+00
         13   -1    0    0    0    0  0.00000000000E+00  0.00000000000E+00  0.99999944182E+02  0.10000000000E+03  0.10566000000E+00 0. -1.
         22   -1    0    0    0    0 -0.00000000000E+00 -0.00000000000E+00 -0.16084948829E+02  0.16084948829E+02  0.00000000000E+00 0. -1.
         13    1    1    2    0    0  0.36499207734E+01 -0.18990580591E+02  0.38318108583E+01  0.19714411260E+02  0.10566000000E+00 0.  1.
        996    1    1    2    0    0 -0.36499207734E+01  0.18990580591E+02  0.80083184495E+02  0.96370537571E+02  0.50000000000E+02 0.  0.
<mgrwt>
<rscale>  0 0.53609366E+02</rscale>
<asrwt>0</asrwt>
<pdfrwt beam="1">  1       13 0.10000000E+01 0.53609366E+02</pdfrwt>
<pdfrwt beam="2">  1       22 0.16084972E+00 0.53609366E+02</pdfrwt>
<totfact> 0.67126160E-01</totfact>
</mgrwt>
</event>
<event>
 4    1  0.2409985E+000  0.6055740E+02  0.7957747E-01  0.1395507E+00
         13   -1    0    0    0    0  0.00000000000E+00  0.00000000000E+00  0.99999944173E+02  0.99999999994E+02  0.10566000000E+00 0. -1.
         22   -1    0    0    0    0 -0.00000000000E+00 -0.00000000000E+00 -0.42518221081E+02  0.42518221081E+02  0.00000000000E+00 0.  1.
         13    1    1    2    0    0  0.26216086202E+02 -0.21906973696E+02 -0.23450208708E+02  0.41438172314E+02  0.10566000000E+00 0.  1.
        996    1    1    2    0    0 -0.26216086202E+02  0.21906973696E+02  0.80931931801E+02  0.10108004876E+03  0.50000000000E+02 0.  0.
<mgrwt>
<rscale>  0 0.60557400E+02</rscale>
<asrwt>0</asrwt>
<pdfrwt beam="1">  1       13 0.10000000E+01 0.60557400E+02</pdfrwt>
<pdfrwt beam="2">  1       22 0.42518237E+00 0.60557400E+02</pdfrwt>
<totfact> 0.11013083E-01</totfact>
</mgrwt>
</event>
<event>
 4    1  0.2409985E+000  0.5212048E+02  0.7957747E-01  0.1434229E+00
         13   -1    0    0    0    0  0.00000000000E+00  0.00000000000E+00  0.99999944180E+02  0.10000000000E+03  0.10566000000E+00 0.  1.
         22   -1    0    0    0    0 -0.00000000000E+00 -0.00000000000E+00 -0.16523442021E+02  0.16523442021E+02  0.00000000000E+00 0.  1.
         13    1    1    2    0    0  0.14152552754E+02  0.40311418012E+01 -0.34996218764E+01  0.15126247750E+02  0.10566000000E+00 0. -1.
        996    1    1    2    0    0 -0.14152552754E+02 -0.40311418012E+01  0.86976124036E+02  0.10139719427E+03  0.50000000000E+02 0.  0.
<mgrwt>
<rscale>  0 0.52120484E+02</rscale>
<asrwt>0</asrwt>
<pdfrwt beam="1">  1       13 0.10000000E+01 0.52120484E+02</pdfrwt>
<pdfrwt beam="2">  1       22 0.16523465E+00 0.52120484E+02</pdfrwt>
<totfact> 0.63901006E-01</totfact>
</mgrwt>
</event>
<event>
 4    1  0.2409985E+000  0.5315649E+02  0.7957747E-01  0.1429024E+00
         13   -1    0    0    0    0  0.00000000000E+00  0.00000000000E+00  0.99999944180E+02  0.10000000000E+03  0.10566000000E+00 0.  1.
         22   -1    0    0    0    0 -0.00000000000E+00 -0.00000000000E+00 -0.12725063213E+02  0.12725063213E+02  0.00000000000E+00 0.  1.
         13    1    1    2    0    0  0.14156579688E+02  0.11189448050E+02  0.25309099580E+02  0.31083342512E+02  0.10566000000E+00 0. -1.
        996    1    1    2    0    0 -0.14156579688E+02 -0.11189448050E+02  0.61965781388E+02  0.81641720702E+02  0.50000000000E+02 0.  0.
<mgrwt>
<rscale>  0 0.53156491E+02</rscale>
<asrwt>0</asrwt>
<pdfrwt beam="1">  1       13 0.10000000E+01 0.53156491E+02</pdfrwt>
<pdfrwt beam="2">  1       22 0.12725088E+00 0.53156491E+02</pdfrwt>
<totfact> 0.98410397E-01</totfact>
</mgrwt>
</event>
<event>
 4    1  0.2409985E+000  0.6925269E+02  0.7957747E-01  0.1362653E+00
         13   -1    0    0    0    0  0.00000000000E+00  0.00000000000E+00  0.99999944183E+02  0.10000000000E+03  0.10566000000E+00 0.  1.
         22   -1    0    0    0    0 -0.00000000000E+00 -0.00000000000E+00 -0.42313677388E+02  0.42313677388E+02  0.00000000000E+00 0. -1.
         13    1    1    2    0    0 -0.75113739896E+01  0.47323508353E+02 -0.59238143266E+01  0.48280823545E+02  0.10566000000E+00 0. -1.
        996    1    1    2    0    0  0.75113739896E+01 -0.47323508353E+02  0.63610081122E+02  0.94032853846E+02  0.50000000000E+02 0.  0.
<mgrwt>
<rscale>  0 0.69252691E+02</rscale>
<asrwt>0</asrwt>
<pdfrwt beam="1">  1       13 0.10000000E+01 0.69252691E+02</pdfrwt>
<pdfrwt beam="2">  1       22 0.42313694E+00 0.69252691E+02</pdfrwt>
<totfact> 0.11178344E-01</totfact>
</mgrwt>
</event>
<event>
 4    1  0.2409985E+000  0.5199352E+02  0.7957747E-01  0.1434876E+00
         13   -1    0    0    0    0  0.00000000000E+00  0.00000000000E+00  0.99999944178E+02  0.99999999998E+02  0.10566000000E+00 0. -1.
         22   -1    0    0    0    0 -0.00000000000E+00 -0.00000000000E+00 -0.11217036538E+02  0.11217036538E+02  0.00000000000E+00 0. -1.
         13    1    1    2    0    0  0.14240253504E+02 -0.73560136940E+00  0.12889694485E+02  0.19221896815E+02  0.10566000000E+00 0.  1.
        996    1    1    2    0    0 -0.14240253504E+02  0.73560136940E+00  0.75893213156E+02  0.91995139721E+02  0.50000000000E+02 0.  0.
<mgrwt>
<rscale>  0 0.51993518E+02</rscale>
<asrwt>0</asrwt>
<pdfrwt beam="1">  1       13 0.10000000E+01 0.51993518E+02</pdfrwt>
<pdfrwt beam="2">  1       22 0.11217061E+00 0.51993518E+02</pdfrwt>
<totfact> 0.11904828E+00</totfact>
</mgrwt>
</event>
<event>
 4    1  0.2409985E+000  0.5146743E+02  0.7957747E-01  0.1437584E+00
         13   -1    0    0    0    0  0.00000000000E+00  0.00000000000E+00  0.99999944181E+02  0.10000000000E+03  0.10566000000E+00 0. -1.
         22   -1    0    0    0    0 -0.00000000000E+00 -0.00000000000E+00 -0.11361683544E+02  0.11361683544E+02  0.00000000000E+00 0.  1.
         13    1    1    2    0    0  0.74425191799E+01 -0.96698215304E+01  0.50656865651E+01  0.13212451876E+02  0.10566000000E+00 0.  1.
        996    1    1    2    0    0 -0.74425191799E+01  0.96698215304E+01  0.83572574072E+02  0.98149231669E+02  0.50000000000E+02 0.  0.
<mgrwt>
<rscale>  0 0.51467432E+02</rscale>
<asrwt>0</asrwt>
<pdfrwt beam="1">  1       13 0.10000000E+01 0.51467432E+02</pdfrwt>
<pdfrwt beam="2">  1       22 0.11361708E+00 0.51467432E+02</pdfrwt>
<totfact> 0.11664159E+00</totfact>
</mgrwt>
</event>
<event>
 4    1  0.2409985E+000  0.5121082E+02  0.7957747E-01  0.1438918E+00
         13   -1    0    0    0    0  0.00000000000E+00  0.00000000000E+00  0.99999944172E+02  0.99999999993E+02  0.10566000000E+00 0. -1.
         22   -1    0    0    0    0 -0.00000000000E+00 -0.00000000000E+00 -0.10692173675E+02  0.10692173675E+02  0.00000000000E+00 0. -1.
         13    1    1    2    0    0 -0.10629763037E+02 -0.30912422531E+01  0.31879593601E+02  0.33747107922E+02  0.10566000000E+00 0.  1.
        996    1    1    2    0    0  0.10629763037E+02  0.30912422531E+01  0.57428176897E+02  0.76945065745E+02  0.50000000000E+02 0.  0.
<mgrwt>
<rscale>  0 0.51210816E+02</rscale>
<asrwt>0</asrwt>
<pdfrwt beam="1">  1       13 0.10000000E+01 0.51210816E+02</pdfrwt>
<pdfrwt beam="2">  1       22 0.10692199E+00 0.51210816E+02</pdfrwt>
<totfact> 0.12760019E+00</totfact>
</mgrwt>
</event>
<event>
 4    1  0.2409985E+000  0.5296306E+02  0.7957747E-01  0.1429985E+00
         13   -1    0    0    0    0  0.00000000000E+00  0.00000000000E+00  0.99999944180E+02  0.10000000000E+03  0.10566000000E+00 0. -1.
         22   -1    0    0    0    0 -0.00000000000E+00 -0.00000000000E+00 -0.17881869104E+02  0.17881869104E+02  0.00000000000E+00 0.  1.
         13    1    1    2    0    0  0.15112646250E+02  0.87575097538E+01 -0.29099477699E+01  0.17707767048E+02  0.10566000000E+00 0.  1.
        996    1    1    2    0    0 -0.15112646250E+02 -0.87575097538E+01  0.85028022846E+02  0.10017410206E+03  0.50000000000E+02 0.  0.
<mgrwt>
<rscale>  0 0.52963063E+02</rscale>
<asrwt>0</asrwt>
<pdfrwt beam="1">  1       13 0.10000000E+01 0.52963063E+02</pdfrwt>
<pdfrwt beam="2">  1       22 0.17881892E+00 0.52963063E+02</pdfrwt>
<totfact> 0.55692489E-01</totfact>
</mgrwt>
</event>
<event>
 4    1  0.2409985E+000  0.6070010E+02  0.7957747E-01  0.1394917E+00
         13   -1    0    0    0    0  0.00000000000E+00  0.00000000000E+00  0.99999944176E+02  0.99999999996E+02  0.10566000000E+00 0. -1.
         22   -1    0    0    0    0 -0.00000000000E+00 -0.00000000000E+00 -0.28829451952E+02  0.28829451952E+02  0.00000000000E+00 0.  1.
         13    1    1    2    0    0  0.33845682176E+02  0.62427775153E+01 -0.11193237476E+01  0.34434960763E+02  0.10566000000E+00 0.  1.
        996    1    1    2    0    0 -0.33845682176E+02 -0.62427775153E+01  0.72289815971E+02  0.94394491186E+02  0.50000000000E+02 0.  0.
<mgrwt>
<rscale>  0 0.60700103E+02</rscale>
<asrwt>0</asrwt>
<pdfrwt beam="1">  1       13 0.10000000E+01 0.60700103E+02</pdfrwt>
<pdfrwt beam="2">  1       22 0.28829472E+00 0.60700103E+02</pdfrwt>
<totfact> 0.22569683E-01</totfact>
</mgrwt>
</event>
<event>
 4    1  0.2409985E+000  0.5101601E+02  0.7957747E-01  0.1439937E+00
         13   -1    0    0    0    0  0.00000000000E+00  0.00000000000E+00  0.99999944173E+02  0.99999999994E+02  0.10566000000E+00 0. -1.
         22   -1    0    0    0    0 -0.00000000000E+00 -0.00000000000E+00 -0.94892343845E+01  0.94892343845E+01  0.00000000000E+00 0. -1.
         13    1    1    2    0    0 -0.73531822029E+01  0.69687971339E+01  0.20453954913E+02  0.22825618449E+02  0.10566000000E+00 0.  1.
        996    1    1    2    0    0  0.73531822029E+01 -0.69687971339E+01  0.70056754876E+02  0.86663615929E+02  0.50000000000E+02 0.  0.
<mgrwt>
<rscale>  0 0.51016011E+02</rscale>
<asrwt>0</asrwt>
<pdfrwt beam="1">  1       13 0.10000000E+01 0.51016011E+02</pdfrwt>
<pdfrwt beam="2">  1       22 0.94892596E-01 0.51016011E+02</pdfrwt>
<totfact> 0.15165556E+00</totfact>
</mgrwt>
</event>
<event>
 4    1  0.2409985E+000  0.5361700E+02  0.7957747E-01  0.1426755E+00
         13   -1    0    0    0    0  0.00000000000E+00  0.00000000000E+00  0.99999944177E+02  0.99999999997E+02  0.10566000000E+00 0. -1.
         22   -1    0    0    0    0 -0.00000000000E+00 -0.00000000000E+00 -0.13326520645E+02  0.13326520645E+02  0.00000000000E+00 0. -1.
         13    1    1    2    0    0 -0.15986545196E+02  0.10918493587E+02  0.21474894093E+02  0.28913065729E+02  0.10566000000E+00 0.  1.
        996    1    1    2    0    0  0.15986545196E+02 -0.10918493587E+02  0.65198529439E+02  0.84413454914E+02  0.50000000000E+02 0.  0.
<mgrwt>
<rscale>  0 0.53617004E+02</rscale>
<asrwt>0</asrwt>
<pdfrwt beam="1">  1       13 0.10000000E+01 0.53617004E+02</pdfrwt>
<pdfrwt beam="2">  1       22 0.13326545E+00 0.53617004E+02</pdfrwt>
<totfact> 0.91583613E-01</totfact>
</mgrwt>
</event>
<event>
 4    1  0.2409985E+000  0.5270876E+02  0.7957747E-01  0.1431256E+00
         13   -1    0    0    0    0  0.00000000000E+00  0.00000000000E+00  0.99999944181E+02  0.10000000000E+03  0.10566000000E+00 0.  1.
         22   -1    0    0    0    0 -0.00000000000E+00 -0.00000000000E+00 -0.12495515677E+02  0.12495515677E+02  0.00000000000E+00 0.  1.
         13    1    1    2    0    0  0.16679140599E+02  0.14113157490E+00  0.31138960993E+02  0.35325057750E+02  0.10566000000E+00 0. -1.
        996    1    1    2    0    0 -0.16679140599E+02 -0.14113157490E+00  0.56365467510E+02  0.77170457929E+02  0.50000000000E+02 0.  0.
<mgrwt>
<rscale>  0 0.52708763E+02</rscale>
<asrwt>0</asrwt>
<pdfrwt beam="1">  1       13 0.10000000E+01 0.52708763E+02</pdfrwt>
<pdfrwt beam="2">  1       22 0.12495540E+00 0.52708763E+02</pdfrwt>
<totfact> 0.10114619E+00</totfact>
</mgrwt>
</event>
<event>
 4    1  0.2409985E+000  0.5193009E+02  0.7957747E-01  0.1435201E+00
         13   -1    0    0    0    0  0.00000000000E+00  0.00000000000E+00  0.99999944176E+02  0.99999999996E+02  0.10566000000E+00 0.  1.
         22   -1    0    0    0    0 -0.00000000000E+00 -0.00000000000E+00 -0.12758111958E+02  0.12758111958E+02  0.00000000000E+00 0.  1.
         13    1    1    2    0    0  0.87572039523E+01  0.10956518301E+02  0.38953192751E+01  0.14557423901E+02  0.10566000000E+00 0. -1.
        996    1    1    2    0    0 -0.87572039523E+01 -0.10956518301E+02  0.83346512943E+02  0.98200688053E+02  0.50000000000E+02 0.  0.
<mgrwt>
<rscale>  0 0.51930087E+02</rscale>
<asrwt>0</asrwt>
<pdfrwt beam="1">  1       13 0.10000000E+01 0.51930087E+02</pdfrwt>
<pdfrwt beam="2">  1       22 0.12758136E+00 0.51930087E+02</pdfrwt>
<totfact> 0.97752678E-01</totfact>
</mgrwt>
</event>
<event>
 4    1  0.2409985E+000  0.5831863E+02  0.7957747E-01  0.1405026E+00
         13   -1    0    0    0    0  0.00000000000E+00  0.00000000000E+00  0.99999944183E+02  0.10000000000E+03  0.10566000000E+00 0. -1.
         22   -1    0    0    0    0 -0.00000000000E+00 -0.00000000000E+00 -0.24831982506E+02  0.24831982506E+02  0.00000000000E+00 0.  1.
         13    1    1    2    0    0  0.29528704824E+02  0.53961589262E+01  0.41432768955E+00  0.30020755673E+02  0.10566000000E+00 0.  1.
        996    1    1    2    0    0 -0.29528704824E+02 -0.53961589262E+01  0.74753633987E+02  0.94811226835E+02  0.50000000000E+02 0.  0.
<mgrwt>
<rscale>  0 0.58318633E+02</rscale>
<asrwt>0</asrwt>
<pdfrwt beam="1">  1       13 0.10000000E+01 0.58318633E+02</pdfrwt>
<pdfrwt beam="2">  1       22 0.24832003E+00 0.58318633E+02</pdfrwt>
<totfact> 0.30154097E-01</totfact>
</mgrwt>
</event>
<event>
 4    1  0.2409985E+000  0.5220257E+02  0.7957747E-01  0.1433811E+00
         13   -1    0    0    0    0  0.00000000000E+00  0.00000000000E+00  0.99999944177E+02  0.99999999997E+02  0.10566000000E+00 0.  1.
         22   -1    0    0    0    0 -0.00000000000E+00 -0.00000000000E+00 -0.34500346727E+02  0.34500346727E+02  0.00000000000E+00 0. -1.
         13    1    1    2    0    0 -0.28151398093E+01 -0.14737154662E+02 -0.25502337413E+02  0.29588665351E+02  0.10566000000E+00 0. -1.
        996    1    1    2    0    0  0.28151398093E+01  0.14737154662E+02  0.91001934863E+02  0.10491168137E+03  0.50000000000E+02 0.  0.
<mgrwt>
<rscale>  0 0.52202574E+02</rscale>
<asrwt>0</asrwt>
<pdfrwt beam="1">  1       13 0.10000000E+01 0.52202574E+02</pdfrwt>
<pdfrwt beam="2">  1       22 0.34500365E+00 0.52202574E+02</pdfrwt>
<totfact> 0.16116706E-01</totfact>
</mgrwt>
</event>
<event>
 4    1  0.2409985E+000  0.5182986E+02  0.7957747E-01  0.1435714E+00
         13   -1    0    0    0    0  0.00000000000E+00  0.00000000000E+00  0.99999944183E+02  0.10000000000E+03  0.10566000000E+00 0. -1.
         22   -1    0    0    0    0 -0.00000000000E+00 -0.00000000000E+00 -0.22208181977E+02  0.22208181977E+02  0.00000000000E+00 0.  1.
         13    1    1    2    0    0  0.96849786043E+01  0.96195332949E+01 -0.12232588547E+02  0.18329801362E+02  0.10566000000E+00 0.  1.
        996    1    1    2    0    0 -0.96849786043E+01 -0.96195332949E+01  0.90024350752E+02  0.10387838062E+03  0.50000000000E+02 0.  0.
<mgrwt>
<rscale>  0 0.51829858E+02</rscale>
<asrwt>0</asrwt>
<pdfrwt beam="1">  1       13 0.10000000E+01 0.51829858E+02</pdfrwt>
<pdfrwt beam="2">  1       22 0.22208204E+00 0.51829858E+02</pdfrwt>
<totfact> 0.37130758E-01</totfact>
</mgrwt>
</event>
<event>
 4    1  0.2409985E+000  0.5227046E+02  0.7957747E-01  0.1433466E+00
         13   -1    0    0    0    0  0.00000000000E+00  0.00000000000E+00  0.99999944180E+02  0.10000000000E+03  0.10566000000E+00 0. -1.
         22   -1    0    0    0    0 -0.00000000000E+00 -0.00000000000E+00 -0.11465248627E+02  0.11465248627E+02  0.00000000000E+00 0. -1.
         13    1    1    2    0    0 -0.13487485776E+02 -0.70914552807E+01  0.16448270286E+02  0.22422260591E+02  0.10566000000E+00 0.  1.
        996    1    1    2    0    0  0.13487485776E+02  0.70914552807E+01  0.72086425267E+02  0.89042988036E+02  0.50000000000E+02 0.  0.
<mgrwt>
<rscale>  0 0.52270460E+02</rscale>
<asrwt>0</asrwt>
<pdfrwt beam="1">  1       13 0.10000000E+01 0.52270460E+02</pdfrwt>
<pdfrwt beam="2">  1       22 0.11465273E+00 0.52270460E+02</pdfrwt>
<totfact> 0.11527108E+00</totfact>
</mgrwt>
</event>
<event>
 4    1  0.2409985E+000  0.5895443E+02  0.7957747E-01  0.1402273E+00
         13   -1    0    0    0    0  0.00000000000E+00  0.00000000000E+00  0.99999944192E+02  0.10000000001E+03  0.10566000000E+00 0.  1.
         22   -1    0    0    0    0 -0.00000000000E+00 -0.00000000000E+00 -0.72441680954E+02  0.72441680954E+02  0.00000000000E+00 0. -1.
         13    1    1    2    0    0 -0.25930263537E+02 -0.17413956951E+02 -0.59558179071E+02  0.67251857388E+02  0.10566000000E+00 0. -1.
        996    1    1    2    0    0  0.25930263537E+02  0.17413956951E+02  0.87116442309E+02  0.10518982358E+03  0.50000000000E+02 0.  0.
<mgrwt>
<rscale>  0 0.58954427E+02</rscale>
<asrwt>0</asrwt>
<pdfrwt beam="1">  1       13 0.10000000E+01 0.58954427E+02</pdfrwt>
<pdfrwt beam="2">  1       22 0.72441689E+00 0.58954427E+02</pdfrwt>
<totfact> 0.61678429E-02</totfact>
</mgrwt>
</event>
<event>
 4    1  0.2409985E+000  0.5148081E+02  0.7957747E-01  0.1437514E+00
         13   -1    0    0    0    0  0.00000000000E+00  0.00000000000E+00  0.99999944177E+02  0.99999999997E+02  0.10566000000E+00 0. -1.
         22   -1    0    0    0    0 -0.00000000000E+00 -0.00000000000E+00 -0.10382906141E+02  0.10382906141E+02  0.00000000000E+00 0. -1.
         13    1    1    2    0    0  0.98916598070E+01  0.72407792010E+01  0.11375235182E+02  0.16723664570E+02  0.10566000000E+00 0.  1.
        996    1    1    2    0    0 -0.98916598070E+01 -0.72407792010E+01  0.78241802854E+02  0.93659241568E+02  0.50000000000E+02 0.  0.
<mgrwt>
<rscale>  0 0.51480810E+02</rscale>
<asrwt>0</asrwt>
<pdfrwt beam="1">  1       13 0.10000000E+01 0.51480810E+02</pdfrwt>
<pdfrwt beam="2">  1       22 0.10382931E+00 0.51480810E+02</pdfrwt>
<totfact> 0.13330778E+00</totfact>
</mgrwt>
</event>
<event>
 4    1  0.2409985E+000  0.5242392E+02  0.7957747E-01  0.1432689E+00
         13   -1    0    0    0    0  0.00000000000E+00  0.00000000000E+00  0.99999944180E+02  0.10000000000E+03  0.10566000000E+00 0. -1.
         22   -1    0    0    0    0 -0.00000000000E+00 -0.00000000000E+00 -0.12371880280E+02  0.12371880280E+02  0.00000000000E+00 0. -1.
         13    1    1    2    0    0  0.21095668985E+01  0.15614628606E+02  0.98714546268E+01  0.18593646213E+02  0.10566000000E+00 0.  1.
        996    1    1    2    0    0 -0.21095668985E+01 -0.15614628606E+02  0.77756609274E+02  0.93778234067E+02  0.50000000000E+02 0.  0.
<mgrwt>
<rscale>  0 0.52423915E+02</rscale>
<asrwt>0</asrwt>
<pdfrwt beam="1">  1       13 0.10000000E+01 0.52423915E+02</pdfrwt>
<pdfrwt beam="2">  1       22 0.12371905E+00 0.52423915E+02</pdfrwt>
<totfact> 0.10265468E+00</totfact>
</mgrwt>
</event>
<event>
 4    1  0.2409985E+000  0.5235569E+02  0.7957747E-01  0.1433034E+00
         13   -1    0    0    0    0  0.00000000000E+00  0.00000000000E+00  0.99999944176E+02  0.99999999996E+02  0.10566000000E+00 0. -1.
         22   -1    0    0    0    0 -0.00000000000E+00 -0.00000000000E+00 -0.11755989713E+02  0.11755989713E+02  0.00000000000E+00 0.  1.
         13    1    1    2    0    0 -0.14527226757E+02 -0.54843643693E+01  0.13994861729E+02  0.20904207439E+02  0.10566000000E+00 0.  1.
        996    1    1    2    0    0  0.14527226757E+02  0.54843643693E+01  0.74249092734E+02  0.90851782270E+02  0.50000000000E+02 0.  0.
<mgrwt>
<rscale>  0 0.52355693E+02</rscale>
<asrwt>0</asrwt>
<pdfrwt beam="1">  1       13 0.10000000E+01 0.52355693E+02</pdfrwt>
<pdfrwt beam="2">  1       22 0.11756014E+00 0.52355693E+02</pdfrwt>
<totfact> 0.11100553E+00</totfact>
</mgrwt>
</event>
<event>
 4    1  0.2409985E+000  0.5100667E+02  0.7957747E-01  0.1439986E+00
         13   -1    0    0    0    0  0.00000000000E+00  0.00000000000E+00  0.99999944183E+02  0.10000000000E+03  0.10566000000E+00 0. -1.
         22   -1    0    0    0    0 -0.00000000000E+00 -0.00000000000E+00 -0.57382165734E+02  0.57382165734E+02  0.00000000000E+00 0.  1.
         13    1    1    2    0    0  0.95004283419E+01  0.33797358893E+01 -0.50345298646E+02  0.51345311501E+02  0.10566000000E+00 0.  1.
        996    1    1    2    0    0 -0.95004283419E+01 -0.33797358893E+01  0.92963077095E+02  0.10603685424E+03  0.50000000000E+02 0.  0.
<mgrwt>
<rscale>  0 0.51006674E+02</rscale>
<asrwt>0</asrwt>
<pdfrwt beam="1">  1       13 0.10000000E+01 0.51006674E+02</pdfrwt>
<pdfrwt beam="2">  1       22 0.57382178E+00 0.51006674E+02</pdfrwt>
<totfact> 0.57801049E-02</totfact>
</mgrwt>
</event>
<event>
 4    1  0.2409985E+000  0.5110453E+02  0.7957747E-01  0.1439473E+00
         13   -1    0    0    0    0  0.00000000000E+00  0.00000000000E+00  0.99999944176E+02  0.99999999996E+02  0.10566000000E+00 0. -1.
         22   -1    0    0    0    0 -0.00000000000E+00 -0.00000000000E+00 -0.30940648887E+02  0.30940648887E+02  0.00000000000E+00 0.  1.
         13    1    1    2    0    0 -0.31077323885E+01 -0.10100241656E+02 -0.23188385565E+02  0.25483038893E+02  0.10566000000E+00 0.  1.
        996    1    1    2    0    0  0.31077323885E+01  0.10100241656E+02  0.92247680853E+02  0.10545760999E+03  0.50000000000E+02 0.  0.
<mgrwt>
<rscale>  0 0.51104529E+02</rscale>
<asrwt>0</asrwt>
<pdfrwt beam="1">  1       13 0.10000000E+01 0.51104529E+02</pdfrwt>
<pdfrwt beam="2">  1       22 0.30940668E+00 0.51104529E+02</pdfrwt>
<totfact> 0.19532230E-01</totfact>
</mgrwt>
</event>
<event>
 4    1  0.2409985E+000  0.5159751E+02  0.7957747E-01  0.1436911E+00
         13   -1    0    0    0    0  0.00000000000E+00  0.00000000000E+00  0.99999944176E+02  0.99999999996E+02  0.10566000000E+00 0.  1.
         22   -1    0    0    0    0 -0.00000000000E+00 -0.00000000000E+00 -0.18218754392E+02  0.18218754392E+02  0.00000000000E+00 0. -1.
         13    1    1    2    0    0  0.10690704579E+02 -0.69290725384E+01 -0.77293416585E+01  0.14901580357E+02  0.10566000000E+00 0. -1.
        996    1    1    2    0    0 -0.10690704579E+02  0.69290725384E+01  0.89510531443E+02  0.10331717403E+03  0.50000000000E+02 0.  0.
<mgrwt>
<rscale>  0 0.51597512E+02</rscale>
<asrwt>0</asrwt>
<pdfrwt beam="1">  1       13 0.10000000E+01 0.51597512E+02</pdfrwt>
<pdfrwt beam="2">  1       22 0.18218777E+00 0.51597512E+02</pdfrwt>
<totfact> 0.53719739E-01</totfact>
</mgrwt>
</event>
<event>
 4    1  0.2409985E+000  0.5104868E+02  0.7957747E-01  0.1439766E+00
         13   -1    0    0    0    0  0.00000000000E+00  0.00000000000E+00  0.99999944176E+02  0.99999999996E+02  0.10566000000E+00 0. -1.
         22   -1    0    0    0    0 -0.00000000000E+00 -0.00000000000E+00 -0.13745629871E+02  0.13745629871E+02  0.00000000000E+00 0. -1.
         13    1    1    2    0    0  0.63945332943E+01 -0.80670871920E+01 -0.31740446500E+01  0.10772821139E+02  0.10566000000E+00 0.  1.
        996    1    1    2    0    0 -0.63945332943E+01  0.80670871920E+01  0.89428358955E+02  0.10297280873E+03  0.50000000000E+02 0.  0.
<mgrwt>
<rscale>  0 0.51048682E+02</rscale>
<asrwt>0</asrwt>
<pdfrwt beam="1">  1       13 0.10000000E+01 0.51048682E+02</pdfrwt>
<pdfrwt beam="2">  1       22 0.13745654E+00 0.51048682E+02</pdfrwt>
<totfact> 0.86685505E-01</totfact>
</mgrwt>
</event>
<event>
 4    1  0.2409985E+000  0.5238633E+02  0.7957747E-01  0.1432880E+00
         13   -1    0    0    0    0  0.00000000000E+00  0.00000000000E+00  0.99999944175E+02  0.99999999995E+02  0.10566000000E+00 0. -1.
         22   -1    0    0    0    0 -0.00000000000E+00 -0.00000000000E+00 -0.23830581613E+02  0.23830581613E+02  0.00000000000E+00 0.  1.
         13    1    1    2    0    0  0.23497496156E+01 -0.15453340219E+02 -0.13053777021E+02  0.20365149293E+02  0.10566000000E+00 0.  1.
        996    1    1    2    0    0 -0.23497496156E+01  0.15453340219E+02  0.89223139583E+02  0.10346543232E+03  0.50000000000E+02 0.  0.
<mgrwt>
<rscale>  0 0.52386325E+02</rscale>
<asrwt>0</asrwt>
<pdfrwt beam="1">  1       13 0.10000000E+01 0.52386325E+02</pdfrwt>
<pdfrwt beam="2">  1       22 0.23830603E+00 0.52386325E+02</pdfrwt>
<totfact> 0.32405903E-01</totfact>
</mgrwt>
</event>
<event>
 4    1  0.2409985E+000  0.5405431E+02  0.7957747E-01  0.1424625E+00
         13   -1    0    0    0    0  0.00000000000E+00  0.00000000000E+00  0.99999944177E+02  0.99999999997E+02  0.10566000000E+00 0. -1.
         22   -1    0    0    0    0 -0.00000000000E+00 -0.00000000000E+00 -0.15978055710E+02  0.15978055710E+02  0.00000000000E+00 0. -1.
         13    1    1    2    0    0  0.15548693645E+02  0.13420361153E+02  0.44515721379E+02  0.49025795063E+02  0.10566000000E+00 0.  1.
        996    1    1    2    0    0 -0.15548693645E+02 -0.13420361153E+02  0.39506167088E+02  0.66952260645E+02  0.50000000000E+02 0.  0.
<mgrwt>
<rscale>  0 0.54054306E+02</rscale>
<asrwt>0</asrwt>
<pdfrwt beam="1">  1       13 0.10000000E+01 0.54054306E+02</pdfrwt>
<pdfrwt beam="2">  1       22 0.15978079E+00 0.54054306E+02</pdfrwt>
<totfact> 0.67954851E-01</totfact>
</mgrwt>
</event>
<event>
 4    1  0.2409985E+000  0.5300317E+02  0.7957747E-01  0.1429785E+00
         13   -1    0    0    0    0  0.00000000000E+00  0.00000000000E+00  0.99999944169E+02  0.99999999989E+02  0.10566000000E+00 0.  1.
         22   -1    0    0    0    0 -0.00000000000E+00 -0.00000000000E+00 -0.26879481977E+02  0.26879481977E+02  0.00000000000E+00 0. -1.
         13    1    1    2    0    0  0.80718791073E+01  0.15626275631E+02 -0.15614783060E+02  0.23519530958E+02  0.10566000000E+00 0. -1.
        996    1    1    2    0    0 -0.80718791073E+01 -0.15626275631E+02  0.88735245252E+02  0.10335995101E+03  0.50000000000E+02 0.  0.
<mgrwt>
<rscale>  0 0.53003167E+02</rscale>
<asrwt>0</asrwt>
<pdfrwt beam="1">  1       13 0.10000000E+01 0.53003167E+02</pdfrwt>
<pdfrwt beam="2">  1       22 0.26879502E+00 0.53003167E+02</pdfrwt>
<totfact> 0.25602790E-01</totfact>
</mgrwt>
</event>
<event>
 4    1  0.2409985E+000  0.5320614E+02  0.7957747E-01  0.1428778E+00
         13   -1    0    0    0    0  0.00000000000E+00  0.00000000000E+00  0.99999944173E+02  0.99999999994E+02  0.10566000000E+00 0. -1.
         22   -1    0    0    0    0 -0.00000000000E+00 -0.00000000000E+00 -0.35509744114E+02  0.35509744114E+02  0.00000000000E+00 0.  1.
         13    1    1    2    0    0 -0.16087955738E+02 -0.84894502033E+01 -0.25287201033E+02  0.31150389800E+02  0.10566000000E+00 0.  1.
        996    1    1    2    0    0  0.16087955738E+02  0.84894502033E+01  0.89777401093E+02  0.10435935431E+03  0.50000000000E+02 0.  0.
<mgrwt>
<rscale>  0 0.53206138E+02</rscale>
<asrwt>0</asrwt>
<pdfrwt beam="1">  1       13 0.10000000E+01 0.53206138E+02</pdfrwt>
<pdfrwt beam="2">  1       22 0.35509762E+00 0.53206138E+02</pdfrwt>
<totfact> 0.15341667E-01</totfact>
</mgrwt>
</event>
<event>
 4    1  0.2409985E+000  0.5425210E+02  0.7957747E-01  0.1423669E+00
         13   -1    0    0    0    0  0.00000000000E+00  0.00000000000E+00  0.99999944181E+02  0.10000000000E+03  0.10566000000E+00 0.  1.
         22   -1    0    0    0    0 -0.00000000000E+00 -0.00000000000E+00 -0.29673191744E+02  0.29673191744E+02  0.00000000000E+00 0. -1.
         13    1    1    2    0    0 -0.18114069184E+01  0.20976391239E+02 -0.16868058630E+02  0.26978375608E+02  0.10566000000E+00 0. -1.
        996    1    1    2    0    0  0.18114069184E+01 -0.20976391239E+02  0.87194811068E+02  0.10269481614E+03  0.50000000000E+02 0.  0.
<mgrwt>
<rscale>  0 0.54252098E+02</rscale>
<asrwt>0</asrwt>
<pdfrwt beam="1">  1       13 0.10000000E+01 0.54252098E+02</pdfrwt>
<pdfrwt beam="2">  1       22 0.29673211E+00 0.54252098E+02</pdfrwt>
<totfact> 0.21195275E-01</totfact>
</mgrwt>
</event>
<event>
 4    1  0.2409985E+000  0.5263926E+02  0.7957747E-01  0.1431605E+00
         13   -1    0    0    0    0  0.00000000000E+00  0.00000000000E+00  0.99999944175E+02  0.99999999995E+02  0.10566000000E+00 0. -1.
         22   -1    0    0    0    0 -0.00000000000E+00 -0.00000000000E+00 -0.12416576340E+02  0.12416576340E+02  0.00000000000E+00 0.  1.
         13    1    1    2    0    0  0.15076637832E+02  0.66020179107E+01  0.12263613971E+02  0.20525570406E+02  0.10566000000E+00 0.  1.
        996    1    1    2    0    0 -0.15076637832E+02 -0.66020179107E+01  0.75319753863E+02  0.91891005930E+02  0.50000000000E+02 0.  0.
<mgrwt>
<rscale>  0 0.52639260E+02</rscale>
<asrwt>0</asrwt>
<pdfrwt beam="1">  1       13 0.10000000E+01 0.52639260E+02</pdfrwt>
<pdfrwt beam="2">  1       22 0.12416601E+00 0.52639260E+02</pdfrwt>
<totfact> 0.10213069E+00</totfact>
</mgrwt>
</event>
<event>
 4    1  0.2409985E+000  0.5487661E+02  0.7957747E-01  0.1420683E+00
         13   -1    0    0    0    0  0.00000000000E+00  0.00000000000E+00  0.99999944176E+02  0.99999999996E+02  0.10566000000E+00 0. -1.
         22   -1    0    0    0    0 -0.00000000000E+00 -0.00000000000E+00 -0.15891172322E+02  0.15891172322E+02  0.00000000000E+00 0.  1.
         13    1    1    2    0    0  0.18274651735E+02 -0.13322147725E+02  0.13054115249E+02  0.26112518167E+02  0.10566000000E+00 0.  1.
        996    1    1    2    0    0 -0.18274651735E+02  0.13322147725E+02  0.71054656605E+02  0.89778654152E+02  0.50000000000E+02 0.  0.
<mgrwt>
<rscale>  0 0.54876612E+02</rscale>
<asrwt>0</asrwt>
<pdfrwt beam="1">  1       13 0.10000000E+01 0.54876612E+02</pdfrwt>
<pdfrwt beam="2">  1       22 0.15891196E+00 0.54876612E+02</pdfrwt>
<totfact> 0.68697864E-01</totfact>
</mgrwt>
</event>
<event>
 4    1  0.2409985E+000  0.5146425E+02  0.7957747E-01  0.1437600E+00
         13   -1    0    0    0    0  0.00000000000E+00  0.00000000000E+00  0.99999944179E+02  0.99999999999E+02  0.10566000000E+00 0.  1.
         22   -1    0    0    0    0 -0.00000000000E+00 -0.00000000000E+00 -0.10266555295E+02  0.10266555295E+02  0.00000000000E+00 0.  1.
         13    1    1    2    0    0  0.12183744398E+02  0.35481543165E+00  0.12518494670E+02  0.17472647034E+02  0.10566000000E+00 0. -1.
        996    1    1    2    0    0 -0.12183744398E+02 -0.35481543165E+00  0.77214894214E+02  0.92793908259E+02  0.50000000000E+02 0.  0.
<mgrwt>
<rscale>  0 0.51464255E+02</rscale>
<asrwt>0</asrwt>
<pdfrwt beam="1">  1       13 0.10000000E+01 0.51464255E+02</pdfrwt>
<pdfrwt beam="2">  1       22 0.10266580E+00 0.51464255E+02</pdfrwt>
<totfact> 0.13551507E+00</totfact>
</mgrwt>
</event>
<event>
 4    1  0.2409985E+000  0.5184022E+02  0.7957747E-01  0.1435661E+00
         13   -1    0    0    0    0  0.00000000000E+00  0.00000000000E+00  0.99999944180E+02  0.10000000000E+03  0.10566000000E+00 0. -1.
         22   -1    0    0    0    0 -0.00000000000E+00 -0.00000000000E+00 -0.18683317892E+02  0.18683317892E+02  0.00000000000E+00 0.  1.
         13    1    1    2    0    0 -0.42399310887E+01  0.13016579239E+02 -0.76740221326E+01  0.15694270625E+02  0.10566000000E+00 0.  1.
        996    1    1    2    0    0  0.42399310887E+01 -0.13016579239E+02  0.88990648421E+02  0.10298904727E+03  0.50000000000E+02 0.  0.
<mgrwt>
<rscale>  0 0.51840219E+02</rscale>
<asrwt>0</asrwt>
<pdfrwt beam="1">  1       13 0.10000000E+01 0.51840219E+02</pdfrwt>
<pdfrwt beam="2">  1       22 0.18683341E+00 0.51840219E+02</pdfrwt>
<totfact> 0.51349747E-01</totfact>
</mgrwt>
</event>
<event>
 4    1  0.2409985E+000  0.5111820E+02  0.7957747E-01  0.1439402E+00
         13   -1    0    0    0    0  0.00000000000E+00  0.00000000000E+00  0.99999944177E+02  0.99999999997E+02  0.10566000000E+00 0. -1.
         22   -1    0    0    0    0 -0.00000000000E+00 -0.00000000000E+00 -0.11834190040E+02  0.11834190040E+02  0.00000000000E+00 0. -1.
         13    1    1    2    0    0  0.19075749292E+01  0.10460969307E+02  0.86576419840E+00  0.10669181441E+02  0.10566000000E+00 0.  1.
        996    1    1    2    0    0 -0.19075749292E+01 -0.10460969307E+02  0.87299989938E+02  0.10116500860E+03  0.50000000000E+02 0.  0.
<mgrwt>
<rscale>  0 0.51118203E+02</rscale>
<asrwt>0</asrwt>
<pdfrwt beam="1">  1       13 0.10000000E+01 0.51118203E+02</pdfrwt>
<pdfrwt beam="2">  1       22 0.11834215E+00 0.51118203E+02</pdfrwt>
<totfact> 0.10958478E+00</totfact>
</mgrwt>
</event>
<event>
 4    1  0.2409985E+000  0.6958708E+02  0.7957747E-01  0.1361503E+00
         13   -1    0    0    0    0  0.00000000000E+00  0.00000000000E+00  0.99999944171E+02  0.99999999991E+02  0.10566000000E+00 0.  1.
         22   -1    0    0    0    0 -0.00000000000E+00 -0.00000000000E+00 -0.47390998312E+02  0.47390998312E+02  0.00000000000E+00 0. -1.
         13    1    1    2    0    0  0.39782579252E+01 -0.48234168164E+02 -0.14696185988E+02  0.50580139988E+02  0.10566000000E+00 0. -1.
        996    1    1    2    0    0 -0.39782579252E+01  0.48234168164E+02  0.67305131847E+02  0.96810858314E+02  0.50000000000E+02 0.  0.
<mgrwt>
<rscale>  0 0.69587079E+02</rscale>
<asrwt>0</asrwt>
<pdfrwt beam="1">  1       13 0.10000000E+01 0.69587079E+02</pdfrwt>
<pdfrwt beam="2">  1       22 0.47391013E+00 0.69587079E+02</pdfrwt>
<totfact> 0.85720226E-02</totfact>
</mgrwt>
</event>
<event>
 4    1  0.2409985E+000  0.5101533E+02  0.7957747E-01  0.1439941E+00
         13   -1    0    0    0    0  0.00000000000E+00  0.00000000000E+00  0.99999944184E+02  0.10000000000E+03  0.10566000000E+00 0.  1.
         22   -1    0    0    0    0 -0.00000000000E+00 -0.00000000000E+00 -0.93495350668E+01  0.93495350668E+01  0.00000000000E+00 0.  1.
         13    1    1    2    0    0  0.10002479845E+02  0.15856486110E+01  0.14260911989E+02  0.17491388148E+02  0.10566000000E+00 0. -1.
        996    1    1    2    0    0 -0.10002479845E+02 -0.15856486110E+01  0.76389497129E+02  0.91858146923E+02  0.50000000000E+02 0.  0.
<mgrwt>
<rscale>  0 0.51015330E+02</rscale>
<asrwt>0</asrwt>
<pdfrwt beam="1">  1       13 0.10000000E+01 0.51015330E+02</pdfrwt>
<pdfrwt beam="2">  1       22 0.93495604E-01 0.51015330E+02</pdfrwt>
<totfact> 0.15489580E+00</totfact>
</mgrwt>
</event>
<event>
 4    1  0.2409985E+000  0.5120765E+02  0.7957747E-01  0.1438935E+00
         13   -1    0    0    0    0  0.00000000000E+00  0.00000000000E+00  0.99999944180E+02  0.10000000000E+03  0.10566000000E+00 0. -1.
         22   -1    0    0    0    0 -0.00000000000E+00 -0.00000000000E+00 -0.12866891205E+02  0.12866891205E+02  0.00000000000E+00 0. -1.
         13    1    1    2    0    0 -0.74758194970E+00  0.11030169158E+02 -0.82689036390E+00  0.11086858083E+02  0.10566000000E+00 0.  1.
        996    1    1    2    0    0  0.74758194970E+00 -0.11030169158E+02  0.87959943339E+02  0.10178003312E+03  0.50000000000E+02 0.  0.
<mgrwt>
<rscale>  0 0.51207651E+02</rscale>
<asrwt>0</asrwt>
<pdfrwt beam="1">  1       13 0.10000000E+01 0.51207651E+02</pdfrwt>
<pdfrwt beam="2">  1       22 0.12866916E+00 0.51207651E+02</pdfrwt>
<totfact> 0.96307915E-01</totfact>
</mgrwt>
</event>
<event>
 4    1  0.2409985E+000  0.5109220E+02  0.7957747E-01  0.1439538E+00
         13   -1    0    0    0    0  0.00000000000E+00  0.00000000000E+00  0.99999944180E+02  0.10000000000E+03  0.10566000000E+00 0.  1.
         22   -1    0    0    0    0 -0.00000000000E+00 -0.00000000000E+00 -0.11338031360E+02  0.11338031360E+02  0.00000000000E+00 0. -1.
         13    1    1    2    0    0  0.10321568409E+02 -0.19692937052E+01  0.19417822086E+01  0.10686186144E+02  0.10566000000E+00 0. -1.
        996    1    1    2    0    0 -0.10321568409E+02  0.19692937052E+01  0.86720130611E+02  0.10065184522E+03  0.50000000000E+02 0.  0.
<mgrwt>
<rscale>  0 0.51092200E+02</rscale>
<asrwt>0</asrwt>
<pdfrwt beam="1">  1       13 0.10000000E+01 0.51092200E+02</pdfrwt>
<pdfrwt beam="2">  1       22 0.11338056E+00 0.51092200E+02</pdfrwt>
<totfact> 0.11690548E+00</totfact>
</mgrwt>
</event>
<event>
 4    1  0.2409985E+000  0.5210444E+02  0.7957747E-01  0.1434310E+00
         13   -1    0    0    0    0  0.00000000000E+00  0.00000000000E+00  0.99999944184E+02  0.10000000000E+03  0.10566000000E+00 0. -1.
         22   -1    0    0    0    0 -0.00000000000E+00 -0.00000000000E+00 -0.24074775209E+02  0.24074775209E+02  0.00000000000E+00 0. -1.
         13    1    1    2    0    0  0.33820554547E+01 -0.14263026721E+02 -0.13919404908E+02  0.20214678513E+02  0.10566000000E+00 0.  1.
        996    1    1    2    0    0 -0.33820554547E+01  0.14263026721E+02  0.89844573884E+02  0.10386009670E+03  0.50000000000E+02 0.  0.
<mgrwt>
<rscale>  0 0.52104436E+02</rscale>
<asrwt>0</asrwt>
<pdfrwt beam="1">  1       13 0.10000000E+01 0.52104436E+02</pdfrwt>
<pdfrwt beam="2">  1       22 0.24074796E+00 0.52104436E+02</pdfrwt>
<totfact> 0.31750836E-01</totfact>
</mgrwt>
</event>
<event>
 4    1  0.2409985E+000  0.5115339E+02  0.7957747E-01  0.1439218E+00
         13   -1    0    0    0    0  0.00000000000E+00  0.00000000000E+00  0.99999944175E+02  0.99999999995E+02  0.10566000000E+00 0. -1.
         22   -1    0    0    0    0 -0.00000000000E+00 -0.00000000000E+00 -0.15122108247E+02  0.15122108247E+02  0.00000000000E+00 0.  1.
         13    1    1    2    0    0 -0.23711762848E+01 -0.10537863871E+02 -0.48473147936E+01  0.11839623164E+02  0.10566000000E+00 0.  1.
        996    1    1    2    0    0  0.23711762848E+01  0.10537863871E+02  0.89725150722E+02  0.10328248508E+03  0.50000000000E+02 0.  0.
<mgrwt>
<rscale>  0 0.51153387E+02</rscale>
<asrwt>0</asrwt>
<pdfrwt beam="1">  1       13 0.10000000E+01 0.51153387E+02</pdfrwt>
<pdfrwt beam="2">  1       22 0.15122132E+00 0.51153387E+02</pdfrwt>
<totfact> 0.74152155E-01</totfact>
</mgrwt>
</event>
<event>
 4    1  0.2409985E+000  0.5238994E+02  0.7957747E-01  0.1432861E+00
         13   -1    0    0    0    0  0.00000000000E+00  0.00000000000E+00  0.99999944175E+02  0.99999999996E+02  0.10566000000E+00 0.  1.
         22   -1    0    0    0    0 -0.00000000000E+00 -0.00000000000E+00 -0.12051112522E+02  0.12051112522E+02  0.00000000000E+00 0.  1.
         13    1    1    2    0    0 -0.11088897680E+02 -0.11033698073E+02  0.11683639307E+02  0.19524977245E+02  0.10566000000E+00 0. -1.
        996    1    1    2    0    0  0.11088897680E+02  0.11033698073E+02  0.76265192346E+02  0.92526135273E+02  0.50000000000E+02 0.  0.
<mgrwt>
<rscale>  0 0.52389943E+02</rscale>
<asrwt>0</asrwt>
<pdfrwt beam="1">  1       13 0.10000000E+01 0.52389943E+02</pdfrwt>
<pdfrwt beam="2">  1       22 0.12051137E+00 0.52389943E+02</pdfrwt>
<totfact> 0.10688845E+00</totfact>
</mgrwt>
</event>
<event>
 4    1  0.2409985E+000  0.6844906E+02  0.7957747E-01  0.1365448E+00
         13   -1    0    0    0    0  0.00000000000E+00  0.00000000000E+00  0.99999944179E+02  0.99999999999E+02  0.10566000000E+00 0. -1.
         22   -1    0    0    0    0 -0.00000000000E+00 -0.00000000000E+00 -0.35130237041E+02  0.35130237041E+02  0.00000000000E+00 0.  1.
         13    1    1    2    0    0  0.25233584863E+02 -0.39351491448E+02  0.10995382566E+02  0.48022737178E+02  0.10566000000E+00 0.  1.
        996    1    1    2    0    0 -0.25233584863E+02  0.39351491448E+02  0.53874324572E+02  0.87107499863E+02  0.50000000000E+02 0.  0.
<mgrwt>
<rscale>  0 0.68449059E+02</rscale>
<asrwt>0</asrwt>
<pdfrwt beam="1">  1       13 0.10000000E+01 0.68449059E+02</pdfrwt>
<pdfrwt beam="2">  1       22 0.35130255E+00 0.68449059E+02</pdfrwt>
<totfact> 0.15843205E-01</totfact>
</mgrwt>
</event>
<event>
 4    1  0.2409985E+000  0.5373031E+02  0.7957747E-01  0.1426201E+00
         13   -1    0    0    0    0  0.00000000000E+00  0.00000000000E+00  0.99999944178E+02  0.99999999998E+02  0.10566000000E+00 0.  1.
         22   -1    0    0    0    0 -0.00000000000E+00 -0.00000000000E+00 -0.39638936607E+02  0.39638936607E+02  0.00000000000E+00 0. -1.
         13    1    1    2    0    0 -0.19670945905E+02 -0.17543915374E-01 -0.29193520008E+02  0.35202545293E+02  0.10566000000E+00 0. -1.
        996    1    1    2    0    0  0.19670945905E+02  0.17543915374E-01  0.89554527579E+02  0.10443639131E+03  0.50000000000E+02 0.  0.
<mgrwt>
<rscale>  0 0.53730312E+02</rscale>
<asrwt>0</asrwt>
<pdfrwt beam="1">  1       13 0.10000000E+01 0.53730312E+02</pdfrwt>
<pdfrwt beam="2">  1       22 0.39638953E+00 0.53730312E+02</pdfrwt>
<totfact> 0.12598394E-01</totfact>
</mgrwt>
</event>
<event>
 4    1  0.2409985E+000  0.6512563E+02  0.7957747E-01  0.1377500E+00
         13   -1    0    0    0    0  0.00000000000E+00  0.00000000000E+00  0.99999944168E+02  0.99999999988E+02  0.10566000000E+00 0. -1.
         22   -1    0    0    0    0 -0.00000000000E+00 -0.00000000000E+00 -0.64423990226E+02  0.64423990226E+02  0.00000000000E+00 0.  1.
         13    1    1    2    0    0 -0.41628768308E+00  0.41727376980E+02 -0.44634911943E+02  0.61103468095E+02  0.10566000000E+00 0.  1.
        996    1    1    2    0    0  0.41628768308E+00 -0.41727376980E+02  0.80210865884E+02  0.10332052212E+03  0.50000000000E+02 0.  0.
<mgrwt>
<rscale>  0 0.65125627E+02</rscale>
<asrwt>0</asrwt>
<pdfrwt beam="1">  1       13 0.10000000E+01 0.65125627E+02</pdfrwt>
<pdfrwt beam="2">  1       22 0.64424000E+00 0.65125627E+02</pdfrwt>
<totfact> 0.84870951E-02</totfact>
</mgrwt>
</event>
<event>
 4    1  0.2409985E+000  0.5181844E+02  0.7957747E-01  0.1435773E+00
         13   -1    0    0    0    0  0.00000000000E+00  0.00000000000E+00  0.99999944176E+02  0.99999999996E+02  0.10566000000E+00 0. -1.
         22   -1    0    0    0    0 -0.00000000000E+00 -0.00000000000E+00 -0.11234271619E+02  0.11234271619E+02  0.00000000000E+00 0. -1.
         13    1    1    2    0    0 -0.13605879773E+02 -0.17641712438E+00  0.97384216042E+01  0.16733173841E+02  0.10566000000E+00 0.  1.
        996    1    1    2    0    0  0.13605879773E+02  0.17641712438E+00  0.79027250953E+02  0.94501097775E+02  0.50000000000E+02 0.  0.
<mgrwt>
<rscale>  0 0.51818444E+02</rscale>
<asrwt>0</asrwt>
<pdfrwt beam="1">  1       13 0.10000000E+01 0.51818444E+02</pdfrwt>
<pdfrwt beam="2">  1       22 0.11234296E+00 0.51818444E+02</pdfrwt>
<totfact> 0.11872718E+00</totfact>
</mgrwt>
</event>
<event>
 4    1  0.2409985E+000  0.5164682E+02  0.7957747E-01  0.1436656E+00
         13   -1    0    0    0    0  0.00000000000E+00  0.00000000000E+00  0.99999944171E+02  0.99999999992E+02  0.10566000000E+00 0. -1.
         22   -1    0    0    0    0 -0.00000000000E+00 -0.00000000000E+00 -0.26011212114E+02  0.26011212114E+02  0.00000000000E+00 0.  1.
         13    1    1    2    0    0 -0.12228540320E+02 -0.42256836258E+01 -0.17013694052E+02  0.21374530400E+02  0.10566000000E+00 0.  1.
        996    1    1    2    0    0  0.12228540320E+02  0.42256836258E+01  0.91002426110E+02  0.10463668171E+03  0.50000000000E+02 0.  0.
<mgrwt>
<rscale>  0 0.51646816E+02</rscale>
<asrwt>0</asrwt>
<pdfrwt beam="1">  1       13 0.10000000E+01 0.51646816E+02</pdfrwt>
<pdfrwt beam="2">  1       22 0.26011233E+00 0.51646816E+02</pdfrwt>
<totfact> 0.27252045E-01</totfact>
</mgrwt>
</event>
<event>
 4    1  0.2409985E+000  0.5166671E+02  0.7957747E-01  0.1436554E+00
         13   -1    0    0    0    0  0.00000000000E+00  0.00000000000E+00  0.99999944175E+02  0.99999999995E+02  0.10566000000E+00 0. -1.
         22   -1    0    0    0    0 -0.00000000000E+00 -0.00000000000E+00 -0.29765167132E+02  0.29765167132E+02  0.00000000000E+00 0.  1.
         13    1    1    2    0    0  0.16355696212E-01  0.13017250414E+02 -0.21121476255E+02  0.24810824232E+02  0.10566000000E+00 0.  1.
        996    1    1    2    0    0 -0.16355696212E-01 -0.13017250414E+02  0.91356253298E+02  0.10495434289E+03  0.50000000000E+02 0.  0.
<mgrwt>
<rscale>  0 0.51666711E+02</rscale>
<asrwt>0</asrwt>
<pdfrwt beam="1">  1       13 0.10000000E+01 0.51666711E+02</pdfrwt>
<pdfrwt beam="2">  1       22 0.29765187E+00 0.51666711E+02</pdfrwt>
<totfact> 0.21000999E-01</totfact>
</mgrwt>
</event>
<event>
 4    1  0.2409985E+000  0.5125578E+02  0.7957747E-01  0.1438684E+00
         13   -1    0    0    0    0  0.00000000000E+00  0.00000000000E+00  0.99999944169E+02  0.99999999990E+02  0.10566000000E+00 0. -1.
         22   -1    0    0    0    0 -0.00000000000E+00 -0.00000000000E+00 -0.18878925969E+02  0.18878925969E+02  0.00000000000E+00 0. -1.
         13    1    1    2    0    0 -0.65779327855E+01  0.91589310759E+01 -0.95143926663E+01  0.14754323096E+02  0.10566000000E+00 0.  1.
        996    1    1    2    0    0  0.65779327855E+01 -0.91589310759E+01  0.90635410867E+02  0.10412460286E+03  0.50000000000E+02 0.  0.
<mgrwt>
<rscale>  0 0.51255782E+02</rscale>
<asrwt>0</asrwt>
<pdfrwt beam="1">  1       13 0.10000000E+01 0.51255782E+02</pdfrwt>
<pdfrwt beam="2">  1       22 0.18878949E+00 0.51255782E+02</pdfrwt>
<totfact> 0.50329322E-01</totfact>
</mgrwt>
</event>
<event>
 4    1  0.2409985E+000  0.5431239E+02  0.7957747E-01  0.1423379E+00
         13   -1    0    0    0    0  0.00000000000E+00  0.00000000000E+00  0.99999944183E+02  0.10000000000E+03  0.10566000000E+00 0.  1.
         22   -1    0    0    0    0 -0.00000000000E+00 -0.00000000000E+00 -0.36997392447E+02  0.36997392447E+02  0.00000000000E+00 0. -1.
         13    1    1    2    0    0  0.10941148695E+02  0.18169383482E+02 -0.25494260819E+02  0.33163288885E+02  0.10566000000E+00 0. -1.
        996    1    1    2    0    0 -0.10941148695E+02 -0.18169383482E+02  0.88496812555E+02  0.10383410357E+03  0.50000000000E+02 0.  0.
<mgrwt>
<rscale>  0 0.54312386E+02</rscale>
<asrwt>0</asrwt>
<pdfrwt beam="1">  1       13 0.10000000E+01 0.54312386E+02</pdfrwt>
<pdfrwt beam="2">  1       22 0.36997410E+00 0.54312386E+02</pdfrwt>
<totfact> 0.14288423E-01</totfact>
</mgrwt>
</event>
<event>
 4    1  0.2409985E+000  0.5306145E+02  0.7957747E-01  0.1429495E+00
         13   -1    0    0    0    0  0.00000000000E+00  0.00000000000E+00  0.99999944171E+02  0.99999999991E+02  0.10566000000E+00 0. -1.
         22   -1    0    0    0    0 -0.00000000000E+00 -0.00000000000E+00 -0.15390468366E+02  0.15390468366E+02  0.00000000000E+00 0. -1.
         13    1    1    2    0    0 -0.91660667976E+01 -0.15215163843E+02  0.29510485101E+01  0.18006605528E+02  0.10566000000E+00 0.  1.
        996    1    1    2    0    0  0.91660667976E+01  0.15215163843E+02  0.81658427295E+02  0.97383862829E+02  0.50000000000E+02 0.  0.
<mgrwt>
<rscale>  0 0.53061455E+02</rscale>
<asrwt>0</asrwt>
<pdfrwt beam="1">  1       13 0.10000000E+01 0.53061455E+02</pdfrwt>
<pdfrwt beam="2">  1       22 0.15390492E+00 0.53061455E+02</pdfrwt>
<totfact> 0.72276048E-01</totfact>
</mgrwt>
</event>
<event>
 4    1  0.2409985E+000  0.5176292E+02  0.7957747E-01  0.1436058E+00
         13   -1    0    0    0    0  0.00000000000E+00  0.00000000000E+00  0.99999944170E+02  0.99999999990E+02  0.10566000000E+00 0.  1.
         22   -1    0    0    0    0 -0.00000000000E+00 -0.00000000000E+00 -0.67314005291E+02  0.67314005291E+02  0.00000000000E+00 0. -1.
         13    1    1    2    0    0 -0.12935608611E+02 -0.34741818313E+01 -0.59824988996E+02  0.61306120265E+02  0.10566000000E+00 0. -1.
        996    1    1    2    0    0  0.12935608611E+02  0.34741818313E+01  0.92510927875E+02  0.10600788502E+03  0.50000000000E+02 0.  0.
<mgrwt>
<rscale>  0 0.51762920E+02</rscale>
<asrwt>0</asrwt>
<pdfrwt beam="1">  1       13 0.10000000E+01 0.51762920E+02</pdfrwt>
<pdfrwt beam="2">  1       22 0.67314014E+00 0.51762920E+02</pdfrwt>
<totfact> 0.85553383E-02</totfact>
</mgrwt>
</event>
<event>
 4    1  0.2409985E+000  0.5113289E+02  0.7957747E-01  0.1439325E+00
         13   -1    0    0    0    0  0.00000000000E+00  0.00000000000E+00  0.99999944185E+02  0.10000000001E+03  0.10566000000E+00 0.  1.
         22   -1    0    0    0    0 -0.00000000000E+00 -0.00000000000E+00 -0.96236242218E+01  0.96236242218E+01  0.00000000000E+00 0.  1.
         13    1    1    2    0    0 -0.10063191134E+02 -0.36475508797E+01  0.19232681828E+02  0.22010898608E+02  0.10566000000E+00 0. -1.
        996    1    1    2    0    0  0.10063191134E+02  0.36475508797E+01  0.71143638136E+02  0.87612725619E+02  0.50000000000E+02 0.  0.
<mgrwt>
<rscale>  0 0.51132890E+02</rscale>
<asrwt>0</asrwt>
<pdfrwt beam="1">  1       13 0.10000000E+01 0.51132890E+02</pdfrwt>
<pdfrwt beam="2">  1       22 0.96236495E-01 0.51132890E+02</pdfrwt>
<totfact> 0.14867761E+00</totfact>
</mgrwt>
</event>
<event>
 4    1  0.2409985E+000  0.5297789E+02  0.7957747E-01  0.1429911E+00
         13   -1    0    0    0    0  0.00000000000E+00  0.00000000000E+00  0.99999944181E+02  0.10000000000E+03  0.10566000000E+00 0.  1.
         22   -1    0    0    0    0 -0.00000000000E+00 -0.00000000000E+00 -0.57645238682E+02  0.57645238682E+02  0.00000000000E+00 0. -1.
         13    1    1    2    0    0 -0.61938133053E+01 -0.16379677510E+02 -0.49002956272E+02  0.52038044218E+02  0.10566000000E+00 0. -1.
        996    1    1    2    0    0  0.61938133053E+01  0.16379677510E+02  0.91357661771E+02  0.10560719447E+03  0.50000000000E+02 0.  0.
<mgrwt>
<rscale>  0 0.52977893E+02</rscale>
<asrwt>0</asrwt>
<pdfrwt beam="1">  1       13 0.10000000E+01 0.52977893E+02</pdfrwt>
<pdfrwt beam="2">  1       22 0.57645251E+00 0.52977893E+02</pdfrwt>
<totfact> 0.57923884E-02</totfact>
</mgrwt>
</event>
<event>
 4    1  0.2409985E+000  0.5216543E+02  0.7957747E-01  0.1434000E+00
         13   -1    0    0    0    0  0.00000000000E+00  0.00000000000E+00  0.99999944176E+02  0.99999999996E+02  0.10566000000E+00 0.  1.
         22   -1    0    0    0    0 -0.00000000000E+00 -0.00000000000E+00 -0.14561480977E+02  0.14561480977E+02  0.00000000000E+00 0. -1.
         13    1    1    2    0    0 -0.12258944238E+02  0.84231761214E+01  0.49939617969E+00  0.14882613023E+02  0.10566000000E+00 0. -1.
        996    1    1    2    0    0  0.12258944238E+02 -0.84231761214E+01  0.84939067019E+02  0.99678867950E+02  0.50000000000E+02 0.  0.
<mgrwt>
<rscale>  0 0.52165425E+02</rscale>
<asrwt>0</asrwt>
<pdfrwt beam="1">  1       13 0.10000000E+01 0.52165425E+02</pdfrwt>
<pdfrwt beam="2">  1       22 0.14561505E+00 0.52165425E+02</pdfrwt>
<totfact> 0.79109673E-01</totfact>
</mgrwt>
</event>
<event>
 4    1  0.2409985E+000  0.5299988E+02  0.7957747E-01  0.1429801E+00
         13   -1    0    0    0    0  0.00000000000E+00  0.00000000000E+00  0.99999944180E+02  0.10000000000E+03  0.10566000000E+00 0. -1.
         22   -1    0    0    0    0 -0.00000000000E+00 -0.00000000000E+00 -0.12456832306E+02  0.12456832306E+02  0.00000000000E+00 0. -1.
         13    1    1    2    0    0  0.11633692288E+02 -0.13177427079E+02  0.22641299876E+02  0.28664036784E+02  0.10566000000E+00 0.  1.
        996    1    1    2    0    0 -0.11633692288E+02  0.13177427079E+02  0.64901811998E+02  0.83792795522E+02  0.50000000000E+02 0.  0.
<mgrwt>
<rscale>  0 0.52999881E+02</rscale>
<asrwt>0</asrwt>
<pdfrwt beam="1">  1       13 0.10000000E+01 0.52999881E+02</pdfrwt>
<pdfrwt beam="2">  1       22 0.12456857E+00 0.52999881E+02</pdfrwt>
<totfact> 0.10169849E+00</totfact>
</mgrwt>
</event>
<event>
 4    1  0.2409985E+000  0.5216929E+02  0.7957747E-01  0.1433980E+00
         13   -1    0    0    0    0  0.00000000000E+00  0.00000000000E+00  0.99999944174E+02  0.99999999994E+02  0.10566000000E+00 0.  1.
         22   -1    0    0    0    0 -0.00000000000E+00 -0.00000000000E+00 -0.12619653700E+02  0.12619653700E+02  0.00000000000E+00 0.  1.
         13    1    1    2    0    0 -0.13955375737E+02 -0.51848024222E+01  0.62122170879E+01  0.16131878171E+02  0.10566000000E+00 0. -1.
        996    1    1    2    0    0  0.13955375737E+02  0.51848024222E+01  0.81168073386E+02  0.96487775523E+02  0.50000000000E+02 0.  0.
<mgrwt>
<rscale>  0 0.52169289E+02</rscale>
<asrwt>0</asrwt>
<pdfrwt beam="1">  1       13 0.10000000E+01 0.52169289E+02</pdfrwt>
<pdfrwt beam="2">  1       22 0.12619678E+00 0.52169289E+02</pdfrwt>
<totfact> 0.99484946E-01</totfact>
</mgrwt>
</event>
<event>
 4    1  0.2409985E+000  0.5221452E+02  0.7957747E-01  0.1433750E+00
         13   -1    0    0    0    0  0.00000000000E+00  0.00000000000E+00  0.99999944173E+02  0.99999999993E+02  0.10566000000E+00 0.  1.
         22   -1    0    0    0    0 -0.00000000000E+00 -0.00000000000E+00 -0.28718779304E+02  0.28718779304E+02  0.00000000000E+00 0. -1.
         13    1    1    2    0    0 -0.13874495545E+02 -0.58184580253E+01 -0.19115133393E+02  0.24326026579E+02  0.10566000000E+00 0. -1.
        996    1    1    2    0    0  0.13874495545E+02  0.58184580253E+01  0.90396298263E+02  0.10439275272E+03  0.50000000000E+02 0.  0.
<mgrwt>
<rscale>  0 0.52214520E+02</rscale>
<asrwt>0</asrwt>
<pdfrwt beam="1">  1       13 0.10000000E+01 0.52214520E+02</pdfrwt>
<pdfrwt beam="2">  1       22 0.28718799E+00 0.52214520E+02</pdfrwt>
<totfact> 0.22493027E-01</totfact>
</mgrwt>
</event>
<event>
 4    1  0.2409985E+000  0.5334070E+02  0.7957747E-01  0.1428113E+00
         13   -1    0    0    0    0  0.00000000000E+00  0.00000000000E+00  0.99999944173E+02  0.99999999993E+02  0.10566000000E+00 0. -1.
         22   -1    0    0    0    0 -0.00000000000E+00 -0.00000000000E+00 -0.16106342453E+02  0.16106342453E+02  0.00000000000E+00 0.  1.
         13    1    1    2    0    0  0.12256348204E+02  0.13964663034E+02  0.24381906616E+01  0.18739952580E+02  0.10566000000E+00 0.  1.
        996    1    1    2    0    0 -0.12256348204E+02 -0.13964663034E+02  0.81455411058E+02  0.97366389866E+02  0.50000000000E+02 0.  0.
<mgrwt>
<rscale>  0 0.53340696E+02</rscale>
<asrwt>0</asrwt>
<pdfrwt beam="1">  1       13 0.10000000E+01 0.53340696E+02</pdfrwt>
<pdfrwt beam="2">  1       22 0.16106366E+00 0.53340696E+02</pdfrwt>
<totfact> 0.66938703E-01</totfact>
</mgrwt>
</event>
<event>
 4    1  0.2409985E+000  0.5132891E+02  0.7957747E-01  0.1438303E+00
         13   -1    0    0    0    0  0.00000000000E+00  0.00000000000E+00  0.99999944183E+02  0.10000000000E+03  0.10566000000E+00 0. -1.
         22   -1    0    0    0    0 -0.00000000000E+00 -0.00000000000E+00 -0.11070441693E+02  0.11070441693E+02  0.00000000000E+00 0. -1.
         13    1    1    2    0    0 -0.33180491041E+01 -0.11119687270E+02  0.48841190690E+01  0.12590578936E+02  0.10566000000E+00 0.  1.
        996    1    1    2    0    0  0.33180491041E+01  0.11119687270E+02  0.84045383421E+02  0.98479862760E+02  0.50000000000E+02 0.  0.
<mgrwt>
<rscale>  0 0.51328909E+02</rscale>
<asrwt>0</asrwt>
<pdfrwt beam="1">  1       13 0.10000000E+01 0.51328909E+02</pdfrwt>
<pdfrwt beam="2">  1       22 0.11070467E+00 0.51328909E+02</pdfrwt>
<totfact> 0.12122369E+00</totfact>
</mgrwt>
</event>
<event>
 4    1  0.2409985E+000  0.5282209E+02  0.7957747E-01  0.1430688E+00
         13   -1    0    0    0    0  0.00000000000E+00  0.00000000000E+00  0.99999944178E+02  0.99999999998E+02  0.10566000000E+00 0.  1.
         22   -1    0    0    0    0 -0.00000000000E+00 -0.00000000000E+00 -0.12553107673E+02  0.12553107673E+02  0.00000000000E+00 0.  1.
         13    1    1    2    0    0  0.10149101252E+02 -0.13680954728E+02  0.13807166854E+02  0.21927649191E+02  0.10566000000E+00 0. -1.
        996    1    1    2    0    0 -0.10149101252E+02  0.13680954728E+02  0.73639669651E+02  0.90625458480E+02  0.50000000000E+02 0.  0.
<mgrwt>
<rscale>  0 0.52822086E+02</rscale>
<asrwt>0</asrwt>
<pdfrwt beam="1">  1       13 0.10000000E+01 0.52822086E+02</pdfrwt>
<pdfrwt beam="2">  1       22 0.12553132E+00 0.52822086E+02</pdfrwt>
<totfact> 0.10045000E+00</totfact>
</mgrwt>
</event>
<event>
 4    1  0.2409985E+000  0.5102722E+02  0.7957747E-01  0.1439878E+00
         13   -1    0    0    0    0  0.00000000000E+00  0.00000000000E+00  0.99999944183E+02  0.10000000000E+03  0.10566000000E+00 0. -1.
         22   -1    0    0    0    0 -0.00000000000E+00 -0.00000000000E+00 -0.10332538384E+02  0.10332538384E+02  0.00000000000E+00 0.  1.
         13    1    1    2    0    0 -0.10184855411E+02 -0.21512902456E+00  0.46983531076E+01  0.11218879008E+02  0.10566000000E+00 0.  1.
        996    1    1    2    0    0  0.10184855411E+02  0.21512902456E+00  0.84969052691E+02  0.99113659379E+02  0.50000000000E+02 0.  0.
<mgrwt>
<rscale>  0 0.51027224E+02</rscale>
<asrwt>0</asrwt>
<pdfrwt beam="1">  1       13 0.10000000E+01 0.51027224E+02</pdfrwt>
<pdfrwt beam="2">  1       22 0.10332563E+00 0.51027224E+02</pdfrwt>
<totfact> 0.13411272E+00</totfact>
</mgrwt>
</event>
<event>
 4    1  0.2409985E+000  0.5610164E+02  0.7957747E-01  0.1414960E+00
         13   -1    0    0    0    0  0.00000000000E+00  0.00000000000E+00  0.99999944179E+02  0.99999999999E+02  0.10566000000E+00 0.  1.
         22   -1    0    0    0    0 -0.00000000000E+00 -0.00000000000E+00 -0.30027022729E+02  0.30027022729E+02  0.00000000000E+00 0. -1.
         13    1    1    2    0    0  0.85891074224E+01  0.23950389461E+02 -0.13997146582E+02  0.29040061951E+02  0.10566000000E+00 0. -1.
        996    1    1    2    0    0 -0.85891074224E+01 -0.23950389461E+02  0.83970068032E+02  0.10098696078E+03  0.50000000000E+02 0.  0.
<mgrwt>
<rscale>  0 0.56101639E+02</rscale>
<asrwt>0</asrwt>
<pdfrwt beam="1">  1       13 0.10000000E+01 0.56101639E+02</pdfrwt>
<pdfrwt beam="2">  1       22 0.30027042E+00 0.56101639E+02</pdfrwt>
<totfact> 0.20775785E-01</totfact>
</mgrwt>
</event>
<event>
 4    1  0.2409985E+000  0.5370360E+02  0.7957747E-01  0.1426331E+00
         13   -1    0    0    0    0  0.00000000000E+00  0.00000000000E+00  0.99999944176E+02  0.99999999996E+02  0.10566000000E+00 0.  1.
         22   -1    0    0    0    0 -0.00000000000E+00 -0.00000000000E+00 -0.15242455334E+02  0.15242455334E+02  0.00000000000E+00 0. -1.
         13    1    1    2    0    0  0.13644114321E+02 -0.14068227143E+02  0.71419638593E+01  0.20858947297E+02  0.10566000000E+00 0. -1.
        996    1    1    2    0    0 -0.13644114321E+02  0.14068227143E+02  0.77615524982E+02  0.94383508034E+02  0.50000000000E+02 0.  0.
<mgrwt>
<rscale>  0 0.53703602E+02</rscale>
<asrwt>0</asrwt>
<pdfrwt beam="1">  1       13 0.10000000E+01 0.53703602E+02</pdfrwt>
<pdfrwt beam="2">  1       22 0.15242479E+00 0.53703602E+02</pdfrwt>
<totfact> 0.73552119E-01</totfact>
</mgrwt>
</event>
<event>
 4    1  0.2409985E+000  0.5151010E+02  0.7957747E-01  0.1437363E+00
         13   -1    0    0    0    0  0.00000000000E+00  0.00000000000E+00  0.99999944176E+02  0.99999999996E+02  0.10566000000E+00 0.  1.
         22   -1    0    0    0    0 -0.00000000000E+00 -0.00000000000E+00 -0.44367293568E+02  0.44367293568E+02  0.00000000000E+00 0. -1.
         13    1    1    2    0    0  0.12381047425E+02  0.33015735512E-02 -0.36648397836E+02  0.38683414718E+02  0.10566000000E+00 0. -1.
        996    1    1    2    0    0 -0.12381047425E+02 -0.33015735512E-02  0.92281048444E+02  0.10568387885E+03  0.50000000000E+02 0.  0.
<mgrwt>
<rscale>  0 0.51510099E+02</rscale>
<asrwt>0</asrwt>
<pdfrwt beam="1">  1       13 0.10000000E+01 0.51510099E+02</pdfrwt>
<pdfrwt beam="2">  1       22 0.44367309E+00 0.51510099E+02</pdfrwt>
<totfact> 0.99796424E-02</totfact>
</mgrwt>
</event>
<event>
 4    1  0.2409985E+000  0.5153726E+02  0.7957747E-01  0.1437222E+00
         13   -1    0    0    0    0  0.00000000000E+00  0.00000000000E+00  0.99999944181E+02  0.10000000000E+03  0.10566000000E+00 0.  1.
         22   -1    0    0    0    0 -0.00000000000E+00 -0.00000000000E+00 -0.23572870432E+02  0.23572870432E+02  0.00000000000E+00 0. -1.
         13    1    1    2    0    0 -0.11363446186E+02 -0.51923817689E+01 -0.14448069482E+02  0.19100958443E+02  0.10566000000E+00 0. -1.
        996    1    1    2    0    0  0.11363446186E+02  0.51923817689E+01  0.90875143230E+02  0.10447191199E+03  0.50000000000E+02 0.  0.
<mgrwt>
<rscale>  0 0.51537256E+02</rscale>
<asrwt>0</asrwt>
<pdfrwt beam="1">  1       13 0.10000000E+01 0.51537256E+02</pdfrwt>
<pdfrwt beam="2">  1       22 0.23572892E+00 0.51537256E+02</pdfrwt>
<totfact> 0.33056336E-01</totfact>
</mgrwt>
</event>
<event>
 4    1  0.2409985E+000  0.5164373E+02  0.7957747E-01  0.1436672E+00
         13   -1    0    0    0    0  0.00000000000E+00  0.00000000000E+00  0.99999944172E+02  0.99999999992E+02  0.10566000000E+00 0. -1.
         22   -1    0    0    0    0 -0.00000000000E+00 -0.00000000000E+00 -0.23842226504E+02  0.23842226504E+02  0.00000000000E+00 0.  1.
         13    1    1    2    0    0 -0.12924914577E+02 -0.14693088475E+00 -0.14550484535E+02  0.19462856156E+02  0.10566000000E+00 0.  1.
        996    1    1    2    0    0  0.12924914577E+02  0.14693088475E+00  0.90708202203E+02  0.10437937034E+03  0.50000000000E+02 0.  0.
<mgrwt>
<rscale>  0 0.51643732E+02</rscale>
<asrwt>0</asrwt>
<pdfrwt beam="1">  1       13 0.10000000E+01 0.51643732E+02</pdfrwt>
<pdfrwt beam="2">  1       22 0.23842248E+00 0.51643732E+02</pdfrwt>
<totfact> 0.32335935E-01</totfact>
</mgrwt>
</event>
<event>
 4    1  0.2409985E+000  0.6293830E+02  0.7957747E-01  0.1385899E+00
         13   -1    0    0    0    0  0.00000000000E+00  0.00000000000E+00  0.99999944184E+02  0.10000000000E+03  0.10566000000E+00 0. -1.
         22   -1    0    0    0    0 -0.00000000000E+00 -0.00000000000E+00 -0.65673807780E+02  0.65673807780E+02  0.00000000000E+00 0.  1.
         13    1    1    2    0    0  0.31953426428E+02  0.20981139212E+02 -0.48433210577E+02  0.61701026847E+02  0.10566000000E+00 0.  1.
        996    1    1    2    0    0 -0.31953426428E+02 -0.20981139212E+02  0.82759346981E+02  0.10397278094E+03  0.50000000000E+02 0.  0.
<mgrwt>
<rscale>  0 0.62938300E+02</rscale>
<asrwt>0</asrwt>
<pdfrwt beam="1">  1       13 0.10000000E+01 0.62938300E+02</pdfrwt>
<pdfrwt beam="2">  1       22 0.65673817E+00 0.62938300E+02</pdfrwt>
<totfact> 0.87202395E-02</totfact>
</mgrwt>
</event>
<event>
 4    1  0.2409985E+000  0.5117975E+02  0.7957747E-01  0.1439080E+00
         13   -1    0    0    0    0  0.00000000000E+00  0.00000000000E+00  0.99999944180E+02  0.10000000000E+03  0.10566000000E+00 0.  1.
         22   -1    0    0    0    0 -0.00000000000E+00 -0.00000000000E+00 -0.14356359888E+02  0.14356359888E+02  0.00000000000E+00 0. -1.
         13    1    1    2    0    0  0.41011150759E+01 -0.10126564369E+02 -0.35788334291E+01  0.11497202422E+02  0.10566000000E+00 0. -1.
        996    1    1    2    0    0 -0.41011150759E+01  0.10126564369E+02  0.89222417721E+02  0.10285915747E+03  0.50000000000E+02 0.  0.
<mgrwt>
<rscale>  0 0.51179746E+02</rscale>
<asrwt>0</asrwt>
<pdfrwt beam="1">  1       13 0.10000000E+01 0.51179746E+02</pdfrwt>
<pdfrwt beam="2">  1       22 0.14356384E+00 0.51179746E+02</pdfrwt>
<totfact> 0.80806199E-01</totfact>
</mgrwt>
</event>
<event>
 4    1  0.2409985E+000  0.5161029E+02  0.7957747E-01  0.1436845E+00
         13   -1    0    0    0    0  0.00000000000E+00  0.00000000000E+00  0.99999944183E+02  0.10000000000E+03  0.10566000000E+00 0. -1.
         22   -1    0    0    0    0 -0.00000000000E+00 -0.00000000000E+00 -0.10687164305E+02  0.10687164305E+02  0.00000000000E+00 0. -1.
         13    1    1    2    0    0  0.10057624771E+01 -0.12751896568E+02  0.26223710714E+02  0.29177330102E+02  0.10566000000E+00 0.  1.
        996    1    1    2    0    0 -0.10057624771E+01  0.12751896568E+02  0.63089069164E+02  0.81509834205E+02  0.50000000000E+02 0.  0.
<mgrwt>
<rscale>  0 0.51610294E+02</rscale>
<asrwt>0</asrwt>
<pdfrwt beam="1">  1       13 0.10000000E+01 0.51610294E+02</pdfrwt>
<pdfrwt beam="2">  1       22 0.10687189E+00 0.51610294E+02</pdfrwt>
<totfact> 0.12780905E+00</totfact>
</mgrwt>
</event>
<event>
 4    1  0.2409985E+000  0.6301620E+02  0.7957747E-01  0.1385593E+00
         13   -1    0    0    0    0  0.00000000000E+00  0.00000000000E+00  0.99999944177E+02  0.99999999997E+02  0.10566000000E+00 0. -1.
         22   -1    0    0    0    0 -0.00000000000E+00 -0.00000000000E+00 -0.43314231307E+02  0.43314231307E+02  0.00000000000E+00 0.  1.
         13    1    1    2    0    0  0.30140060400E+02  0.23719575839E+02 -0.20646184543E+02  0.43558209549E+02  0.10566000000E+00 0.  1.
        996    1    1    2    0    0 -0.30140060400E+02 -0.23719575839E+02  0.77331897413E+02  0.99756021755E+02  0.50000000000E+02 0.  0.
<mgrwt>
<rscale>  0 0.63016200E+02</rscale>
<asrwt>0</asrwt>
<pdfrwt beam="1">  1       13 0.10000000E+01 0.63016200E+02</pdfrwt>
<pdfrwt beam="2">  1       22 0.43314247E+00 0.63016200E+02</pdfrwt>
<totfact> 0.10598303E-01</totfact>
</mgrwt>
</event>
<event>
 4    1  0.2409985E+000  0.5199760E+02  0.7957747E-01  0.1434855E+00
         13   -1    0    0    0    0  0.00000000000E+00  0.00000000000E+00  0.99999944182E+02  0.10000000000E+03  0.10566000000E+00 0. -1.
         22   -1    0    0    0    0 -0.00000000000E+00 -0.00000000000E+00 -0.11640793311E+02  0.11640793311E+02  0.00000000000E+00 0. -1.
         13    1    1    2    0    0  0.98626256498E+01  0.10318887937E+02  0.93767510428E+01  0.17078801396E+02  0.10566000000E+00 0.  1.
        996    1    1    2    0    0 -0.98626256498E+01 -0.10318887937E+02  0.78982399828E+02  0.94561991918E+02  0.50000000000E+02 0.  0.
<mgrwt>
<rscale>  0 0.51997604E+02</rscale>
<asrwt>0</asrwt>
<pdfrwt beam="1">  1       13 0.10000000E+01 0.51997604E+02</pdfrwt>
<pdfrwt beam="2">  1       22 0.11640818E+00 0.51997604E+02</pdfrwt>
<totfact> 0.11258546E+00</totfact>
</mgrwt>
</event>
<event>
 4    1  0.2409985E+000  0.5245282E+02  0.7957747E-01  0.1432543E+00
         13   -1    0    0    0    0  0.00000000000E+00  0.00000000000E+00  0.99999944178E+02  0.99999999998E+02  0.10566000000E+00 0.  1.
         22   -1    0    0    0    0 -0.00000000000E+00 -0.00000000000E+00 -0.45974099604E+02  0.45974099604E+02  0.00000000000E+00 0. -1.
         13    1    1    2    0    0  0.15586168816E+02 -0.28931233549E+01 -0.37371553677E+02  0.40594864322E+02  0.10566000000E+00 0. -1.
        996    1    1    2    0    0 -0.15586168816E+02  0.28931233549E+01  0.91397398251E+02  0.10537923528E+03  0.50000000000E+02 0.  0.
<mgrwt>
<rscale>  0 0.52452825E+02</rscale>
<asrwt>0</asrwt>
<pdfrwt beam="1">  1       13 0.10000000E+01 0.52452825E+02</pdfrwt>
<pdfrwt beam="2">  1       22 0.45974115E+00 0.52452825E+02</pdfrwt>
<totfact> 0.91820439E-02</totfact>
</mgrwt>
</event>
<event>
 4    1  0.2409985E+000  0.5099191E+02  0.7957747E-01  0.1440064E+00
         13   -1    0    0    0    0  0.00000000000E+00  0.00000000000E+00  0.99999944174E+02  0.99999999995E+02  0.10566000000E+00 0. -1.
         22   -1    0    0    0    0 -0.00000000000E+00 -0.00000000000E+00 -0.15479921251E+02  0.15479921251E+02  0.00000000000E+00 0. -1.
         13    1    1    2    0    0  0.12349669080E+00 -0.10007996843E+02 -0.59389995095E+01  0.11638648180E+02  0.10566000000E+00 0.  1.
        996    1    1    2    0    0 -0.12349669080E+00  0.10007996843E+02  0.90459022433E+02  0.10384127307E+03  0.50000000000E+02 0.  0.
<mgrwt>
<rscale>  0 0.50991914E+02</rscale>
<asrwt>0</asrwt>
<pdfrwt beam="1">  1       13 0.10000000E+01 0.50991914E+02</pdfrwt>
<pdfrwt beam="2">  1       22 0.15479945E+00 0.50991914E+02</pdfrwt>
<totfact> 0.71275614E-01</totfact>
</mgrwt>
</event>
<event>
 4    1  0.2409985E+000  0.5528441E+02  0.7957747E-01  0.1418759E+00
         13   -1    0    0    0    0  0.00000000000E+00  0.00000000000E+00  0.99999944178E+02  0.99999999999E+02  0.10566000000E+00 0.  1.
         22   -1    0    0    0    0 -0.00000000000E+00 -0.00000000000E+00 -0.24218306963E+02  0.24218306963E+02  0.00000000000E+00 0.  1.
         13    1    1    2    0    0  0.14289838026E+02 -0.18766110506E+02 -0.70618360678E+01  0.24622084945E+02  0.10566000000E+00 0. -1.
        996    1    1    2    0    0 -0.14289838026E+02  0.18766110506E+02  0.82843473283E+02  0.99596222017E+02  0.50000000000E+02 0.  0.
<mgrwt>
<rscale>  0 0.55284413E+02</rscale>
<asrwt>0</asrwt>
<pdfrwt beam="1">  1       13 0.10000000E+01 0.55284413E+02</pdfrwt>
<pdfrwt beam="2">  1       22 0.24218328E+00 0.55284413E+02</pdfrwt>
<totfact> 0.31538258E-01</totfact>
</mgrwt>
</event>
<event>
 4    1  0.2409985E+000  0.5382973E+02  0.7957747E-01  0.1425716E+00
         13   -1    0    0    0    0  0.00000000000E+00  0.00000000000E+00  0.99999944185E+02  0.10000000001E+03  0.10566000000E+00 0. -1.
         22   -1    0    0    0    0 -0.00000000000E+00 -0.00000000000E+00 -0.13731497004E+02  0.13731497004E+02  0.00000000000E+00 0.  1.
         13    1    1    2    0    0  0.10045036076E+02 -0.17226073587E+02  0.18654293691E+02  0.27306303268E+02  0.10566000000E+00 0.  1.
        996    1    1    2    0    0 -0.10045036076E+02  0.17226073587E+02  0.67614153490E+02  0.86425193741E+02  0.50000000000E+02 0.  0.
<mgrwt>
<rscale>  0 0.53829735E+02</rscale>
<asrwt>0</asrwt>
<pdfrwt beam="1">  1       13 0.10000000E+01 0.53829735E+02</pdfrwt>
<pdfrwt beam="2">  1       22 0.13731521E+00 0.53829735E+02</pdfrwt>
<totfact> 0.87337567E-01</totfact>
</mgrwt>
</event>
<event>
 4    1  0.2409985E+000  0.5157071E+02  0.7957747E-01  0.1437049E+00
         13   -1    0    0    0    0  0.00000000000E+00  0.00000000000E+00  0.99999944178E+02  0.99999999998E+02  0.10566000000E+00 0.  1.
         22   -1    0    0    0    0 -0.00000000000E+00 -0.00000000000E+00 -0.12989628677E+02  0.12989628677E+02  0.00000000000E+00 0. -1.
         13    1    1    2    0    0 -0.47484403234E+01  0.11704292657E+02  0.95813841800E+00  0.12667570618E+02  0.10566000000E+00 0. -1.
        996    1    1    2    0    0  0.47484403234E+01 -0.11704292657E+02  0.86052177083E+02  0.10032205806E+03  0.50000000000E+02 0.  0.
<mgrwt>
<rscale>  0 0.51570710E+02</rscale>
<asrwt>0</asrwt>
<pdfrwt beam="1">  1       13 0.10000000E+01 0.51570710E+02</pdfrwt>
<pdfrwt beam="2">  1       22 0.12989653E+00 0.51570710E+02</pdfrwt>
<totfact> 0.94957149E-01</totfact>
</mgrwt>
</event>
<event>
 4    1  0.2409985E+000  0.5241870E+02  0.7957747E-01  0.1432716E+00
         13   -1    0    0    0    0  0.00000000000E+00  0.00000000000E+00  0.99999944178E+02  0.99999999998E+02  0.10566000000E+00 0. -1.
         22   -1    0    0    0    0 -0.00000000000E+00 -0.00000000000E+00 -0.13257535768E+02  0.13257535768E+02  0.00000000000E+00 0.  1.
         13    1    1    2    0    0  0.57728927673E+01 -0.14642175221E+02  0.56991421998E+01  0.16739503337E+02  0.10566000000E+00 0.  1.
        996    1    1    2    0    0 -0.57728927673E+01  0.14642175221E+02  0.81043266210E+02  0.96518032430E+02  0.50000000000E+02 0.  0.
<mgrwt>
<rscale>  0 0.52418695E+02</rscale>
<asrwt>0</asrwt>
<pdfrwt beam="1">  1       13 0.10000000E+01 0.52418695E+02</pdfrwt>
<pdfrwt beam="2">  1       22 0.13257560E+00 0.52418695E+02</pdfrwt>
<totfact> 0.92109829E-01</totfact>
</mgrwt>
</event>
