<event>
 5    1  0.9123258E-009  0.3817169E+03  0.7957747E-01  0.3443716E+00
         13   -1    0    0    0    0  0.00000000000E+00  0.00000000000E+00  0.14999999963E+04  0.15000000000E+04  0.10566000000E+00 0. -1.
        994   -1    0    0    0    0 -0.00000000000E+00 -0.00000000000E+00  0.11368683772E-12  0.17120000000E+03  0.17120000000E+03 0.  0.
         13    1    1    2    0    0 -0.15752527388E+02 -0.35165655157E+01  0.40233329463E+02  0.43350205488E+02  0.10566000000E+00 0. -1.
        994    1    1    2    0    0 -0.20922139493E+01  0.10712763754E+02  0.36650808205E+01  0.17158675206E+03  0.17120000000E+03 0.  0.
        998    1    1    2    0    0  0.17844741337E+02 -0.71961982385E+01  0.14561015860E+04  0.14562630424E+04  0.10000000000E+02 0. -1.
</event>
<event>
 5    1  0.9123258E-009  0.3826729E+03  0.7957747E-01  0.3439602E+00
         13   -1    0    0    0    0  0.00000000000E+00  0.00000000000E+00  0.14999999963E+04  0.15000000000E+04  0.10566000000E+00 0. -1.
        994   -1    0    0    0    0 -0.00000000000E+00 -0.00000000000E+00  0.11368683772E-12  0.17120000000E+03  0.17120000000E+03 0.  0.
         13    1    1    2    0    0 -0.15868359949E+02  0.78728656251E+01  0.57118967470E+02  0.59802796502E+02  0.10566000000E+00 0. -1.
        994    1    1    2    0    0 -0.34321729038E+01 -0.18457194959E+02  0.39586870973E+01  0.17227175932E+03  0.17120000000E+03 0.  0.
        998    1    1    2    0    0  0.19300532853E+02  0.10584329334E+02  0.14389223417E+04  0.14391254442E+04  0.10000000000E+02 0. -1.
</event>
<event>
 5    1  0.9123258E-009  0.3816728E+03  0.7957747E-01  0.3443907E+00
         13   -1    0    0    0    0  0.00000000000E+00  0.00000000000E+00  0.14999999963E+04  0.15000000000E+04  0.10566000000E+00 0. -1.
        994   -1    0    0    0    0 -0.00000000000E+00 -0.00000000000E+00  0.11368683772E-12  0.17120000000E+03  0.17120000000E+03 0.  0.
         13    1    1    2    0    0  0.42564538433E+01  0.13979005496E+02  0.30603274175E+02  0.33913147130E+02  0.10566000000E+00 0. -1.
        994    1    1    2    0    0 -0.13112500114E+01 -0.16111310571E+02  0.41602523174E+01  0.17201174787E+03  0.17120000000E+03 0.  0.
        998    1    1    2    0    0 -0.29452038319E+01  0.21323050749E+01  0.14652364698E+04  0.14652751050E+04  0.10000000000E+02 0. -1.
</event>
<event>
 5    1  0.9123258E-009  0.3788806E+03  0.7957747E-01  0.3456047E+00
         13   -1    0    0    0    0  0.00000000000E+00  0.00000000000E+00  0.14999999963E+04  0.15000000000E+04  0.10566000000E+00 0.  1.
        994   -1    0    0    0    0 -0.00000000000E+00 -0.00000000000E+00  0.11368683772E-12  0.17120000000E+03  0.17120000000E+03 0.  0.
         13    1    1    2    0    0 -0.10501259392E+01 -0.12883541788E+02  0.16003211708E+02  0.20571882814E+02  0.10566000000E+00 0.  1.
        994    1    1    2    0    0  0.51839817703E+01  0.23289643867E+01  0.48076551538E+01  0.17136175562E+03  0.17120000000E+03 0.  0.
        998    1    1    2    0    0 -0.41338558310E+01  0.10554577401E+02  0.14791891294E+04  0.14792663616E+04  0.10000000000E+02 0.  1.
</event>
<event>
 5    1  0.9123258E-009  0.3768410E+03  0.7957747E-01  0.3465030E+00
         13   -1    0    0    0    0  0.00000000000E+00  0.00000000000E+00  0.14999999963E+04  0.15000000000E+04  0.10566000000E+00 0. -1.
        994   -1    0    0    0    0 -0.00000000000E+00 -0.00000000000E+00  0.11368683772E-12  0.17120000000E+03  0.17120000000E+03 0.  0.
         13    1    1    2    0    0 -0.18709730984E+02 -0.23467574194E+02  0.75501360413E+02  0.81248062502E+02  0.10566000000E+00 0. -1.
        994    1    1    2    0    0  0.29224579710E+02  0.47817060118E+01  0.87045524825E+01  0.17396019661E+03  0.17120000000E+03 0.  0.
        998    1    1    2    0    0 -0.10514848725E+02  0.18685868182E+02  0.14157940834E+04  0.14159917409E+04  0.10000000000E+02 0. -1.
</event>
<event>
 5    1  0.9123258E-009  0.3711637E+03  0.7957747E-01  0.3490560E+00
         13   -1    0    0    0    0  0.00000000000E+00  0.00000000000E+00  0.14999999963E+04  0.15000000000E+04  0.10566000000E+00 0.  1.
        994   -1    0    0    0    0 -0.00000000000E+00 -0.00000000000E+00  0.11368683772E-12  0.17120000000E+03  0.17120000000E+03 0.  0.
         13    1    1    2    0    0 -0.41832937142E+01  0.58139128074E+02  0.18622746565E+03  0.19513671690E+03  0.10566000000E+00 0.  1.
        994    1    1    2    0    0 -0.55766705508E+01 -0.42134684987E+02  0.14908832047E+02  0.17702582921E+03  0.17120000000E+03 0.  0.
        998    1    1    2    0    0  0.97599642651E+01 -0.16004443087E+02  0.12988636986E+04  0.12990374539E+04  0.10000000000E+02 0.  1.
</event>
<event>
 5    1  0.9123258E-009  0.3842402E+03  0.7957747E-01  0.3432901E+00
         13   -1    0    0    0    0  0.00000000000E+00  0.00000000000E+00  0.14999999963E+04  0.15000000000E+04  0.10566000000E+00 0. -1.
        994   -1    0    0    0    0 -0.00000000000E+00 -0.00000000000E+00  0.11368683772E-12  0.17120000000E+03  0.17120000000E+03 0.  0.
         13    1    1    2    0    0 -0.72545638204E+00  0.15189233541E+02  0.55251846816E+02  0.57306342085E+02  0.10566000000E+00 0. -1.
        994    1    1    2    0    0 -0.99996641724E+01 -0.17260486817E+02  0.33207785074E+01  0.17239021219E+03  0.17120000000E+03 0.  0.
        998    1    1    2    0    0  0.10725120554E+02  0.20712532761E+01  0.14414273710E+04  0.14415034457E+04  0.10000000000E+02 0. -1.
</event>
<event>
 5    1  0.9123258E-009  0.3816585E+03  0.7957747E-01  0.3443969E+00
         13   -1    0    0    0    0  0.00000000000E+00  0.00000000000E+00  0.14999999963E+04  0.15000000000E+04  0.10566000000E+00 0.  1.
        994   -1    0    0    0    0 -0.00000000000E+00 -0.00000000000E+00  0.11368683772E-12  0.17120000000E+03  0.17120000000E+03 0.  0.
         13    1    1    2    0    0 -0.47840792833E+01 -0.16843631816E+02  0.48645227333E+02  0.51700721984E+02  0.10566000000E+00 0.  1.
        994    1    1    2    0    0  0.45653602059E+01 -0.73386010785E+01  0.35466837761E+01  0.17145470698E+03  0.17120000000E+03 0.  0.
        998    1    1    2    0    0  0.21871907744E+00  0.24182232895E+02  0.14478080852E+04  0.14480445710E+04  0.10000000000E+02 0.  1.
</event>
<event>
 5    1  0.9123258E-009  0.3822441E+03  0.7957747E-01  0.3441445E+00
         13   -1    0    0    0    0  0.00000000000E+00  0.00000000000E+00  0.14999999963E+04  0.15000000000E+04  0.10566000000E+00 0.  1.
        994   -1    0    0    0    0 -0.00000000000E+00 -0.00000000000E+00  0.11368683772E-12  0.17120000000E+03  0.17120000000E+03 0.  0.
         13    1    1    2    0    0 -0.13515578046E+02  0.18700863416E+02  0.92457924931E+02  0.95293610431E+02  0.10566000000E+00 0.  1.
        994    1    1    2    0    0  0.54434431204E+01 -0.23089088772E+01  0.31206346479E+01  0.17133050077E+03  0.17120000000E+03 0.  0.
        998    1    1    2    0    0  0.80721349258E+01 -0.16391954538E+02  0.14044214367E+04  0.14045758888E+04  0.10000000000E+02 0.  1.
</event>
<event>
 5    1  0.9123258E-009  0.3705355E+03  0.7957747E-01  0.3493434E+00
         13   -1    0    0    0    0  0.00000000000E+00  0.00000000000E+00  0.14999999963E+04  0.15000000000E+04  0.10566000000E+00 0. -1.
        994   -1    0    0    0    0 -0.00000000000E+00 -0.00000000000E+00  0.11368683772E-12  0.17120000000E+03  0.17120000000E+03 0.  0.
         13    1    1    2    0    0  0.13204590143E+02  0.38103930546E+01  0.34576913354E+01  0.14172053114E+02  0.10566000000E+00 0. -1.
        994    1    1    2    0    0  0.37669498129E+01  0.40681580490E+01  0.11329932353E+02  0.17166405328E+03  0.17120000000E+03 0.  0.
        998    1    1    2    0    0 -0.16971539956E+02 -0.78785511036E+01  0.14852123726E+04  0.14853638936E+04  0.10000000000E+02 0. -1.
</event>
<event>
 5    1  0.9123258E-009  0.3722102E+03  0.7957747E-01  0.3485794E+00
         13   -1    0    0    0    0  0.00000000000E+00  0.00000000000E+00  0.14999999963E+04  0.15000000000E+04  0.10566000000E+00 0. -1.
        994   -1    0    0    0    0 -0.00000000000E+00 -0.00000000000E+00  0.11368683772E-12  0.17120000000E+03  0.17120000000E+03 0.  0.
         13    1    1    2    0    0  0.33611681222E+02 -0.45678670832E+02  0.20417872597E+03  0.21190858734E+03  0.10566000000E+00 0. -1.
        994    1    1    2    0    0  0.11514628460E+02  0.41170916340E+02  0.14416007789E+02  0.17704488781E+03  0.17120000000E+03 0.  0.
        998    1    1    2    0    0 -0.45126309682E+02  0.45077544925E+01  0.12814052625E+04  0.12822465248E+04  0.10000000000E+02 0. -1.
</event>
<event>
 5    1  0.9123258E-009  0.3845299E+03  0.7957747E-01  0.3431668E+00
         13   -1    0    0    0    0  0.00000000000E+00  0.00000000000E+00  0.14999999963E+04  0.15000000000E+04  0.10566000000E+00 0.  1.
        994   -1    0    0    0    0 -0.00000000000E+00 -0.00000000000E+00  0.11368683772E-12  0.17120000000E+03  0.17120000000E+03 0.  0.
         13    1    1    2    0    0  0.10769263746E+02 -0.40481148109E-01  0.30537580093E+02  0.32381069196E+02  0.10566000000E+00 0.  1.
        994    1    1    2    0    0 -0.86801663488E+01  0.45516595634E+01  0.21801700161E+01  0.17149418659E+03  0.17120000000E+03 0.  0.
        998    1    1    2    0    0 -0.20890973967E+01 -0.45111784153E+01  0.14672822462E+04  0.14673247442E+04  0.10000000000E+02 0.  1.
</event>
<event>
 5    1  0.9123258E-009  0.3803455E+03  0.7957747E-01  0.3449656E+00
         13   -1    0    0    0    0  0.00000000000E+00  0.00000000000E+00  0.14999999963E+04  0.15000000000E+04  0.10566000000E+00 0. -1.
        994   -1    0    0    0    0 -0.00000000000E+00 -0.00000000000E+00  0.11368683772E-12  0.17120000000E+03  0.17120000000E+03 0.  0.
         13    1    1    2    0    0 -0.18612470070E+02  0.63754304720E+01  0.48527255409E+02  0.52363879128E+02  0.10566000000E+00 0. -1.
        994    1    1    2    0    0  0.71909702066E+01  0.11656581413E+00  0.41315867436E+01  0.17140079827E+03  0.17120000000E+03 0.  0.
        998    1    1    2    0    0  0.11421499863E+02 -0.64919962862E+01  0.14473411541E+04  0.14474353226E+04  0.10000000000E+02 0. -1.
</event>
<event>
 5    1  0.9123258E-009  0.3851338E+03  0.7957747E-01  0.3429105E+00
         13   -1    0    0    0    0  0.00000000000E+00  0.00000000000E+00  0.14999999963E+04  0.15000000000E+04  0.10566000000E+00 0. -1.
        994   -1    0    0    0    0 -0.00000000000E+00 -0.00000000000E+00  0.11368683772E-12  0.17120000000E+03  0.17120000000E+03 0.  0.
         13    1    1    2    0    0 -0.18154732979E+02  0.22462025510E+00  0.91825501906E+02  0.93603305220E+02  0.10566000000E+00 0. -1.
        994    1    1    2    0    0  0.30444178178E+02  0.71080548831E+01  0.47831758518E+01  0.17409678688E+03  0.17120000000E+03 0.  0.
        998    1    1    2    0    0 -0.12289445199E+02 -0.73326751382E+01  0.14033913185E+04  0.14034999079E+04  0.10000000000E+02 0. -1.
</event>
<event>
 5    1  0.9123258E-009  0.3819208E+03  0.7957747E-01  0.3442837E+00
         13   -1    0    0    0    0  0.00000000000E+00  0.00000000000E+00  0.14999999963E+04  0.15000000000E+04  0.10566000000E+00 0. -1.
        994   -1    0    0    0    0 -0.00000000000E+00 -0.00000000000E+00  0.11368683772E-12  0.17120000000E+03  0.17120000000E+03 0.  0.
         13    1    1    2    0    0 -0.19796584206E+02 -0.74828924235E+01  0.71037341413E+02  0.74122961788E+02  0.10566000000E+00 0. -1.
        994    1    1    2    0    0  0.70214795451E+01  0.84103455982E+01  0.35655019633E+01  0.17158726029E+03  0.17120000000E+03 0.  0.
        998    1    1    2    0    0  0.12775104661E+02 -0.92745317470E+00  0.14253971529E+04  0.14254897779E+04  0.10000000000E+02 0. -1.
</event>
<event>
 5    1  0.9123258E-009  0.3853739E+03  0.7957747E-01  0.3428088E+00
         13   -1    0    0    0    0  0.00000000000E+00  0.00000000000E+00  0.14999999963E+04  0.15000000000E+04  0.10566000000E+00 0.  1.
        994   -1    0    0    0    0 -0.00000000000E+00 -0.00000000000E+00  0.11368683772E-12  0.17120000000E+03  0.17120000000E+03 0.  0.
         13    1    1    2    0    0  0.13061073716E+02 -0.88936098118E+01  0.78713929198E+02  0.80284380523E+02  0.10566000000E+00 0.  1.
        994    1    1    2    0    0 -0.19832025646E+02  0.12976268245E+02  0.32917679970E+01  0.17286401741E+03  0.17120000000E+03 0.  0.
        998    1    1    2    0    0  0.67709519304E+01 -0.40826584331E+01  0.14179942991E+04  0.14180516021E+04  0.10000000000E+02 0.  1.
</event>
<event>
 5    1  0.9123258E-009  0.3799213E+03  0.7957747E-01  0.3451501E+00
         13   -1    0    0    0    0  0.00000000000E+00  0.00000000000E+00  0.14999999963E+04  0.15000000000E+04  0.10566000000E+00 0. -1.
        994   -1    0    0    0    0 -0.00000000000E+00 -0.00000000000E+00  0.11368683772E-12  0.17120000000E+03  0.17120000000E+03 0.  0.
         13    1    1    2    0    0 -0.33061683822E+02  0.14561759849E+01  0.11480319809E+03  0.11947795128E+03  0.10566000000E+00 0. -1.
        994    1    1    2    0    0  0.43036000410E+02  0.89424127315E+01  0.10660499156E+02  0.17707385555E+03  0.17120000000E+03 0.  0.
        998    1    1    2    0    0 -0.99743165872E+01 -0.10398588716E+02  0.13745362990E+04  0.13746481932E+04  0.10000000000E+02 0. -1.
</event>
<event>
 5    1  0.9123258E-009  0.3828031E+03  0.7957747E-01  0.3439043E+00
         13   -1    0    0    0    0  0.00000000000E+00  0.00000000000E+00  0.14999999963E+04  0.15000000000E+04  0.10566000000E+00 0. -1.
        994   -1    0    0    0    0 -0.00000000000E+00 -0.00000000000E+00  0.11368683772E-12  0.17120000000E+03  0.17120000000E+03 0.  0.
         13    1    1    2    0    0  0.45045674457E+01 -0.15807653763E+02  0.46049481854E+02  0.48895183694E+02  0.10566000000E+00 0. -1.
        994    1    1    2    0    0  0.31731196030E+01  0.26012135710E+02  0.50026499249E+01  0.17326617211E+03  0.17120000000E+03 0.  0.
        998    1    1    2    0    0 -0.76776870487E+01 -0.10204481947E+02  0.14489478645E+04  0.14490386442E+04  0.10000000000E+02 0. -1.
</event>
<event>
 5    1  0.9123258E-009  0.3804310E+03  0.7957747E-01  0.3449284E+00
         13   -1    0    0    0    0  0.00000000000E+00  0.00000000000E+00  0.14999999963E+04  0.15000000000E+04  0.10566000000E+00 0. -1.
        994   -1    0    0    0    0 -0.00000000000E+00 -0.00000000000E+00  0.11368683772E-12  0.17120000000E+03  0.17120000000E+03 0.  0.
         13    1    1    2    0    0  0.11467222543E+02 -0.43059329220E+02  0.20083383106E+03  0.20571786963E+03  0.10566000000E+00 0. -1.
        994    1    1    2    0    0 -0.72810054144E+01  0.56900487900E+02  0.14979738782E+02  0.18117536018E+03  0.17120000000E+03 0.  0.
        998    1    1    2    0    0 -0.41862171284E+01 -0.13841158681E+02  0.12841864264E+04  0.12843067702E+04  0.10000000000E+02 0. -1.
</event>
<event>
 5    1  0.9123258E-009  0.3724623E+03  0.7957747E-01  0.3484651E+00
         13   -1    0    0    0    0  0.00000000000E+00  0.00000000000E+00  0.14999999963E+04  0.15000000000E+04  0.10566000000E+00 0. -1.
        994   -1    0    0    0    0 -0.00000000000E+00 -0.00000000000E+00  0.11368683772E-12  0.17120000000E+03  0.17120000000E+03 0.  0.
         13    1    1    2    0    0 -0.17597512343E+02 -0.49453970596E+02  0.19161009025E+03  0.19867009211E+03  0.10566000000E+00 0. -1.
        994    1    1    2    0    0  0.61848149597E+02 -0.90096607970E+01  0.21501952880E+02  0.18351605263E+03  0.17120000000E+03 0.  0.
        998    1    1    2    0    0 -0.44250637254E+02  0.58463631393E+02  0.12868879531E+04  0.12890138553E+04  0.10000000000E+02 0. -1.
</event>
<event>
 5    1  0.9123258E-009  0.3793486E+03  0.7957747E-01  0.3454000E+00
         13   -1    0    0    0    0  0.00000000000E+00  0.00000000000E+00  0.14999999963E+04  0.15000000000E+04  0.10566000000E+00 0. -1.
        994   -1    0    0    0    0 -0.00000000000E+00 -0.00000000000E+00  0.11368683772E-12  0.17120000000E+03  0.17120000000E+03 0.  0.
         13    1    1    2    0    0 -0.18209273267E+02  0.26574614577E+02  0.12089711548E+03  0.12511559243E+03  0.10566000000E+00 0. -1.
        994    1    1    2    0    0  0.88988915859E+01 -0.58256280049E+01  0.48414030265E+01  0.17159838984E+03  0.17120000000E+03 0.  0.
        998    1    1    2    0    0  0.93103816806E+01 -0.20748986573E+02  0.13742614778E+04  0.13744860177E+04  0.10000000000E+02 0. -1.
</event>
<event>
 5    1  0.9123258E-009  0.3834973E+03  0.7957747E-01  0.3436070E+00
         13   -1    0    0    0    0  0.00000000000E+00  0.00000000000E+00  0.14999999963E+04  0.15000000000E+04  0.10566000000E+00 0.  1.
        994   -1    0    0    0    0 -0.00000000000E+00 -0.00000000000E+00  0.11368683772E-12  0.17120000000E+03  0.17120000000E+03 0.  0.
         13    1    1    2    0    0  0.17447123670E+02  0.95154466382E+01  0.80063009974E+02  0.82492681973E+02  0.10566000000E+00 0.  1.
        994    1    1    2    0    0 -0.20238467615E+02  0.91838994057E-01  0.37328421954E+01  0.17243253207E+03  0.17120000000E+03 0.  0.
        998    1    1    2    0    0  0.27913439450E+01 -0.96072856323E+01  0.14162041441E+04  0.14162747860E+04  0.10000000000E+02 0.  1.
</event>
<event>
 5    1  0.9123258E-009  0.3832762E+03  0.7957747E-01  0.3437016E+00
         13   -1    0    0    0    0  0.00000000000E+00  0.00000000000E+00  0.14999999963E+04  0.15000000000E+04  0.10566000000E+00 0.  1.
        994   -1    0    0    0    0 -0.00000000000E+00 -0.00000000000E+00  0.11368683772E-12  0.17120000000E+03  0.17120000000E+03 0.  0.
         13    1    1    2    0    0  0.26472868360E+02  0.21610696993E+02  0.17454024120E+03  0.17785427166E+03  0.10566000000E+00 0.  1.
        994    1    1    2    0    0 -0.22130003861E+02 -0.64605414538E+02  0.18067378834E+02  0.18520115236E+03  0.17120000000E+03 0.  0.
        998    1    1    2    0    0 -0.43428644991E+01  0.42994717544E+02  0.13073923762E+04  0.13081445760E+04  0.10000000000E+02 0.  1.
</event>
<event>
 5    1  0.9123258E-009  0.3829355E+03  0.7957747E-01  0.3438476E+00
         13   -1    0    0    0    0  0.00000000000E+00  0.00000000000E+00  0.14999999963E+04  0.15000000000E+04  0.10566000000E+00 0. -1.
        994   -1    0    0    0    0 -0.00000000000E+00 -0.00000000000E+00  0.11368683772E-12  0.17120000000E+03  0.17120000000E+03 0.  0.
         13    1    1    2    0    0 -0.12351648607E+02 -0.42671270131E+01  0.31517722749E+02  0.34119636686E+02  0.10566000000E+00 0. -1.
        994    1    1    2    0    0  0.72274227427E+01 -0.15459451907E+01  0.28394969240E+01  0.17138298728E+03  0.17120000000E+03 0.  0.
        998    1    1    2    0    0  0.51242258640E+01  0.58130722039E+01  0.14656427766E+04  0.14656973760E+04  0.10000000000E+02 0. -1.
</event>
<event>
 5    1  0.9123258E-009  0.3844975E+03  0.7957747E-01  0.3431806E+00
         13   -1    0    0    0    0  0.00000000000E+00  0.00000000000E+00  0.14999999963E+04  0.15000000000E+04  0.10566000000E+00 0. -1.
        994   -1    0    0    0    0 -0.00000000000E+00 -0.00000000000E+00  0.11368683772E-12  0.17120000000E+03  0.17120000000E+03 0.  0.
         13    1    1    2    0    0 -0.10891766700E+02 -0.93239597894E+01  0.54338491167E+02  0.56198305974E+02  0.10566000000E+00 0. -1.
        994    1    1    2    0    0  0.87740980239E+01  0.47688529406E+01  0.22084201445E+01  0.17150522987E+03  0.17120000000E+03 0.  0.
        998    1    1    2    0    0  0.21176686763E+01  0.45551068487E+01  0.14434530850E+04  0.14434964642E+04  0.10000000000E+02 0. -1.
</event>
<event>
 5    1  0.9123258E-009  0.3776375E+03  0.7957747E-01  0.3461510E+00
         13   -1    0    0    0    0  0.00000000000E+00  0.00000000000E+00  0.14999999963E+04  0.15000000000E+04  0.10566000000E+00 0.  1.
        994   -1    0    0    0    0 -0.00000000000E+00 -0.00000000000E+00  0.11368683772E-12  0.17120000000E+03  0.17120000000E+03 0.  0.
         13    1    1    2    0    0 -0.47750268525E+02  0.15775000859E+02  0.28492897153E+03  0.28933279935E+03  0.10566000000E+00 0.  1.
        994    1    1    2    0    0  0.55433479299E+01 -0.20094519525E+01  0.54476452933E+01  0.17138810765E+03  0.17120000000E+03 0.  0.
        998    1    1    2    0    0  0.42206920595E+02 -0.13765548907E+02  0.12096233795E+04  0.12104790930E+04  0.10000000000E+02 0.  1.
</event>
<event>
 5    1  0.9123258E-009  0.3720760E+03  0.7957747E-01  0.3486404E+00
         13   -1    0    0    0    0  0.00000000000E+00  0.00000000000E+00  0.14999999963E+04  0.15000000000E+04  0.10566000000E+00 0.  1.
        994   -1    0    0    0    0 -0.00000000000E+00 -0.00000000000E+00  0.11368683772E-12  0.17120000000E+03  0.17120000000E+03 0.  0.
         13    1    1    2    0    0  0.19145333299E+03 -0.13233446952E+03  0.83258498566E+03  0.86450249279E+03  0.10566000000E+00 0.  1.
        994    1    1    2    0    0 -0.19173974992E+03  0.14605250129E+03  0.24506812788E+03  0.38400949485E+03  0.17120000000E+03 0.  0.
        998    1    1    2    0    0  0.28641693306E+00 -0.13718031766E+02  0.42234688274E+03  0.42268801236E+03  0.10000000000E+02 0.  1.
</event>
<event>
 5    1  0.9123258E-009  0.3842246E+03  0.7957747E-01  0.3432968E+00
         13   -1    0    0    0    0  0.00000000000E+00  0.00000000000E+00  0.14999999963E+04  0.15000000000E+04  0.10566000000E+00 0.  1.
        994   -1    0    0    0    0 -0.00000000000E+00 -0.00000000000E+00  0.11368683772E-12  0.17120000000E+03  0.17120000000E+03 0.  0.
         13    1    1    2    0    0 -0.13301601571E+02 -0.19897657663E+02  0.10330023638E+03  0.10603678317E+03  0.10566000000E+00 0.  1.
        994    1    1    2    0    0  0.55190655944E+02  0.37404813255E+02  0.16811110702E+02  0.18449168545E+03  0.17120000000E+03 0.  0.
        998    1    1    2    0    0 -0.41889054374E+02 -0.17507155592E+02  0.13798886492E+04  0.13806715314E+04  0.10000000000E+02 0.  1.
</event>
<event>
 5    1  0.9123258E-009  0.3852724E+03  0.7957747E-01  0.3428518E+00
         13   -1    0    0    0    0  0.00000000000E+00  0.00000000000E+00  0.14999999963E+04  0.15000000000E+04  0.10566000000E+00 0. -1.
        994   -1    0    0    0    0 -0.00000000000E+00 -0.00000000000E+00  0.11368683772E-12  0.17120000000E+03  0.17120000000E+03 0.  0.
         13    1    1    2    0    0 -0.77887928290E+00 -0.10748670382E+02  0.38926811353E+02  0.40391191788E+02  0.10566000000E+00 0. -1.
        994    1    1    2    0    0 -0.76605406134E+01  0.74350674196E+01  0.18695116574E+01  0.17154270367E+03  0.17120000000E+03 0.  0.
        998    1    1    2    0    0  0.84394198963E+01  0.33136029625E+01  0.14592036733E+04  0.14592661045E+04  0.10000000000E+02 0. -1.
</event>
<event>
 5    1  0.9123258E-009  0.3806031E+03  0.7957747E-01  0.3448537E+00
         13   -1    0    0    0    0  0.00000000000E+00  0.00000000000E+00  0.14999999963E+04  0.15000000000E+04  0.10566000000E+00 0.  1.
        994   -1    0    0    0    0 -0.00000000000E+00 -0.00000000000E+00  0.11368683772E-12  0.17120000000E+03  0.17120000000E+03 0.  0.
         13    1    1    2    0    0  0.31170219916E+01 -0.17054904411E+02  0.38797171417E+02  0.42494908690E+02  0.10566000000E+00 0.  1.
        994    1    1    2    0    0  0.85449769338E+01  0.57588445075E+01  0.41833429942E+01  0.17156083842E+03  0.17120000000E+03 0.  0.
        998    1    1    2    0    0 -0.11661998925E+02  0.11296059904E+02  0.14570194819E+04  0.14571442529E+04  0.10000000000E+02 0.  1.
</event>
<event>
 5    1  0.9123258E-009  0.3839064E+03  0.7957747E-01  0.3434324E+00
         13   -1    0    0    0    0  0.00000000000E+00  0.00000000000E+00  0.14999999963E+04  0.15000000000E+04  0.10566000000E+00 0.  1.
        994   -1    0    0    0    0 -0.00000000000E+00 -0.00000000000E+00  0.11368683772E-12  0.17120000000E+03  0.17120000000E+03 0.  0.
         13    1    1    2    0    0 -0.64807162510E+01  0.16222447521E+02  0.70450479014E+02  0.72584079825E+02  0.10566000000E+00 0.  1.
        994    1    1    2    0    0  0.44973203646E+01 -0.84415471454E+01  0.24760812338E+01  0.17148485819E+03  0.17120000000E+03 0.  0.
        998    1    1    2    0    0  0.19833958864E+01 -0.77809003759E+01  0.14270734360E+04  0.14271310620E+04  0.10000000000E+02 0.  1.
</event>
<event>
 5    1  0.9123258E-009  0.3841668E+03  0.7957747E-01  0.3433214E+00
         13   -1    0    0    0    0  0.00000000000E+00  0.00000000000E+00  0.14999999963E+04  0.15000000000E+04  0.10566000000E+00 0. -1.
        994   -1    0    0    0    0 -0.00000000000E+00 -0.00000000000E+00  0.11368683772E-12  0.17120000000E+03  0.17120000000E+03 0.  0.
         13    1    1    2    0    0  0.98890621644E+01  0.76519600923E+01  0.39039339269E+02  0.40993014263E+02  0.10566000000E+00 0. -1.
        994    1    1    2    0    0 -0.78620400214E+01  0.82551458952E+01  0.24730583051E+01  0.17159695546E+03  0.17120000000E+03 0.  0.
        998    1    1    2    0    0 -0.20270221430E+01 -0.15907105988E+02  0.14584875987E+04  0.14586100303E+04  0.10000000000E+02 0. -1.
</event>
<event>
 5    1  0.9123258E-009  0.3704504E+03  0.7957747E-01  0.3493824E+00
         13   -1    0    0    0    0  0.00000000000E+00  0.00000000000E+00  0.14999999963E+04  0.15000000000E+04  0.10566000000E+00 0. -1.
        994   -1    0    0    0    0 -0.00000000000E+00 -0.00000000000E+00  0.11368683772E-12  0.17120000000E+03  0.17120000000E+03 0.  0.
         13    1    1    2    0    0 -0.29375954223E+02 -0.28988892475E+02  0.93226450221E+02  0.10195334599E+03  0.10566000000E+00 0. -1.
        994    1    1    2    0    0  0.15191424952E+02  0.12471609265E+02  0.10368646309E+02  0.17263623390E+03  0.17120000000E+03 0.  0.
        998    1    1    2    0    0  0.14184529271E+02  0.16517283209E+02  0.13964048997E+04  0.13966104201E+04  0.10000000000E+02 0. -1.
</event>
<event>
 5    1  0.9123258E-009  0.3852866E+03  0.7957747E-01  0.3428458E+00
         13   -1    0    0    0    0  0.00000000000E+00  0.00000000000E+00  0.14999999963E+04  0.15000000000E+04  0.10566000000E+00 0. -1.
        994   -1    0    0    0    0 -0.00000000000E+00 -0.00000000000E+00  0.11368683772E-12  0.17120000000E+03  0.17120000000E+03 0.  0.
         13    1    1    2    0    0  0.16424669350E+02  0.42766579875E+00  0.92490479252E+02  0.93938557460E+02  0.10566000000E+00 0. -1.
        994    1    1    2    0    0 -0.85552857734E+01  0.11206290299E+01  0.17325691025E+01  0.17142604971E+03  0.17120000000E+03 0.  0.
        998    1    1    2    0    0 -0.78693835764E+01 -0.15482948286E+01  0.14057769479E+04  0.14058353928E+04  0.10000000000E+02 0. -1.
</event>
<event>
 5    1  0.9123258E-009  0.3790532E+03  0.7957747E-01  0.3455291E+00
         13   -1    0    0    0    0  0.00000000000E+00  0.00000000000E+00  0.14999999963E+04  0.15000000000E+04  0.10566000000E+00 0. -1.
        994   -1    0    0    0    0 -0.00000000000E+00 -0.00000000000E+00  0.11368683772E-12  0.17120000000E+03  0.17120000000E+03 0.  0.
         13    1    1    2    0    0  0.11678987600E+02  0.21823611883E+02  0.66151725791E+02  0.70630947723E+02  0.10566000000E+00 0. -1.
        994    1    1    2    0    0 -0.54517777635E+01 -0.88386200799E+01  0.49735460335E+01  0.17158676885E+03  0.17120000000E+03 0.  0.
        998    1    1    2    0    0 -0.62272098361E+01 -0.12984991803E+02  0.14288747245E+04  0.14289822834E+04  0.10000000000E+02 0. -1.
</event>
<event>
 5    1  0.9641500E-009  0.3859168E+03  0.7957747E-01  0.3425793E+00
         13   -1    0    0    0    0  0.00000000000E+00  0.00000000000E+00  0.14999999963E+04  0.15000000000E+04  0.10566000000E+00 0.  1.
        994   -1    0    0    0    0 -0.00000000000E+00 -0.00000000000E+00  0.11368683772E-12  0.17120000000E+03  0.17120000000E+03 0.  0.
         13    1    1    2    0    0  0.91607435541E+01 -0.66003749059E+01  0.53129893438E+02  0.54316488400E+02  0.10566000000E+00 0.  1.
        994    1    1    2    0    0 -0.12738450218E+02  0.32089176662E+01  0.17416786940E+01  0.17171208085E+03  0.17120000000E+03 0.  0.
        998    1    1    2    0    0  0.35777066635E+01  0.33914572397E+01  0.14451284241E+04  0.14451714307E+04  0.10000000000E+02 0.  1.
</event>
<event>
 5    1  0.9123258E-009  0.3805138E+03  0.7957747E-01  0.3448924E+00
         13   -1    0    0    0    0  0.00000000000E+00  0.00000000000E+00  0.14999999963E+04  0.15000000000E+04  0.10566000000E+00 0. -1.
        994   -1    0    0    0    0 -0.00000000000E+00 -0.00000000000E+00  0.11368683772E-12  0.17120000000E+03  0.17120000000E+03 0.  0.
         13    1    1    2    0    0 -0.23452353240E+02 -0.18478604203E+02  0.97365788056E+02  0.10184095214E+03  0.10566000000E+00 0. -1.
        994    1    1    2    0    0  0.36390475097E+02  0.31992357170E+02  0.11749180988E+02  0.17831225659E+03  0.17120000000E+03 0.  0.
        998    1    1    2    0    0 -0.12938121857E+02 -0.13513752967E+02  0.13908850272E+04  0.13910467913E+04  0.10000000000E+02 0.  1.
</event>
<event>
 5    1  0.9123258E-009  0.3701653E+03  0.7957747E-01  0.3495132E+00
         13   -1    0    0    0    0  0.00000000000E+00  0.00000000000E+00  0.14999999963E+04  0.15000000000E+04  0.10566000000E+00 0. -1.
        994   -1    0    0    0    0 -0.00000000000E+00 -0.00000000000E+00  0.11368683772E-12  0.17120000000E+03  0.17120000000E+03 0.  0.
         13    1    1    2    0    0  0.18226483417E+02  0.15476745541E+02  0.26576545884E+02  0.35749941335E+02  0.10566000000E+00 0. -1.
        994    1    1    2    0    0 -0.21889125026E+02 -0.17358206937E+02  0.11884388183E+02  0.17387098615E+03  0.17120000000E+03 0.  0.
        998    1    1    2    0    0  0.36626416080E+01  0.18814613961E+01  0.14615390622E+04  0.14615790725E+04  0.10000000000E+02 0. -1.
</event>
<event>
 5    1  0.9123258E-009  0.3759166E+03  0.7957747E-01  0.3469133E+00
         13   -1    0    0    0    0  0.00000000000E+00  0.00000000000E+00  0.14999999963E+04  0.15000000000E+04  0.10566000000E+00 0.  1.
        994   -1    0    0    0    0 -0.00000000000E+00 -0.00000000000E+00  0.11368683772E-12  0.17120000000E+03  0.17120000000E+03 0.  0.
         13    1    1    2    0    0 -0.25610488537E+02  0.45282317762E+02  0.18118361832E+03  0.18850437697E+03  0.10566000000E+00 0.  1.
        994    1    1    2    0    0  0.27859669514E+02 -0.54055887830E+02  0.18845627832E+02  0.18265486000E+03  0.17120000000E+03 0.  0.
        998    1    1    2    0    0 -0.22491809768E+01  0.87735700682E+01  0.12999707501E+04  0.13000407630E+04  0.10000000000E+02 0.  1.
</event>
<event>
 5    1  0.9123258E-009  0.3785865E+03  0.7957747E-01  0.3457336E+00
         13   -1    0    0    0    0  0.00000000000E+00  0.00000000000E+00  0.14999999963E+04  0.15000000000E+04  0.10566000000E+00 0. -1.
        994   -1    0    0    0    0 -0.00000000000E+00 -0.00000000000E+00  0.11368683772E-12  0.17120000000E+03  0.17120000000E+03 0.  0.
         13    1    1    2    0    0 -0.10465805857E+01  0.12219321851E+02  0.13290437924E+02  0.18084636067E+02  0.10566000000E+00 0. -1.
        994    1    1    2    0    0  0.65245271537E+01 -0.11302709656E+02  0.54206176592E+01  0.17178225693E+03  0.17120000000E+03 0.  0.
        998    1    1    2    0    0 -0.54779465680E+01 -0.91661219505E+00  0.14812889407E+04  0.14813331070E+04  0.10000000000E+02 0. -1.
</event>
<event>
 5    1  0.9123258E-009  0.3823700E+03  0.7957747E-01  0.3440903E+00
         13   -1    0    0    0    0  0.00000000000E+00  0.00000000000E+00  0.14999999963E+04  0.15000000000E+04  0.10566000000E+00 0. -1.
        994   -1    0    0    0    0 -0.00000000000E+00 -0.00000000000E+00  0.11368683772E-12  0.17120000000E+03  0.17120000000E+03 0.  0.
         13    1    1    2    0    0 -0.14911932375E+02  0.12932603762E+01  0.37708642157E+02  0.40570815951E+02  0.10566000000E+00 0. -1.
        994    1    1    2    0    0  0.55073667883E+01 -0.83226005558E+00  0.30444470134E+01  0.17131763600E+03  0.17120000000E+03 0.  0.
        998    1    1    2    0    0  0.94045655869E+01 -0.46100032061E+00  0.14592469071E+04  0.14593115481E+04  0.10000000000E+02 0. -1.
</event>
<event>
 5    1  0.9123258E-009  0.3802956E+03  0.7957747E-01  0.3449872E+00
         13   -1    0    0    0    0  0.00000000000E+00  0.00000000000E+00  0.14999999963E+04  0.15000000000E+04  0.10566000000E+00 0. -1.
        994   -1    0    0    0    0 -0.00000000000E+00 -0.00000000000E+00  0.11368683772E-12  0.17120000000E+03  0.17120000000E+03 0.  0.
         13    1    1    2    0    0 -0.10108152806E+02 -0.10289849092E+02  0.23720778719E+02  0.27762245128E+02  0.10566000000E+00 0. -1.
        994    1    1    2    0    0  0.17701410484E+02  0.12251922455E+02  0.55332902564E+01  0.17263692200E+03  0.17120000000E+03 0.  0.
        998    1    1    2    0    0 -0.75932576777E+01 -0.19620733632E+01  0.14707459273E+04  0.14708008329E+04  0.10000000000E+02 0. -1.
</event>
<event>
 5    1  0.9123258E-009  0.3717349E+03  0.7957747E-01  0.3487955E+00
         13   -1    0    0    0    0  0.00000000000E+00  0.00000000000E+00  0.14999999963E+04  0.15000000000E+04  0.10566000000E+00 0. -1.
        994   -1    0    0    0    0 -0.00000000000E+00 -0.00000000000E+00  0.11368683772E-12  0.17120000000E+03  0.17120000000E+03 0.  0.
         13    1    1    2    0    0 -0.64588153048E+02  0.22189277623E+02  0.16928696710E+03  0.18254337005E+03  0.10566000000E+00 0. -1.
        994    1    1    2    0    0  0.68964558082E+02 -0.18415244057E+02  0.30003629847E+02  0.18789595336E+03  0.17120000000E+03 0.  0.
        998    1    1    2    0    0 -0.43764050340E+01 -0.37740335665E+01  0.13007093993E+04  0.13007606766E+04  0.10000000000E+02 0. -1.
</event>
<event>
 5    1  0.9123258E-009  0.3818225E+03  0.7957747E-01  0.3443261E+00
         13   -1    0    0    0    0  0.00000000000E+00  0.00000000000E+00  0.14999999963E+04  0.15000000000E+04  0.10566000000E+00 0.  1.
        994   -1    0    0    0    0 -0.00000000000E+00 -0.00000000000E+00  0.11368683772E-12  0.17120000000E+03  0.17120000000E+03 0.  0.
         13    1    1    2    0    0  0.74125555533E+01 -0.15376774740E+02  0.43183545300E+02  0.46435126035E+02  0.10566000000E+00 0.  1.
        994    1    1    2    0    0 -0.87428614187E+01  0.14829566896E+02  0.42013367262E+01  0.17211462724E+03  0.17120000000E+03 0.  0.
        998    1    1    2    0    0  0.13303058654E+01  0.54720784444E+00  0.14526151143E+04  0.14526502467E+04  0.10000000000E+02 0.  1.
</event>
<event>
 5    1  0.9123258E-009  0.3827993E+03  0.7957747E-01  0.3439059E+00
         13   -1    0    0    0    0  0.00000000000E+00  0.00000000000E+00  0.14999999963E+04  0.15000000000E+04  0.10566000000E+00 0. -1.
        994   -1    0    0    0    0 -0.00000000000E+00 -0.00000000000E+00  0.11368683772E-12  0.17120000000E+03  0.17120000000E+03 0.  0.
         13    1    1    2    0    0  0.79765980389E+01 -0.12576141435E+02  0.38751298526E+02  0.41514572756E+02  0.10566000000E+00 0. -1.
        994    1    1    2    0    0  0.59691001212E+01  0.23572182920E+02  0.46876253424E+01  0.17298176723E+03  0.17120000000E+03 0.  0.
        998    1    1    2    0    0 -0.13945698160E+02 -0.10996041484E+02  0.14565610724E+04  0.14567036600E+04  0.10000000000E+02 0. -1.
</event>
<event>
 5    1  0.9123258E-009  0.3866407E+03  0.7957747E-01  0.3422743E+00
         13   -1    0    0    0    0  0.00000000000E+00  0.00000000000E+00  0.14999999963E+04  0.15000000000E+04  0.10566000000E+00 0.  1.
        994   -1    0    0    0    0 -0.00000000000E+00 -0.00000000000E+00  0.11368683772E-12  0.17120000000E+03  0.17120000000E+03 0.  0.
         13    1    1    2    0    0  0.61665780717E+02  0.55354683943E+02  0.14642332145E+03  0.16824568278E+03  0.10566000000E+00 0.  1.
        994    1    1    2    0    0 -0.72501755938E+02 -0.51041733664E+02  0.49852109852E+02  0.19913923784E+03  0.17120000000E+03 0.  0.
        998    1    1    2    0    0  0.10835975222E+02 -0.43129502795E+01  0.13037245650E+04  0.13038150794E+04  0.10000000000E+02 0.  1.
</event>
<event>
 5    1  0.9123258E-009  0.3838603E+03  0.7957747E-01  0.3434520E+00
         13   -1    0    0    0    0  0.00000000000E+00  0.00000000000E+00  0.14999999963E+04  0.15000000000E+04  0.10566000000E+00 0.  1.
        994   -1    0    0    0    0 -0.00000000000E+00 -0.00000000000E+00  0.11368683772E-12  0.17120000000E+03  0.17120000000E+03 0.  0.
         13    1    1    2    0    0  0.73091301297E+01  0.23562409134E+02  0.14538112181E+03  0.14745945968E+03  0.10566000000E+00 0.  1.
        994    1    1    2    0    0 -0.17029091699E+02 -0.43145644928E+01  0.32163373007E+01  0.17212899307E+03  0.17120000000E+03 0.  0.
        998    1    1    2    0    0  0.97199615695E+01 -0.19247844641E+02  0.13514025372E+04  0.13516115472E+04  0.10000000000E+02 0.  1.
</event>
<event>
 5    1  0.9123258E-009  0.3716324E+03  0.7957747E-01  0.3488422E+00
         13   -1    0    0    0    0  0.00000000000E+00  0.00000000000E+00  0.14999999963E+04  0.15000000000E+04  0.10566000000E+00 0. -1.
        994   -1    0    0    0    0 -0.00000000000E+00 -0.00000000000E+00  0.11368683772E-12  0.17120000000E+03  0.17120000000E+03 0.  0.
         13    1    1    2    0    0  0.48769158928E+02 -0.13818648997E+02  0.10112065159E+03  0.11311402771E+03  0.10566000000E+00 0. -1.
        994    1    1    2    0    0 -0.38965874431E+02  0.18609582022E+02  0.18389685714E+02  0.17751697511E+03  0.17120000000E+03 0.  0.
        998    1    1    2    0    0 -0.98032844971E+01 -0.47909330255E+01  0.13804896590E+04  0.13805689972E+04  0.10000000000E+02 0. -1.
</event>
<event>
 5    1  0.9123258E-009  0.3792840E+03  0.7957747E-01  0.3454282E+00
         13   -1    0    0    0    0  0.00000000000E+00  0.00000000000E+00  0.14999999963E+04  0.15000000000E+04  0.10566000000E+00 0. -1.
        994   -1    0    0    0    0 -0.00000000000E+00 -0.00000000000E+00  0.11368683772E-12  0.17120000000E+03  0.17120000000E+03 0.  0.
         13    1    1    2    0    0  0.17591755657E+02 -0.53145537316E+01  0.32764977248E+02  0.37566863677E+02  0.10566000000E+00 0. -1.
        994    1    1    2    0    0 -0.40991815198E+02  0.51517428218E+01  0.10235778813E+02  0.17641167913E+03  0.17120000000E+03 0.  0.
        998    1    1    2    0    0  0.23400059541E+02  0.16281090985E+00  0.14569992402E+04  0.14572214572E+04  0.10000000000E+02 0. -1.
</event>
<event>
 5    1  0.9123258E-009  0.3837531E+03  0.7957747E-01  0.3434978E+00
         13   -1    0    0    0    0  0.00000000000E+00  0.00000000000E+00  0.14999999963E+04  0.15000000000E+04  0.10566000000E+00 0. -1.
        994   -1    0    0    0    0 -0.00000000000E+00 -0.00000000000E+00  0.11368683772E-12  0.17120000000E+03  0.17120000000E+03 0.  0.
         13    1    1    2    0    0  0.10063055213E+02 -0.53370007783E+01  0.28880574572E+02  0.31045891985E+02  0.10566000000E+00 0. -1.
        994    1    1    2    0    0 -0.50837847334E+01 -0.73741069180E+01  0.25153930424E+01  0.17145258681E+03  0.17120000000E+03 0.  0.
        998    1    1    2    0    0 -0.49792704799E+01  0.12711107696E+02  0.14686040287E+04  0.14687015212E+04  0.10000000000E+02 0. -1.
</event>
<event>
 5    1  0.9123258E-009  0.3836611E+03  0.7957747E-01  0.3435370E+00
         13   -1    0    0    0    0  0.00000000000E+00  0.00000000000E+00  0.14999999963E+04  0.15000000000E+04  0.10566000000E+00 0. -1.
        994   -1    0    0    0    0 -0.00000000000E+00 -0.00000000000E+00  0.11368683772E-12  0.17120000000E+03  0.17120000000E+03 0.  0.
         13    1    1    2    0    0  0.93123317589E+01  0.74832557426E+01  0.30776252357E+02  0.33013747326E+02  0.10566000000E+00 0. -1.
        994    1    1    2    0    0 -0.45245402296E+01 -0.20856032548E+01  0.23783102845E+01  0.17128898845E+03  0.17120000000E+03 0.  0.
        998    1    1    2    0    0 -0.47877915294E+01 -0.53976524878E+01  0.14668454336E+04  0.14668972642E+04  0.10000000000E+02 0. -1.
</event>
<event>
 5    1  0.9123258E-009  0.3824418E+03  0.7957747E-01  0.3440595E+00
         13   -1    0    0    0    0  0.00000000000E+00  0.00000000000E+00  0.14999999963E+04  0.15000000000E+04  0.10566000000E+00 0.  1.
        994   -1    0    0    0    0 -0.00000000000E+00 -0.00000000000E+00  0.11368683772E-12  0.17120000000E+03  0.17120000000E+03 0.  0.
         13    1    1    2    0    0  0.65352126986E+01 -0.13322181826E+02  0.37474261596E+02  0.40305346789E+02  0.10566000000E+00 0.  1.
        994    1    1    2    0    0  0.16099904369E+01  0.73623621189E+01  0.30939634327E+01  0.17139372525E+03  0.17120000000E+03 0.  0.
        998    1    1    2    0    0 -0.81452031355E+01  0.59598197072E+01  0.14594317713E+04  0.14595009280E+04  0.10000000000E+02 0.  1.
</event>
<event>
 5    1  0.9123258E-009  0.3795707E+03  0.7957747E-01  0.3453030E+00
         13   -1    0    0    0    0  0.00000000000E+00  0.00000000000E+00  0.14999999963E+04  0.15000000000E+04  0.10566000000E+00 0. -1.
        994   -1    0    0    0    0 -0.00000000000E+00 -0.00000000000E+00  0.11368683772E-12  0.17120000000E+03  0.17120000000E+03 0.  0.
         13    1    1    2    0    0  0.81387328060E+01  0.21988972224E+02  0.56109725038E+02  0.60811728138E+02  0.10566000000E+00 0. -1.
        994    1    1    2    0    0 -0.28052044525E+02 -0.31463384824E+02  0.10321405137E+02  0.17661492913E+03  0.17120000000E+03 0.  0.
        998    1    1    2    0    0  0.19913311719E+02  0.94744125994E+01  0.14335688661E+04  0.14337733427E+04  0.10000000000E+02 0. -1.
</event>
<event>
 5    1  0.9123258E-009  0.3795613E+03  0.7957747E-01  0.3453071E+00
         13   -1    0    0    0    0  0.00000000000E+00  0.00000000000E+00  0.14999999963E+04  0.15000000000E+04  0.10566000000E+00 0.  1.
        994   -1    0    0    0    0 -0.00000000000E+00 -0.00000000000E+00  0.11368683772E-12  0.17120000000E+03  0.17120000000E+03 0.  0.
         13    1    1    2    0    0  0.17941851759E+02  0.23795757530E+02  0.95575559261E+02  0.10011416889E+03  0.10566000000E+00 0.  1.
        994    1    1    2    0    0  0.20693907548E+00 -0.36041942442E+02  0.87159760874E+01  0.17516983952E+03  0.17120000000E+03 0.  0.
        998    1    1    2    0    0 -0.18148790835E+02  0.12246184912E+02  0.13957084609E+04  0.13959159916E+04  0.10000000000E+02 0.  1.
</event>
<event>
 5    1  0.9123258E-009  0.3826540E+03  0.7957747E-01  0.3439683E+00
         13   -1    0    0    0    0  0.00000000000E+00  0.00000000000E+00  0.14999999963E+04  0.15000000000E+04  0.10566000000E+00 0.  1.
        994   -1    0    0    0    0 -0.00000000000E+00 -0.00000000000E+00  0.11368683772E-12  0.17120000000E+03  0.17120000000E+03 0.  0.
         13    1    1    2    0    0  0.45574824355E+01  0.20118033011E+02  0.83064804197E+02  0.85587842353E+02  0.10566000000E+00 0.  1.
        994    1    1    2    0    0  0.47406774080E+02 -0.83774010788E+01  0.10517821580E+02  0.17815063191E+03  0.17120000000E+03 0.  0.
        998    1    1    2    0    0 -0.51964256515E+02 -0.11740631932E+02  0.14064173705E+04  0.14074615257E+04  0.10000000000E+02 0.  1.
</event>
<event>
 5    1  0.9123258E-009  0.3854648E+03  0.7957747E-01  0.3427703E+00
         13   -1    0    0    0    0  0.00000000000E+00  0.00000000000E+00  0.14999999963E+04  0.15000000000E+04  0.10566000000E+00 0.  1.
        994   -1    0    0    0    0 -0.00000000000E+00 -0.00000000000E+00  0.11368683772E-12  0.17120000000E+03  0.17120000000E+03 0.  0.
         13    1    1    2    0    0  0.65219541665E+00 -0.11610338120E+02  0.46952318165E+02  0.48371031158E+02  0.10566000000E+00 0.  1.
        994    1    1    2    0    0  0.25495952462E+02  0.15564484808E+02  0.43350996473E+01  0.17384052999E+03  0.17120000000E+03 0.  0.
        998    1    1    2    0    0 -0.26148147879E+02 -0.39541466882E+01  0.14487125785E+04  0.14489884388E+04  0.10000000000E+02 0.  1.
</event>
<event>
 5    1  0.9123258E-009  0.3829917E+03  0.7957747E-01  0.3438234E+00
         13   -1    0    0    0    0  0.00000000000E+00  0.00000000000E+00  0.14999999963E+04  0.15000000000E+04  0.10566000000E+00 0. -1.
        994   -1    0    0    0    0 -0.00000000000E+00 -0.00000000000E+00  0.11368683772E-12  0.17120000000E+03  0.17120000000E+03 0.  0.
         13    1    1    2    0    0  0.90259810020E+01  0.85203898074E+01  0.28101529258E+02  0.30720880296E+02  0.10566000000E+00 0. -1.
        994    1    1    2    0    0 -0.90881102071E+01 -0.68683679940E+01  0.30601828722E+01  0.17160586512E+03  0.17120000000E+03 0.  0.
        998    1    1    2    0    0  0.62129205084E-01 -0.16520218134E+01  0.14688382841E+04  0.14688732546E+04  0.10000000000E+02 0.  0.
</event>
<event>
 5    1  0.1121486E-008  0.3863044E+03  0.7957747E-01  0.3424159E+00
         13   -1    0    0    0    0  0.00000000000E+00  0.00000000000E+00  0.14999999963E+04  0.15000000000E+04  0.10566000000E+00 0.  1.
        994   -1    0    0    0    0 -0.00000000000E+00 -0.00000000000E+00  0.11368683772E-12  0.17120000000E+03  0.17120000000E+03 0.  0.
         13    1    1    2    0    0  0.10222513137E+02  0.46214787639E+01  0.64646858691E+02  0.65613149166E+02  0.10566000000E+00 0.  1.
        994    1    1    2    0    0 -0.98761587556E+01  0.15847461663E+01  0.13115923711E+01  0.17149696851E+03  0.17120000000E+03 0.  0.
        998    1    1    2    0    0 -0.34635438168E+00 -0.62062249302E+01  0.14340415452E+04  0.14340898823E+04  0.10000000000E+02 0.  1.
</event>
<event>
 5    1  0.9123258E-009  0.3832399E+03  0.7957747E-01  0.3437172E+00
         13   -1    0    0    0    0  0.00000000000E+00  0.00000000000E+00  0.14999999963E+04  0.15000000000E+04  0.10566000000E+00 0. -1.
        994   -1    0    0    0    0 -0.00000000000E+00 -0.00000000000E+00  0.11368683772E-12  0.17120000000E+03  0.17120000000E+03 0.  0.
         13    1    1    2    0    0  0.37366625571E+01  0.10682119568E+02  0.25032065265E+02  0.27471544932E+02  0.10566000000E+00 0. -1.
        994    1    1    2    0    0 -0.10551061842E+02 -0.28304516283E+00  0.28750919459E+01  0.17154915090E+03  0.17120000000E+03 0.  0.
        998    1    1    2    0    0  0.68143992850E+01 -0.10399074405E+02  0.14720928391E+04  0.14721793042E+04  0.10000000000E+02 0. -1.
</event>
<event>
 5    1  0.9123258E-009  0.4450136E+03  0.7957747E-01  0.3209223E+00
         13   -1    0    0    0    0  0.00000000000E+00  0.00000000000E+00  0.14999999963E+04  0.15000000000E+04  0.10566000000E+00 0.  1.
        994   -1    0    0    0    0 -0.00000000000E+00 -0.00000000000E+00  0.11368683772E-12  0.17120000000E+03  0.17120000000E+03 0.  0.
         13    1    1    2    0    0  0.60949142672E+02  0.20641348875E+02  0.15814903977E+02  0.66264512581E+02  0.10566000000E+00 0.  1.
        994    1    1    2    0    0 -0.59100802125E+02 -0.22209859566E+02  0.77556224998E+02  0.19826898575E+03  0.17120000000E+03 0.  0.
        998    1    1    2    0    0 -0.18483405470E+01  0.15685106911E+01  0.14066288673E+04  0.14066665017E+04  0.10000000000E+02 0.  1.
</event>
<event>
 5    1  0.1029663E-008  0.3854251E+03  0.7957747E-01  0.3427871E+00
         13   -1    0    0    0    0  0.00000000000E+00  0.00000000000E+00  0.14999999963E+04  0.15000000000E+04  0.10566000000E+00 0. -1.
        994   -1    0    0    0    0 -0.00000000000E+00 -0.00000000000E+00  0.11368683772E-12  0.17120000000E+03  0.17120000000E+03 0.  0.
         13    1    1    2    0    0  0.97858380976E+01 -0.27428671406E+01  0.36168787615E+02  0.37569646113E+02  0.10566000000E+00 0. -1.
        994    1    1    2    0    0 -0.77492761845E+01  0.29579219265E+01  0.16451978858E+01  0.17140871407E+03  0.17120000000E+03 0.  0.
        998    1    1    2    0    0 -0.20365619131E+01 -0.21505478592E+00  0.14621860108E+04  0.14622216398E+04  0.10000000000E+02 0. -1.
</event>
<event>
 5    1  0.9123258E-009  0.3831839E+03  0.7957747E-01  0.3437411E+00
         13   -1    0    0    0    0  0.00000000000E+00  0.00000000000E+00  0.14999999963E+04  0.15000000000E+04  0.10566000000E+00 0.  1.
        994   -1    0    0    0    0 -0.00000000000E+00 -0.00000000000E+00  0.11368683772E-12  0.17120000000E+03  0.17120000000E+03 0.  0.
         13    1    1    2    0    0 -0.61795461410E+01 -0.15104664390E+02  0.52777380519E+02  0.55243105772E+02  0.10566000000E+00 0.  1.
        994    1    1    2    0    0  0.10469743228E+02  0.31412946924E+01  0.29298781826E+01  0.17157362105E+03  0.17120000000E+03 0.  0.
        998    1    1    2    0    0 -0.42901970868E+01  0.11963369698E+02  0.14442927376E+04  0.14443832732E+04  0.10000000000E+02 0.  1.
</event>
<event>
 5    1  0.1409698E-008  0.3864322E+03  0.7957747E-01  0.3423621E+00
         13   -1    0    0    0    0  0.00000000000E+00  0.00000000000E+00  0.14999999963E+04  0.15000000000E+04  0.10566000000E+00 0. -1.
        994   -1    0    0    0    0 -0.00000000000E+00 -0.00000000000E+00  0.11368683772E-12  0.17120000000E+03  0.17120000000E+03 0.  0.
         13    1    1    2    0    0  0.61715492511E+01 -0.82242811159E+01  0.56833848404E+02  0.57756595368E+02  0.10566000000E+00 0. -1.
        994    1    1    2    0    0 -0.13689680528E+02  0.34165160239E+01  0.15726869404E+01  0.17178764006E+03  0.17120000000E+03 0.  0.
        998    1    1    2    0    0  0.75181312767E+01  0.48077650920E+01  0.14415934609E+04  0.14416557646E+04  0.10000000000E+02 0. -1.
</event>
<event>
 5    1  0.9123258E-009  0.3803779E+03  0.7957747E-01  0.3449515E+00
         13   -1    0    0    0    0  0.00000000000E+00  0.00000000000E+00  0.14999999963E+04  0.15000000000E+04  0.10566000000E+00 0.  1.
        994   -1    0    0    0    0 -0.00000000000E+00 -0.00000000000E+00  0.11368683772E-12  0.17120000000E+03  0.17120000000E+03 0.  0.
         13    1    1    2    0    0 -0.86330524302E+01 -0.23722610545E+02  0.78999341475E+02  0.82934907987E+02  0.10566000000E+00 0.  1.
        994    1    1    2    0    0  0.23747908938E+02  0.96152778062E+01  0.61372033110E+01  0.17321524763E+03  0.17120000000E+03 0.  0.
        998    1    1    2    0    0 -0.15114856508E+02  0.14107332739E+02  0.14148634515E+04  0.14150498444E+04  0.10000000000E+02 0.  1.
</event>
<event>
 5    1  0.9123258E-009  0.3797680E+03  0.7957747E-01  0.3452169E+00
         13   -1    0    0    0    0  0.00000000000E+00  0.00000000000E+00  0.14999999963E+04  0.15000000000E+04  0.10566000000E+00 0. -1.
        994   -1    0    0    0    0 -0.00000000000E+00 -0.00000000000E+00  0.11368683772E-12  0.17120000000E+03  0.17120000000E+03 0.  0.
         13    1    1    2    0    0 -0.30593817866E+02  0.18173304332E+02  0.14411510693E+03  0.14844334236E+03  0.10566000000E+00 0. -1.
        994    1    1    2    0    0  0.18553047661E+02 -0.17369267082E+02  0.64141814736E+01  0.17319494433E+03  0.17120000000E+03 0.  0.
        998    1    1    2    0    0  0.12040770205E+02 -0.80403724991E+00  0.13494707079E+04  0.13495617133E+04  0.10000000000E+02 0. -1.
</event>
<event>
 5    1  0.9123258E-009  0.4254788E+03  0.7957747E-01  0.3274266E+00
         13   -1    0    0    0    0  0.00000000000E+00  0.00000000000E+00  0.14999999963E+04  0.15000000000E+04  0.10566000000E+00 0.  1.
        994   -1    0    0    0    0 -0.00000000000E+00 -0.00000000000E+00  0.11368683772E-12  0.17120000000E+03  0.17120000000E+03 0.  0.
         13    1    1    2    0    0  0.33920448702E+02  0.78982265829E+02  0.82153198441E+02  0.11890313004E+03  0.10566000000E+00 0.  1.
        994    1    1    2    0    0 -0.35703723213E+02 -0.97234662425E+00  0.49590740443E+02  0.18178113996E+03  0.17120000000E+03 0.  0.
        998    1    1    2    0    0  0.17832745116E+01 -0.78009919204E+02  0.13682560574E+04  0.13705157300E+04  0.10000000000E+02 0.  1.
</event>
<event>
 5    1  0.9123258E-009  0.3814854E+03  0.7957747E-01  0.3444716E+00
         13   -1    0    0    0    0  0.00000000000E+00  0.00000000000E+00  0.14999999963E+04  0.15000000000E+04  0.10566000000E+00 0. -1.
        994   -1    0    0    0    0 -0.00000000000E+00 -0.00000000000E+00  0.11368683772E-12  0.17120000000E+03  0.17120000000E+03 0.  0.
         13    1    1    2    0    0  0.42985090596E+01  0.98462663405E+01  0.15644578759E+02  0.18978676180E+02  0.10566000000E+00 0. -1.
        994    1    1    2    0    0 -0.18077036415E+01 -0.74690094155E+01  0.35816704174E+01  0.17140980794E+03  0.17120000000E+03 0.  0.
        998    1    1    2    0    0 -0.24908054181E+01 -0.23772569250E+01  0.14807737471E+04  0.14808115159E+04  0.10000000000E+02 0. -1.
</event>
<event>
 5    1  0.9123258E-009  0.3839337E+03  0.7957747E-01  0.3434207E+00
         13   -1    0    0    0    0  0.00000000000E+00  0.00000000000E+00  0.14999999963E+04  0.15000000000E+04  0.10566000000E+00 0.  1.
        994   -1    0    0    0    0 -0.00000000000E+00 -0.00000000000E+00  0.11368683772E-12  0.17120000000E+03  0.17120000000E+03 0.  0.
         13    1    1    2    0    0  0.48084532793E+01  0.96703112110E+01  0.25321985794E+02  0.27529080450E+02  0.10566000000E+00 0.  1.
        994    1    1    2    0    0 -0.80449092711E+01 -0.16443202382E+02  0.32671096194E+01  0.17220689149E+03  0.17120000000E+03 0.  0.
        998    1    1    2    0    0  0.32364559918E+01  0.67728911711E+01  0.14714109009E+04  0.14714640281E+04  0.10000000000E+02 0.  1.
</event>
<event>
 5    1  0.9123258E-009  0.3852309E+03  0.7957747E-01  0.3428694E+00
         13   -1    0    0    0    0  0.00000000000E+00  0.00000000000E+00  0.14999999963E+04  0.15000000000E+04  0.10566000000E+00 0.  1.
        994   -1    0    0    0    0 -0.00000000000E+00 -0.00000000000E+00  0.11368683772E-12  0.17120000000E+03  0.17120000000E+03 0.  0.
         13    1    1    2    0    0  0.15062086227E+02 -0.27381543239E+01  0.74549129835E+02  0.76104847768E+02  0.10566000000E+00 0.  1.
        994    1    1    2    0    0 -0.15836134275E+02  0.19405730217E+00  0.23402357394E+01  0.17194690317E+03  0.17120000000E+03 0.  0.
        998    1    1    2    0    0  0.77404804823E+00  0.25440970217E+01  0.14231106307E+04  0.14231482491E+04  0.10000000000E+02 0.  1.
</event>
<event>
 5    1  0.9123258E-009  0.3835597E+03  0.7957747E-01  0.3435804E+00
         13   -1    0    0    0    0  0.00000000000E+00  0.00000000000E+00  0.14999999963E+04  0.15000000000E+04  0.10566000000E+00 0. -1.
        994   -1    0    0    0    0 -0.00000000000E+00 -0.00000000000E+00  0.11368683772E-12  0.17120000000E+03  0.17120000000E+03 0.  0.
         13    1    1    2    0    0 -0.61777331622E+01 -0.16139175555E+02  0.64368053774E+02  0.66647542231E+02  0.10566000000E+00 0. -1.
        994    1    1    2    0    0  0.10554112932E+02  0.38686070232E+01  0.27645031770E+01  0.17159090272E+03  0.17120000000E+03 0.  0.
        998    1    1    2    0    0 -0.43763797698E+01  0.12270568532E+02  0.14328674393E+04  0.14329615550E+04  0.10000000000E+02 0. -1.
</event>
<event>
 5    1  0.9123258E-009  0.3751936E+03  0.7957747E-01  0.3472357E+00
         13   -1    0    0    0    0  0.00000000000E+00  0.00000000000E+00  0.14999999963E+04  0.15000000000E+04  0.10566000000E+00 0. -1.
        994   -1    0    0    0    0 -0.00000000000E+00 -0.00000000000E+00  0.11368683772E-12  0.17120000000E+03  0.17120000000E+03 0.  0.
         13    1    1    2    0    0 -0.17611543863E+02 -0.37500051035E+02  0.12355177198E+03  0.13031297644E+03  0.10566000000E+00 0. -1.
        994    1    1    2    0    0  0.10884708900E+02  0.31011638447E+02  0.10257528167E+02  0.17462776266E+03  0.17120000000E+03 0.  0.
        998    1    1    2    0    0  0.67268349636E+01  0.64884125880E+01  0.13661906961E+04  0.13662592609E+04  0.10000000000E+02 0. -1.
</event>
<event>
 5    1  0.9123258E-009  0.3856898E+03  0.7957747E-01  0.3426752E+00
         13   -1    0    0    0    0  0.00000000000E+00  0.00000000000E+00  0.14999999963E+04  0.15000000000E+04  0.10566000000E+00 0. -1.
        994   -1    0    0    0    0 -0.00000000000E+00 -0.00000000000E+00  0.11368683772E-12  0.17120000000E+03  0.17120000000E+03 0.  0.
         13    1    1    2    0    0  0.34883153918E+01 -0.11158869464E+02  0.52108298032E+02  0.53403881879E+02  0.10566000000E+00 0. -1.
        994    1    1    2    0    0 -0.13199678250E+01  0.11972234727E+02  0.17642593950E+01  0.17163225026E+03  0.17120000000E+03 0.  0.
        998    1    1    2    0    0 -0.21683475668E+01 -0.81336526317E+00  0.14461274389E+04  0.14461638679E+04  0.10000000000E+02 0. -1.
</event>
<event>
 5    1  0.9123258E-009  0.3827027E+03  0.7957747E-01  0.3439474E+00
         13   -1    0    0    0    0  0.00000000000E+00  0.00000000000E+00  0.14999999963E+04  0.15000000000E+04  0.10566000000E+00 0. -1.
        994   -1    0    0    0    0 -0.00000000000E+00 -0.00000000000E+00  0.11368683772E-12  0.17120000000E+03  0.17120000000E+03 0.  0.
         13    1    1    2    0    0  0.19460552476E+02 -0.15357351828E+02  0.11745647527E+03  0.12004414232E+03  0.10566000000E+00 0. -1.
        994    1    1    2    0    0 -0.16308692956E+02 -0.11386191700E+02  0.40869389645E+01  0.17240000550E+03  0.17120000000E+03 0.  0.
        998    1    1    2    0    0 -0.31518595195E+01  0.26743543528E+02  0.13784565820E+04  0.13787558522E+04  0.10000000000E+02 0. -1.
</event>
<event>
 5    1  0.9575685E-009  0.3836826E+03  0.7957747E-01  0.3435279E+00
         13   -1    0    0    0    0  0.00000000000E+00  0.00000000000E+00  0.14999999963E+04  0.15000000000E+04  0.10566000000E+00 0. -1.
        994   -1    0    0    0    0 -0.00000000000E+00 -0.00000000000E+00  0.11368683772E-12  0.17120000000E+03  0.17120000000E+03 0.  0.
         13    1    1    2    0    0 -0.81841638758E+01 -0.93455833214E+01  0.28145107282E+02  0.30764893855E+02  0.10566000000E+00 0. -1.
        994    1    1    2    0    0  0.41100539158E+02  0.33080147013E+02  0.11533824448E+02  0.17951607046E+03  0.17120000000E+03 0.  0.
        998    1    1    2    0    0 -0.32916375282E+02 -0.23734563692E+02  0.14603210645E+04  0.14609190357E+04  0.10000000000E+02 0. -1.
</event>
<event>
 5    1  0.9123258E-009  0.3841156E+03  0.7957747E-01  0.3433432E+00
         13   -1    0    0    0    0  0.00000000000E+00  0.00000000000E+00  0.14999999963E+04  0.15000000000E+04  0.10566000000E+00 0. -1.
        994   -1    0    0    0    0 -0.00000000000E+00 -0.00000000000E+00  0.11368683772E-12  0.17120000000E+03  0.17120000000E+03 0.  0.
         13    1    1    2    0    0  0.34196790220E+01 -0.12886083458E+02  0.41185480243E+02  0.43289725090E+02  0.10566000000E+00 0. -1.
        994    1    1    2    0    0 -0.10834828237E+01  0.15941794241E+02  0.29123730245E+01  0.17196870836E+03  0.17120000000E+03 0.  0.
        998    1    1    2    0    0 -0.23361961983E+01 -0.30557107839E+01  0.14559021430E+04  0.14559415665E+04  0.10000000000E+02 0. -1.
</event>
<event>
 5    1  0.9123258E-009  0.3245489E+03  0.7957747E-01  0.3734985E+00
         13   -1    0    0    0    0  0.00000000000E+00  0.00000000000E+00  0.14999999963E+04  0.15000000000E+04  0.10566000000E+00 0.  1.
        994   -1    0    0    0    0 -0.00000000000E+00 -0.00000000000E+00  0.11368683772E-12  0.17120000000E+03  0.17120000000E+03 0.  0.
         13    1    1    2    0    0  0.22246605594E+03  0.16411588043E+03  0.65955566916E+03  0.71514953691E+03  0.10566000000E+00 0.  1.
        994    1    1    2    0    0 -0.17734983201E+03 -0.16253333638E+03  0.32719358322E+03  0.44072114681E+03  0.17120000000E+03 0.  0.
        998    1    1    2    0    0 -0.45116223932E+02 -0.15825440520E+01  0.51325074390E+03  0.51532931628E+03  0.10000000000E+02 0. -1.
</event>
<event>
 5    1  0.9123258E-009  0.3796739E+03  0.7957747E-01  0.3452579E+00
         13   -1    0    0    0    0  0.00000000000E+00  0.00000000000E+00  0.14999999963E+04  0.15000000000E+04  0.10566000000E+00 0. -1.
        994   -1    0    0    0    0 -0.00000000000E+00 -0.00000000000E+00  0.11368683772E-12  0.17120000000E+03  0.17120000000E+03 0.  0.
         13    1    1    2    0    0 -0.43431124028E+02 -0.27766825803E+00  0.24539013052E+03  0.24920406689E+03  0.10566000000E+00 0. -1.
        994    1    1    2    0    0  0.10672179325E+02  0.20116525440E+01  0.46926204898E+01  0.17160828315E+03  0.17120000000E+03 0.  0.
        998    1    1    2    0    0  0.32758944703E+02 -0.17339842859E+01  0.12499172453E+04  0.12503876500E+04  0.10000000000E+02 0. -1.
</event>
<event>
 5    1  0.9123258E-009  0.3860241E+03  0.7957747E-01  0.3425340E+00
         13   -1    0    0    0    0  0.00000000000E+00  0.00000000000E+00  0.14999999963E+04  0.15000000000E+04  0.10566000000E+00 0.  1.
        994   -1    0    0    0    0 -0.00000000000E+00 -0.00000000000E+00  0.11368683772E-12  0.17120000000E+03  0.17120000000E+03 0.  0.
         13    1    1    2    0    0  0.12207050982E+02  0.58663944490E+01  0.81310110077E+02  0.82430406054E+02  0.10566000000E+00 0.  1.
        994    1    1    2    0    0 -0.10730314898E+02 -0.26752208700E+01  0.15235027288E+01  0.17156356701E+03  0.17120000000E+03 0.  0.
        998    1    1    2    0    0 -0.14767360843E+01 -0.31911735789E+01  0.14171663835E+04  0.14172060269E+04  0.10000000000E+02 0.  1.
</event>
<event>
 5    1  0.9123258E-009  0.3743476E+03  0.7957747E-01  0.3476146E+00
         13   -1    0    0    0    0  0.00000000000E+00  0.00000000000E+00  0.14999999963E+04  0.15000000000E+04  0.10566000000E+00 0.  1.
        994   -1    0    0    0    0 -0.00000000000E+00 -0.00000000000E+00  0.11368683772E-12  0.17120000000E+03  0.17120000000E+03 0.  0.
         13    1    1    2    0    0  0.18935503924E+02  0.45759299996E+02  0.14907620077E+03  0.15708657373E+03  0.10566000000E+00 0.  1.
        994    1    1    2    0    0 -0.45534911234E+01 -0.61798486524E+02  0.20209815530E+02  0.18318751011E+03  0.17120000000E+03 0.  0.
        998    1    1    2    0    0 -0.14382012801E+02  0.16039186528E+02  0.13307139800E+04  0.13309259162E+04  0.10000000000E+02 0.  1.
</event>
<event>
 5    1  0.1051239E-008  0.3863458E+03  0.7957747E-01  0.3423984E+00
         13   -1    0    0    0    0  0.00000000000E+00  0.00000000000E+00  0.14999999963E+04  0.15000000000E+04  0.10566000000E+00 0. -1.
        994   -1    0    0    0    0 -0.00000000000E+00 -0.00000000000E+00  0.11368683772E-12  0.17120000000E+03  0.17120000000E+03 0.  0.
         13    1    1    2    0    0  0.97993231599E+01  0.48959089496E+01  0.61407542978E+02  0.62377032292E+02  0.10566000000E+00 0. -1.
        994    1    1    2    0    0 -0.13747621940E+02  0.17748572790E+01  0.15928331342E+01  0.17176764639E+03  0.17120000000E+03 0.  0.
        998    1    1    2    0    0  0.39482987797E+01 -0.66707662287E+01  0.14369996202E+04  0.14370553213E+04  0.10000000000E+02 0. -1.
</event>
<event>
 5    1  0.9123258E-009  0.3743558E+03  0.7957747E-01  0.3476109E+00
         13   -1    0    0    0    0  0.00000000000E+00  0.00000000000E+00  0.14999999963E+04  0.15000000000E+04  0.10566000000E+00 0.  1.
        994   -1    0    0    0    0 -0.00000000000E+00 -0.00000000000E+00  0.11368683772E-12  0.17120000000E+03  0.17120000000E+03 0.  0.
         13    1    1    2    0    0 -0.41071331901E+02  0.47580769855E+02  0.25558933081E+03  0.26320467540E+03  0.10566000000E+00 0.  1.
        994    1    1    2    0    0  0.43206831255E+02 -0.28473095754E+02  0.16186566714E+02  0.17958004452E+03  0.17120000000E+03 0.  0.
        998    1    1    2    0    0 -0.21354993549E+01 -0.19107674101E+02  0.12282240988E+04  0.12284152801E+04  0.10000000000E+02 0.  1.
</event>
<event>
 5    1  0.9123258E-009  0.3789999E+03  0.7957747E-01  0.3455525E+00
         13   -1    0    0    0    0  0.00000000000E+00  0.00000000000E+00  0.14999999963E+04  0.15000000000E+04  0.10566000000E+00 0.  1.
        994   -1    0    0    0    0 -0.00000000000E+00 -0.00000000000E+00  0.11368683772E-12  0.17120000000E+03  0.17120000000E+03 0.  0.
         13    1    1    2    0    0  0.21366033927E+02 -0.14463860709E+01  0.47429018319E+02  0.52039623184E+02  0.10566000000E+00 0.  1.
        994    1    1    2    0    0 -0.15435032055E+02  0.10997007793E+00  0.54383515463E+01  0.17198042905E+03  0.17120000000E+03 0.  0.
        998    1    1    2    0    0 -0.59310018718E+01  0.13364159930E+01  0.14471326264E+04  0.14471799478E+04  0.10000000000E+02 0.  1.
</event>
<event>
 5    1  0.9123258E-009  0.3709333E+03  0.7957747E-01  0.3491613E+00
         13   -1    0    0    0    0  0.00000000000E+00  0.00000000000E+00  0.14999999963E+04  0.15000000000E+04  0.10566000000E+00 0. -1.
        994   -1    0    0    0    0 -0.00000000000E+00 -0.00000000000E+00  0.11368683772E-12  0.17120000000E+03  0.17120000000E+03 0.  0.
         13    1    1    2    0    0  0.77994346416E+02  0.43701844275E+02  0.29644369642E+03  0.30963179032E+03  0.10566000000E+00 0. -1.
        994    1    1    2    0    0 -0.90734161244E+02 -0.13783418422E+01  0.40904179877E+02  0.19803327946E+03  0.17120000000E+03 0.  0.
        998    1    1    2    0    0  0.12739814828E+02 -0.42323502433E+02  0.11626521200E+04  0.11635349302E+04  0.10000000000E+02 0. -1.
</event>
<event>
 5    1  0.9123258E-009  0.3839686E+03  0.7957747E-01  0.3434058E+00
         13   -1    0    0    0    0  0.00000000000E+00  0.00000000000E+00  0.14999999963E+04  0.15000000000E+04  0.10566000000E+00 0.  1.
        994   -1    0    0    0    0 -0.00000000000E+00 -0.00000000000E+00  0.11368683772E-12  0.17120000000E+03  0.17120000000E+03 0.  0.
         13    1    1    2    0    0 -0.35835017795E+01 -0.13796632042E+02  0.46006648449E+02  0.48164420543E+02  0.10566000000E+00 0.  1.
        994    1    1    2    0    0  0.48672201838E+01  0.12806896609E+02  0.27626782324E+01  0.17176955150E+03  0.17120000000E+03 0.  0.
        998    1    1    2    0    0 -0.12837184044E+01  0.98973543252E+00  0.14512306696E+04  0.14512660280E+04  0.10000000000E+02 0.  0.
</event>
<event>
 5    1  0.9123258E-009  0.3759899E+03  0.7957747E-01  0.3468807E+00
         13   -1    0    0    0    0  0.00000000000E+00  0.00000000000E+00  0.14999999963E+04  0.15000000000E+04  0.10566000000E+00 0. -1.
        994   -1    0    0    0    0 -0.00000000000E+00 -0.00000000000E+00  0.11368683772E-12  0.17120000000E+03  0.17120000000E+03 0.  0.
         13    1    1    2    0    0 -0.33467597232E+02 -0.19336206309E+02  0.12325497300E+03  0.12917340466E+03  0.10566000000E+00 0. -1.
        994    1    1    2    0    0  0.76165758490E+01  0.18507434457E+02  0.75294011005E+01  0.17253019805E+03  0.17120000000E+03 0.  0.
        998    1    1    2    0    0  0.25851021383E+02  0.82877185131E+00  0.13692156222E+04  0.13694963973E+04  0.10000000000E+02 0. -1.
</event>
<event>
 5    1  0.9123258E-009  0.3746400E+03  0.7957747E-01  0.3474835E+00
         13   -1    0    0    0    0  0.00000000000E+00  0.00000000000E+00  0.14999999963E+04  0.15000000000E+04  0.10566000000E+00 0. -1.
        994   -1    0    0    0    0 -0.00000000000E+00 -0.00000000000E+00  0.11368683772E-12  0.17120000000E+03  0.17120000000E+03 0.  0.
         13    1    1    2    0    0 -0.22860346409E+01 -0.22526839243E+02  0.34701965170E+02  0.41435757400E+02  0.10566000000E+00 0. -1.
        994    1    1    2    0    0  0.27370150002E+01  0.13738474063E+02  0.75318619418E+01  0.17193721489E+03  0.17120000000E+03 0.  0.
        998    1    1    2    0    0 -0.45098035924E+00  0.87883651798E+01  0.14577661692E+04  0.14578270277E+04  0.10000000000E+02 0. -1.
</event>
<event>
 5    1  0.9123258E-009  0.3702231E+03  0.7957747E-01  0.3494866E+00
         13   -1    0    0    0    0  0.00000000000E+00  0.00000000000E+00  0.14999999963E+04  0.15000000000E+04  0.10566000000E+00 0.  1.
        994   -1    0    0    0    0 -0.00000000000E+00 -0.00000000000E+00  0.11368683772E-12  0.17120000000E+03  0.17120000000E+03 0.  0.
         13    1    1    2    0    0 -0.49304320662E+02  0.10895355408E+02  0.10783557460E+03  0.11907202492E+03  0.10566000000E+00 0.  1.
        994    1    1    2    0    0  0.36695912373E+02 -0.24097857650E+02  0.17830381219E+02  0.17763631167E+03  0.17120000000E+03 0.  0.
        998    1    1    2    0    0  0.12608408289E+02  0.13202502242E+02  0.13743340405E+04  0.13744916634E+04  0.10000000000E+02 0.  1.
</event>
<event>
 5    1  0.9123258E-009  0.3832326E+03  0.7957747E-01  0.3437203E+00
         13   -1    0    0    0    0  0.00000000000E+00  0.00000000000E+00  0.14999999963E+04  0.15000000000E+04  0.10566000000E+00 0. -1.
        994   -1    0    0    0    0 -0.00000000000E+00 -0.00000000000E+00  0.11368683772E-12  0.17120000000E+03  0.17120000000E+03 0.  0.
         13    1    1    2    0    0 -0.20624166074E+02  0.21920536152E+01  0.83479178467E+02  0.86017124614E+02  0.10566000000E+00 0. -1.
        994    1    1    2    0    0  0.15985466393E+02 -0.28035921107E+01  0.33818611171E+01  0.17200079142E+03  0.17120000000E+03 0.  0.
        998    1    1    2    0    0  0.46386996820E+01  0.61153849548E+00  0.14131389567E+04  0.14131820840E+04  0.10000000000E+02 0. -1.
</event>
<event>
 5    1  0.9123258E-009  0.3800872E+03  0.7957747E-01  0.3450779E+00
         13   -1    0    0    0    0  0.00000000000E+00  0.00000000000E+00  0.14999999963E+04  0.15000000000E+04  0.10566000000E+00 0. -1.
        994   -1    0    0    0    0 -0.00000000000E+00 -0.00000000000E+00  0.11368683772E-12  0.17120000000E+03  0.17120000000E+03 0.  0.
         13    1    1    2    0    0 -0.11354264174E+02  0.15713370781E+02  0.43604294608E+02  0.47719754908E+02  0.10566000000E+00 0. -1.
        994    1    1    2    0    0  0.24206467920E+01 -0.20407367854E+02  0.55017647848E+01  0.17251675168E+03  0.17120000000E+03 0.  0.
        998    1    1    2    0    0  0.89336173819E+01  0.46939970736E+01  0.14508939369E+04  0.14509634934E+04  0.10000000000E+02 0. -1.
</event>
<event>
 5    1  0.9123258E-009  0.3701469E+03  0.7957747E-01  0.3495216E+00
         13   -1    0    0    0    0  0.00000000000E+00  0.00000000000E+00  0.14999999963E+04  0.15000000000E+04  0.10566000000E+00 0.  1.
        994   -1    0    0    0    0 -0.00000000000E+00 -0.00000000000E+00  0.11368683772E-12  0.17120000000E+03  0.17120000000E+03 0.  0.
         13    1    1    2    0    0  0.12637215728E+02  0.20467116433E+01  0.48556388444E+01  0.13692211017E+02  0.10566000000E+00 0.  1.
        994    1    1    2    0    0  0.15440833039E+01  0.56905518482E+01  0.93124845871E+01  0.17155444892E+03  0.17120000000E+03 0.  0.
        998    1    1    2    0    0 -0.14181299032E+02 -0.77372634915E+01  0.14858318728E+04  0.14859533401E+04  0.10000000000E+02 0.  1.
</event>
<event>
 5    1  0.9123258E-009  0.3736267E+03  0.7957747E-01  0.3479388E+00
         13   -1    0    0    0    0  0.00000000000E+00  0.00000000000E+00  0.14999999963E+04  0.15000000000E+04  0.10566000000E+00 0. -1.
        994   -1    0    0    0    0 -0.00000000000E+00 -0.00000000000E+00  0.11368683772E-12  0.17120000000E+03  0.17120000000E+03 0.  0.
         13    1    1    2    0    0 -0.30288982691E+01  0.17516617690E+02  0.18239746331E+02  0.25469700239E+02  0.10566000000E+00 0. -1.
        994    1    1    2    0    0 -0.76092717259E+01 -0.13275436491E+02  0.81856413120E+01  0.17207725868E+03  0.17120000000E+03 0.  0.
        998    1    1    2    0    0  0.10638169995E+02 -0.42411811982E+01  0.14735746086E+04  0.14736530411E+04  0.10000000000E+02 0. -1.
</event>
<event>
 5    1  0.9123258E-009  0.3753508E+03  0.7957747E-01  0.3471655E+00
         13   -1    0    0    0    0  0.00000000000E+00  0.00000000000E+00  0.14999999963E+04  0.15000000000E+04  0.10566000000E+00 0. -1.
        994   -1    0    0    0    0 -0.00000000000E+00 -0.00000000000E+00  0.11368683772E-12  0.17120000000E+03  0.17120000000E+03 0.  0.
         13    1    1    2    0    0 -0.82319914318E+01 -0.24369709633E+02  0.46802932025E+02  0.53405749136E+02  0.10566000000E+00 0. -1.
        994    1    1    2    0    0  0.11899558846E+02  0.24985990499E+02  0.91034229514E+01  0.17366119754E+03  0.17120000000E+03 0.  0.
        998    1    1    2    0    0 -0.36675674141E+01 -0.61628086610E+00  0.14440936413E+04  0.14441330533E+04  0.10000000000E+02 0. -1.
</event>
<event>
 5    1  0.1063570E-008  0.3855251E+03  0.7957747E-01  0.3427448E+00
         13   -1    0    0    0    0  0.00000000000E+00  0.00000000000E+00  0.14999999963E+04  0.15000000000E+04  0.10566000000E+00 0.  1.
        994   -1    0    0    0    0 -0.00000000000E+00 -0.00000000000E+00  0.11368683772E-12  0.17120000000E+03  0.17120000000E+03 0.  0.
         13    1    1    2    0    0 -0.98549437746E+01 -0.19781305028E+01  0.35485472179E+02  0.36881740969E+02  0.10566000000E+00 0.  1.
        994    1    1    2    0    0  0.14625707655E+02  0.25403121630E+01  0.20934783120E+01  0.17185513423E+03  0.17120000000E+03 0.  0.
        998    1    1    2    0    0 -0.47707638800E+01 -0.56218166020E+00  0.14624210458E+04  0.14624631248E+04  0.10000000000E+02 0.  1.
</event>
<event>
 5    1  0.1264135E-008  0.3861461E+03  0.7957747E-01  0.3424826E+00
         13   -1    0    0    0    0  0.00000000000E+00  0.00000000000E+00  0.14999999963E+04  0.15000000000E+04  0.10566000000E+00 0. -1.
        994   -1    0    0    0    0 -0.00000000000E+00 -0.00000000000E+00  0.11368683772E-12  0.17120000000E+03  0.17120000000E+03 0.  0.
         13    1    1    2    0    0  0.94831970462E+00  0.11685159968E+02  0.62755366954E+02  0.63841127177E+02  0.10566000000E+00 0. -1.
        994    1    1    2    0    0 -0.12504123252E+01 -0.13647566445E+02  0.16778163164E+01  0.17175585774E+03  0.17120000000E+03 0.  0.
        998    1    1    2    0    0  0.30209262058E+00  0.19624064772E+01  0.14355668130E+04  0.14356030151E+04  0.10000000000E+02 0. -1.
</event>
<event>
 5    1  0.9123258E-009  0.3715889E+03  0.7957747E-01  0.3488621E+00
         13   -1    0    0    0    0  0.00000000000E+00  0.00000000000E+00  0.14999999963E+04  0.15000000000E+04  0.10566000000E+00 0.  1.
        994   -1    0    0    0    0 -0.00000000000E+00 -0.00000000000E+00  0.11368683772E-12  0.17120000000E+03  0.17120000000E+03 0.  0.
         13    1    1    2    0    0 -0.45577077779E+02 -0.33667760338E+02  0.27458191414E+03  0.28036766369E+03  0.10566000000E+00 0.  1.
        994    1    1    2    0    0 -0.20797505811E+02 -0.99781271062E+01  0.10272881245E+02  0.17305222148E+03  0.17120000000E+03 0.  0.
        998    1    1    2    0    0  0.66374583590E+02  0.43645887444E+02  0.12151452009E+04  0.12177801148E+04  0.10000000000E+02 0.  1.
</event>
<event>
 5    1  0.9123258E-009  0.3802224E+03  0.7957747E-01  0.3450191E+00
         13   -1    0    0    0    0  0.00000000000E+00  0.00000000000E+00  0.14999999963E+04  0.15000000000E+04  0.10566000000E+00 0. -1.
        994   -1    0    0    0    0 -0.00000000000E+00 -0.00000000000E+00  0.11368683772E-12  0.17120000000E+03  0.17120000000E+03 0.  0.
         13    1    1    2    0    0  0.80900004226E+01 -0.17904589567E+02  0.46648609519E+02  0.50617451225E+02  0.10566000000E+00 0. -1.
        994    1    1    2    0    0 -0.12664039182E+02  0.75049684400E+01  0.47451359657E+01  0.17189723312E+03  0.17120000000E+03 0.  0.
        998    1    1    2    0    0  0.45740387593E+01  0.10399621127E+02  0.14486062508E+04  0.14486853157E+04  0.10000000000E+02 0. -1.
</event>
<event>
 5    1  0.1104637E-008  0.3858102E+03  0.7957747E-01  0.3426243E+00
         13   -1    0    0    0    0  0.00000000000E+00  0.00000000000E+00  0.14999999963E+04  0.15000000000E+04  0.10566000000E+00 0.  1.
        994   -1    0    0    0    0 -0.00000000000E+00 -0.00000000000E+00  0.11368683772E-12  0.17120000000E+03  0.17120000000E+03 0.  0.
         13    1    1    2    0    0 -0.16898812915E+02 -0.13908906224E+01  0.99852244071E+02  0.10128171733E+03  0.10566000000E+00 0.  1.
        994    1    1    2    0    0  0.30782448342E+02 -0.70084173518E+01  0.45044064732E+01  0.17414478665E+03  0.17120000000E+03 0.  0.
        998    1    1    2    0    0 -0.13883635427E+02  0.83993079742E+01  0.13956433457E+04  0.13957734960E+04  0.10000000000E+02 0.  1.
</event>
<event>
 5    1  0.9123258E-009  0.3856524E+03  0.7957747E-01  0.3426910E+00
         13   -1    0    0    0    0  0.00000000000E+00  0.00000000000E+00  0.14999999963E+04  0.15000000000E+04  0.10566000000E+00 0. -1.
        994   -1    0    0    0    0 -0.00000000000E+00 -0.00000000000E+00  0.11368683772E-12  0.17120000000E+03  0.17120000000E+03 0.  0.
         13    1    1    2    0    0  0.42191971459E+01  0.14558258746E+02  0.89815288390E+02  0.91085354009E+02  0.10566000000E+00 0. -1.
        994    1    1    2    0    0 -0.48325070001E+01 -0.70050092976E+01  0.15442824354E+01  0.17141834233E+03  0.17120000000E+03 0.  0.
        998    1    1    2    0    0  0.61330985421E+00 -0.75532494480E+01  0.14086404255E+04  0.14086963037E+04  0.10000000000E+02 0. -1.
</event>
<event>
 5    1  0.9123258E-009  0.3826504E+03  0.7957747E-01  0.3439699E+00
         13   -1    0    0    0    0  0.00000000000E+00  0.00000000000E+00  0.14999999963E+04  0.15000000000E+04  0.10566000000E+00 0. -1.
        994   -1    0    0    0    0 -0.00000000000E+00 -0.00000000000E+00  0.11368683772E-12  0.17120000000E+03  0.17120000000E+03 0.  0.
         13    1    1    2    0    0 -0.13729589928E+02  0.16877571435E+02  0.90950203552E+02  0.93516334120E+02  0.10566000000E+00 0. -1.
        994    1    1    2    0    0  0.38849367570E+01  0.38103469318E+01  0.28993106074E+01  0.17131099638E+03  0.17120000000E+03 0.  0.
        998    1    1    2    0    0  0.98446531711E+01 -0.20687918367E+02  0.14061504821E+04  0.14063726695E+04  0.10000000000E+02 0. -1.
</event>
<event>
 5    1  0.9123258E-009  0.3696137E+03  0.7957747E-01  0.3497668E+00
         13   -1    0    0    0    0  0.00000000000E+00  0.00000000000E+00  0.14999999963E+04  0.15000000000E+04  0.10566000000E+00 0. -1.
        994   -1    0    0    0    0 -0.00000000000E+00 -0.00000000000E+00  0.11368683772E-12  0.17120000000E+03  0.17120000000E+03 0.  0.
         13    1    1    2    0    0  0.24089070382E+02 -0.22508680115E+02  0.51334039406E+02  0.61009169460E+02  0.10566000000E+00 0. -1.
        994    1    1    2    0    0 -0.29702912539E+02  0.23591893088E+02  0.14469213558E+02  0.17594782912E+03  0.17120000000E+03 0.  0.
        998    1    1    2    0    0  0.56138421577E+01 -0.10832129724E+01  0.14341967433E+04  0.14342430014E+04  0.10000000000E+02 0. -1.
</event>
<event>
 5    1  0.9123258E-009  0.3801370E+03  0.7957747E-01  0.3450562E+00
         13   -1    0    0    0    0  0.00000000000E+00  0.00000000000E+00  0.14999999963E+04  0.15000000000E+04  0.10566000000E+00 0.  1.
        994   -1    0    0    0    0 -0.00000000000E+00 -0.00000000000E+00  0.11368683772E-12  0.17120000000E+03  0.17120000000E+03 0.  0.
         13    1    1    2    0    0 -0.59805009433E+01  0.11121717836E+02  0.18209530295E+02  0.22159809493E+02  0.10566000000E+00 0.  1.
        994    1    1    2    0    0  0.79658494316E+01  0.13555874787E+01  0.42822033136E+01  0.17144407146E+03  0.17120000000E+03 0.  0.
        998    1    1    2    0    0 -0.19853484883E+01 -0.12477305315E+02  0.14775082627E+04  0.14775961190E+04  0.10000000000E+02 0.  1.
</event>
<event>
 5    1  0.9123258E-009  0.3820573E+03  0.7957747E-01  0.3442249E+00
         13   -1    0    0    0    0  0.00000000000E+00  0.00000000000E+00  0.14999999963E+04  0.15000000000E+04  0.10566000000E+00 0. -1.
        994   -1    0    0    0    0 -0.00000000000E+00 -0.00000000000E+00  0.11368683772E-12  0.17120000000E+03  0.17120000000E+03 0.  0.
         13    1    1    2    0    0  0.75738214509E+01 -0.85066052629E+01  0.19312886159E+02  0.22421503970E+02  0.10566000000E+00 0. -1.
        994    1    1    2    0    0 -0.26687796846E+02 -0.38157270341E+01  0.55151816208E+01  0.17339739185E+03  0.17120000000E+03 0.  0.
        998    1    1    2    0    0  0.19113975395E+02  0.12322332297E+02  0.14751719285E+04  0.14753811042E+04  0.10000000000E+02 0. -1.
</event>
<event>
 5    1  0.9123258E-009  0.3721937E+03  0.7957747E-01  0.3485869E+00
         13   -1    0    0    0    0  0.00000000000E+00  0.00000000000E+00  0.14999999963E+04  0.15000000000E+04  0.10566000000E+00 0. -1.
        994   -1    0    0    0    0 -0.00000000000E+00 -0.00000000000E+00  0.11368683772E-12  0.17120000000E+03  0.17120000000E+03 0.  0.
         13    1    1    2    0    0  0.52191105760E+02  0.29701219119E+02  0.19763901533E+03  0.20656056129E+03  0.10566000000E+00 0. -1.
        994    1    1    2    0    0 -0.67020415161E+02  0.59011349241E+01  0.23824253222E+02  0.18548205973E+03  0.17120000000E+03 0.  0.
        998    1    1    2    0    0  0.14829309402E+02 -0.35602354043E+02  0.12785367277E+04  0.12791573790E+04  0.10000000000E+02 0. -1.
</event>
<event>
 5    1  0.9123258E-009  0.3840536E+03  0.7957747E-01  0.3433696E+00
         13   -1    0    0    0    0  0.00000000000E+00  0.00000000000E+00  0.14999999963E+04  0.15000000000E+04  0.10566000000E+00 0. -1.
        994   -1    0    0    0    0 -0.00000000000E+00 -0.00000000000E+00  0.11368683772E-12  0.17120000000E+03  0.17120000000E+03 0.  0.
         13    1    1    2    0    0 -0.19973405089E+02 -0.91322826587E+01  0.10257447007E+03  0.10489932588E+03  0.10566000000E+00 0. -1.
        994    1    1    2    0    0  0.29996549456E+02  0.53154882535E+01  0.51681545952E+01  0.17396608065E+03  0.17120000000E+03 0.  0.
        998    1    1    2    0    0 -0.10023144368E+02  0.38167944052E+01  0.13922573716E+04  0.13923345935E+04  0.10000000000E+02 0. -1.
</event>
<event>
 5    1  0.9123258E-009  0.3829898E+03  0.7957747E-01  0.3438243E+00
         13   -1    0    0    0    0  0.00000000000E+00  0.00000000000E+00  0.14999999963E+04  0.15000000000E+04  0.10566000000E+00 0. -1.
        994   -1    0    0    0    0 -0.00000000000E+00 -0.00000000000E+00  0.11368683772E-12  0.17120000000E+03  0.17120000000E+03 0.  0.
         13    1    1    2    0    0  0.16004303344E+02 -0.59109317948E+01  0.52044006045E+02  0.54769211876E+02  0.10566000000E+00 0. -1.
        994    1    1    2    0    0 -0.14389631754E+02  0.23189869564E+02  0.51009203869E+01  0.17343670586E+03  0.17120000000E+03 0.  0.
        998    1    1    2    0    0 -0.16146715900E+01 -0.17278937769E+02  0.14428550698E+04  0.14429940823E+04  0.10000000000E+02 0. -1.
</event>
<event>
 5    1  0.9123258E-009  0.3835414E+03  0.7957747E-01  0.3435882E+00
         13   -1    0    0    0    0  0.00000000000E+00  0.00000000000E+00  0.14999999963E+04  0.15000000000E+04  0.10566000000E+00 0.  1.
        994   -1    0    0    0    0 -0.00000000000E+00 -0.00000000000E+00  0.11368683772E-12  0.17120000000E+03  0.17120000000E+03 0.  0.
         13    1    1    2    0    0  0.87560991128E+01  0.14683417472E+02  0.62063852337E+02  0.64375499619E+02  0.10566000000E+00 0.  1.
        994    1    1    2    0    0 -0.14534724493E+02 -0.21429594200E+01  0.30695868226E+01  0.17185666369E+03  0.17120000000E+03 0.  0.
        998    1    1    2    0    0  0.57786253799E+01 -0.12540458052E+02  0.14348665571E+04  0.14349678367E+04  0.10000000000E+02 0.  1.
</event>
<event>
 5    1  0.9123258E-009  0.3752713E+03  0.7957747E-01  0.3472010E+00
         13   -1    0    0    0    0  0.00000000000E+00  0.00000000000E+00  0.14999999963E+04  0.15000000000E+04  0.10566000000E+00 0. -1.
        994   -1    0    0    0    0 -0.00000000000E+00 -0.00000000000E+00  0.11368683772E-12  0.17120000000E+03  0.17120000000E+03 0.  0.
         13    1    1    2    0    0 -0.18554239966E+02  0.27461286209E+02  0.83983590448E+02  0.90286414756E+02  0.10566000000E+00 0. -1.
        994    1    1    2    0    0 -0.11643139874E+02 -0.24209445863E+02  0.89941970559E+01  0.17352808290E+03  0.17120000000E+03 0.  0.
        998    1    1    2    0    0  0.30197379840E+02 -0.32518403464E+01  0.14070222088E+04  0.14073855023E+04  0.10000000000E+02 0. -1.
</event>
<event>
 5    1  0.9123258E-009  0.3840772E+03  0.7957747E-01  0.3433596E+00
         13   -1    0    0    0    0  0.00000000000E+00  0.00000000000E+00  0.14999999963E+04  0.15000000000E+04  0.10566000000E+00 0. -1.
        994   -1    0    0    0    0 -0.00000000000E+00 -0.00000000000E+00  0.11368683772E-12  0.17120000000E+03  0.17120000000E+03 0.  0.
         13    1    1    2    0    0 -0.12573508110E+02 -0.49626542452E+01  0.42330847393E+02  0.44436841116E+02  0.10566000000E+00 0. -1.
        994    1    1    2    0    0  0.13959909744E+02  0.21588262167E+01  0.27474668957E+01  0.17180374904E+03  0.17120000000E+03 0.  0.
        998    1    1    2    0    0 -0.13864016342E+01  0.28038280285E+01  0.14549216820E+04  0.14549594098E+04  0.10000000000E+02 0. -1.
</event>
<event>
 5    1  0.9123258E-009  0.3852269E+03  0.7957747E-01  0.3428711E+00
         13   -1    0    0    0    0  0.00000000000E+00  0.00000000000E+00  0.14999999963E+04  0.15000000000E+04  0.10566000000E+00 0.  1.
        994   -1    0    0    0    0 -0.00000000000E+00 -0.00000000000E+00  0.11368683772E-12  0.17120000000E+03  0.17120000000E+03 0.  0.
         13    1    1    2    0    0  0.14317521980E+02  0.50398166816E+01  0.75884674818E+02  0.77387894558E+02  0.10566000000E+00 0.  1.
        994    1    1    2    0    0 -0.10998145741E+02  0.10594362711E+00  0.19151824984E+01  0.17156362772E+03  0.17120000000E+03 0.  0.
        998    1    1    2    0    0 -0.33193762389E+01 -0.51457603087E+01  0.14222001390E+04  0.14222484777E+04  0.10000000000E+02 0.  1.
</event>
<event>
 5    1  0.9123258E-009  0.3843175E+03  0.7957747E-01  0.3432572E+00
         13   -1    0    0    0    0  0.00000000000E+00  0.00000000000E+00  0.14999999963E+04  0.15000000000E+04  0.10566000000E+00 0.  1.
        994   -1    0    0    0    0 -0.00000000000E+00 -0.00000000000E+00  0.11368683772E-12  0.17120000000E+03  0.17120000000E+03 0.  0.
         13    1    1    2    0    0  0.79084569352E+01 -0.67373998269E+01  0.27088265141E+02  0.29012437331E+02  0.10566000000E+00 0.  1.
        994    1    1    2    0    0  0.20846194726E+01  0.10545586751E+02  0.23503057562E+01  0.17155325405E+03  0.17120000000E+03 0.  0.
        998    1    1    2    0    0 -0.99930764078E+01 -0.38081869242E+01  0.14705614254E+04  0.14706343086E+04  0.10000000000E+02 0.  1.
</event>
<event>
 5    1  0.9123258E-009  0.3815293E+03  0.7957747E-01  0.3444526E+00
         13   -1    0    0    0    0  0.00000000000E+00  0.00000000000E+00  0.14999999963E+04  0.15000000000E+04  0.10566000000E+00 0. -1.
        994   -1    0    0    0    0 -0.00000000000E+00 -0.00000000000E+00  0.11368683772E-12  0.17120000000E+03  0.17120000000E+03 0.  0.
         13    1    1    2    0    0 -0.20690264694E+02  0.31445483915E+01  0.67376454678E+02  0.70551917385E+02  0.10566000000E+00 0. -1.
        994    1    1    2    0    0  0.13107430994E+00 -0.15398646841E+02  0.41522692466E+01  0.17194131803E+03  0.17120000000E+03 0.  0.
        998    1    1    2    0    0  0.20559190384E+02  0.12254098450E+02  0.14284712724E+04  0.14287067646E+04  0.10000000000E+02 0. -1.
</event>
<event>
 5    1  0.9123258E-009  0.3771492E+03  0.7957747E-01  0.3463666E+00
         13   -1    0    0    0    0  0.00000000000E+00  0.00000000000E+00  0.14999999963E+04  0.15000000000E+04  0.10566000000E+00 0. -1.
        994   -1    0    0    0    0 -0.00000000000E+00 -0.00000000000E+00  0.11368683772E-12  0.17120000000E+03  0.17120000000E+03 0.  0.
         13    1    1    2    0    0 -0.48438982233E+02  0.26505285192E+01  0.24801546517E+03  0.25271533873E+03  0.10566000000E+00 0. -1.
        994    1    1    2    0    0  0.59022101764E+01  0.11458676167E+02  0.61400633863E+01  0.17179428897E+03  0.17120000000E+03 0.  0.
        998    1    1    2    0    0  0.42536772056E+02 -0.14109204686E+02  0.12458444677E+04  0.12466903723E+04  0.10000000000E+02 0. -1.
</event>
<event>
 5    1  0.9123258E-009  0.3689781E+03  0.7957747E-01  0.3500601E+00
         13   -1    0    0    0    0  0.00000000000E+00  0.00000000000E+00  0.14999999963E+04  0.15000000000E+04  0.10566000000E+00 0.  1.
        994   -1    0    0    0    0 -0.00000000000E+00 -0.00000000000E+00  0.11368683772E-12  0.17120000000E+03  0.17120000000E+03 0.  0.
         13    1    1    2    0    0  0.73729639359E-01 -0.18208748579E+02  0.13031664946E+02  0.22391949807E+02  0.10566000000E+00 0.  1.
        994    1    1    2    0    0 -0.33479996733E+02 -0.30703281782E+01  0.13736444024E+02  0.17500990541E+03  0.17120000000E+03 0.  0.
        998    1    1    2    0    0  0.33406267093E+02  0.21279076757E+02  0.14732318873E+04  0.14737981448E+04  0.10000000000E+02 0.  1.
</event>
<event>
 5    1  0.9123258E-009  0.4155815E+03  0.7957747E-01  0.3309498E+00
         13   -1    0    0    0    0  0.00000000000E+00  0.00000000000E+00  0.14999999963E+04  0.15000000000E+04  0.10566000000E+00 0.  1.
        994   -1    0    0    0    0 -0.00000000000E+00 -0.00000000000E+00  0.11368683772E-12  0.17120000000E+03  0.17120000000E+03 0.  0.
         13    1    1    2    0    0  0.28049165209E+02  0.13591162023E+03  0.20197418320E+03  0.24505572025E+03  0.10566000000E+00 0.  1.
        994    1    1    2    0    0 -0.26221742649E+02 -0.14265590855E+03  0.13255961403E+03  0.26061423465E+03  0.17120000000E+03 0.  0.
        998    1    1    2    0    0 -0.18274225606E+01  0.67442883166E+01  0.11654661991E+04  0.11655300451E+04  0.10000000000E+02 0.  1.
</event>
<event>
 5    1  0.9123258E-009  0.3857287E+03  0.7957747E-01  0.3426588E+00
         13   -1    0    0    0    0  0.00000000000E+00  0.00000000000E+00  0.14999999963E+04  0.15000000000E+04  0.10566000000E+00 0.  1.
        994   -1    0    0    0    0 -0.00000000000E+00 -0.00000000000E+00  0.11368683772E-12  0.17120000000E+03  0.17120000000E+03 0.  0.
         13    1    1    2    0    0  0.10656294780E+02 -0.84418952591E+01  0.71941456546E+02  0.73214797329E+02  0.10566000000E+00 0.  1.
        994    1    1    2    0    0 -0.98051489668E+01  0.63856803642E+01  0.17181396454E+01  0.17160801224E+03  0.17120000000E+03 0.  0.
        998    1    1    2    0    0 -0.85114581312E+00  0.20562148949E+01  0.14263404001E+04  0.14263771904E+04  0.10000000000E+02 0.  1.
</event>
<event>
 5    1  0.9123258E-009  0.3815701E+03  0.7957747E-01  0.3444350E+00
         13   -1    0    0    0    0  0.00000000000E+00  0.00000000000E+00  0.14999999963E+04  0.15000000000E+04  0.10566000000E+00 0. -1.
        994   -1    0    0    0    0 -0.00000000000E+00 -0.00000000000E+00  0.11368683772E-12  0.17120000000E+03  0.17120000000E+03 0.  0.
         13    1    1    2    0    0  0.61175427946E+01 -0.17318883806E+02  0.53859996028E+02  0.56905873179E+02  0.10566000000E+00 0. -1.
        994    1    1    2    0    0  0.16365706372E+02 -0.34506602488E+01  0.42735318890E+01  0.17206814486E+03  0.17120000000E+03 0.  0.
        998    1    1    2    0    0 -0.22483249166E+02  0.20769544054E+02  0.14418664684E+04  0.14422259820E+04  0.10000000000E+02 0. -1.
</event>
<event>
 5    1  0.9123258E-009  0.3762002E+03  0.7957747E-01  0.3467872E+00
         13   -1    0    0    0    0  0.00000000000E+00  0.00000000000E+00  0.14999999963E+04  0.15000000000E+04  0.10566000000E+00 0. -1.
        994   -1    0    0    0    0 -0.00000000000E+00 -0.00000000000E+00  0.11368683772E-12  0.17120000000E+03  0.17120000000E+03 0.  0.
         13    1    1    2    0    0 -0.14647852503E+02 -0.35937550120E+02  0.13494330976E+03  0.14041287372E+03  0.10566000000E+00 0. -1.
        994    1    1    2    0    0  0.82476576649E+00  0.36087377674E+01  0.61101037557E+01  0.17134899064E+03  0.17120000000E+03 0.  0.
        998    1    1    2    0    0  0.13823086737E+02  0.32328812353E+02  0.13589465828E+04  0.13594381356E+04  0.10000000000E+02 0. -1.
</event>
<event>
 5    1  0.9123258E-009  0.3814108E+03  0.7957747E-01  0.3445038E+00
         13   -1    0    0    0    0  0.00000000000E+00  0.00000000000E+00  0.14999999963E+04  0.15000000000E+04  0.10566000000E+00 0. -1.
        994   -1    0    0    0    0 -0.00000000000E+00 -0.00000000000E+00  0.11368683772E-12  0.17120000000E+03  0.17120000000E+03 0.  0.
         13    1    1    2    0    0 -0.11481186995E+02  0.59511357321E+01  0.23540280888E+02  0.26858698026E+02  0.10566000000E+00 0. -1.
        994    1    1    2    0    0  0.47738793660E+01  0.41088946475E+01  0.35546874837E+01  0.17135270276E+03  0.17120000000E+03 0.  0.
        998    1    1    2    0    0  0.67073076291E+01 -0.10060030380E+02  0.14729050279E+04  0.14729885992E+04  0.10000000000E+02 0. -1.
</event>
<event>
 5    1  0.9123258E-009  0.3854212E+03  0.7957747E-01  0.3427888E+00
         13   -1    0    0    0    0  0.00000000000E+00  0.00000000000E+00  0.14999999963E+04  0.15000000000E+04  0.10566000000E+00 0. -1.
        994   -1    0    0    0    0 -0.00000000000E+00 -0.00000000000E+00  0.11368683772E-12  0.17120000000E+03  0.17120000000E+03 0.  0.
         13    1    1    2    0    0 -0.10371068291E+02 -0.58461513713E+01  0.50721160449E+02  0.52099748796E+02  0.10566000000E+00 0. -1.
        994    1    1    2    0    0  0.62675905936E+01  0.55897563377E+00  0.15512144277E+01  0.17132262376E+03  0.17120000000E+03 0.  0.
        998    1    1    2    0    0  0.41034776979E+01  0.52871757375E+01  0.14477276214E+04  0.14477776274E+04  0.10000000000E+02 0. -1.
</event>
<event>
 5    1  0.9123258E-009  0.3843963E+03  0.7957747E-01  0.3432237E+00
         13   -1    0    0    0    0  0.00000000000E+00  0.00000000000E+00  0.14999999963E+04  0.15000000000E+04  0.10566000000E+00 0. -1.
        994   -1    0    0    0    0 -0.00000000000E+00 -0.00000000000E+00  0.11368683772E-12  0.17120000000E+03  0.17120000000E+03 0.  0.
         13    1    1    2    0    0 -0.13017313172E+02  0.44058795711E+01  0.49506014888E+02  0.51378194705E+02  0.10566000000E+00 0. -1.
        994    1    1    2    0    0  0.37997462746E+01 -0.61969578877E+01  0.21043079307E+01  0.17136717443E+03  0.17120000000E+03 0.  0.
        998    1    1    2    0    0  0.92175668977E+01  0.17910783166E+01  0.14483896735E+04  0.14484546309E+04  0.10000000000E+02 0. -1.
</event>
<event>
 5    1  0.9123258E-009  0.3818714E+03  0.7957747E-01  0.3443050E+00
         13   -1    0    0    0    0  0.00000000000E+00  0.00000000000E+00  0.14999999963E+04  0.15000000000E+04  0.10566000000E+00 0. -1.
        994   -1    0    0    0    0 -0.00000000000E+00 -0.00000000000E+00  0.11368683772E-12  0.17120000000E+03  0.17120000000E+03 0.  0.
         13    1    1    2    0    0  0.41394570979E+02 -0.14417364836E+02  0.25548064105E+03  0.25921369568E+03  0.10566000000E+00 0. -1.
        994    1    1    2    0    0 -0.41099614975E+02  0.10813412005E+02  0.92153696832E+01  0.17663655134E+03  0.17120000000E+03 0.  0.
        998    1    1    2    0    0 -0.29495600404E+00  0.36039528308E+01  0.12353039855E+04  0.12353497530E+04  0.10000000000E+02 0.  0.
</event>
<event>
 5    1  0.9123258E-009  0.3824718E+03  0.7957747E-01  0.3440466E+00
         13   -1    0    0    0    0  0.00000000000E+00  0.00000000000E+00  0.14999999963E+04  0.15000000000E+04  0.10566000000E+00 0.  1.
        994   -1    0    0    0    0 -0.00000000000E+00 -0.00000000000E+00  0.11368683772E-12  0.17120000000E+03  0.17120000000E+03 0.  0.
         13    1    1    2    0    0  0.29936546597E+02  0.97115990458E+01  0.17307053565E+03  0.17590887826E+03  0.10566000000E+00 0.  1.
        994    1    1    2    0    0 -0.18539870582E+02  0.29734561099E+01  0.40605167458E+01  0.17227447878E+03  0.17120000000E+03 0.  0.
        998    1    1    2    0    0 -0.11396676015E+02 -0.12685055156E+02  0.13228689439E+04  0.13230166430E+04  0.10000000000E+02 0.  1.
</event>
<event>
 5    1  0.9123258E-009  0.3755587E+03  0.7957747E-01  0.3470728E+00
         13   -1    0    0    0    0  0.00000000000E+00  0.00000000000E+00  0.14999999963E+04  0.15000000000E+04  0.10566000000E+00 0.  1.
        994   -1    0    0    0    0 -0.00000000000E+00 -0.00000000000E+00  0.11368683772E-12  0.17120000000E+03  0.17120000000E+03 0.  0.
         13    1    1    2    0    0 -0.19172712419E+01  0.10173747826E+02  0.54204299780E+01  0.11686457933E+02  0.10566000000E+00 0.  1.
        994    1    1    2    0    0  0.33004511021E+00 -0.89900479107E+01  0.66667200676E+01  0.17156577470E+03  0.17120000000E+03 0.  0.
        998    1    1    2    0    0  0.15872261317E+01 -0.11836999155E+01  0.14879128462E+04  0.14879477674E+04  0.10000000000E+02 0.  1.
</event>
<event>
 5    1  0.9123258E-009  0.3853230E+03  0.7957747E-01  0.3428303E+00
         13   -1    0    0    0    0  0.00000000000E+00  0.00000000000E+00  0.14999999963E+04  0.15000000000E+04  0.10566000000E+00 0.  1.
        994   -1    0    0    0    0 -0.00000000000E+00 -0.00000000000E+00  0.11368683772E-12  0.17120000000E+03  0.17120000000E+03 0.  0.
         13    1    1    2    0    0 -0.72541546326E+01 -0.75748551652E+01  0.40562770874E+02  0.41896906034E+02  0.10566000000E+00 0.  1.
        994    1    1    2    0    0 -0.73957881079E+01 -0.38772404029E+01  0.16989733910E+01  0.17141195170E+03  0.17120000000E+03 0.  0.
        998    1    1    2    0    0  0.14649942741E+02  0.11452095568E+02  0.14577382520E+04  0.14578911423E+04  0.10000000000E+02 0.  1.
</event>
<event>
 5    1  0.9123258E-009  0.3803756E+03  0.7957747E-01  0.3449525E+00
         13   -1    0    0    0    0  0.00000000000E+00  0.00000000000E+00  0.14999999963E+04  0.15000000000E+04  0.10566000000E+00 0.  1.
        994   -1    0    0    0    0 -0.00000000000E+00 -0.00000000000E+00  0.11368683772E-12  0.17120000000E+03  0.17120000000E+03 0.  0.
         13    1    1    2    0    0  0.25399397647E+01 -0.11947650521E+02  0.18125221341E+02  0.21857091748E+02  0.10566000000E+00 0.  1.
        994    1    1    2    0    0  0.15911240029E+02 -0.68989184587E+01  0.49484907156E+01  0.17214729215E+03  0.17120000000E+03 0.  0.
        998    1    1    2    0    0 -0.18451179793E+02  0.18846568979E+02  0.14769262842E+04  0.14771956161E+04  0.10000000000E+02 0.  1.
</event>
<event>
 5    1  0.9123258E-009  0.3778815E+03  0.7957747E-01  0.3460435E+00
         13   -1    0    0    0    0  0.00000000000E+00  0.00000000000E+00  0.14999999963E+04  0.15000000000E+04  0.10566000000E+00 0.  1.
        994   -1    0    0    0    0 -0.00000000000E+00 -0.00000000000E+00  0.11368683772E-12  0.17120000000E+03  0.17120000000E+03 0.  0.
         13    1    1    2    0    0  0.79505849883E+01 -0.20190243189E+02  0.41971704006E+02  0.47249262671E+02  0.10566000000E+00 0.  1.
        994    1    1    2    0    0 -0.47083268737E+01  0.23056085251E+02  0.70728441927E+01  0.17295437703E+03  0.17120000000E+03 0.  0.
        998    1    1    2    0    0 -0.32422581146E+01 -0.28658420614E+01  0.14509554481E+04  0.14509963603E+04  0.10000000000E+02 0.  1.
</event>
<event>
 5    1  0.9123258E-009  0.3775919E+03  0.7957747E-01  0.3461711E+00
         13   -1    0    0    0    0  0.00000000000E+00  0.00000000000E+00  0.14999999963E+04  0.15000000000E+04  0.10566000000E+00 0. -1.
        994   -1    0    0    0    0 -0.00000000000E+00 -0.00000000000E+00  0.11368683772E-12  0.17120000000E+03  0.17120000000E+03 0.  0.
         13    1    1    2    0    0  0.55877334212E+02 -0.56039985153E+02  0.41269277584E+03  0.42021196414E+03  0.10566000000E+00 0. -1.
        994    1    1    2    0    0 -0.57842901646E+02  0.56697426083E+02  0.27789680022E+02  0.19142127810E+03  0.17120000000E+03 0.  0.
        998    1    1    2    0    0  0.19655674342E+01 -0.65744092993E+00  0.10595175404E+04  0.10595667578E+04  0.10000000000E+02 0.  0.
</event>
<event>
 5    1  0.9123258E-009  0.3761399E+03  0.7957747E-01  0.3468140E+00
         13   -1    0    0    0    0  0.00000000000E+00  0.00000000000E+00  0.14999999963E+04  0.15000000000E+04  0.10566000000E+00 0.  1.
        994   -1    0    0    0    0 -0.00000000000E+00 -0.00000000000E+00  0.11368683772E-12  0.17120000000E+03  0.17120000000E+03 0.  0.
         13    1    1    2    0    0 -0.87467206697E+01  0.22049714887E+02  0.13445713261E+02  0.27267075718E+02  0.10566000000E+00 0.  1.
        994    1    1    2    0    0  0.21283219612E+02 -0.17770058226E+02  0.16974435251E+02  0.17425935228E+03  0.17120000000E+03 0.  0.
        998    1    1    2    0    0 -0.12536498943E+02 -0.42796566606E+01  0.14695798478E+04  0.14696735720E+04  0.10000000000E+02 0.  1.
</event>
<event>
 5    1  0.9129932E-009  0.3859710E+03  0.7957747E-01  0.3425565E+00
         13   -1    0    0    0    0  0.00000000000E+00  0.00000000000E+00  0.14999999963E+04  0.15000000000E+04  0.10566000000E+00 0.  1.
        994   -1    0    0    0    0 -0.00000000000E+00 -0.00000000000E+00  0.11368683772E-12  0.17120000000E+03  0.17120000000E+03 0.  0.
         13    1    1    2    0    0 -0.59346822806E+01  0.94592505467E+01  0.55332887275E+02  0.56448538094E+02  0.10566000000E+00 0.  1.
        994    1    1    2    0    0  0.22710662182E+02  0.59556270436E+01  0.29580828737E+01  0.17282775797E+03  0.17120000000E+03 0.  0.
        998    1    1    2    0    0 -0.16775979902E+02 -0.15414877590E+02  0.14417090261E+04  0.14419237039E+04  0.10000000000E+02 0.  1.
</event>
<event>
 5    1  0.9123258E-009  0.3825081E+03  0.7957747E-01  0.3440310E+00
         13   -1    0    0    0    0  0.00000000000E+00  0.00000000000E+00  0.14999999963E+04  0.15000000000E+04  0.10566000000E+00 0. -1.
        994   -1    0    0    0    0 -0.00000000000E+00 -0.00000000000E+00  0.11368683772E-12  0.17120000000E+03  0.17120000000E+03 0.  0.
         13    1    1    2    0    0  0.11569740066E+02 -0.13606465936E+02  0.55692377773E+02  0.58486296741E+02  0.10566000000E+00 0. -1.
        994    1    1    2    0    0  0.55767610196E+01  0.14565215232E+02  0.36792892076E+01  0.17194831470E+03  0.17120000000E+03 0.  0.
        998    1    1    2    0    0 -0.17146501086E+02 -0.95874929576E+00  0.14406283293E+04  0.14407653886E+04  0.10000000000E+02 0. -1.
</event>
<event>
 5    1  0.9123258E-009  0.3800798E+03  0.7957747E-01  0.3450811E+00
         13   -1    0    0    0    0  0.00000000000E+00  0.00000000000E+00  0.14999999963E+04  0.15000000000E+04  0.10566000000E+00 0.  1.
        994   -1    0    0    0    0 -0.00000000000E+00 -0.00000000000E+00  0.11368683772E-12  0.17120000000E+03  0.17120000000E+03 0.  0.
         13    1    1    2    0    0  0.11892321304E+03 -0.58662864871E+02  0.63649896474E+03  0.65016536788E+03  0.10566000000E+00 0.  1.
        994    1    1    2    0    0 -0.14247069591E+03  0.10142862649E+03  0.11418217321E+03  0.27006050090E+03  0.17120000000E+03 0.  0.
        998    1    1    2    0    0  0.23547482874E+02 -0.42765761619E+02  0.74931885833E+03  0.75097413122E+03  0.10000000000E+02 0.  1.
</event>
<event>
 5    1  0.9123258E-009  0.3859890E+03  0.7957747E-01  0.3425489E+00
         13   -1    0    0    0    0  0.00000000000E+00  0.00000000000E+00  0.14999999963E+04  0.15000000000E+04  0.10566000000E+00 0. -1.
        994   -1    0    0    0    0 -0.00000000000E+00 -0.00000000000E+00  0.11368683772E-12  0.17120000000E+03  0.17120000000E+03 0.  0.
         13    1    1    2    0    0 -0.38135472493E+00 -0.10570763298E+02  0.50182215472E+02  0.51285011278E+02  0.10566000000E+00 0. -1.
        994    1    1    2    0    0  0.20319030909E+01  0.54257388005E+01  0.12499532133E+01  0.17130256757E+03  0.17120000000E+03 0.  0.
        998    1    1    2    0    0 -0.16505483660E+01  0.51450244976E+01  0.14485678276E+04  0.14486124212E+04  0.10000000000E+02 0. -1.
</event>
<event>
 5    1  0.9123258E-009  0.3694305E+03  0.7957747E-01  0.3498512E+00
         13   -1    0    0    0    0  0.00000000000E+00  0.00000000000E+00  0.14999999963E+04  0.15000000000E+04  0.10566000000E+00 0. -1.
        994   -1    0    0    0    0 -0.00000000000E+00 -0.00000000000E+00  0.11368683772E-12  0.17120000000E+03  0.17120000000E+03 0.  0.
         13    1    1    2    0    0  0.89925568191E+02  0.46304467051E+02  0.41614401181E+03  0.42825992249E+03  0.10566000000E+00 0. -1.
        994    1    1    2    0    0 -0.97979823564E+02 -0.10112694556E+02  0.43974769544E+02  0.20235002538E+03  0.17120000000E+03 0.  0.
        998    1    1    2    0    0  0.80542553730E+01 -0.36191772494E+02  0.10398812149E+04  0.10405900521E+04  0.10000000000E+02 0. -1.
</event>
<event>
 5    1  0.9123258E-009  0.3839630E+03  0.7957747E-01  0.3434082E+00
         13   -1    0    0    0    0  0.00000000000E+00  0.00000000000E+00  0.14999999963E+04  0.15000000000E+04  0.10566000000E+00 0. -1.
        994   -1    0    0    0    0 -0.00000000000E+00 -0.00000000000E+00  0.11368683772E-12  0.17120000000E+03  0.17120000000E+03 0.  0.
         13    1    1    2    0    0 -0.18461001778E+02 -0.21047044017E+02  0.16048995542E+03  0.16291354641E+03  0.10566000000E+00 0. -1.
        994    1    1    2    0    0  0.14589134070E+02  0.29068977327E+02  0.56443228635E+01  0.17435351059E+03  0.17120000000E+03 0.  0.
        998    1    1    2    0    0  0.38718677078E+01 -0.80219333096E+01  0.13338657180E+04  0.13339329430E+04  0.10000000000E+02 0. -1.
</event>
<event>
 5    1  0.9123258E-009  0.3826724E+03  0.7957747E-01  0.3439604E+00
         13   -1    0    0    0    0  0.00000000000E+00  0.00000000000E+00  0.14999999963E+04  0.15000000000E+04  0.10566000000E+00 0.  1.
        994   -1    0    0    0    0 -0.00000000000E+00 -0.00000000000E+00  0.11368683772E-12  0.17120000000E+03  0.17120000000E+03 0.  0.
         13    1    1    2    0    0 -0.12499129195E+02 -0.16626403804E+02  0.76230256759E+02  0.79017268642E+02  0.10566000000E+00 0.  1.
        994    1    1    2    0    0  0.11478174809E+02  0.92941003320E+01  0.35132956376E+01  0.17187178955E+03  0.17120000000E+03 0.  0.
        998    1    1    2    0    0  0.10209543860E+01  0.73323034721E+01  0.14202564439E+04  0.14203109418E+04  0.10000000000E+02 0.  1.
</event>
<event>
 5    1  0.9123258E-009  0.3834953E+03  0.7957747E-01  0.3436079E+00
         13   -1    0    0    0    0  0.00000000000E+00  0.00000000000E+00  0.14999999963E+04  0.15000000000E+04  0.10566000000E+00 0. -1.
        994   -1    0    0    0    0 -0.00000000000E+00 -0.00000000000E+00  0.11368683772E-12  0.17120000000E+03  0.17120000000E+03 0.  0.
         13    1    1    2    0    0 -0.73839150225E+01 -0.20783671367E+02  0.98707055557E+02  0.10114137223E+03  0.10566000000E+00 0. -1.
        994    1    1    2    0    0  0.20267091446E+01  0.18667078574E+02  0.35450504152E+01  0.17226309748E+03  0.17120000000E+03 0.  0.
        998    1    1    2    0    0  0.53572058778E+01  0.21165927926E+01  0.13977478903E+04  0.13977955303E+04  0.10000000000E+02 0. -1.
</event>
<event>
 5    1  0.9123258E-009  0.3782231E+03  0.7957747E-01  0.3458932E+00
         13   -1    0    0    0    0  0.00000000000E+00  0.00000000000E+00  0.14999999963E+04  0.15000000000E+04  0.10566000000E+00 0.  1.
        994   -1    0    0    0    0 -0.00000000000E+00 -0.00000000000E+00  0.11368683772E-12  0.17120000000E+03  0.17120000000E+03 0.  0.
         13    1    1    2    0    0 -0.18210904618E+02 -0.22998353386E+01  0.30682154050E+02  0.35753769462E+02  0.10566000000E+00 0.  1.
        994    1    1    2    0    0  0.20443823633E+02  0.40001546712E+01  0.64934066273E+01  0.17258492255E+03  0.17120000000E+03 0.  0.
        998    1    1    2    0    0 -0.22329190146E+01 -0.17003193326E+01  0.14628244356E+04  0.14628613080E+04  0.10000000000E+02 0.  1.
</event>
<event>
 5    1  0.9123258E-009  0.3836309E+03  0.7957747E-01  0.3435500E+00
         13   -1    0    0    0    0  0.00000000000E+00  0.00000000000E+00  0.14999999963E+04  0.15000000000E+04  0.10566000000E+00 0. -1.
        994   -1    0    0    0    0 -0.00000000000E+00 -0.00000000000E+00  0.11368683772E-12  0.17120000000E+03  0.17120000000E+03 0.  0.
         13    1    1    2    0    0  0.75317580882E+01 -0.19274579487E+02  0.88323046109E+02  0.90714984607E+02  0.10566000000E+00 0. -1.
        994    1    1    2    0    0 -0.11469379691E+02  0.16736357656E+02  0.36724131073E+01  0.17243717394E+03  0.17120000000E+03 0.  0.
        998    1    1    2    0    0  0.39376216027E+01  0.25382218313E+01  0.14080045371E+04  0.14080478415E+04  0.10000000000E+02 0. -1.
</event>
<event>
 5    1  0.9123258E-009  0.3792281E+03  0.7957747E-01  0.3454526E+00
         13   -1    0    0    0    0  0.00000000000E+00  0.00000000000E+00  0.14999999963E+04  0.15000000000E+04  0.10566000000E+00 0. -1.
        994   -1    0    0    0    0 -0.00000000000E+00 -0.00000000000E+00  0.11368683772E-12  0.17120000000E+03  0.17120000000E+03 0.  0.
         13    1    1    2    0    0  0.35543980589E+02  0.30773083419E+02  0.21448388153E+03  0.21957619138E+03  0.10566000000E+00 0. -1.
        994    1    1    2    0    0 -0.35085297691E+02 -0.26900385287E+02  0.11102136195E+02  0.17716463042E+03  0.17120000000E+03 0.  0.
        998    1    1    2    0    0 -0.45868289746E+00 -0.38726981323E+01  0.12744139786E+04  0.12744591782E+04  0.10000000000E+02 0.  0.
</event>
<event>
 5    1  0.9123258E-009  0.3849446E+03  0.7957747E-01  0.3429907E+00
         13   -1    0    0    0    0  0.00000000000E+00  0.00000000000E+00  0.14999999963E+04  0.15000000000E+04  0.10566000000E+00 0. -1.
        994   -1    0    0    0    0 -0.00000000000E+00 -0.00000000000E+00  0.11368683772E-12  0.17120000000E+03  0.17120000000E+03 0.  0.
         13    1    1    2    0    0  0.92879135856E+01 -0.70909196251E+01  0.39934204390E+02  0.41608873143E+02  0.10566000000E+00 0. -1.
        994    1    1    2    0    0 -0.10102474319E+02  0.88114897694E+01  0.22489609396E+01  0.17173875557E+03  0.17120000000E+03 0.  0.
        998    1    1    2    0    0  0.81456073355E+00 -0.17205701443E+01  0.14578168309E+04  0.14578523713E+04  0.10000000000E+02 0. -1.
</event>
<event>
 5    1  0.9123258E-009  0.3845362E+03  0.7957747E-01  0.3431641E+00
         13   -1    0    0    0    0  0.00000000000E+00  0.00000000000E+00  0.14999999963E+04  0.15000000000E+04  0.10566000000E+00 0. -1.
        994   -1    0    0    0    0 -0.00000000000E+00 -0.00000000000E+00  0.11368683772E-12  0.17120000000E+03  0.17120000000E+03 0.  0.
         13    1    1    2    0    0  0.93778148847E+01 -0.13795198441E+02  0.72181392026E+02  0.74083840551E+02  0.10566000000E+00 0. -1.
        994    1    1    2    0    0 -0.13601284836E+02  0.10230915314E+02  0.28151881636E+01  0.17206694006E+03  0.17120000000E+03 0.  0.
        998    1    1    2    0    0  0.42234699512E+01  0.35642831268E+01  0.14250034161E+04  0.14250492194E+04  0.10000000000E+02 0. -1.
</event>
<event>
 5    1  0.9123258E-009  0.3833359E+03  0.7957747E-01  0.3436761E+00
         13   -1    0    0    0    0  0.00000000000E+00  0.00000000000E+00  0.14999999963E+04  0.15000000000E+04  0.10566000000E+00 0. -1.
        994   -1    0    0    0    0 -0.00000000000E+00 -0.00000000000E+00  0.11368683772E-12  0.17120000000E+03  0.17120000000E+03 0.  0.
         13    1    1    2    0    0 -0.11037588033E+02  0.60046022648E+01  0.30808149985E+02  0.33272163553E+02  0.10566000000E+00 0. -1.
        994    1    1    2    0    0  0.13432144713E+02 -0.25136918699E+01  0.30762966451E+01  0.17177207212E+03  0.17120000000E+03 0.  0.
        998    1    1    2    0    0 -0.23945566805E+01 -0.34909103950E+01  0.14661155496E+04  0.14661557643E+04  0.10000000000E+02 0. -1.
</event>
<event>
 5    1  0.9123258E-009  0.3844002E+03  0.7957747E-01  0.3432220E+00
         13   -1    0    0    0    0  0.00000000000E+00  0.00000000000E+00  0.14999999963E+04  0.15000000000E+04  0.10566000000E+00 0.  1.
        994   -1    0    0    0    0 -0.00000000000E+00 -0.00000000000E+00  0.11368683772E-12  0.17120000000E+03  0.17120000000E+03 0.  0.
         13    1    1    2    0    0  0.14426841753E+02  0.21485682446E+01  0.52490176765E+02  0.54479169683E+02  0.10566000000E+00 0.  1.
        994    1    1    2    0    0 -0.16101152744E+02 -0.15626755658E+02  0.35888581557E+01  0.17270136802E+03  0.17120000000E+03 0.  0.
        998    1    1    2    0    0  0.16743109915E+01  0.13478187414E+02  0.14439209614E+04  0.14440194623E+04  0.10000000000E+02 0.  1.
</event>
<event>
 5    1  0.9123258E-009  0.3814895E+03  0.7957747E-01  0.3444698E+00
         13   -1    0    0    0    0  0.00000000000E+00  0.00000000000E+00  0.14999999963E+04  0.15000000000E+04  0.10566000000E+00 0. -1.
        994   -1    0    0    0    0 -0.00000000000E+00 -0.00000000000E+00  0.11368683772E-12  0.17120000000E+03  0.17120000000E+03 0.  0.
         13    1    1    2    0    0  0.21008866377E+02 -0.10171652877E+02  0.90831453200E+02  0.93782722519E+02  0.10566000000E+00 0. -1.
        994    1    1    2    0    0  0.65339872329E+01 -0.95893802827E+01  0.38311755952E+01  0.17163556482E+03  0.17120000000E+03 0.  0.
        998    1    1    2    0    0 -0.27542853610E+02  0.19761033159E+02  0.14053373675E+04  0.14057817127E+04  0.10000000000E+02 0. -1.
</event>
<event>
 5    1  0.9123258E-009  0.3772914E+03  0.7957747E-01  0.3463038E+00
         13   -1    0    0    0    0  0.00000000000E+00  0.00000000000E+00  0.14999999963E+04  0.15000000000E+04  0.10566000000E+00 0. -1.
        994   -1    0    0    0    0 -0.00000000000E+00 -0.00000000000E+00  0.11368683772E-12  0.17120000000E+03  0.17120000000E+03 0.  0.
         13    1    1    2    0    0  0.40433565703E+02  0.28930047201E+02  0.24044197396E+03  0.24552835859E+03  0.10566000000E+00 0. -1.
        994    1    1    2    0    0 -0.17009696587E+02 -0.70859931105E+01  0.66528626468E+01  0.17231727034E+03  0.17120000000E+03 0.  0.
        998    1    1    2    0    0 -0.23423869116E+02 -0.21844054090E+02  0.12529051597E+04  0.12533543711E+04  0.10000000000E+02 0. -1.
</event>
<event>
 5    1  0.9123258E-009  0.3754605E+03  0.7957747E-01  0.3471166E+00
         13   -1    0    0    0    0  0.00000000000E+00  0.00000000000E+00  0.14999999963E+04  0.15000000000E+04  0.10566000000E+00 0. -1.
        994   -1    0    0    0    0 -0.00000000000E+00 -0.00000000000E+00  0.11368683772E-12  0.17120000000E+03  0.17120000000E+03 0.  0.
         13    1    1    2    0    0 -0.60689956643E+02  0.37152015785E+02  0.31683807816E+03  0.32473053760E+03  0.10566000000E+00 0. -1.
        994    1    1    2    0    0  0.59912252041E+02 -0.32186431253E+02  0.22306242953E+02  0.18555983611E+03  0.17120000000E+03 0.  0.
        998    1    1    2    0    0  0.77770460240E+00 -0.49655845316E+01  0.11608556752E+04  0.11609096263E+04  0.10000000000E+02 0. -1.
</event>
<event>
 5    1  0.9123258E-009  0.3804996E+03  0.7957747E-01  0.3448986E+00
         13   -1    0    0    0    0  0.00000000000E+00  0.00000000000E+00  0.14999999963E+04  0.15000000000E+04  0.10566000000E+00 0. -1.
        994   -1    0    0    0    0 -0.00000000000E+00 -0.00000000000E+00  0.11368683772E-12  0.17120000000E+03  0.17120000000E+03 0.  0.
         13    1    1    2    0    0  0.10368787270E+02 -0.53799192253E+01  0.15109492519E+02  0.19098775054E+02  0.10566000000E+00 0. -1.
        994    1    1    2    0    0 -0.34170858103E+02 -0.35041945241E+01  0.78290799387E+01  0.17478747500E+03  0.17120000000E+03 0.  0.
        998    1    1    2    0    0  0.23802070833E+02  0.88841137493E+01  0.14770614238E+04  0.14773137500E+04  0.10000000000E+02 0. -1.
</event>
<event>
 5    1  0.9123258E-009  0.3692780E+03  0.7957747E-01  0.3499215E+00
         13   -1    0    0    0    0  0.00000000000E+00  0.00000000000E+00  0.14999999963E+04  0.15000000000E+04  0.10566000000E+00 0.  1.
        994   -1    0    0    0    0 -0.00000000000E+00 -0.00000000000E+00  0.11368683772E-12  0.17120000000E+03  0.17120000000E+03 0.  0.
         13    1    1    2    0    0  0.82658592938E+01 -0.54213236495E+02  0.14540713943E+03  0.15540478372E+03  0.10566000000E+00 0.  1.
        994    1    1    2    0    0 -0.78356078198E+01  0.43646465736E+02  0.16494098030E+02  0.17761730206E+03  0.17120000000E+03 0.  0.
        998    1    1    2    0    0 -0.43025147396E+00  0.10566770759E+02  0.13380987588E+04  0.13381779142E+04  0.10000000000E+02 0.  1.
</event>
<event>
 5    1  0.9123258E-009  0.3823641E+03  0.7957747E-01  0.3440929E+00
         13   -1    0    0    0    0  0.00000000000E+00  0.00000000000E+00  0.14999999963E+04  0.15000000000E+04  0.10566000000E+00 0. -1.
        994   -1    0    0    0    0 -0.00000000000E+00 -0.00000000000E+00  0.11368683772E-12  0.17120000000E+03  0.17120000000E+03 0.  0.
         13    1    1    2    0    0 -0.20522934208E+02 -0.61836905740E+01  0.86605507398E+02  0.89218573926E+02  0.10566000000E+00 0. -1.
        994    1    1    2    0    0 -0.10034307126E+02  0.93631120042E+01  0.35695323564E+01  0.17178631129E+03  0.17120000000E+03 0.  0.
        998    1    1    2    0    0  0.30557241334E+02 -0.31794214302E+01  0.14098249565E+04  0.14101951148E+04  0.10000000000E+02 0. -1.
</event>
<event>
 5    1  0.9123258E-009  0.3692082E+03  0.7957747E-01  0.3499538E+00
         13   -1    0    0    0    0  0.00000000000E+00  0.00000000000E+00  0.14999999963E+04  0.15000000000E+04  0.10566000000E+00 0. -1.
        994   -1    0    0    0    0 -0.00000000000E+00 -0.00000000000E+00  0.11368683772E-12  0.17120000000E+03  0.17120000000E+03 0.  0.
         13    1    1    2    0    0  0.71835539210E+02 -0.10077641357E+02  0.22099419767E+03  0.23259481963E+03  0.10566000000E+00 0. -1.
        994    1    1    2    0    0 -0.63200932110E+02  0.94398169606E+01  0.24895707276E+02  0.18442533504E+03  0.17120000000E+03 0.  0.
        998    1    1    2    0    0 -0.86346070998E+01  0.63782439653E+00  0.12541100913E+04  0.12541798453E+04  0.10000000000E+02 0. -1.
</event>
<event>
 5    1  0.9123258E-009  0.3766031E+03  0.7957747E-01  0.3466084E+00
         13   -1    0    0    0    0  0.00000000000E+00  0.00000000000E+00  0.14999999963E+04  0.15000000000E+04  0.10566000000E+00 0. -1.
        994   -1    0    0    0    0 -0.00000000000E+00 -0.00000000000E+00  0.11368683772E-12  0.17120000000E+03  0.17120000000E+03 0.  0.
         13    1    1    2    0    0  0.31294556407E+01  0.10154143729E+02  0.67782008823E+01  0.12603781128E+02  0.10566000000E+00 0. -1.
        994    1    1    2    0    0 -0.11840356946E+02 -0.16179202872E+02  0.72179809549E+01  0.17252101294E+03  0.17120000000E+03 0.  0.
        998    1    1    2    0    0  0.87109013052E+01  0.60250591424E+01  0.14860038144E+04  0.14860752059E+04  0.10000000000E+02 0. -1.
</event>
<event>
 5    1  0.9123258E-009  0.3827718E+03  0.7957747E-01  0.3439178E+00
         13   -1    0    0    0    0  0.00000000000E+00  0.00000000000E+00  0.14999999963E+04  0.15000000000E+04  0.10566000000E+00 0.  1.
        994   -1    0    0    0    0 -0.00000000000E+00 -0.00000000000E+00  0.11368683772E-12  0.17120000000E+03  0.17120000000E+03 0.  0.
         13    1    1    2    0    0 -0.15170737571E+02  0.42073871018E+01  0.44266176176E+02  0.46982538267E+02  0.10566000000E+00 0.  1.
        994    1    1    2    0    0  0.93796833569E+01 -0.69946933732E+01  0.31940938793E+01  0.17162909553E+03  0.17120000000E+03 0.  0.
        998    1    1    2    0    0  0.57910542144E+01  0.27873062713E+01  0.14525397262E+04  0.14525883662E+04  0.10000000000E+02 0.  1.
</event>
<event>
 5    1  0.9123258E-009  0.3793814E+03  0.7957747E-01  0.3453856E+00
         13   -1    0    0    0    0  0.00000000000E+00  0.00000000000E+00  0.14999999963E+04  0.15000000000E+04  0.10566000000E+00 0.  1.
        994   -1    0    0    0    0 -0.00000000000E+00 -0.00000000000E+00  0.11368683772E-12  0.17120000000E+03  0.17120000000E+03 0.  0.
         13    1    1    2    0    0 -0.14319887516E+01 -0.23880716351E+02  0.10851022850E+02  0.26269660564E+02  0.10566000000E+00 0.  1.
        994    1    1    2    0    0  0.17195203136E+01  0.23704614860E+02  0.18032640590E+02  0.17377998056E+03  0.17120000000E+03 0.  0.
        998    1    1    2    0    0 -0.28753156199E+00  0.17610149049E+00  0.14711163328E+04  0.14711503589E+04  0.10000000000E+02 0.  1.
</event>
<event>
 5    1  0.9123258E-009  0.3760043E+03  0.7957747E-01  0.3468743E+00
         13   -1    0    0    0    0  0.00000000000E+00  0.00000000000E+00  0.14999999963E+04  0.15000000000E+04  0.10566000000E+00 0. -1.
        994   -1    0    0    0    0 -0.00000000000E+00 -0.00000000000E+00  0.11368683772E-12  0.17120000000E+03  0.17120000000E+03 0.  0.
         13    1    1    2    0    0  0.11249605950E+02  0.57674364604E+01  0.10294883440E+02  0.16303764793E+02  0.10566000000E+00 0. -1.
        994    1    1    2    0    0 -0.12975122048E+01 -0.84568945090E+01  0.64119506529E+01  0.17153354108E+03  0.17120000000E+03 0.  0.
        998    1    1    2    0    0 -0.99520937447E+01  0.26894580486E+01  0.14832931622E+04  0.14833626941E+04  0.10000000000E+02 0. -1.
</event>
<event>
 5    1  0.9123258E-009  0.3804469E+03  0.7957747E-01  0.3449215E+00
         13   -1    0    0    0    0  0.00000000000E+00  0.00000000000E+00  0.14999999963E+04  0.15000000000E+04  0.10566000000E+00 0. -1.
        994   -1    0    0    0    0 -0.00000000000E+00 -0.00000000000E+00  0.11368683772E-12  0.17120000000E+03  0.17120000000E+03 0.  0.
         13    1    1    2    0    0 -0.67652037747E+02 -0.34682488077E+01  0.11774385232E+03  0.13583980596E+03  0.10566000000E+00 0. -1.
        994    1    1    2    0    0  0.82676175944E+02 -0.97408233409E+02  0.78505057805E+02  0.22758778110E+03  0.17120000000E+03 0.  0.
        998    1    1    2    0    0 -0.15024138197E+02  0.10087648222E+03  0.13037510862E+04  0.13077724129E+04  0.10000000000E+02 0. -1.
</event>
<event>
 5    1  0.9123258E-009  0.3845047E+03  0.7957747E-01  0.3431776E+00
         13   -1    0    0    0    0  0.00000000000E+00  0.00000000000E+00  0.14999999963E+04  0.15000000000E+04  0.10566000000E+00 0. -1.
        994   -1    0    0    0    0 -0.00000000000E+00 -0.00000000000E+00  0.11368683772E-12  0.17120000000E+03  0.17120000000E+03 0.  0.
         13    1    1    2    0    0 -0.13382546223E+02  0.19770748955E+02  0.13992484719E+03  0.14194699392E+03  0.10566000000E+00 0. -1.
        994    1    1    2    0    0  0.17557341790E+02 -0.17037724951E+02  0.38502948290E+01  0.17298210628E+03  0.17120000000E+03 0.  0.
        998    1    1    2    0    0 -0.41747955673E+01 -0.27330240038E+01  0.13562248543E+04  0.13562708998E+04  0.10000000000E+02 0. -1.
</event>
<event>
 5    1  0.9123258E-009  0.3806680E+03  0.7957747E-01  0.3448255E+00
         13   -1    0    0    0    0  0.00000000000E+00  0.00000000000E+00  0.14999999963E+04  0.15000000000E+04  0.10566000000E+00 0.  1.
        994   -1    0    0    0    0 -0.00000000000E+00 -0.00000000000E+00  0.11368683772E-12  0.17120000000E+03  0.17120000000E+03 0.  0.
         13    1    1    2    0    0  0.90748926194E+01  0.45763576760E+02  0.20976975820E+03  0.21489537281E+03  0.10566000000E+00 0.  1.
        994    1    1    2    0    0 -0.46235715394E+00 -0.69283645221E+02  0.19977846934E+02  0.18576595931E+03  0.17120000000E+03 0.  0.
        998    1    1    2    0    0 -0.86125354655E+01  0.23520068462E+02  0.12702523911E+04  0.12705386679E+04  0.10000000000E+02 0.  1.
</event>
<event>
 5    1  0.9123258E-009  0.3696353E+03  0.7957747E-01  0.3497569E+00
         13   -1    0    0    0    0  0.00000000000E+00  0.00000000000E+00  0.14999999963E+04  0.15000000000E+04  0.10566000000E+00 0.  1.
        994   -1    0    0    0    0 -0.00000000000E+00 -0.00000000000E+00  0.11368683772E-12  0.17120000000E+03  0.17120000000E+03 0.  0.
         13    1    1    2    0    0 -0.11340307506E+03  0.15320764194E+02  0.44662352361E+03  0.46105050293E+03  0.10566000000E+00 0.  1.
        994    1    1    2    0    0  0.11869851850E+03 -0.18082033722E+02  0.61164062557E+02  0.21786872374E+03  0.17120000000E+03 0.  0.
        998    1    1    2    0    0 -0.52954434365E+01  0.27612695282E+01  0.99221241011E+03  0.99228077333E+03  0.10000000000E+02 0.  1.
</event>
<event>
 5    1  0.9123258E-009  0.3836816E+03  0.7957747E-01  0.3435283E+00
         13   -1    0    0    0    0  0.00000000000E+00  0.00000000000E+00  0.14999999963E+04  0.15000000000E+04  0.10566000000E+00 0.  1.
        994   -1    0    0    0    0 -0.00000000000E+00 -0.00000000000E+00  0.11368683772E-12  0.17120000000E+03  0.17120000000E+03 0.  0.
         13    1    1    2    0    0  0.40300687480E+01 -0.18966070738E+02  0.87533136941E+02  0.89654974876E+02  0.10566000000E+00 0.  1.
        994    1    1    2    0    0 -0.55116289766E+01  0.33372596577E+00  0.23868151611E+01  0.17130565173E+03  0.17120000000E+03 0.  0.
        998    1    1    2    0    0  0.14815602286E+01  0.18632344773E+02  0.14100800442E+04  0.14102393734E+04  0.10000000000E+02 0.  1.
</event>
<event>
 5    1  0.9123258E-009  0.3740628E+03  0.7957747E-01  0.3477425E+00
         13   -1    0    0    0    0  0.00000000000E+00  0.00000000000E+00  0.14999999963E+04  0.15000000000E+04  0.10566000000E+00 0.  1.
        994   -1    0    0    0    0 -0.00000000000E+00 -0.00000000000E+00  0.11368683772E-12  0.17120000000E+03  0.17120000000E+03 0.  0.
         13    1    1    2    0    0 -0.23980232947E+02 -0.86410845370E+02  0.41039056847E+03  0.42007417871E+03  0.10566000000E+00 0.  1.
        994    1    1    2    0    0  0.29473891173E+02  0.82693798312E+02  0.33914577352E+02  0.19536277306E+03  0.17120000000E+03 0.  0.
        998    1    1    2    0    0 -0.54936582257E+01  0.37170470572E+01  0.10556948505E+04  0.10557630482E+04  0.10000000000E+02 0.  1.
</event>
<event>
 5    1  0.9123258E-009  0.3760030E+03  0.7957747E-01  0.3468749E+00
         13   -1    0    0    0    0  0.00000000000E+00  0.00000000000E+00  0.14999999963E+04  0.15000000000E+04  0.10566000000E+00 0. -1.
        994   -1    0    0    0    0 -0.00000000000E+00 -0.00000000000E+00  0.11368683772E-12  0.17120000000E+03  0.17120000000E+03 0.  0.
         13    1    1    2    0    0  0.56501953613E+02 -0.10844153882E+03  0.63702940127E+03  0.64865900699E+03  0.10566000000E+00 0. -1.
        994    1    1    2    0    0 -0.76273493328E+02  0.10270634504E+03  0.63793881061E+02  0.22303663008E+03  0.17120000000E+03 0.  0.
        998    1    1    2    0    0  0.19771539715E+02  0.57351937768E+01  0.79917671395E+03  0.79950436293E+03  0.10000000000E+02 0.  1.
</event>
<event>
 5    1  0.9123258E-009  0.3782601E+03  0.7957747E-01  0.3458770E+00
         13   -1    0    0    0    0  0.00000000000E+00  0.00000000000E+00  0.14999999963E+04  0.15000000000E+04  0.10566000000E+00 0.  1.
        994   -1    0    0    0    0 -0.00000000000E+00 -0.00000000000E+00  0.11368683772E-12  0.17120000000E+03  0.17120000000E+03 0.  0.
         13    1    1    2    0    0 -0.15886141207E+02  0.93244408444E+01  0.32197370903E+02  0.37094427298E+02  0.10566000000E+00 0.  1.
        994    1    1    2    0    0  0.10025000790E+02  0.39896156620E+00  0.53525497292E+01  0.17157724091E+03  0.17120000000E+03 0.  0.
        998    1    1    2    0    0  0.58611404169E+01 -0.97234024106E+01  0.14624500756E+04  0.14625283318E+04  0.10000000000E+02 0.  1.
</event>
<event>
 5    1  0.1600953E-008  0.3862501E+03  0.7957747E-01  0.3424388E+00
         13   -1    0    0    0    0  0.00000000000E+00  0.00000000000E+00  0.14999999963E+04  0.15000000000E+04  0.10566000000E+00 0. -1.
        994   -1    0    0    0    0 -0.00000000000E+00 -0.00000000000E+00  0.11368683772E-12  0.17120000000E+03  0.17120000000E+03 0.  0.
         13    1    1    2    0    0 -0.97167071967E+01  0.24465909347E+01  0.51051528580E+02  0.52025666170E+02  0.10566000000E+00 0. -1.
        994    1    1    2    0    0  0.39433075497E+01 -0.56640224170E+01  0.11667800961E+01  0.17134302495E+03  0.17120000000E+03 0.  0.
        998    1    1    2    0    0  0.57733996471E+01  0.32174314824E+01  0.14477816876E+04  0.14478313089E+04  0.10000000000E+02 0. -1.
</event>
<event>
 5    1  0.9123258E-009  0.3834757E+03  0.7957747E-01  0.3436163E+00
         13   -1    0    0    0    0  0.00000000000E+00  0.00000000000E+00  0.14999999963E+04  0.15000000000E+04  0.10566000000E+00 0. -1.
        994   -1    0    0    0    0 -0.00000000000E+00 -0.00000000000E+00  0.11368683772E-12  0.17120000000E+03  0.17120000000E+03 0.  0.
         13    1    1    2    0    0  0.21132381678E+02  0.15135954930E+02  0.13377264364E+03  0.13627474468E+03  0.10566000000E+00 0. -1.
        994    1    1    2    0    0 -0.24557130132E+02 -0.46109758223E+01  0.44548739905E+01  0.17307108262E+03  0.17120000000E+03 0.  0.
        998    1    1    2    0    0  0.34247484535E+01 -0.10524979107E+02  0.13617724786E+04  0.13618541727E+04  0.10000000000E+02 0. -1.
</event>
<event>
 5    1  0.9123258E-009  0.3702111E+03  0.7957747E-01  0.3494921E+00
         13   -1    0    0    0    0  0.00000000000E+00  0.00000000000E+00  0.14999999963E+04  0.15000000000E+04  0.10566000000E+00 0. -1.
        994   -1    0    0    0    0 -0.00000000000E+00 -0.00000000000E+00  0.11368683772E-12  0.17120000000E+03  0.17120000000E+03 0.  0.
         13    1    1    2    0    0  0.18014532632E+02  0.76353057832E+01  0.15912297075E+02  0.25219707424E+02  0.10566000000E+00 0. -1.
        994    1    1    2    0    0 -0.31852713113E+02 -0.27112634556E+02  0.15228477124E+02  0.17689272682E+03  0.17120000000E+03 0.  0.
        998    1    1    2    0    0  0.13838180481E+02  0.19477328773E+02  0.14688592221E+04  0.14690875658E+04  0.10000000000E+02 0. -1.
</event>
<event>
 5    1  0.9123258E-009  0.3706832E+03  0.7957747E-01  0.3492757E+00
         13   -1    0    0    0    0  0.00000000000E+00  0.00000000000E+00  0.14999999963E+04  0.15000000000E+04  0.10566000000E+00 0. -1.
        994   -1    0    0    0    0 -0.00000000000E+00 -0.00000000000E+00  0.11368683772E-12  0.17120000000E+03  0.17120000000E+03 0.  0.
         13    1    1    2    0    0  0.38479776623E+02  0.30151627298E+02  0.13197912338E+03  0.14074201224E+03  0.10566000000E+00 0. -1.
        994    1    1    2    0    0 -0.20142488757E+02 -0.19808859555E+02  0.11670426060E+02  0.17390730179E+03  0.17120000000E+03 0.  0.
        998    1    1    2    0    0 -0.18337287866E+02 -0.10342767743E+02  0.13563504468E+04  0.13565506860E+04  0.10000000000E+02 0. -1.
</event>
<event>
 5    1  0.9123258E-009  0.3775450E+03  0.7957747E-01  0.3461918E+00
         13   -1    0    0    0    0  0.00000000000E+00  0.00000000000E+00  0.14999999963E+04  0.15000000000E+04  0.10566000000E+00 0. -1.
        994   -1    0    0    0    0 -0.00000000000E+00 -0.00000000000E+00  0.11368683772E-12  0.17120000000E+03  0.17120000000E+03 0.  0.
         13    1    1    2    0    0  0.90458189530E+00 -0.10249460402E+02  0.73663341969E+01  0.12654791602E+02  0.10566000000E+00 0. -1.
        994    1    1    2    0    0  0.63448805357E+01  0.97460003530E+01  0.58334976965E+01  0.17169365663E+03  0.17120000000E+03 0.  0.
        998    1    1    2    0    0 -0.72494624310E+01  0.50346004942E+00  0.14868001644E+04  0.14868515518E+04  0.10000000000E+02 0. -1.
</event>
<event>
 5    1  0.9123258E-009  0.3829071E+03  0.7957747E-01  0.3438597E+00
         13   -1    0    0    0    0  0.00000000000E+00  0.00000000000E+00  0.14999999963E+04  0.15000000000E+04  0.10566000000E+00 0. -1.
        994   -1    0    0    0    0 -0.00000000000E+00 -0.00000000000E+00  0.11368683772E-12  0.17120000000E+03  0.17120000000E+03 0.  0.
         13    1    1    2    0    0  0.97146920879E+01 -0.24477730529E+02  0.12643258695E+03  0.12914621458E+03  0.10566000000E+00 0. -1.
        994    1    1    2    0    0 -0.46567172284E+01  0.18324792455E+02  0.38573598194E+01  0.17228407430E+03  0.17120000000E+03 0.  0.
        998    1    1    2    0    0 -0.50579748595E+01  0.61529380748E+01  0.13697100495E+04  0.13697697111E+04  0.10000000000E+02 0. -1.
</event>
<event>
 5    1  0.9123258E-009  0.3846098E+03  0.7957747E-01  0.3431329E+00
         13   -1    0    0    0    0  0.00000000000E+00  0.00000000000E+00  0.14999999963E+04  0.15000000000E+04  0.10566000000E+00 0.  1.
        994   -1    0    0    0    0 -0.00000000000E+00 -0.00000000000E+00  0.11368683772E-12  0.17120000000E+03  0.17120000000E+03 0.  0.
         13    1    1    2    0    0  0.94347074737E+01 -0.68775246473E+01  0.36544478550E+02  0.38364360113E+02  0.10566000000E+00 0.  1.
        994    1    1    2    0    0 -0.10673935711E+02  0.38593899571E+01  0.22483050703E+01  0.17159056696E+03  0.17120000000E+03 0.  0.
        998    1    1    2    0    0  0.12392282372E+01  0.30181346902E+01  0.14612072127E+04  0.14612450729E+04  0.10000000000E+02 0.  1.
</event>
<event>
 5    1  0.9123258E-009  0.3840279E+03  0.7957747E-01  0.3433805E+00
         13   -1    0    0    0    0  0.00000000000E+00  0.00000000000E+00  0.14999999963E+04  0.15000000000E+04  0.10566000000E+00 0.  1.
        994   -1    0    0    0    0 -0.00000000000E+00 -0.00000000000E+00  0.11368683772E-12  0.17120000000E+03  0.17120000000E+03 0.  0.
         13    1    1    2    0    0 -0.21821517108E+02 -0.10872877373E+02  0.13333104023E+03  0.13554178516E+03  0.10566000000E+00 0.  1.
        994    1    1    2    0    0  0.19175204510E+02  0.88679822142E+01  0.35873713008E+01  0.17253590586E+03  0.17120000000E+03 0.  0.
        998    1    1    2    0    0  0.26463125984E+01  0.20048951586E+01  0.13630815847E+04  0.13631223090E+04  0.10000000000E+02 0.  1.
</event>
<event>
 5    1  0.9123258E-009  0.3841387E+03  0.7957747E-01  0.3433333E+00
         13   -1    0    0    0    0  0.00000000000E+00  0.00000000000E+00  0.14999999963E+04  0.15000000000E+04  0.10566000000E+00 0.  1.
        994   -1    0    0    0    0 -0.00000000000E+00 -0.00000000000E+00  0.11368683772E-12  0.17120000000E+03  0.17120000000E+03 0.  0.
         13    1    1    2    0    0 -0.11014472294E+02 -0.74153192358E-01  0.30463662362E+02  0.32393980724E+02  0.10566000000E+00 0.  1.
        994    1    1    2    0    0 -0.52909856174E+01 -0.67789358114E+01  0.23022872758E+01  0.17143129535E+03  0.17120000000E+03 0.  0.
        998    1    1    2    0    0  0.16305457912E+02  0.68530890037E+01  0.14672340466E+04  0.14673747239E+04  0.10000000000E+02 0.  1.
</event>
<event>
 5    1  0.9123258E-009  0.3817969E+03  0.7957747E-01  0.3443372E+00
         13   -1    0    0    0    0  0.00000000000E+00  0.00000000000E+00  0.14999999963E+04  0.15000000000E+04  0.10566000000E+00 0.  1.
        994   -1    0    0    0    0 -0.00000000000E+00 -0.00000000000E+00  0.11368683772E-12  0.17120000000E+03  0.17120000000E+03 0.  0.
         13    1    1    2    0    0 -0.31957491043E+02 -0.39906080469E+01  0.18514193766E+03  0.18792220314E+03  0.10566000000E+00 0.  1.
        994    1    1    2    0    0  0.21593522611E+01 -0.10639848845E+02  0.36206225363E+01  0.17158210307E+03  0.17120000000E+03 0.  0.
        998    1    1    2    0    0  0.29798138782E+02  0.14630456891E+02  0.13112374361E+04  0.13116956938E+04  0.10000000000E+02 0.  1.
</event>
<event>
 5    1  0.9123258E-009  0.3815807E+03  0.7957747E-01  0.3444305E+00
         13   -1    0    0    0    0  0.00000000000E+00  0.00000000000E+00  0.14999999963E+04  0.15000000000E+04  0.10566000000E+00 0.  1.
        994   -1    0    0    0    0 -0.00000000000E+00 -0.00000000000E+00  0.11368683772E-12  0.17120000000E+03  0.17120000000E+03 0.  0.
         13    1    1    2    0    0 -0.17566398134E+02 -0.89641177364E+00  0.44913079789E+02  0.48234612029E+02  0.10566000000E+00 0.  1.
        994    1    1    2    0    0  0.12940916475E+02  0.28344450519E+01  0.39212128381E+01  0.17175656409E+03  0.17120000000E+03 0.  0.
        998    1    1    2    0    0  0.46254816589E+01 -0.19380332783E+01  0.14511657037E+04  0.14512088239E+04  0.10000000000E+02 0.  1.
</event>
<event>
 5    1  0.9123258E-009  0.3764364E+03  0.7957747E-01  0.3466823E+00
         13   -1    0    0    0    0  0.00000000000E+00  0.00000000000E+00  0.14999999963E+04  0.15000000000E+04  0.10566000000E+00 0.  1.
        994   -1    0    0    0    0 -0.00000000000E+00 -0.00000000000E+00  0.11368683772E-12  0.17120000000E+03  0.17120000000E+03 0.  0.
         13    1    1    2    0    0  0.12794332970E+02  0.11302605830E+02  0.21392026512E+02  0.27369212941E+02  0.10566000000E+00 0.  1.
        994    1    1    2    0    0 -0.15262824304E+02 -0.17425882655E+02  0.77603090161E+01  0.17293431582E+03  0.17120000000E+03 0.  0.
        998    1    1    2    0    0  0.24684913340E+01  0.61232768249E+01  0.14708476608E+04  0.14708964712E+04  0.10000000000E+02 0.  1.
</event>
<event>
 5    1  0.9123258E-009  0.3751807E+03  0.7957747E-01  0.3472415E+00
         13   -1    0    0    0    0  0.00000000000E+00  0.00000000000E+00  0.14999999963E+04  0.15000000000E+04  0.10566000000E+00 0.  1.
        994   -1    0    0    0    0 -0.00000000000E+00 -0.00000000000E+00  0.11368683772E-12  0.17120000000E+03  0.17120000000E+03 0.  0.
         13    1    1    2    0    0 -0.15670337958E+02  0.87277625627E+01  0.20600722406E+02  0.27315458238E+02  0.10566000000E+00 0.  1.
        994    1    1    2    0    0  0.30238686221E+02 -0.11365925368E+02  0.10139275900E+02  0.17451592283E+03  0.17120000000E+03 0.  0.
        998    1    1    2    0    0 -0.14568348263E+02  0.26381628058E+01  0.14692599980E+04  0.14693686189E+04  0.10000000000E+02 0.  1.
</event>
<event>
 5    1  0.9123258E-009  0.3782879E+03  0.7957747E-01  0.3458647E+00
         13   -1    0    0    0    0  0.00000000000E+00  0.00000000000E+00  0.14999999963E+04  0.15000000000E+04  0.10566000000E+00 0. -1.
        994   -1    0    0    0    0 -0.00000000000E+00 -0.00000000000E+00  0.11368683772E-12  0.17120000000E+03  0.17120000000E+03 0.  0.
         13    1    1    2    0    0  0.10288866995E+02 -0.77119741925E+01  0.14269097755E+02  0.19208166096E+02  0.10566000000E+00 0. -1.
        994    1    1    2    0    0 -0.10466150052E+02  0.53963588237E+01  0.54661900848E+01  0.17169152635E+03  0.17120000000E+03 0.  0.
        998    1    1    2    0    0  0.17728305693E+00  0.23156153688E+01  0.14802647084E+04  0.14803003076E+04  0.10000000000E+02 0. -1.
</event>
<event>
 5    1  0.9123258E-009  0.3799029E+03  0.7957747E-01  0.3451581E+00
         13   -1    0    0    0    0  0.00000000000E+00  0.00000000000E+00  0.14999999963E+04  0.15000000000E+04  0.10566000000E+00 0. -1.
        994   -1    0    0    0    0 -0.00000000000E+00 -0.00000000000E+00  0.11368683772E-12  0.17120000000E+03  0.17120000000E+03 0.  0.
         13    1    1    2    0    0 -0.72766454089E+01 -0.26619529010E+02  0.84846661291E+02  0.89221723753E+02  0.10566000000E+00 0. -1.
        994    1    1    2    0    0  0.45480024322E+01  0.28364592238E+02  0.69466415367E+01  0.17373235233E+03  0.17120000000E+03 0.  0.
        998    1    1    2    0    0  0.27286429766E+01 -0.17450632276E+01  0.14082066935E+04  0.14082459239E+04  0.10000000000E+02 0. -1.
</event>
<event>
 5    1  0.9123258E-009  0.3804565E+03  0.7957747E-01  0.3449173E+00
         13   -1    0    0    0    0  0.00000000000E+00  0.00000000000E+00  0.14999999963E+04  0.15000000000E+04  0.10566000000E+00 0.  1.
        994   -1    0    0    0    0 -0.00000000000E+00 -0.00000000000E+00  0.11368683772E-12  0.17120000000E+03  0.17120000000E+03 0.  0.
         13    1    1    2    0    0  0.23381673906E+02  0.31598921952E+00  0.76257611752E+02  0.79762378588E+02  0.10566000000E+00 0.  1.
        994    1    1    2    0    0  0.75603030149E+01  0.30968597724E+01  0.41257238612E+01  0.17144448174E+03  0.17120000000E+03 0.  0.
        998    1    1    2    0    0 -0.30941976921E+02 -0.34128489919E+01  0.14196166607E+04  0.14199931397E+04  0.10000000000E+02 0.  1.
</event>
<event>
 5    1  0.9123258E-009  0.3838758E+03  0.7957747E-01  0.3434454E+00
         13   -1    0    0    0    0  0.00000000000E+00  0.00000000000E+00  0.14999999963E+04  0.15000000000E+04  0.10566000000E+00 0.  1.
        994   -1    0    0    0    0 -0.00000000000E+00 -0.00000000000E+00  0.11368683772E-12  0.17120000000E+03  0.17120000000E+03 0.  0.
         13    1    1    2    0    0  0.65001882324E+01 -0.10478106018E+02  0.36291962440E+02  0.38329634156E+02  0.10566000000E+00 0.  1.
        994    1    1    2    0    0  0.70470996529E+01 -0.27687763964E+01  0.23785650727E+01  0.17138385370E+03  0.17120000000E+03 0.  0.
        998    1    1    2    0    0 -0.13547287885E+02  0.13246882414E+02  0.14613294688E+04  0.14614865121E+04  0.10000000000E+02 0.  1.
</event>
<event>
 5    1  0.9123258E-009  0.3684135E+03  0.7957747E-01  0.3503214E+00
         13   -1    0    0    0    0  0.00000000000E+00  0.00000000000E+00  0.14999999963E+04  0.15000000000E+04  0.10566000000E+00 0. -1.
        994   -1    0    0    0    0 -0.00000000000E+00 -0.00000000000E+00  0.11368683772E-12  0.17120000000E+03  0.17120000000E+03 0.  0.
         13    1    1    2    0    0  0.49403571403E+02 -0.69257903743E+02  0.43978310597E+03  0.44793589001E+03  0.10566000000E+00 0. -1.
        994    1    1    2    0    0 -0.47578354206E+01  0.25846254765E+02  0.12505660548E+02  0.17365626228E+03  0.17120000000E+03 0.  0.
        998    1    1    2    0    0 -0.44645735982E+02  0.43411648978E+02  0.10477112298E+04  0.10496078477E+04  0.10000000000E+02 0. -1.
</event>
<event>
 5    1  0.9123258E-009  0.3858031E+03  0.7957747E-01  0.3426273E+00
         13   -1    0    0    0    0  0.00000000000E+00  0.00000000000E+00  0.14999999963E+04  0.15000000000E+04  0.10566000000E+00 0. -1.
        994   -1    0    0    0    0 -0.00000000000E+00 -0.00000000000E+00  0.11368683772E-12  0.17120000000E+03  0.17120000000E+03 0.  0.
         13    1    1    2    0    0  0.10160373163E+02 -0.96648943411E+01  0.79150089526E+02  0.80382779259E+02  0.10566000000E+00 0. -1.
        994    1    1    2    0    0 -0.93940063659E+01  0.65417919582E+01  0.16618988172E+01  0.17159033861E+03  0.17120000000E+03 0.  0.
        998    1    1    2    0    0 -0.76636679677E+00  0.31231023829E+01  0.14191880079E+04  0.14192268821E+04  0.10000000000E+02 0. -1.
</event>
<event>
 5    1  0.9123258E-009  0.3834799E+03  0.7957747E-01  0.3436145E+00
         13   -1    0    0    0    0  0.00000000000E+00  0.00000000000E+00  0.14999999963E+04  0.15000000000E+04  0.10566000000E+00 0. -1.
        994   -1    0    0    0    0 -0.00000000000E+00 -0.00000000000E+00  0.11368683772E-12  0.17120000000E+03  0.17120000000E+03 0.  0.
         13    1    1    2    0    0 -0.99987160038E+01  0.22753993162E+02  0.13102238705E+03  0.13335889772E+03  0.10566000000E+00 0. -1.
        994    1    1    2    0    0  0.42006881708E+02  0.17866875144E+01  0.82511485352E+01  0.17648028733E+03  0.17120000000E+03 0.  0.
        998    1    1    2    0    0 -0.32008165704E+02 -0.24540680676E+02  0.13607264607E+04  0.13613608150E+04  0.10000000000E+02 0. -1.
</event>
<event>
 5    1  0.9123258E-009  0.3854066E+03  0.7957747E-01  0.3427950E+00
         13   -1    0    0    0    0  0.00000000000E+00  0.00000000000E+00  0.14999999963E+04  0.15000000000E+04  0.10566000000E+00 0. -1.
        994   -1    0    0    0    0 -0.00000000000E+00 -0.00000000000E+00  0.11368683772E-12  0.17120000000E+03  0.17120000000E+03 0.  0.
         13    1    1    2    0    0 -0.40577788851E+01 -0.94484529041E+01  0.37204791548E+02  0.38599825257E+02  0.10566000000E+00 0. -1.
        994    1    1    2    0    0 -0.25275253144E+00  0.67944938753E+01  0.15802644896E+01  0.17134224893E+03  0.17120000000E+03 0.  0.
        998    1    1    2    0    0  0.43105314165E+01  0.26539590289E+01  0.14612149402E+04  0.14612579258E+04  0.10000000000E+02 0. -1.
</event>
<event>
 5    1  0.9123258E-009  0.3826540E+03  0.7957747E-01  0.3439683E+00
         13   -1    0    0    0    0  0.00000000000E+00  0.00000000000E+00  0.14999999963E+04  0.15000000000E+04  0.10566000000E+00 0.  1.
        994   -1    0    0    0    0 -0.00000000000E+00 -0.00000000000E+00  0.11368683772E-12  0.17120000000E+03  0.17120000000E+03 0.  0.
         13    1    1    2    0    0 -0.21936861153E+02  0.15945957960E+02  0.11911525611E+03  0.12216363966E+03  0.10566000000E+00 0.  1.
        994    1    1    2    0    0  0.23117742147E+02 -0.19707590422E+02  0.58634951675E+01  0.17397310050E+03  0.17120000000E+03 0.  0.
        998    1    1    2    0    0 -0.11808809936E+01  0.37616324621E+01  0.13750212450E+04  0.13750632598E+04  0.10000000000E+02 0.  0.
</event>
<event>
 5    1  0.9123258E-009  0.3822245E+03  0.7957747E-01  0.3441529E+00
         13   -1    0    0    0    0  0.00000000000E+00  0.00000000000E+00  0.14999999963E+04  0.15000000000E+04  0.10566000000E+00 0. -1.
        994   -1    0    0    0    0 -0.00000000000E+00 -0.00000000000E+00  0.11368683772E-12  0.17120000000E+03  0.17120000000E+03 0.  0.
         13    1    1    2    0    0 -0.14536849533E+02  0.19131041688E+02  0.10197824884E+03  0.10477065978E+03  0.10566000000E+00 0. -1.
        994    1    1    2    0    0 -0.36218818368E+01 -0.62725201029E+01  0.31885219298E+01  0.17138281480E+03  0.17120000000E+03 0.  0.
        998    1    1    2    0    0  0.18158731370E+02 -0.12858521585E+02  0.13948332255E+04  0.13950465254E+04  0.10000000000E+02 0. -1.
</event>
<event>
 5    1  0.9123258E-009  0.3800979E+03  0.7957747E-01  0.3450732E+00
         13   -1    0    0    0    0  0.00000000000E+00  0.00000000000E+00  0.14999999963E+04  0.15000000000E+04  0.10566000000E+00 0.  1.
        994   -1    0    0    0    0 -0.00000000000E+00 -0.00000000000E+00  0.11368683772E-12  0.17120000000E+03  0.17120000000E+03 0.  0.
         13    1    1    2    0    0 -0.52279776439E+01  0.48326016577E+02  0.27650951791E+03  0.28074946178E+03  0.10566000000E+00 0.  1.
        994    1    1    2    0    0  0.67257122104E+00 -0.32357180582E+02  0.75920353314E+01  0.17439758739E+03  0.17120000000E+03 0.  0.
        998    1    1    2    0    0  0.45554064228E+01 -0.15968835995E+02  0.12158984430E+04  0.12160529508E+04  0.10000000000E+02 0.  0.
</event>
<event>
 5    1  0.9123258E-009  0.3849281E+03  0.7957747E-01  0.3429977E+00
         13   -1    0    0    0    0  0.00000000000E+00  0.00000000000E+00  0.14999999963E+04  0.15000000000E+04  0.10566000000E+00 0.  1.
        994   -1    0    0    0    0 -0.00000000000E+00 -0.00000000000E+00  0.11368683772E-12  0.17120000000E+03  0.17120000000E+03 0.  0.
         13    1    1    2    0    0 -0.95581982512E+01 -0.31967137728E+01  0.30429046073E+02  0.32054892633E+02  0.10566000000E+00 0.  1.
        994    1    1    2    0    0  0.59581957636E+01 -0.87746743819E+00  0.17851738213E+01  0.17131519749E+03  0.17120000000E+03 0.  0.
        998    1    1    2    0    0  0.36000024876E+01  0.40741812110E+01  0.14677857764E+04  0.14678299099E+04  0.10000000000E+02 0.  1.
</event>
<event>
 5    1  0.9123258E-009  0.3702911E+03  0.7957747E-01  0.3494554E+00
         13   -1    0    0    0    0  0.00000000000E+00  0.00000000000E+00  0.14999999963E+04  0.15000000000E+04  0.10566000000E+00 0.  1.
        994   -1    0    0    0    0 -0.00000000000E+00 -0.00000000000E+00  0.11368683772E-12  0.17120000000E+03  0.17120000000E+03 0.  0.
         13    1    1    2    0    0 -0.13158272732E+02 -0.27688702709E+01  0.56753692518E+01  0.14595470669E+02  0.10566000000E+00 0.  1.
        994    1    1    2    0    0  0.14389608220E+02  0.47036959056E+01  0.99090131785E+01  0.17215346096E+03  0.17120000000E+03 0.  0.
        998    1    1    2    0    0 -0.12313354882E+01 -0.19348256347E+01  0.14844156138E+04  0.14844510684E+04  0.10000000000E+02 0.  1.
</event>
<event>
 5    1  0.9123258E-009  0.3801740E+03  0.7957747E-01  0.3450401E+00
         13   -1    0    0    0    0  0.00000000000E+00  0.00000000000E+00  0.14999999963E+04  0.15000000000E+04  0.10566000000E+00 0. -1.
        994   -1    0    0    0    0 -0.00000000000E+00 -0.00000000000E+00  0.11368683772E-12  0.17120000000E+03  0.17120000000E+03 0.  0.
         13    1    1    2    0    0 -0.44192697773E+02  0.18323346710E+02  0.20698946511E+03  0.21244620355E+03  0.10566000000E+00 0. -1.
        994    1    1    2    0    0  0.63904800851E+02 -0.28328109257E+02  0.20546943166E+02  0.18605892136E+03  0.17120000000E+03 0.  0.
        998    1    1    2    0    0 -0.19712103078E+02  0.10004762547E+02  0.12724635880E+04  0.12726948751E+04  0.10000000000E+02 0. -1.
</event>
<event>
 5    1  0.9123258E-009  0.3721975E+03  0.7957747E-01  0.3485852E+00
         13   -1    0    0    0    0  0.00000000000E+00  0.00000000000E+00  0.14999999963E+04  0.15000000000E+04  0.10566000000E+00 0.  1.
        994   -1    0    0    0    0 -0.00000000000E+00 -0.00000000000E+00  0.11368683772E-12  0.17120000000E+03  0.17120000000E+03 0.  0.
         13    1    1    2    0    0 -0.29651898608E+02 -0.78709533632E+01  0.53670991562E+02  0.61820494152E+02  0.10566000000E+00 0.  1.
        994    1    1    2    0    0  0.26952651355E+02  0.37022480329E+01  0.10669114054E+02  0.17367619886E+03  0.17120000000E+03 0.  0.
        998    1    1    2    0    0  0.26992472530E+01  0.41687053303E+01  0.14356598907E+04  0.14357033070E+04  0.10000000000E+02 0.  1.
</event>
<event>
 5    1  0.9438980E-009  0.3860615E+03  0.7957747E-01  0.3425183E+00
         13   -1    0    0    0    0  0.00000000000E+00  0.00000000000E+00  0.14999999963E+04  0.15000000000E+04  0.10566000000E+00 0.  1.
        994   -1    0    0    0    0 -0.00000000000E+00 -0.00000000000E+00  0.11368683772E-12  0.17120000000E+03  0.17120000000E+03 0.  0.
         13    1    1    2    0    0  0.48597201492E+01  0.10369045890E+02  0.57265767885E+02  0.58399600410E+02  0.10566000000E+00 0.  1.
        994    1    1    2    0    0 -0.88242327432E+01 -0.11986080271E+02  0.18304213246E+01  0.17185553132E+03  0.17120000000E+03 0.  0.
        998    1    1    2    0    0  0.39645125940E+01  0.16170343805E+01  0.14409038071E+04  0.14409448683E+04  0.10000000000E+02 0.  1.
</event>
<event>
 5    1  0.9123258E-009  0.3820639E+03  0.7957747E-01  0.3442221E+00
         13   -1    0    0    0    0  0.00000000000E+00  0.00000000000E+00  0.14999999963E+04  0.15000000000E+04  0.10566000000E+00 0.  1.
        994   -1    0    0    0    0 -0.00000000000E+00 -0.00000000000E+00  0.11368683772E-12  0.17120000000E+03  0.17120000000E+03 0.  0.
         13    1    1    2    0    0  0.10900224256E+02  0.80655520858E+01  0.26430109677E+02  0.29705721349E+02  0.10566000000E+00 0.  1.
        994    1    1    2    0    0 -0.41347978919E+02  0.41103660596E+00  0.87928967200E+01  0.17634222224E+03  0.17120000000E+03 0.  0.
        998    1    1    2    0    0  0.30447754663E+02 -0.84765886918E+01  0.14647769899E+04  0.14651520564E+04  0.10000000000E+02 0.  1.
</event>
<event>
 5    1  0.9123258E-009  0.3821195E+03  0.7957747E-01  0.3441981E+00
         13   -1    0    0    0    0  0.00000000000E+00  0.00000000000E+00  0.14999999963E+04  0.15000000000E+04  0.10566000000E+00 0. -1.
        994   -1    0    0    0    0 -0.00000000000E+00 -0.00000000000E+00  0.11368683772E-12  0.17120000000E+03  0.17120000000E+03 0.  0.
         13    1    1    2    0    0  0.19362256821E+02  0.74643393867E+01  0.67099808606E+02  0.70235381616E+02  0.10566000000E+00 0. -1.
        994    1    1    2    0    0 -0.19887219604E+02 -0.30741879124E+01  0.44125094047E+01  0.17243509612E+03  0.17120000000E+03 0.  0.
        998    1    1    2    0    0  0.52496278372E+00 -0.43901514743E+01  0.14284876783E+04  0.14285295223E+04  0.10000000000E+02 0. -1.
</event>
<event>
 5    1  0.9123258E-009  0.3850636E+03  0.7957747E-01  0.3429403E+00
         13   -1    0    0    0    0  0.00000000000E+00  0.00000000000E+00  0.14999999963E+04  0.15000000000E+04  0.10566000000E+00 0. -1.
        994   -1    0    0    0    0 -0.00000000000E+00 -0.00000000000E+00  0.11368683772E-12  0.17120000000E+03  0.17120000000E+03 0.  0.
         13    1    1    2    0    0  0.40309641700E+00  0.17191852120E+02  0.96018881693E+02  0.97546702003E+02  0.10566000000E+00 0. -1.
        994    1    1    2    0    0 -0.12439277142E+01 -0.63853780213E+01  0.17377314642E+01  0.17133236740E+03  0.17120000000E+03 0.  0.
        998    1    1    2    0    0  0.84083129720E+00 -0.10806474099E+02  0.14022433831E+04  0.14023209306E+04  0.10000000000E+02 0. -1.
</event>
<event>
 5    1  0.9123258E-009  0.3841779E+03  0.7957747E-01  0.3433166E+00
         13   -1    0    0    0    0  0.00000000000E+00  0.00000000000E+00  0.14999999963E+04  0.15000000000E+04  0.10566000000E+00 0.  1.
        994   -1    0    0    0    0 -0.00000000000E+00 -0.00000000000E+00  0.11368683772E-12  0.17120000000E+03  0.17120000000E+03 0.  0.
         13    1    1    2    0    0 -0.43716150920E+01 -0.13402948354E+02  0.40812648498E+02  0.43179086194E+02  0.10566000000E+00 0.  1.
        994    1    1    2    0    0  0.25200293391E+02  0.41035048653E+02  0.97231620407E+01  0.17810926389E+03  0.17120000000E+03 0.  0.
        998    1    1    2    0    0 -0.20828678299E+02 -0.27632100300E+02  0.14494641857E+04  0.14499116499E+04  0.10000000000E+02 0.  1.
</event>
<event>
 5    1  0.9123258E-009  0.3835909E+03  0.7957747E-01  0.3435671E+00
         13   -1    0    0    0    0  0.00000000000E+00  0.00000000000E+00  0.14999999963E+04  0.15000000000E+04  0.10566000000E+00 0.  1.
        994   -1    0    0    0    0 -0.00000000000E+00 -0.00000000000E+00  0.11368683772E-12  0.17120000000E+03  0.17120000000E+03 0.  0.
         13    1    1    2    0    0  0.10286342497E+02  0.11046602575E+02  0.47056474067E+02  0.49418207030E+02  0.10566000000E+00 0.  1.
        994    1    1    2    0    0 -0.10222974995E+02 -0.11584232899E+02  0.31203709811E+01  0.17192405412E+03  0.17120000000E+03 0.  0.
        998    1    1    2    0    0 -0.63367501619E-01  0.53763032375E+00  0.14498231512E+04  0.14498577389E+04  0.10000000000E+02 0.  1.
</event>
<event>
 5    1  0.9123258E-009  0.3794877E+03  0.7957747E-01  0.3453392E+00
         13   -1    0    0    0    0  0.00000000000E+00  0.00000000000E+00  0.14999999963E+04  0.15000000000E+04  0.10566000000E+00 0. -1.
        994   -1    0    0    0    0 -0.00000000000E+00 -0.00000000000E+00  0.11368683772E-12  0.17120000000E+03  0.17120000000E+03 0.  0.
         13    1    1    2    0    0 -0.17896653939E+02  0.29972843588E+02  0.17431970374E+03  0.17778085344E+03  0.10566000000E+00 0. -1.
        994    1    1    2    0    0 -0.20387585774E+02  0.36849937906E+01  0.58306231475E+01  0.17254758474E+03  0.17120000000E+03 0.  0.
        998    1    1    2    0    0  0.38284239713E+02 -0.33657837378E+02  0.13198496694E+04  0.13208715618E+04  0.10000000000E+02 0. -1.
</event>
<event>
 5    1  0.9123258E-009  0.3758224E+03  0.7957747E-01  0.3469553E+00
         13   -1    0    0    0    0  0.00000000000E+00  0.00000000000E+00  0.14999999963E+04  0.15000000000E+04  0.10566000000E+00 0.  1.
        994   -1    0    0    0    0 -0.00000000000E+00 -0.00000000000E+00  0.11368683772E-12  0.17120000000E+03  0.17120000000E+03 0.  0.
         13    1    1    2    0    0  0.28859441803E+02 -0.30414002186E+02  0.13022181951E+03  0.13680501581E+03  0.10566000000E+00 0.  1.
        994    1    1    2    0    0 -0.28364444736E+02  0.24542390803E+02  0.11040887597E+02  0.17560812017E+03  0.17120000000E+03 0.  0.
        998    1    1    2    0    0 -0.49499706666E+00  0.58716113830E+01  0.13587372892E+04  0.13587868640E+04  0.10000000000E+02 0.  1.
</event>
<event>
 5    1  0.9123258E-009  0.3832534E+03  0.7957747E-01  0.3437114E+00
         13   -1    0    0    0    0  0.00000000000E+00  0.00000000000E+00  0.14999999963E+04  0.15000000000E+04  0.10566000000E+00 0.  1.
        994   -1    0    0    0    0 -0.00000000000E+00 -0.00000000000E+00  0.11368683772E-12  0.17120000000E+03  0.17120000000E+03 0.  0.
         13    1    1    2    0    0 -0.84451663621E+01 -0.80542553899E+01  0.27138026482E+02  0.29541081736E+02  0.10566000000E+00 0.  1.
        994    1    1    2    0    0  0.92831913256E+01 -0.93524962867E+01  0.30742935510E+01  0.17173391659E+03  0.17120000000E+03 0.  0.
        998    1    1    2    0    0 -0.83802496352E+00  0.17406751677E+02  0.14697876762E+04  0.14699250017E+04  0.10000000000E+02 0.  1.
</event>
<event>
 5    1  0.9123258E-009  0.3760719E+03  0.7957747E-01  0.3468443E+00
         13   -1    0    0    0    0  0.00000000000E+00  0.00000000000E+00  0.14999999963E+04  0.15000000000E+04  0.10566000000E+00 0. -1.
        994   -1    0    0    0    0 -0.00000000000E+00 -0.00000000000E+00  0.11368683772E-12  0.17120000000E+03  0.17120000000E+03 0.  0.
         13    1    1    2    0    0  0.93724876958E+01 -0.18932171970E+02  0.34655866783E+02  0.40587078333E+02  0.10566000000E+00 0. -1.
        994    1    1    2    0    0 -0.34446447614E+00  0.74222774483E+01  0.63163388503E+01  0.17147753496E+03  0.17120000000E+03 0.  0.
        998    1    1    2    0    0 -0.90280232197E+01  0.11509894521E+02  0.14590277906E+04  0.14591353867E+04  0.10000000000E+02 0. -1.
</event>
<event>
 5    1  0.9123258E-009  0.3795018E+03  0.7957747E-01  0.3453331E+00
         13   -1    0    0    0    0  0.00000000000E+00  0.00000000000E+00  0.14999999963E+04  0.15000000000E+04  0.10566000000E+00 0.  1.
        994   -1    0    0    0    0 -0.00000000000E+00 -0.00000000000E+00  0.11368683772E-12  0.17120000000E+03  0.17120000000E+03 0.  0.
         13    1    1    2    0    0 -0.22640840910E+02 -0.53088070133E+02  0.29861450838E+03  0.30414073493E+03  0.10566000000E+00 0.  1.
        994    1    1    2    0    0  0.28286209925E+02  0.53143384806E+02  0.16617763754E+02  0.18223588860E+03  0.17120000000E+03 0.  0.
        998    1    1    2    0    0 -0.56453690151E+01 -0.55314673467E-01  0.11847677241E+04  0.11848233765E+04  0.10000000000E+02 0.  1.
</event>
<event>
 5    1  0.9123258E-009  0.3796663E+03  0.7957747E-01  0.3452613E+00
         13   -1    0    0    0    0  0.00000000000E+00  0.00000000000E+00  0.14999999963E+04  0.15000000000E+04  0.10566000000E+00 0. -1.
        994   -1    0    0    0    0 -0.00000000000E+00 -0.00000000000E+00  0.11368683772E-12  0.17120000000E+03  0.17120000000E+03 0.  0.
         13    1    1    2    0    0  0.10463028238E+02  0.21330912497E+02  0.64550350553E+02  0.68784022188E+02  0.10566000000E+00 0. -1.
        994    1    1    2    0    0 -0.29528163923E+01 -0.13269873721E+02  0.49204126327E+01  0.17180936859E+03  0.17120000000E+03 0.  0.
        998    1    1    2    0    0 -0.75102118455E+01 -0.80610387764E+01  0.14305292331E+04  0.14306066092E+04  0.10000000000E+02 0. -1.
</event>
<event>
 5    1  0.9123258E-009  0.3850373E+03  0.7957747E-01  0.3429514E+00
         13   -1    0    0    0    0  0.00000000000E+00  0.00000000000E+00  0.14999999963E+04  0.15000000000E+04  0.10566000000E+00 0.  1.
        994   -1    0    0    0    0 -0.00000000000E+00 -0.00000000000E+00  0.11368683772E-12  0.17120000000E+03  0.17120000000E+03 0.  0.
         13    1    1    2    0    0  0.14201069809E+02 -0.12453717408E+02  0.10319820051E+03  0.10491255985E+03  0.10566000000E+00 0.  1.
        994    1    1    2    0    0 -0.20794210562E+02  0.81778214391E+01  0.32550810197E+01  0.17268269024E+03  0.17120000000E+03 0.  0.
        998    1    1    2    0    0  0.65931407532E+01  0.42758959693E+01  0.13935467147E+04  0.13936047499E+04  0.10000000000E+02 0.  1.
</event>
<event>
 5    1  0.9123258E-009  0.3852280E+03  0.7957747E-01  0.3428706E+00
         13   -1    0    0    0    0  0.00000000000E+00  0.00000000000E+00  0.14999999963E+04  0.15000000000E+04  0.10566000000E+00 0. -1.
        994   -1    0    0    0    0 -0.00000000000E+00 -0.00000000000E+00  0.11368683772E-12  0.17120000000E+03  0.17120000000E+03 0.  0.
         13    1    1    2    0    0  0.66534168748E-01  0.14955483708E+02  0.75100466841E+02  0.76575206193E+02  0.10566000000E+00 0. -1.
        994    1    1    2    0    0 -0.76020582075E+01 -0.75678562433E+01  0.18951900319E+01  0.17154619052E+03  0.17120000000E+03 0.  0.
        998    1    1    2    0    0  0.75355240388E+01 -0.73876274642E+01  0.14230043394E+04  0.14230786033E+04  0.10000000000E+02 0. -1.
</event>
<event>
 5    1  0.9123258E-009  0.3747618E+03  0.7957747E-01  0.3474289E+00
         13   -1    0    0    0    0  0.00000000000E+00  0.00000000000E+00  0.14999999963E+04  0.15000000000E+04  0.10566000000E+00 0.  1.
        994   -1    0    0    0    0 -0.00000000000E+00 -0.00000000000E+00  0.11368683772E-12  0.17120000000E+03  0.17120000000E+03 0.  0.
         13    1    1    2    0    0  0.33339926853E+02  0.38410554901E+02  0.17199507208E+03  0.17935784743E+03  0.10566000000E+00 0.  1.
        994    1    1    2    0    0 -0.36866751819E+02 -0.29096749324E+02  0.14342255968E+02  0.17810367351E+03  0.17120000000E+03 0.  0.
        998    1    1    2    0    0  0.35268249667E+01 -0.93138055773E+01  0.13136626682E+04  0.13137384791E+04  0.10000000000E+02 0.  1.
</event>
<event>
 5    1  0.9123258E-009  0.3756163E+03  0.7957747E-01  0.3470471E+00
         13   -1    0    0    0    0  0.00000000000E+00  0.00000000000E+00  0.14999999963E+04  0.15000000000E+04  0.10566000000E+00 0.  1.
        994   -1    0    0    0    0 -0.00000000000E+00 -0.00000000000E+00  0.11368683772E-12  0.17120000000E+03  0.17120000000E+03 0.  0.
         13    1    1    2    0    0  0.31856077394E+01  0.21024492757E+02  0.32370688763E+02  0.38730479565E+02  0.10566000000E+00 0.  1.
        994    1    1    2    0    0 -0.46136089495E+01 -0.20285203837E+02  0.78319847431E+01  0.17263706111E+03  0.17120000000E+03 0.  0.
        998    1    1    2    0    0  0.14280012101E+01 -0.73928891916E+00  0.14597973228E+04  0.14598324593E+04  0.10000000000E+02 0.  1.
</event>
<event>
 5    1  0.9123258E-009  0.3781839E+03  0.7957747E-01  0.3459105E+00
         13   -1    0    0    0    0  0.00000000000E+00  0.00000000000E+00  0.14999999963E+04  0.15000000000E+04  0.10566000000E+00 0.  1.
        994   -1    0    0    0    0 -0.00000000000E+00 -0.00000000000E+00  0.11368683772E-12  0.17120000000E+03  0.17120000000E+03 0.  0.
         13    1    1    2    0    0 -0.28018445059E+02 -0.14693145269E+02  0.10809650018E+03  0.11263119593E+03  0.10566000000E+00 0.  1.
        994    1    1    2    0    0 -0.64541436804E+01  0.80748746843E+01  0.54121938099E+01  0.17159717776E+03  0.17120000000E+03 0.  0.
        998    1    1    2    0    0  0.34472588739E+02  0.66182705845E+01  0.13864913023E+04  0.13869716263E+04  0.10000000000E+02 0.  1.
</event>
<event>
 5    1  0.9123258E-009  0.3758212E+03  0.7957747E-01  0.3469558E+00
         13   -1    0    0    0    0  0.00000000000E+00  0.00000000000E+00  0.14999999963E+04  0.15000000000E+04  0.10566000000E+00 0. -1.
        994   -1    0    0    0    0 -0.00000000000E+00 -0.00000000000E+00  0.11368683772E-12  0.17120000000E+03  0.17120000000E+03 0.  0.
         13    1    1    2    0    0 -0.46128342569E+02  0.41033116171E+02  0.34077360033E+03  0.34632094718E+03  0.10566000000E+00 0. -1.
        994    1    1    2    0    0  0.28115148845E+02 -0.12682639707E+01  0.89472725360E+01  0.17372841959E+03  0.17120000000E+03 0.  0.
        998    1    1    2    0    0  0.18013193724E+02 -0.39764852201E+02  0.11502791234E+04  0.11511506332E+04  0.10000000000E+02 0. -1.
</event>
<event>
 5    1  0.9123258E-009  0.3836665E+03  0.7957747E-01  0.3435347E+00
         13   -1    0    0    0    0  0.00000000000E+00  0.00000000000E+00  0.14999999963E+04  0.15000000000E+04  0.10566000000E+00 0.  1.
        994   -1    0    0    0    0 -0.00000000000E+00 -0.00000000000E+00  0.11368683772E-12  0.17120000000E+03  0.17120000000E+03 0.  0.
         13    1    1    2    0    0 -0.24424417031E+02 -0.31775653178E+03  0.87375702866E+03  0.93006296665E+03  0.10566000000E+00 0.  1.
        994    1    1    2    0    0  0.28678970098E+02  0.32512958627E+03  0.53932428687E+03  0.65323185593E+03  0.17120000000E+03 0.  0.
        998    1    1    2    0    0 -0.42545530664E+01 -0.73730544937E+01  0.86918680754E+02  0.87905177426E+02  0.10000000000E+02 0.  1.
</event>
<event>
 5    1  0.9123258E-009  0.4454481E+03  0.7957747E-01  0.3207839E+00
         13   -1    0    0    0    0  0.00000000000E+00  0.00000000000E+00  0.14999999963E+04  0.15000000000E+04  0.10566000000E+00 0. -1.
        994   -1    0    0    0    0 -0.00000000000E+00 -0.00000000000E+00  0.11368683772E-12  0.17120000000E+03  0.17120000000E+03 0.  0.
         13    1    1    2    0    0 -0.53695319629E+01  0.10155847470E+03  0.83179928843E+02  0.13138442595E+03  0.10566000000E+00 0. -1.
        994    1    1    2    0    0  0.36627618980E+02 -0.37980541376E+02  0.71968666743E+02  0.19306225159E+03  0.17120000000E+03 0.  0.
        998    1    1    2    0    0 -0.31258087017E+02 -0.63577933323E+02  0.13448514007E+04  0.13467533225E+04  0.10000000000E+02 0. -1.
</event>
<event>
 5    1  0.9123258E-009  0.3687321E+03  0.7957747E-01  0.3501738E+00
         13   -1    0    0    0    0  0.00000000000E+00  0.00000000000E+00  0.14999999963E+04  0.15000000000E+04  0.10566000000E+00 0. -1.
        994   -1    0    0    0    0 -0.00000000000E+00 -0.00000000000E+00  0.11368683772E-12  0.17120000000E+03  0.17120000000E+03 0.  0.
         13    1    1    2    0    0 -0.44873029605E+02 -0.26753607546E+02  0.15063911314E+03  0.15944120507E+03  0.10566000000E+00 0. -1.
        994    1    1    2    0    0  0.11987518488E+02 -0.92393270731E+01  0.10729218125E+02  0.17220227027E+03  0.17120000000E+03 0.  0.
        998    1    1    2    0    0  0.32885511117E+02  0.35992934619E+02  0.13386316650E+04  0.13395565247E+04  0.10000000000E+02 0. -1.
</event>
<event>
 5    1  0.1064354E-008  0.3840925E+03  0.7957747E-01  0.3433530E+00
         13   -1    0    0    0    0  0.00000000000E+00  0.00000000000E+00  0.14999999963E+04  0.15000000000E+04  0.10566000000E+00 0. -1.
        994   -1    0    0    0    0 -0.00000000000E+00 -0.00000000000E+00  0.11368683772E-12  0.17120000000E+03  0.17120000000E+03 0.  0.
         13    1    1    2    0    0 -0.88505534387E+01 -0.49547964686E+01  0.23734645152E+02  0.25811370532E+02  0.10566000000E+00 0. -1.
        994    1    1    2    0    0  0.94133972359E+01  0.60841613295E+01  0.24958562741E+01  0.17158466821E+03  0.17120000000E+03 0.  0.
        998    1    1    2    0    0 -0.56284379718E+00 -0.11293648609E+01  0.14737694949E+04  0.14738039613E+04  0.10000000000E+02 0. -1.
</event>
<event>
 5    1  0.9123258E-009  0.3790432E+03  0.7957747E-01  0.3455335E+00
         13   -1    0    0    0    0  0.00000000000E+00  0.00000000000E+00  0.14999999963E+04  0.15000000000E+04  0.10566000000E+00 0.  1.
        994   -1    0    0    0    0 -0.00000000000E+00 -0.00000000000E+00  0.11368683772E-12  0.17120000000E+03  0.17120000000E+03 0.  0.
         13    1    1    2    0    0  0.10599407203E+02  0.96077368528E+01  0.20144443287E+02  0.24707606114E+02  0.10566000000E+00 0.  1.
        994    1    1    2    0    0 -0.75798796677E+01 -0.86974142502E+01  0.50634109372E+01  0.17166297714E+03  0.17120000000E+03 0.  0.
        998    1    1    2    0    0 -0.30195275352E+01 -0.91032260260E+00  0.14747921421E+04  0.14748294167E+04  0.10000000000E+02 0.  1.
</event>
<event>
 5    1  0.9123258E-009  0.3853660E+03  0.7957747E-01  0.3428121E+00
         13   -1    0    0    0    0  0.00000000000E+00  0.00000000000E+00  0.14999999963E+04  0.15000000000E+04  0.10566000000E+00 0. -1.
        994   -1    0    0    0    0 -0.00000000000E+00 -0.00000000000E+00  0.11368683772E-12  0.17120000000E+03  0.17120000000E+03 0.  0.
         13    1    1    2    0    0  0.87536171158E+01  0.13964223889E+02  0.91862403004E+02  0.93329189491E+02  0.10566000000E+00 0. -1.
        994    1    1    2    0    0 -0.78602971069E+01 -0.11192566804E+02  0.20631948281E+01  0.17175783707E+03  0.17120000000E+03 0.  0.
        998    1    1    2    0    0 -0.89332000886E+00 -0.27716570845E+01  0.14060743984E+04  0.14061129734E+04  0.10000000000E+02 0. -1.
</event>
<event>
 5    1  0.9123258E-009  0.3775116E+03  0.7957747E-01  0.3462066E+00
         13   -1    0    0    0    0  0.00000000000E+00  0.00000000000E+00  0.14999999963E+04  0.15000000000E+04  0.10566000000E+00 0. -1.
        994   -1    0    0    0    0 -0.00000000000E+00 -0.00000000000E+00  0.11368683772E-12  0.17120000000E+03  0.17120000000E+03 0.  0.
         13    1    1    2    0    0  0.29544498621E+01 -0.90562515690E+02  0.51041458603E+03  0.51839498341E+03  0.10566000000E+00 0. -1.
        994    1    1    2    0    0 -0.68034291560E+01  0.87944454745E+02  0.32085993264E+02  0.19524206702E+03  0.17120000000E+03 0.  0.
        998    1    1    2    0    0  0.38489792939E+01  0.26180609455E+01  0.95749941698E+03  0.95756294958E+03  0.10000000000E+02 0. -1.
</event>
<event>
 5    1  0.9123258E-009  0.3851039E+03  0.7957747E-01  0.3429232E+00
         13   -1    0    0    0    0  0.00000000000E+00  0.00000000000E+00  0.14999999963E+04  0.15000000000E+04  0.10566000000E+00 0. -1.
        994   -1    0    0    0    0 -0.00000000000E+00 -0.00000000000E+00  0.11368683772E-12  0.17120000000E+03  0.17120000000E+03 0.  0.
         13    1    1    2    0    0  0.10693917899E+02 -0.35862642308E+01  0.36688700209E+02  0.38383499818E+02  0.10566000000E+00 0. -1.
        994    1    1    2    0    0 -0.23099124623E+02  0.14667289449E+02  0.40438404598E+01  0.17341998611E+03  0.17120000000E+03 0.  0.
        998    1    1    2    0    0  0.12405206724E+02 -0.11081025218E+02  0.14592674556E+04  0.14593965141E+04  0.10000000000E+02 0. -1.
</event>
<event>
 5    1  0.9123258E-009  0.3808110E+03  0.7957747E-01  0.3447635E+00
         13   -1    0    0    0    0  0.00000000000E+00  0.00000000000E+00  0.14999999963E+04  0.15000000000E+04  0.10566000000E+00 0.  1.
        994   -1    0    0    0    0 -0.00000000000E+00 -0.00000000000E+00  0.11368683772E-12  0.17120000000E+03  0.17120000000E+03 0.  0.
         13    1    1    2    0    0  0.16709353277E+01  0.13442028757E+02  0.22541860772E+02  0.26298798700E+02  0.10566000000E+00 0.  1.
        994    1    1    2    0    0 -0.42226450520E+01 -0.17945653443E+02  0.48582792802E+01  0.17225829468E+03  0.17120000000E+03 0.  0.
        998    1    1    2    0    0  0.25517097242E+01  0.45036246858E+01  0.14725998562E+04  0.14726429066E+04  0.10000000000E+02 0.  1.
</event>
<event>
 5    1  0.9123258E-009  0.3801067E+03  0.7957747E-01  0.3450694E+00
         13   -1    0    0    0    0  0.00000000000E+00  0.00000000000E+00  0.14999999963E+04  0.15000000000E+04  0.10566000000E+00 0. -1.
        994   -1    0    0    0    0 -0.00000000000E+00 -0.00000000000E+00  0.11368683772E-12  0.17120000000E+03  0.17120000000E+03 0.  0.
         13    1    1    2    0    0  0.29528439686E+02 -0.55490256280E+01  0.11485452971E+03  0.11871939435E+03  0.10566000000E+00 0. -1.
        994    1    1    2    0    0 -0.92068700377E+01  0.50498556262E+00  0.43634601525E+01  0.17150364792E+03  0.17120000000E+03 0.  0.
        998    1    1    2    0    0 -0.20321569649E+02  0.50440400654E+01  0.13807820064E+04  0.13809769577E+04  0.10000000000E+02 0. -1.
</event>
<event>
 5    1  0.9123258E-009  0.3853654E+03  0.7957747E-01  0.3428124E+00
         13   -1    0    0    0    0  0.00000000000E+00  0.00000000000E+00  0.14999999963E+04  0.15000000000E+04  0.10566000000E+00 0.  1.
        994   -1    0    0    0    0 -0.00000000000E+00 -0.00000000000E+00  0.11368683772E-12  0.17120000000E+03  0.17120000000E+03 0.  0.
         13    1    1    2    0    0  0.20136206664E+01  0.10649425205E+02  0.39772715300E+02  0.41223112107E+02  0.10566000000E+00 0.  1.
        994    1    1    2    0    0 -0.92345701853E+01 -0.96674054621E+01  0.20361784144E+01  0.17173328751E+03  0.17120000000E+03 0.  0.
        998    1    1    2    0    0  0.72209495189E+01 -0.98201974321E+00  0.14581911026E+04  0.14582436004E+04  0.10000000000E+02 0.  1.
</event>
<event>
 5    1  0.9123258E-009  0.3832277E+03  0.7957747E-01  0.3437224E+00
         13   -1    0    0    0    0  0.00000000000E+00  0.00000000000E+00  0.14999999963E+04  0.15000000000E+04  0.10566000000E+00 0.  1.
        994   -1    0    0    0    0 -0.00000000000E+00 -0.00000000000E+00  0.11368683772E-12  0.17120000000E+03  0.17120000000E+03 0.  0.
         13    1    1    2    0    0 -0.14080198395E+02  0.16718633167E+02  0.10333921078E+03  0.10562560452E+03  0.10566000000E+00 0.  1.
        994    1    1    2    0    0 -0.66605171964E+01 -0.56874785348E+01  0.27664086057E+01  0.17144620998E+03  0.17120000000E+03 0.  0.
        998    1    1    2    0    0  0.20740715592E+02 -0.11031154632E+02  0.13938943769E+04  0.13941281855E+04  0.10000000000E+02 0.  1.
</event>
<event>
 5    1  0.9123258E-009  0.3738619E+03  0.7957747E-01  0.3478329E+00
         13   -1    0    0    0    0  0.00000000000E+00  0.00000000000E+00  0.14999999963E+04  0.15000000000E+04  0.10566000000E+00 0.  1.
        994   -1    0    0    0    0 -0.00000000000E+00 -0.00000000000E+00  0.11368683772E-12  0.17120000000E+03  0.17120000000E+03 0.  0.
         13    1    1    2    0    0 -0.18006237950E+02  0.98835613074E+01  0.26300615491E+02  0.33371288984E+02  0.10566000000E+00 0.  1.
        994    1    1    2    0    0 -0.11920364012E+02 -0.40031532708E+02  0.13240910805E+02  0.17671836466E+03  0.17120000000E+03 0.  0.
        998    1    1    2    0    0  0.29926601962E+02  0.30147971400E+02  0.14604584700E+04  0.14611103464E+04  0.10000000000E+02 0.  1.
</event>
<event>
 5    1  0.9123258E-009  0.3990680E+03  0.7957747E-01  0.3372115E+00
         13   -1    0    0    0    0  0.00000000000E+00  0.00000000000E+00  0.14999999963E+04  0.15000000000E+04  0.10566000000E+00 0. -1.
        994   -1    0    0    0    0 -0.00000000000E+00 -0.00000000000E+00  0.11368683772E-12  0.17120000000E+03  0.17120000000E+03 0.  0.
         13    1    1    2    0    0  0.25795425390E+02 -0.27379449372E+02  0.14786434815E+02  0.40418906932E+02  0.10566000000E+00 0. -1.
        994    1    1    2    0    0 -0.21392445034E+02  0.32576908997E+02  0.33168259422E+02  0.17868538031E+03  0.17120000000E+03 0.  0.
        998    1    1    2    0    0 -0.44029803561E+01 -0.51974596251E+01  0.14520453020E+04  0.14520957128E+04  0.10000000000E+02 0. -1.
</event>
<event>
 5    1  0.9123258E-009  0.3824378E+03  0.7957747E-01  0.3440612E+00
         13   -1    0    0    0    0  0.00000000000E+00  0.00000000000E+00  0.14999999963E+04  0.15000000000E+04  0.10566000000E+00 0. -1.
        994   -1    0    0    0    0 -0.00000000000E+00 -0.00000000000E+00  0.11368683772E-12  0.17120000000E+03  0.17120000000E+03 0.  0.
         13    1    1    2    0    0 -0.28176574638E+02  0.25444007997E+02  0.22081656723E+03  0.22405643135E+03  0.10566000000E+00 0. -1.
        994    1    1    2    0    0  0.19590087203E+02 -0.29769202902E+02  0.71305296806E+01  0.17501503196E+03  0.17120000000E+03 0.  0.
        998    1    1    2    0    0  0.85864874356E+01  0.43251949052E+01  0.12720528994E+04  0.12721285367E+04  0.10000000000E+02 0. -1.
</event>
<event>
 5    1  0.9123258E-009  0.3718944E+03  0.7957747E-01  0.3487230E+00
         13   -1    0    0    0    0  0.00000000000E+00  0.00000000000E+00  0.14999999963E+04  0.15000000000E+04  0.10566000000E+00 0.  1.
        994   -1    0    0    0    0 -0.00000000000E+00 -0.00000000000E+00  0.11368683772E-12  0.17120000000E+03  0.17120000000E+03 0.  0.
         13    1    1    2    0    0 -0.70054303533E+01 -0.36044189058E+02  0.78571446622E+02  0.86727982841E+02  0.10566000000E+00 0.  1.
        994    1    1    2    0    0 -0.39643760342E+02  0.30891933139E+02  0.17009775198E+02  0.17923367909E+03  0.17120000000E+03 0.  0.
        998    1    1    2    0    0  0.46649190696E+02  0.51522559190E+01  0.14044187745E+04  0.14052383381E+04  0.10000000000E+02 0.  1.
</event>
<event>
 5    1  0.9123258E-009  0.3833988E+03  0.7957747E-01  0.3436492E+00
         13   -1    0    0    0    0  0.00000000000E+00  0.00000000000E+00  0.14999999963E+04  0.15000000000E+04  0.10566000000E+00 0.  1.
        994   -1    0    0    0    0 -0.00000000000E+00 -0.00000000000E+00  0.11368683772E-12  0.17120000000E+03  0.17120000000E+03 0.  0.
         13    1    1    2    0    0  0.34533293450E+01 -0.15628193925E+02  0.51608200631E+02  0.54033170047E+02  0.10566000000E+00 0.  1.
        994    1    1    2    0    0  0.27586180348E+01  0.13514637198E+02  0.30563994988E+01  0.17178194600E+03  0.17120000000E+03 0.  0.
        998    1    1    2    0    0 -0.62119473799E+01  0.21135567275E+01  0.14453353961E+04  0.14453848840E+04  0.10000000000E+02 0.  1.
</event>
<event>
 5    1  0.9123258E-009  0.3814204E+03  0.7957747E-01  0.3444997E+00
         13   -1    0    0    0    0  0.00000000000E+00  0.00000000000E+00  0.14999999963E+04  0.15000000000E+04  0.10566000000E+00 0.  1.
        994   -1    0    0    0    0 -0.00000000000E+00 -0.00000000000E+00  0.11368683772E-12  0.17120000000E+03  0.17120000000E+03 0.  0.
         13    1    1    2    0    0  0.46456140368E+01  0.10993356131E+03  0.43586581651E+03  0.44953975441E+03  0.10566000000E+00 0.  1.
        994    1    1    2    0    0 -0.88255191261E+01 -0.31676664117E+02  0.21058253236E+02  0.17559667100E+03  0.17120000000E+03 0.  0.
        998    1    1    2    0    0  0.41799050893E+01 -0.78256897189E+02  0.10430759265E+04  0.10460635746E+04  0.10000000000E+02 0. -1.
</event>
<event>
 5    1  0.9123258E-009  0.3833557E+03  0.7957747E-01  0.3436676E+00
         13   -1    0    0    0    0  0.00000000000E+00  0.00000000000E+00  0.14999999963E+04  0.15000000000E+04  0.10566000000E+00 0.  1.
        994   -1    0    0    0    0 -0.00000000000E+00 -0.00000000000E+00  0.11368683772E-12  0.17120000000E+03  0.17120000000E+03 0.  0.
         13    1    1    2    0    0 -0.15347744470E+02 -0.85239871598E+01  0.62319285344E+02  0.64745008358E+02  0.10566000000E+00 0.  1.
        994    1    1    2    0    0  0.10361493686E+02  0.45729387638E+01  0.28729400051E+01  0.17159826953E+03  0.17120000000E+03 0.  0.
        998    1    1    2    0    0  0.49862507831E+01  0.39510483960E+01  0.14348077709E+04  0.14348567221E+04  0.10000000000E+02 0.  1.
</event>
<event>
 5    1  0.9123258E-009  0.3822050E+03  0.7957747E-01  0.3441613E+00
         13   -1    0    0    0    0  0.00000000000E+00  0.00000000000E+00  0.14999999963E+04  0.15000000000E+04  0.10566000000E+00 0.  1.
        994   -1    0    0    0    0 -0.00000000000E+00 -0.00000000000E+00  0.11368683772E-12  0.17120000000E+03  0.17120000000E+03 0.  0.
         13    1    1    2    0    0  0.11384861745E+02  0.24217656048E+01  0.22217527448E+02  0.25082059635E+02  0.10566000000E+00 0.  1.
        994    1    1    2    0    0  0.51357966255E+01  0.82378951892E+01  0.33369945898E+01  0.17150747755E+03  0.17120000000E+03 0.  0.
        998    1    1    2    0    0 -0.16520658371E+02 -0.10659660794E+02  0.14744454742E+04  0.14746104628E+04  0.10000000000E+02 0.  1.
</event>
<event>
 5    1  0.9123258E-009  0.3766862E+03  0.7957747E-01  0.3465716E+00
         13   -1    0    0    0    0  0.00000000000E+00  0.00000000000E+00  0.14999999963E+04  0.15000000000E+04  0.10566000000E+00 0.  1.
        994   -1    0    0    0    0 -0.00000000000E+00 -0.00000000000E+00  0.11368683772E-12  0.17120000000E+03  0.17120000000E+03 0.  0.
         13    1    1    2    0    0 -0.43538232293E+02 -0.49838140721E+01  0.17825688904E+03  0.18356455466E+03  0.10566000000E+00 0.  1.
        994    1    1    2    0    0  0.10698971242E+02  0.23227779576E+01  0.62206233576E+01  0.17166245786E+03  0.17120000000E+03 0.  0.
        998    1    1    2    0    0  0.32839261051E+02  0.26610361145E+01  0.13155224839E+04  0.13159729875E+04  0.10000000000E+02 0.  1.
</event>
<event>
 5    1  0.9123258E-009  0.3763916E+03  0.7957747E-01  0.3467022E+00
         13   -1    0    0    0    0  0.00000000000E+00  0.00000000000E+00  0.14999999963E+04  0.15000000000E+04  0.10566000000E+00 0.  1.
        994   -1    0    0    0    0 -0.00000000000E+00 -0.00000000000E+00  0.11368683772E-12  0.17120000000E+03  0.17120000000E+03 0.  0.
         13    1    1    2    0    0 -0.46477480769E+02  0.23345028202E+02  0.25267415420E+03  0.25797167659E+03  0.10566000000E+00 0.  1.
        994    1    1    2    0    0  0.12308470266E+02 -0.61353385653E+01  0.66060194870E+01  0.17187850451E+03  0.17120000000E+03 0.  0.
        998    1    1    2    0    0  0.34169010502E+02 -0.17209689637E+02  0.12407198226E+04  0.12413498189E+04  0.10000000000E+02 0.  1.
</event>
<event>
 5    1  0.9123258E-009  0.3836719E+03  0.7957747E-01  0.3435325E+00
         13   -1    0    0    0    0  0.00000000000E+00  0.00000000000E+00  0.14999999963E+04  0.15000000000E+04  0.10566000000E+00 0. -1.
        994   -1    0    0    0    0 -0.00000000000E+00 -0.00000000000E+00  0.11368683772E-12  0.17120000000E+03  0.17120000000E+03 0.  0.
         13    1    1    2    0    0 -0.19616057882E+02 -0.74791458991E+01  0.97305213669E+02  0.99544176733E+02  0.10566000000E+00 0. -1.
        994    1    1    2    0    0  0.78599624830E+01  0.91799820255E+01  0.27734977455E+01  0.17164842956E+03  0.17120000000E+03 0.  0.
        998    1    1    2    0    0  0.11756095399E+02 -0.17008361263E+01  0.13999212849E+04  0.14000073937E+04  0.10000000000E+02 0. -1.
</event>
<event>
 5    1  0.9123258E-009  0.3852952E+03  0.7957747E-01  0.3428421E+00
         13   -1    0    0    0    0  0.00000000000E+00  0.00000000000E+00  0.14999999963E+04  0.15000000000E+04  0.10566000000E+00 0.  1.
        994   -1    0    0    0    0 -0.00000000000E+00 -0.00000000000E+00  0.11368683772E-12  0.17120000000E+03  0.17120000000E+03 0.  0.
         13    1    1    2    0    0  0.14174227112E+02 -0.64889881874E+01  0.68001862468E+02  0.69765895286E+02  0.10566000000E+00 0.  1.
        994    1    1    2    0    0 -0.31137644192E+02  0.26164433258E+02  0.69372594587E+01  0.17610137996E+03  0.17120000000E+03 0.  0.
        998    1    1    2    0    0  0.16963417081E+02 -0.19675445070E+02  0.14250608744E+04  0.14253327248E+04  0.10000000000E+02 0.  1.
</event>
<event>
 5    1  0.9123258E-009  0.3840530E+03  0.7957747E-01  0.3433699E+00
         13   -1    0    0    0    0  0.00000000000E+00  0.00000000000E+00  0.14999999963E+04  0.15000000000E+04  0.10566000000E+00 0.  1.
        994   -1    0    0    0    0 -0.00000000000E+00 -0.00000000000E+00  0.11368683772E-12  0.17120000000E+03  0.17120000000E+03 0.  0.
         13    1    1    2    0    0  0.31722869128E+02 -0.23080041852E+02  0.22909771842E+03  0.23243236545E+03  0.10566000000E+00 0.  1.
        994    1    1    2    0    0 -0.81171087498E+02  0.12457281201E+02  0.24674329929E+02  0.19147373673E+03  0.17120000000E+03 0.  0.
        998    1    1    2    0    0  0.49448218370E+02  0.10622760651E+02  0.12462279479E+04  0.12472938978E+04  0.10000000000E+02 0.  1.
</event>
<event>
 5    1  0.9123258E-009  0.3759461E+03  0.7957747E-01  0.3469002E+00
         13   -1    0    0    0    0  0.00000000000E+00  0.00000000000E+00  0.14999999963E+04  0.15000000000E+04  0.10566000000E+00 0. -1.
        994   -1    0    0    0    0 -0.00000000000E+00 -0.00000000000E+00  0.11368683772E-12  0.17120000000E+03  0.17120000000E+03 0.  0.
         13    1    1    2    0    0  0.15290234741E+02  0.88435876351E+01  0.22417597130E+02  0.28540500097E+02  0.10566000000E+00 0. -1.
        994    1    1    2    0    0 -0.13469338157E+02 -0.65869047967E+01  0.69557836607E+01  0.17199602702E+03  0.17120000000E+03 0.  0.
        998    1    1    2    0    0 -0.18208965844E+01 -0.22566828384E+01  0.14706266155E+04  0.14706634729E+04  0.10000000000E+02 0. -1.
</event>
<event>
 5    1  0.9123258E-009  0.3728777E+03  0.7957747E-01  0.3482769E+00
         13   -1    0    0    0    0  0.00000000000E+00  0.00000000000E+00  0.14999999963E+04  0.15000000000E+04  0.10566000000E+00 0. -1.
        994   -1    0    0    0    0 -0.00000000000E+00 -0.00000000000E+00  0.11368683772E-12  0.17120000000E+03  0.17120000000E+03 0.  0.
         13    1    1    2    0    0 -0.13783189014E+02  0.17643543815E+02  0.27978550459E+02  0.35834081369E+02  0.10566000000E+00 0. -1.
        994    1    1    2    0    0  0.22993890995E+02 -0.19838598700E+02  0.10936794899E+02  0.17421636692E+03  0.17120000000E+03 0.  0.
        998    1    1    2    0    0 -0.92107019816E+01  0.21950548844E+01  0.14610846509E+04  0.14611495517E+04  0.10000000000E+02 0. -1.
</event>
<event>
 5    1  0.9123258E-009  0.3863211E+03  0.7957747E-01  0.3424088E+00
         13   -1    0    0    0    0  0.00000000000E+00  0.00000000000E+00  0.14999999963E+04  0.15000000000E+04  0.10566000000E+00 0. -1.
        994   -1    0    0    0    0 -0.00000000000E+00 -0.00000000000E+00  0.11368683772E-12  0.17120000000E+03  0.17120000000E+03 0.  0.
         13    1    1    2    0    0 -0.12803856439E+01 -0.10888331944E+02  0.61264527323E+02  0.62237839230E+02  0.10566000000E+00 0. -1.
        994    1    1    2    0    0 -0.22321824066E+01  0.10626472147E+02  0.13618162209E+01  0.17154940715E+03  0.17120000000E+03 0.  0.
        998    1    1    2    0    0  0.35125680505E+01  0.26185979773E+00  0.14373736527E+04  0.14374127536E+04  0.10000000000E+02 0. -1.
</event>
<event>
 5    1  0.9123258E-009  0.2383445E+03  0.7957747E-01  0.4466182E+00
         13   -1    0    0    0    0  0.00000000000E+00  0.00000000000E+00  0.14999999963E+04  0.15000000000E+04  0.10566000000E+00 0.  1.
        994   -1    0    0    0    0 -0.00000000000E+00 -0.00000000000E+00  0.11368683772E-12  0.17120000000E+03  0.17120000000E+03 0.  0.
         13    1    1    2    0    0  0.15040153668E+03 -0.35796493787E+02  0.14957890251E+03  0.21511827083E+03  0.10566000000E+00 0.  1.
        994    1    1    2    0    0 -0.16340161117E+03  0.90672429390E+02  0.25623942471E+03  0.36040207929E+03  0.17120000000E+03 0.  0.
        998    1    1    2    0    0  0.13000074490E+02 -0.54875935603E+02  0.10941816691E+04  0.10956796499E+04  0.10000000000E+02 0.  1.
</event>
<event>
 5    1  0.9123258E-009  0.3840244E+03  0.7957747E-01  0.3433820E+00
         13   -1    0    0    0    0  0.00000000000E+00  0.00000000000E+00  0.14999999963E+04  0.15000000000E+04  0.10566000000E+00 0.  1.
        994   -1    0    0    0    0 -0.00000000000E+00 -0.00000000000E+00  0.11368683772E-12  0.17120000000E+03  0.17120000000E+03 0.  0.
         13    1    1    2    0    0 -0.12088085902E+02  0.29096846399E+01  0.39540931981E+02  0.41449783491E+02  0.10566000000E+00 0.  1.
        994    1    1    2    0    0 -0.17433758278E+02 -0.21262039573E+02  0.46134002205E+01  0.17345527872E+03  0.17120000000E+03 0.  0.
        998    1    1    2    0    0  0.29521844181E+02  0.18352354933E+02  0.14558456641E+04  0.14562949378E+04  0.10000000000E+02 0.  1.
</event>
<event>
 5    1  0.9123258E-009  0.3814712E+03  0.7957747E-01  0.3444777E+00
         13   -1    0    0    0    0  0.00000000000E+00  0.00000000000E+00  0.14999999963E+04  0.15000000000E+04  0.10566000000E+00 0.  1.
        994   -1    0    0    0    0 -0.00000000000E+00 -0.00000000000E+00  0.11368683772E-12  0.17120000000E+03  0.17120000000E+03 0.  0.
         13    1    1    2    0    0 -0.21918796645E+02 -0.24191537712E+01  0.67709714065E+02  0.71210269583E+02  0.10566000000E+00 0.  1.
        994    1    1    2    0    0  0.22949001895E+02 -0.22967682810E+00  0.51465062959E+01  0.17280808999E+03  0.17120000000E+03 0.  0.
        998    1    1    2    0    0 -0.10302052501E+01  0.26488305993E+01  0.14271437759E+04  0.14271816404E+04  0.10000000000E+02 0.  1.
</event>
<event>
 5    1  0.9123258E-009  0.3807370E+03  0.7957747E-01  0.3447956E+00
         13   -1    0    0    0    0  0.00000000000E+00  0.00000000000E+00  0.14999999963E+04  0.15000000000E+04  0.10566000000E+00 0. -1.
        994   -1    0    0    0    0 -0.00000000000E+00 -0.00000000000E+00  0.11368683772E-12  0.17120000000E+03  0.17120000000E+03 0.  0.
         13    1    1    2    0    0 -0.24276974531E+02 -0.59062694435E+01  0.76677287608E+02  0.80645353928E+02  0.10566000000E+00 0. -1.
        994    1    1    2    0    0  0.24165459273E+02  0.24401160279E+02  0.77045913165E+01  0.17478039585E+03  0.17120000000E+03 0.  0.
        998    1    1    2    0    0  0.11151525713E+00 -0.18494890836E+02  0.14156181174E+04  0.14157742502E+04  0.10000000000E+02 0. -1.
</event>
<event>
 5    1  0.9123258E-009  0.3708511E+03  0.7957747E-01  0.3491989E+00
         13   -1    0    0    0    0  0.00000000000E+00  0.00000000000E+00  0.14999999963E+04  0.15000000000E+04  0.10566000000E+00 0.  1.
        994   -1    0    0    0    0 -0.00000000000E+00 -0.00000000000E+00  0.11368683772E-12  0.17120000000E+03  0.17120000000E+03 0.  0.
         13    1    1    2    0    0 -0.89190547629E+02 -0.11095068024E+02  0.50982419074E+03  0.51768597716E+03  0.10566000000E+00 0.  1.
        994    1    1    2    0    0  0.10556441139E+02  0.78868303652E+01  0.11998613932E+02  0.17212509195E+03  0.17120000000E+03 0.  0.
        998    1    1    2    0    0  0.78634106489E+02  0.32082376592E+01  0.97817719161E+03  0.98138893089E+03  0.10000000000E+02 0.  1.
</event>
<event>
 5    1  0.9123258E-009  0.3830307E+03  0.7957747E-01  0.3438067E+00
         13   -1    0    0    0    0  0.00000000000E+00  0.00000000000E+00  0.14999999963E+04  0.15000000000E+04  0.10566000000E+00 0.  1.
        994   -1    0    0    0    0 -0.00000000000E+00 -0.00000000000E+00  0.11368683772E-12  0.17120000000E+03  0.17120000000E+03 0.  0.
         13    1    1    2    0    0 -0.83503549344E+01  0.24833907413E+02  0.14116150252E+03  0.14357239408E+03  0.10566000000E+00 0.  1.
        994    1    1    2    0    0 -0.14205328670E+02 -0.11308588345E+02  0.37029276748E+01  0.17219996285E+03  0.17120000000E+03 0.  0.
        998    1    1    2    0    0  0.22555683605E+02 -0.13525319068E+02  0.13551355661E+04  0.13554276431E+04  0.10000000000E+02 0.  1.
</event>
<event>
 5    1  0.9123258E-009  0.3833255E+03  0.7957747E-01  0.3436805E+00
         13   -1    0    0    0    0  0.00000000000E+00  0.00000000000E+00  0.14999999963E+04  0.15000000000E+04  0.10566000000E+00 0.  1.
        994   -1    0    0    0    0 -0.00000000000E+00 -0.00000000000E+00  0.11368683772E-12  0.17120000000E+03  0.17120000000E+03 0.  0.
         13    1    1    2    0    0  0.87662433080E+01  0.90702408163E+01  0.33840009682E+02  0.36114729813E+02  0.10566000000E+00 0.  1.
        994    1    1    2    0    0  0.37668079724E+01  0.96678778879E+01  0.28198201681E+01  0.17153730816E+03  0.17120000000E+03 0.  0.
        998    1    1    2    0    0 -0.12533051280E+02 -0.18738118704E+02  0.14633401664E+04  0.14635479620E+04  0.10000000000E+02 0.  1.
</event>
<event>
 5    1  0.9123258E-009  0.3716411E+03  0.7957747E-01  0.3488383E+00
         13   -1    0    0    0    0  0.00000000000E+00  0.00000000000E+00  0.14999999963E+04  0.15000000000E+04  0.10566000000E+00 0. -1.
        994   -1    0    0    0    0 -0.00000000000E+00 -0.00000000000E+00  0.11368683772E-12  0.17120000000E+03  0.17120000000E+03 0.  0.
         13    1    1    2    0    0 -0.39705437332E+02  0.69752521011E+02  0.35746214804E+03  0.36636202639E+03  0.10566000000E+00 0. -1.
        994    1    1    2    0    0  0.30180525794E+02 -0.45166076841E+02  0.18628506722E+02  0.18057491492E+03  0.17120000000E+03 0.  0.
        998    1    1    2    0    0  0.95249115389E+01 -0.24586444169E+02  0.11239093415E+04  0.11242630587E+04  0.10000000000E+02 0. -1.
</event>
<event>
 5    1  0.9123258E-009  0.3793843E+03  0.7957747E-01  0.3453844E+00
         13   -1    0    0    0    0  0.00000000000E+00  0.00000000000E+00  0.14999999963E+04  0.15000000000E+04  0.10566000000E+00 0. -1.
        994   -1    0    0    0    0 -0.00000000000E+00 -0.00000000000E+00  0.11368683772E-12  0.17120000000E+03  0.17120000000E+03 0.  0.
         13    1    1    2    0    0 -0.18175462993E+02  0.25206000398E+02  0.10260350253E+03  0.10720624891E+03  0.10566000000E+00 0. -1.
        994    1    1    2    0    0  0.14191619879E+02 -0.23489607311E+02  0.69712660183E+01  0.17352579715E+03  0.17120000000E+03 0.  0.
        998    1    1    2    0    0  0.39838431138E+01 -0.17163930868E+01  0.13904252277E+04  0.13904679539E+04  0.10000000000E+02 0. -1.
</event>
<event>
 5    1  0.9123258E-009  0.3859906E+03  0.7957747E-01  0.3425482E+00
         13   -1    0    0    0    0  0.00000000000E+00  0.00000000000E+00  0.14999999963E+04  0.15000000000E+04  0.10566000000E+00 0. -1.
        994   -1    0    0    0    0 -0.00000000000E+00 -0.00000000000E+00  0.11368683772E-12  0.17120000000E+03  0.17120000000E+03 0.  0.
         13    1    1    2    0    0 -0.54586663373E+01 -0.11318624408E+02  0.70542863988E+02  0.71653437603E+02  0.10566000000E+00 0. -1.
        994    1    1    2    0    0  0.81974700054E+01  0.44747385683E+01  0.14250778437E+01  0.17146046963E+03  0.17120000000E+03 0.  0.
        998    1    1    2    0    0 -0.27388036681E+01  0.68438858400E+01  0.14280320544E+04  0.14280860928E+04  0.10000000000E+02 0. -1.
</event>
<event>
 5    1  0.9123258E-009  0.3773622E+03  0.7957747E-01  0.3462725E+00
         13   -1    0    0    0    0  0.00000000000E+00  0.00000000000E+00  0.14999999963E+04  0.15000000000E+04  0.10566000000E+00 0. -1.
        994   -1    0    0    0    0 -0.00000000000E+00 -0.00000000000E+00  0.11368683772E-12  0.17120000000E+03  0.17120000000E+03 0.  0.
         13    1    1    2    0    0  0.16181159066E+02 -0.80017376387E+01  0.28039583212E+02  0.33347970024E+02  0.10566000000E+00 0. -1.
        994    1    1    2    0    0 -0.61834676843E+01  0.35011448972E+00  0.56000191560E+01  0.17140349491E+03  0.17120000000E+03 0.  0.
        998    1    1    2    0    0 -0.99976913813E+01  0.76516231490E+01  0.14663603939E+04  0.14664485351E+04  0.10000000000E+02 0. -1.
</event>
<event>
 5    1  0.9123258E-009  0.3821970E+03  0.7957747E-01  0.3441648E+00
         13   -1    0    0    0    0  0.00000000000E+00  0.00000000000E+00  0.14999999963E+04  0.15000000000E+04  0.10566000000E+00 0. -1.
        994   -1    0    0    0    0 -0.00000000000E+00 -0.00000000000E+00  0.11368683772E-12  0.17120000000E+03  0.17120000000E+03 0.  0.
         13    1    1    2    0    0  0.13739607281E+02  0.19368391896E+02  0.83437854153E+02  0.86751357814E+02  0.10566000000E+00 0. -1.
        994    1    1    2    0    0 -0.16690708519E+02 -0.29152818856E+02  0.67824214421E+01  0.17459641416E+03  0.17120000000E+03 0.  0.
        998    1    1    2    0    0  0.29511012375E+01  0.97844269603E+01  0.14097797207E+04  0.14098522280E+04  0.10000000000E+02 0. -1.
</event>
<event>
 5    1  0.9123258E-009  0.3780462E+03  0.7957747E-01  0.3459710E+00
         13   -1    0    0    0    0  0.00000000000E+00  0.00000000000E+00  0.14999999963E+04  0.15000000000E+04  0.10566000000E+00 0. -1.
        994   -1    0    0    0    0 -0.00000000000E+00 -0.00000000000E+00  0.11368683772E-12  0.17120000000E+03  0.17120000000E+03 0.  0.
         13    1    1    2    0    0 -0.25757613891E+01 -0.13113910664E+02  0.15250727864E+02  0.20278191834E+02  0.10566000000E+00 0. -1.
        994    1    1    2    0    0 -0.51865338065E+01  0.94551998695E+01  0.55140803922E+01  0.17162792902E+03  0.17120000000E+03 0.  0.
        998    1    1    2    0    0  0.77622951956E+01  0.36587107947E+01  0.14792351880E+04  0.14792938791E+04  0.10000000000E+02 0. -1.
</event>
<event>
 5    1  0.9123258E-009  0.3820055E+03  0.7957747E-01  0.3442472E+00
         13   -1    0    0    0    0  0.00000000000E+00  0.00000000000E+00  0.14999999963E+04  0.15000000000E+04  0.10566000000E+00 0.  1.
        994   -1    0    0    0    0 -0.00000000000E+00 -0.00000000000E+00  0.11368683772E-12  0.17120000000E+03  0.17120000000E+03 0.  0.
         13    1    1    2    0    0 -0.14383572527E+02 -0.29203720086E+02  0.18868696218E+03  0.19147460742E+03  0.10566000000E+00 0.  1.
        994    1    1    2    0    0  0.59545538614E+01  0.32107133203E+01  0.32761771454E+01  0.17136492853E+03  0.17120000000E+03 0.  0.
        998    1    1    2    0    0  0.84290186651E+01  0.25993006766E+02  0.13080368570E+04  0.13083604641E+04  0.10000000000E+02 0.  1.
</event>
<event>
 5    1  0.9123258E-009  0.3842508E+03  0.7957747E-01  0.3432856E+00
         13   -1    0    0    0    0  0.00000000000E+00  0.00000000000E+00  0.14999999963E+04  0.15000000000E+04  0.10566000000E+00 0.  1.
        994   -1    0    0    0    0 -0.00000000000E+00 -0.00000000000E+00  0.11368683772E-12  0.17120000000E+03  0.17120000000E+03 0.  0.
         13    1    1    2    0    0  0.82343480553E+01  0.14032054914E+02  0.68016333150E+02  0.69935225689E+02  0.10566000000E+00 0.  1.
        994    1    1    2    0    0 -0.89210492205E+01 -0.52444365850E+00  0.22658820427E+01  0.17144805155E+03  0.17120000000E+03 0.  0.
        998    1    1    2    0    0  0.68670116518E+00 -0.13507611256E+02  0.14297177811E+04  0.14298167228E+04  0.10000000000E+02 0.  1.
</event>
<event>
 5    1  0.9123258E-009  0.3791758E+03  0.7957747E-01  0.3454755E+00
         13   -1    0    0    0    0  0.00000000000E+00  0.00000000000E+00  0.14999999963E+04  0.15000000000E+04  0.10566000000E+00 0.  1.
        994   -1    0    0    0    0 -0.00000000000E+00 -0.00000000000E+00  0.11368683772E-12  0.17120000000E+03  0.17120000000E+03 0.  0.
         13    1    1    2    0    0  0.24572597463E+02  0.57154087237E+01  0.71211506163E+02  0.75548449468E+02  0.10566000000E+00 0.  1.
        994    1    1    2    0    0 -0.44017087138E+01 -0.76844844640E+01  0.48127035240E+01  0.17149643861E+03  0.17120000000E+03 0.  0.
        998    1    1    2    0    0 -0.20170888749E+02  0.19690757402E+01  0.14239757866E+04  0.14241551119E+04  0.10000000000E+02 0.  1.
</event>
<event>
 5    1  0.9123258E-009  0.3792459E+03  0.7957747E-01  0.3454448E+00
         13   -1    0    0    0    0  0.00000000000E+00  0.00000000000E+00  0.14999999963E+04  0.15000000000E+04  0.10566000000E+00 0.  1.
        994   -1    0    0    0    0 -0.00000000000E+00 -0.00000000000E+00  0.11368683772E-12  0.17120000000E+03  0.17120000000E+03 0.  0.
         13    1    1    2    0    0 -0.41273477436E+02  0.57051558551E+01  0.17814462998E+03  0.18295236839E+03  0.10566000000E+00 0.  1.
        994    1    1    2    0    0  0.35022442384E+02  0.89334769409E+00  0.86384960384E+01  0.17496123329E+03  0.17120000000E+03 0.  0.
        998    1    1    2    0    0  0.62510350522E+01 -0.65985035492E+01  0.13132168703E+04  0.13132863983E+04  0.10000000000E+02 0.  1.
</event>
<event>
 5    1  0.1253350E-008  0.3858706E+03  0.7957747E-01  0.3425988E+00
         13   -1    0    0    0    0  0.00000000000E+00  0.00000000000E+00  0.14999999963E+04  0.15000000000E+04  0.10566000000E+00 0. -1.
        994   -1    0    0    0    0 -0.00000000000E+00 -0.00000000000E+00  0.11368683772E-12  0.17120000000E+03  0.17120000000E+03 0.  0.
         13    1    1    2    0    0  0.12565638641E+02  0.22299233046E+01  0.65626674637E+02  0.66856109820E+02  0.10566000000E+00 0. -1.
        994    1    1    2    0    0 -0.13976010420E+02 -0.45449621349E+01  0.19071250716E+01  0.17184022426E+03  0.17120000000E+03 0.  0.
        998    1    1    2    0    0  0.14103717783E+01  0.23150388303E+01  0.14324661966E+04  0.14325036659E+04  0.10000000000E+02 0. -1.
</event>
<event>
 5    1  0.9123258E-009  0.3813842E+03  0.7957747E-01  0.3445154E+00
         13   -1    0    0    0    0  0.00000000000E+00  0.00000000000E+00  0.14999999963E+04  0.15000000000E+04  0.10566000000E+00 0. -1.
        994   -1    0    0    0    0 -0.00000000000E+00 -0.00000000000E+00  0.11368683772E-12  0.17120000000E+03  0.17120000000E+03 0.  0.
         13    1    1    2    0    0 -0.23348707524E+02  0.15033615113E+02  0.13035554039E+03  0.13328071804E+03  0.10566000000E+00 0. -1.
        994    1    1    2    0    0 -0.85483071519E+01  0.87672787201E+00  0.36818254377E+01  0.17145506130E+03  0.17120000000E+03 0.  0.
        998    1    1    2    0    0  0.31897014676E+02 -0.15910342985E+02  0.13659626304E+04  0.13664642207E+04  0.10000000000E+02 0. -1.
</event>
<event>
 5    1  0.9123258E-009  0.3834107E+03  0.7957747E-01  0.3436441E+00
         13   -1    0    0    0    0  0.00000000000E+00  0.00000000000E+00  0.14999999963E+04  0.15000000000E+04  0.10566000000E+00 0.  1.
        994   -1    0    0    0    0 -0.00000000000E+00 -0.00000000000E+00  0.11368683772E-12  0.17120000000E+03  0.17120000000E+03 0.  0.
         13    1    1    2    0    0  0.13826726365E+02  0.59813383718E+01  0.45193309346E+02  0.47638231961E+02  0.10566000000E+00 0.  1.
        994    1    1    2    0    0 -0.14327404144E+02 -0.44144270608E+01  0.31646053256E+01  0.17188431110E+03  0.17120000000E+03 0.  0.
        998    1    1    2    0    0  0.50067777898E+00 -0.15669113111E+01  0.14516420816E+04  0.14516774569E+04  0.10000000000E+02 0.  1.
</event>
<event>
 5    1  0.9123258E-009  0.3841859E+03  0.7957747E-01  0.3433132E+00
         13   -1    0    0    0    0  0.00000000000E+00  0.00000000000E+00  0.14999999963E+04  0.15000000000E+04  0.10566000000E+00 0.  1.
        994   -1    0    0    0    0 -0.00000000000E+00 -0.00000000000E+00  0.11368683772E-12  0.17120000000E+03  0.17120000000E+03 0.  0.
         13    1    1    2    0    0  0.18916722407E+01 -0.98333796144E+01  0.23714555585E+02  0.25742282128E+02  0.10566000000E+00 0.  1.
        994    1    1    2    0    0 -0.55209715300E+01  0.98920016462E+01  0.24581194076E+01  0.17159200207E+03  0.17120000000E+03 0.  0.
        998    1    1    2    0    0  0.36292992893E+01 -0.58622031791E-01  0.14738273213E+04  0.14738657158E+04  0.10000000000E+02 0.  1.
</event>
<event>
 5    1  0.9123258E-009  0.3762374E+03  0.7957747E-01  0.3467707E+00
         13   -1    0    0    0    0  0.00000000000E+00  0.00000000000E+00  0.14999999963E+04  0.15000000000E+04  0.10566000000E+00 0.  1.
        994   -1    0    0    0    0 -0.00000000000E+00 -0.00000000000E+00  0.11368683772E-12  0.17120000000E+03  0.17120000000E+03 0.  0.
         13    1    1    2    0    0  0.91065122193E+02 -0.60721795993E+02  0.53688562299E+03  0.54792898839E+03  0.10566000000E+00 0.  1.
        994    1    1    2    0    0 -0.67600909411E+02  0.16176834350E+03  0.11840031879E+03  0.27215244882E+03  0.17120000000E+03 0.  0.
        998    1    1    2    0    0 -0.23464212782E+02 -0.10104654750E+03  0.84471405450E+03  0.85111856278E+03  0.10000000000E+02 0.  1.
</event>
<event>
 5    1  0.9123258E-009  0.3844581E+03  0.7957747E-01  0.3431974E+00
         13   -1    0    0    0    0  0.00000000000E+00  0.00000000000E+00  0.14999999963E+04  0.15000000000E+04  0.10566000000E+00 0. -1.
        994   -1    0    0    0    0 -0.00000000000E+00 -0.00000000000E+00  0.11368683772E-12  0.17120000000E+03  0.17120000000E+03 0.  0.
         13    1    1    2    0    0 -0.50123279154E+01  0.18096979569E+02  0.91585332350E+02  0.93490685987E+02  0.10566000000E+00 0. -1.
        994    1    1    2    0    0  0.34941076420E+01 -0.13072451001E+02  0.25028646182E+01  0.17175215310E+03  0.17120000000E+03 0.  0.
        998    1    1    2    0    0  0.15182202734E+01 -0.50245285672E+01  0.14059117993E+04  0.14059571609E+04  0.10000000000E+02 0. -1.
</event>
<event>
 5    1  0.9123258E-009  0.2759653E+03  0.7957747E-01  0.4084105E+00
         13   -1    0    0    0    0  0.00000000000E+00  0.00000000000E+00  0.14999999963E+04  0.15000000000E+04  0.10566000000E+00 0. -1.
        994   -1    0    0    0    0 -0.00000000000E+00 -0.00000000000E+00  0.11368683772E-12  0.17120000000E+03  0.17120000000E+03 0.  0.
         13    1    1    2    0    0  0.17005864491E+03 -0.59540288812E+02  0.45625727553E+03  0.49054632946E+03  0.10566000000E+00 0. -1.
        994    1    1    2    0    0 -0.17124485224E+03  0.77981484552E+02  0.16844772280E+03  0.30510651692E+03  0.17120000000E+03 0.  0.
        998    1    1    2    0    0  0.11862073226E+01 -0.18441195740E+02  0.87529499795E+03  0.87554715363E+03  0.10000000000E+02 0. -1.
</event>
<event>
 5    1  0.9123258E-009  0.3803689E+03  0.7957747E-01  0.3449554E+00
         13   -1    0    0    0    0  0.00000000000E+00  0.00000000000E+00  0.14999999963E+04  0.15000000000E+04  0.10566000000E+00 0. -1.
        994   -1    0    0    0    0 -0.00000000000E+00 -0.00000000000E+00  0.11368683772E-12  0.17120000000E+03  0.17120000000E+03 0.  0.
         13    1    1    2    0    0  0.10946905029E+02  0.23520568318E+02  0.81356464192E+02  0.85392840997E+02  0.10566000000E+00 0. -1.
        994    1    1    2    0    0 -0.98886535158E+01 -0.20280625648E+02  0.56486580773E+01  0.17277278890E+03  0.17120000000E+03 0.  0.
        998    1    1    2    0    0 -0.10582515131E+01 -0.32399426695E+01  0.14129948740E+04  0.14130343701E+04  0.10000000000E+02 0. -1.
</event>
<event>
 5    1  0.9123258E-009  0.3702906E+03  0.7957747E-01  0.3494556E+00
         13   -1    0    0    0    0  0.00000000000E+00  0.00000000000E+00  0.14999999963E+04  0.15000000000E+04  0.10566000000E+00 0. -1.
        994   -1    0    0    0    0 -0.00000000000E+00 -0.00000000000E+00  0.11368683772E-12  0.17120000000E+03  0.17120000000E+03 0.  0.
         13    1    1    2    0    0  0.56052350405E+02 -0.23691834047E+02  0.27632185994E+03  0.28294336965E+03  0.10566000000E+00 0. -1.
        994    1    1    2    0    0  0.11828289434E+02 -0.67613212109E+01  0.97586571121E+01  0.17201829927E+03  0.17120000000E+03 0.  0.
        998    1    1    2    0    0 -0.67880639839E+02  0.30453155258E+02  0.12139194792E+04  0.12162383311E+04  0.10000000000E+02 0. -1.
</event>
<event>
 5    1  0.9123258E-009  0.3754113E+03  0.7957747E-01  0.3471385E+00
         13   -1    0    0    0    0  0.00000000000E+00  0.00000000000E+00  0.14999999963E+04  0.15000000000E+04  0.10566000000E+00 0.  1.
        994   -1    0    0    0    0 -0.00000000000E+00 -0.00000000000E+00  0.11368683772E-12  0.17120000000E+03  0.17120000000E+03 0.  0.
         13    1    1    2    0    0  0.29404814715E+02 -0.32554885742E+02  0.14326489101E+03  0.14983091762E+03  0.10566000000E+00 0.  1.
        994    1    1    2    0    0 -0.50631806833E+02 -0.31253883065E+01  0.15253425950E+02  0.17920785395E+03  0.17120000000E+03 0.  0.
        998    1    1    2    0    0  0.21226992118E+02  0.35680274048E+02  0.13414816793E+04  0.13421612284E+04  0.10000000000E+02 0.  1.
</event>
<event>
 5    1  0.9123258E-009  0.2208436E+03  0.7957747E-01  0.4697283E+00
         13   -1    0    0    0    0  0.00000000000E+00  0.00000000000E+00  0.14999999963E+04  0.15000000000E+04  0.10566000000E+00 0.  1.
        994   -1    0    0    0    0 -0.00000000000E+00 -0.00000000000E+00  0.11368683772E-12  0.17120000000E+03  0.17120000000E+03 0.  0.
         13    1    1    2    0    0 -0.55306265608E+02  0.65438145078E+02  0.18239740632E+02  0.87599275962E+02  0.10566000000E+00 0.  1.
        994    1    1    2    0    0  0.11055104396E+02 -0.63920652092E+02  0.11524244206E+03  0.21632920642E+03  0.17120000000E+03 0.  0.
        998    1    1    2    0    0  0.44251161212E+02 -0.15174929863E+01  0.13665178136E+04  0.13672715176E+04  0.10000000000E+02 0.  1.
</event>
<event>
 5    1  0.9123258E-009  0.3776454E+03  0.7957747E-01  0.3461475E+00
         13   -1    0    0    0    0  0.00000000000E+00  0.00000000000E+00  0.14999999963E+04  0.15000000000E+04  0.10566000000E+00 0.  1.
        994   -1    0    0    0    0 -0.00000000000E+00 -0.00000000000E+00  0.11368683772E-12  0.17120000000E+03  0.17120000000E+03 0.  0.
         13    1    1    2    0    0 -0.76295854784E+01 -0.81897737989E+01 -0.28555228053E+01  0.11551975761E+02  0.10566000000E+00 0.  1.
        994    1    1    2    0    0  0.98628237753E+01  0.84573479626E+01  0.15646578085E+02  0.17240376282E+03  0.17120000000E+03 0.  0.
        998    1    1    2    0    0 -0.22332382970E+01 -0.26757416367E+00  0.14872089410E+04  0.14872442614E+04  0.10000000000E+02 0.  1.
</event>
<event>
 5    1  0.9123258E-009  0.3782784E+03  0.7957747E-01  0.3458689E+00
         13   -1    0    0    0    0  0.00000000000E+00  0.00000000000E+00  0.14999999963E+04  0.15000000000E+04  0.10566000000E+00 0.  1.
        994   -1    0    0    0    0 -0.00000000000E+00 -0.00000000000E+00  0.11368683772E-12  0.17120000000E+03  0.17120000000E+03 0.  0.
         13    1    1    2    0    0  0.21260041829E+02  0.91808745184E+02  0.25063881990E+03  0.26776979717E+03  0.10566000000E+00 0.  1.
        994    1    1    2    0    0 -0.75581453023E+01 -0.82703574257E+02  0.40659917591E+02  0.19457562965E+03  0.17120000000E+03 0.  0.
        998    1    1    2    0    0 -0.13701896526E+02 -0.91051709271E+01  0.12087012588E+04  0.12088545732E+04  0.10000000000E+02 0.  1.
</event>
<event>
 5    1  0.9123258E-009  0.3816625E+03  0.7957747E-01  0.3443952E+00
         13   -1    0    0    0    0  0.00000000000E+00  0.00000000000E+00  0.14999999963E+04  0.15000000000E+04  0.10566000000E+00 0. -1.
        994   -1    0    0    0    0 -0.00000000000E+00 -0.00000000000E+00  0.11368683772E-12  0.17120000000E+03  0.17120000000E+03 0.  0.
         13    1    1    2    0    0 -0.18497273541E+02 -0.23759922117E+02  0.12581912982E+03  0.12937212845E+03  0.10566000000E+00 0. -1.
        994    1    1    2    0    0  0.20785941166E+02  0.22946020969E+02  0.64897629589E+01  0.17409805356E+03  0.17120000000E+03 0.  0.
        998    1    1    2    0    0 -0.22886676248E+01  0.81390114771E+00  0.13676911035E+04  0.13677298180E+04  0.10000000000E+02 0. -1.
</event>
<event>
 5    1  0.9123258E-009  0.3837503E+03  0.7957747E-01  0.3434990E+00
         13   -1    0    0    0    0  0.00000000000E+00  0.00000000000E+00  0.14999999963E+04  0.15000000000E+04  0.10566000000E+00 0. -1.
        994   -1    0    0    0    0 -0.00000000000E+00 -0.00000000000E+00  0.11368683772E-12  0.17120000000E+03  0.17120000000E+03 0.  0.
         13    1    1    2    0    0 -0.33240325227E+02  0.42963058344E+01  0.19800134091E+03  0.20081812575E+03  0.10566000000E+00 0. -1.
        994    1    1    2    0    0  0.44667304810E+02  0.52226537318E+00  0.88689054576E+01  0.17715399618E+03  0.17120000000E+03 0.  0.
        998    1    1    2    0    0 -0.11426979583E+02 -0.48185712076E+01  0.12931297499E+04  0.12932278781E+04  0.10000000000E+02 0. -1.
</event>
<event>
 5    1  0.9123258E-009  0.3844777E+03  0.7957747E-01  0.3431891E+00
         13   -1    0    0    0    0  0.00000000000E+00  0.00000000000E+00  0.14999999963E+04  0.15000000000E+04  0.10566000000E+00 0.  1.
        994   -1    0    0    0    0 -0.00000000000E+00 -0.00000000000E+00  0.11368683772E-12  0.17120000000E+03  0.17120000000E+03 0.  0.
         13    1    1    2    0    0 -0.60653852062E+01 -0.17925695209E+02  0.87357978229E+02  0.89384265789E+02  0.10566000000E+00 0.  1.
        994    1    1    2    0    0  0.17213868994E+01  0.24561090111E+02  0.38892335162E+01  0.17300513419E+03  0.17120000000E+03 0.  0.
        998    1    1    2    0    0  0.43439983068E+01 -0.66353949017E+01  0.14087527845E+04  0.14088106000E+04  0.10000000000E+02 0.  1.
</event>
<event>
 5    1  0.9123258E-009  0.3850981E+03  0.7957747E-01  0.3429256E+00
         13   -1    0    0    0    0  0.00000000000E+00  0.00000000000E+00  0.14999999963E+04  0.15000000000E+04  0.10566000000E+00 0.  1.
        994   -1    0    0    0    0 -0.00000000000E+00 -0.00000000000E+00  0.11368683772E-12  0.17120000000E+03  0.17120000000E+03 0.  0.
         13    1    1    2    0    0  0.53674862644E+01 -0.97904931724E+01  0.39743710634E+02  0.41282409866E+02  0.10566000000E+00 0.  1.
        994    1    1    2    0    0 -0.88363073975E+01  0.14174800401E+01  0.18448115484E+01  0.17144367270E+03  0.17120000000E+03 0.  0.
        998    1    1    2    0    0  0.34688211331E+01  0.83730131323E+01  0.14584114741E+04  0.14584739174E+04  0.10000000000E+02 0.  1.
</event>
<event>
 5    1  0.9123258E-009  0.3753817E+03  0.7957747E-01  0.3471517E+00
         13   -1    0    0    0    0  0.00000000000E+00  0.00000000000E+00  0.14999999963E+04  0.15000000000E+04  0.10566000000E+00 0.  1.
        994   -1    0    0    0    0 -0.00000000000E+00 -0.00000000000E+00  0.11368683772E-12  0.17120000000E+03  0.17120000000E+03 0.  0.
         13    1    1    2    0    0  0.11208585460E+01 -0.29916136935E+02  0.65850803849E+02  0.72336512942E+02  0.10566000000E+00 0.  1.
        994    1    1    2    0    0 -0.25202177967E+01  0.22601179167E+02  0.82405108725E+01  0.17290029155E+03  0.17120000000E+03 0.  0.
        998    1    1    2    0    0  0.13993592507E+01  0.73149577676E+01  0.14259086816E+04  0.14259631955E+04  0.10000000000E+02 0.  1.
</event>
<event>
 5    1  0.9123258E-009  0.3808220E+03  0.7957747E-01  0.3447587E+00
         13   -1    0    0    0    0  0.00000000000E+00  0.00000000000E+00  0.14999999963E+04  0.15000000000E+04  0.10566000000E+00 0.  1.
        994   -1    0    0    0    0 -0.00000000000E+00 -0.00000000000E+00  0.11368683772E-12  0.17120000000E+03  0.17120000000E+03 0.  0.
         13    1    1    2    0    0 -0.21629958251E+02 -0.12134313969E+02  0.78102193492E+02  0.81945472490E+02  0.10566000000E+00 0.  1.
        994    1    1    2    0    0  0.17478316039E+02  0.18383189258E+02  0.58668535825E+01  0.17316839535E+03  0.17120000000E+03 0.  0.
        998    1    1    2    0    0  0.41516422121E+01 -0.62488752895E+01  0.14160309492E+04  0.14160861322E+04  0.10000000000E+02 0.  1.
</event>
<event>
 5    1  0.9123258E-009  0.3833583E+03  0.7957747E-01  0.3436665E+00
         13   -1    0    0    0    0  0.00000000000E+00  0.00000000000E+00  0.14999999963E+04  0.15000000000E+04  0.10566000000E+00 0. -1.
        994   -1    0    0    0    0 -0.00000000000E+00 -0.00000000000E+00  0.11368683772E-12  0.17120000000E+03  0.17120000000E+03 0.  0.
         13    1    1    2    0    0 -0.12230179357E+02 -0.14120851310E+02  0.69538031963E+02  0.72003644228E+02  0.10566000000E+00 0. -1.
        994    1    1    2    0    0  0.14488021216E+02  0.72588011222E+01  0.33161044678E+01  0.17199717876E+03  0.17120000000E+03 0.  0.
        998    1    1    2    0    0 -0.22578418586E+01  0.68620501878E+01  0.14271458598E+04  0.14271991770E+04  0.10000000000E+02 0. -1.
</event>
<event>
 5    1  0.9123258E-009  0.3849470E+03  0.7957747E-01  0.3429897E+00
         13   -1    0    0    0    0  0.00000000000E+00  0.00000000000E+00  0.14999999963E+04  0.15000000000E+04  0.10566000000E+00 0. -1.
        994   -1    0    0    0    0 -0.00000000000E+00 -0.00000000000E+00  0.11368683772E-12  0.17120000000E+03  0.17120000000E+03 0.  0.
         13    1    1    2    0    0  0.12370761736E+02 -0.28759506374E+02  0.18428507353E+03  0.18692550506E+03  0.10566000000E+00 0. -1.
        994    1    1    2    0    0  0.68923350271E+00  0.75188659956E+02  0.20479474461E+02  0.18810278707E+03  0.17120000000E+03 0.  0.
        998    1    1    2    0    0 -0.13059995239E+02 -0.46429153582E+02  0.12952354483E+04  0.12961717079E+04  0.10000000000E+02 0. -1.
</event>
<event>
 5    1  0.9780921E-009  0.3845093E+03  0.7957747E-01  0.3431756E+00
         13   -1    0    0    0    0  0.00000000000E+00  0.00000000000E+00  0.14999999963E+04  0.15000000000E+04  0.10566000000E+00 0.  1.
        994   -1    0    0    0    0 -0.00000000000E+00 -0.00000000000E+00  0.11368683772E-12  0.17120000000E+03  0.17120000000E+03 0.  0.
         13    1    1    2    0    0  0.13777254621E+02 -0.32707950732E+01  0.50890927055E+02  0.52824316994E+02  0.10566000000E+00 0.  1.
        994    1    1    2    0    0 -0.17427027487E+02  0.45062459352E+01  0.29419125532E+01  0.17216881944E+03  0.17120000000E+03 0.  0.
        998    1    1    2    0    0  0.36497728655E+01 -0.12354508620E+01  0.14461671567E+04  0.14462068636E+04  0.10000000000E+02 0.  1.
</event>
<event>
 5    1  0.9123258E-009  0.3834491E+03  0.7957747E-01  0.3436276E+00
         13   -1    0    0    0    0  0.00000000000E+00  0.00000000000E+00  0.14999999963E+04  0.15000000000E+04  0.10566000000E+00 0.  1.
        994   -1    0    0    0    0 -0.00000000000E+00 -0.00000000000E+00  0.11368683772E-12  0.17120000000E+03  0.17120000000E+03 0.  0.
         13    1    1    2    0    0 -0.50127978097E+01  0.30118836964E+02  0.17480821656E+03  0.17745477233E+03  0.10566000000E+00 0.  1.
        994    1    1    2    0    0  0.72166514592E+00 -0.30033076715E+02  0.53908325350E+01  0.17389941798E+03  0.17120000000E+03 0.  0.
        998    1    1    2    0    0  0.42911326638E+01 -0.85760248898E-01  0.13198009472E+04  0.13198458097E+04  0.10000000000E+02 0.  1.
</event>
<event>
 5    1  0.9123258E-009  0.3716918E+03  0.7957747E-01  0.3488152E+00
         13   -1    0    0    0    0  0.00000000000E+00  0.00000000000E+00  0.14999999963E+04  0.15000000000E+04  0.10566000000E+00 0.  1.
        994   -1    0    0    0    0 -0.00000000000E+00 -0.00000000000E+00  0.11368683772E-12  0.17120000000E+03  0.17120000000E+03 0.  0.
         13    1    1    2    0    0  0.46047325387E+00 -0.25968931717E+02  0.22842121569E+02  0.34588598295E+02  0.10566000000E+00 0.  1.
        994    1    1    2    0    0 -0.84870969958E+01  0.31566348416E+02  0.15603040266E+02  0.17498959979E+03  0.17120000000E+03 0.  0.
        998    1    1    2    0    0  0.80266237419E+01 -0.55974166988E+01  0.14615548344E+04  0.14616218019E+04  0.10000000000E+02 0.  1.
</event>
<event>
 5    1  0.9123258E-009  0.3828545E+03  0.7957747E-01  0.3438823E+00
         13   -1    0    0    0    0  0.00000000000E+00  0.00000000000E+00  0.14999999963E+04  0.15000000000E+04  0.10566000000E+00 0.  1.
        994   -1    0    0    0    0 -0.00000000000E+00 -0.00000000000E+00  0.11368683772E-12  0.17120000000E+03  0.17120000000E+03 0.  0.
         13    1    1    2    0    0 -0.17977070301E+02 -0.21389807725E+02  0.13675336423E+03  0.13957862560E+03  0.10566000000E+00 0.  1.
        994    1    1    2    0    0  0.10117953905E+02  0.22545580993E+02  0.47241057964E+01  0.17303882047E+03  0.17120000000E+03 0.  0.
        998    1    1    2    0    0  0.78591163956E+01 -0.11557732678E+01  0.13585225262E+04  0.13585825539E+04  0.10000000000E+02 0.  1.
</event>
<event>
 5    1  0.9123258E-009  0.3779850E+03  0.7957747E-01  0.3459980E+00
         13   -1    0    0    0    0  0.00000000000E+00  0.00000000000E+00  0.14999999963E+04  0.15000000000E+04  0.10566000000E+00 0. -1.
        994   -1    0    0    0    0 -0.00000000000E+00 -0.00000000000E+00  0.11368683772E-12  0.17120000000E+03  0.17120000000E+03 0.  0.
         13    1    1    2    0    0 -0.26047618182E+02 -0.25154485404E+02  0.11465300224E+03  0.12023538845E+03  0.10566000000E+00 0. -1.
        994    1    1    2    0    0  0.26001284170E+02  0.30335929378E+02  0.10544867983E+02  0.17611635254E+03  0.17120000000E+03 0.  0.
        998    1    1    2    0    0  0.46334011653E-01 -0.51814439743E+01  0.13748021261E+04  0.13748482590E+04  0.10000000000E+02 0. -1.
</event>
<event>
 5    1  0.9123258E-009  0.3792892E+03  0.7957747E-01  0.3454259E+00
         13   -1    0    0    0    0  0.00000000000E+00  0.00000000000E+00  0.14999999963E+04  0.15000000000E+04  0.10566000000E+00 0.  1.
        994   -1    0    0    0    0 -0.00000000000E+00 -0.00000000000E+00  0.11368683772E-12  0.17120000000E+03  0.17120000000E+03 0.  0.
         13    1    1    2    0    0  0.46331790528E+02 -0.19455797699E+02  0.26513207722E+03  0.26985216770E+03  0.10566000000E+00 0.  1.
        994    1    1    2    0    0 -0.41083961490E+02 -0.54424533896E+01  0.10269007528E+02  0.17644377208E+03  0.17120000000E+03 0.  0.
        998    1    1    2    0    0 -0.52478290387E+01  0.24898251088E+02  0.12245989115E+04  0.12249040602E+04  0.10000000000E+02 0.  1.
</event>
<event>
 5    1  0.9123258E-009  0.3821065E+03  0.7957747E-01  0.3442037E+00
         13   -1    0    0    0    0  0.00000000000E+00  0.00000000000E+00  0.14999999963E+04  0.15000000000E+04  0.10566000000E+00 0. -1.
        994   -1    0    0    0    0 -0.00000000000E+00 -0.00000000000E+00  0.11368683772E-12  0.17120000000E+03  0.17120000000E+03 0.  0.
         13    1    1    2    0    0 -0.12565818701E+01  0.27223719416E+02  0.13390569640E+03  0.13665085652E+03  0.10566000000E+00 0. -1.
        994    1    1    2    0    0 -0.74077421686E+01 -0.83211072825E+00  0.32580683596E+01  0.17139317974E+03  0.17120000000E+03 0.  0.
        998    1    1    2    0    0  0.86643240387E+01 -0.26391608687E+02  0.13628362315E+04  0.13631559637E+04  0.10000000000E+02 0. -1.
</event>
<event>
 5    1  0.9123258E-009  0.3717069E+03  0.7957747E-01  0.3488083E+00
         13   -1    0    0    0    0  0.00000000000E+00  0.00000000000E+00  0.14999999963E+04  0.15000000000E+04  0.10566000000E+00 0.  1.
        994   -1    0    0    0    0 -0.00000000000E+00 -0.00000000000E+00  0.11368683772E-12  0.17120000000E+03  0.17120000000E+03 0.  0.
         13    1    1    2    0    0  0.94722601852E+00 -0.25122246721E+02  0.34625542744E+02  0.42789763867E+02  0.10566000000E+00 0.  1.
        994    1    1    2    0    0 -0.20858847351E-01  0.13862942723E+02  0.90404831797E+01  0.17199811613E+03  0.17120000000E+03 0.  0.
        998    1    1    2    0    0 -0.92636717116E+00  0.11259303998E+02  0.14563339704E+04  0.14564121200E+04  0.10000000000E+02 0.  1.
</event>
<event>
 5    1  0.9123258E-009  0.3827011E+03  0.7957747E-01  0.3439481E+00
         13   -1    0    0    0    0  0.00000000000E+00  0.00000000000E+00  0.14999999963E+04  0.15000000000E+04  0.10566000000E+00 0. -1.
        994   -1    0    0    0    0 -0.00000000000E+00 -0.00000000000E+00  0.11368683772E-12  0.17120000000E+03  0.17120000000E+03 0.  0.
         13    1    1    2    0    0  0.31275091573E+02 -0.57801754141E+01  0.17975093766E+03  0.18254301557E+03  0.10566000000E+00 0. -1.
        994    1    1    2    0    0 -0.19232728917E+02  0.44823045507E+01  0.40690435015E+01  0.17238325334E+03  0.17120000000E+03 0.  0.
        998    1    1    2    0    0 -0.12042362656E+02  0.12978708634E+01  0.13161800151E+04  0.13162737311E+04  0.10000000000E+02 0. -1.
</event>
<event>
 5    1  0.9123258E-009  0.3845645E+03  0.7957747E-01  0.3431521E+00
         13   -1    0    0    0    0  0.00000000000E+00  0.00000000000E+00  0.14999999963E+04  0.15000000000E+04  0.10566000000E+00 0. -1.
        994   -1    0    0    0    0 -0.00000000000E+00 -0.00000000000E+00  0.11368683772E-12  0.17120000000E+03  0.17120000000E+03 0.  0.
         13    1    1    2    0    0 -0.86736902871E+01  0.52082268298E+01  0.26785971452E+02  0.28633161903E+02  0.10566000000E+00 0. -1.
        994    1    1    2    0    0  0.76878341056E+01 -0.97266886988E+01  0.23529124059E+01  0.17166446185E+03  0.17120000000E+03 0.  0.
        998    1    1    2    0    0  0.98585618159E+00  0.45184618690E+01  0.14708611124E+04  0.14709023762E+04  0.10000000000E+02 0. -1.
</event>
<event>
 5    1  0.9123258E-009  0.3850950E+03  0.7957747E-01  0.3429269E+00
         13   -1    0    0    0    0  0.00000000000E+00  0.00000000000E+00  0.14999999963E+04  0.15000000000E+04  0.10566000000E+00 0. -1.
        994   -1    0    0    0    0 -0.00000000000E+00 -0.00000000000E+00  0.11368683772E-12  0.17120000000E+03  0.17120000000E+03 0.  0.
         13    1    1    2    0    0  0.96717737550E+01  0.31117144852E+01  0.31910968785E+02  0.33489506826E+02  0.10566000000E+00 0. -1.
        994    1    1    2    0    0 -0.16011026398E+02  0.14827991496E+02  0.31501980099E+01  0.17261397987E+03  0.17120000000E+03 0.  0.
        998    1    1    2    0    0  0.63392526429E+01 -0.17939705981E+02  0.14649388295E+04  0.14650965133E+04  0.10000000000E+02 0. -1.
</event>
<event>
 5    1  0.9123258E-009  0.3740658E+03  0.7957747E-01  0.3477411E+00
         13   -1    0    0    0    0  0.00000000000E+00  0.00000000000E+00  0.14999999963E+04  0.15000000000E+04  0.10566000000E+00 0. -1.
        994   -1    0    0    0    0 -0.00000000000E+00 -0.00000000000E+00  0.11368683772E-12  0.17120000000E+03  0.17120000000E+03 0.  0.
         13    1    1    2    0    0  0.49122328993E+02  0.33976733983E+02  0.26695336983E+03  0.27355353130E+03  0.10566000000E+00 0. -1.
        994    1    1    2    0    0 -0.13974148103E+02 -0.20297895969E+02  0.92327881229E+01  0.17321075536E+03  0.17120000000E+03 0.  0.
        998    1    1    2    0    0 -0.35148180891E+02 -0.13678838014E+02  0.12238138383E+04  0.12244357133E+04  0.10000000000E+02 0. -1.
</event>
<event>
 5    1  0.9123258E-009  0.3850303E+03  0.7957747E-01  0.3429544E+00
         13   -1    0    0    0    0  0.00000000000E+00  0.00000000000E+00  0.14999999963E+04  0.15000000000E+04  0.10566000000E+00 0.  1.
        994   -1    0    0    0    0 -0.00000000000E+00 -0.00000000000E+00  0.11368683772E-12  0.17120000000E+03  0.17120000000E+03 0.  0.
         13    1    1    2    0    0  0.11981875242E+02 -0.47654180744E+01  0.53175918688E+02  0.54717127447E+02  0.10566000000E+00 0.  1.
        994    1    1    2    0    0 -0.59863749728E+01 -0.69698467535E+01  0.18927096287E+01  0.17145681030E+03  0.17120000000E+03 0.  0.
        998    1    1    2    0    0 -0.59955002693E+01  0.11735264828E+02  0.14449313680E+04  0.14450260623E+04  0.10000000000E+02 0.  1.
</event>
<event>
 5    1  0.9123258E-009  0.3723186E+03  0.7957747E-01  0.3485302E+00
         13   -1    0    0    0    0  0.00000000000E+00  0.00000000000E+00  0.14999999963E+04  0.15000000000E+04  0.10566000000E+00 0. -1.
        994   -1    0    0    0    0 -0.00000000000E+00 -0.00000000000E+00  0.11368683772E-12  0.17120000000E+03  0.17120000000E+03 0.  0.
         13    1    1    2    0    0 -0.11231295323E+03 -0.78351604218E+02  0.65840918373E+03  0.67249969348E+03  0.10566000000E+00 0. -1.
        994    1    1    2    0    0  0.11948425495E+03  0.59621570897E+02  0.71945366718E+02  0.22872864860E+03  0.17120000000E+03 0.  0.
        998    1    1    2    0    0 -0.71713017159E+01  0.18730033321E+02  0.76964544583E+03  0.76997165793E+03  0.10000000000E+02 0.  0.
</event>
<event>
 5    1  0.9123258E-009  0.3839405E+03  0.7957747E-01  0.3434178E+00
         13   -1    0    0    0    0  0.00000000000E+00  0.00000000000E+00  0.14999999963E+04  0.15000000000E+04  0.10566000000E+00 0.  1.
        994   -1    0    0    0    0 -0.00000000000E+00 -0.00000000000E+00  0.11368683772E-12  0.17120000000E+03  0.17120000000E+03 0.  0.
         13    1    1    2    0    0  0.46171384254E+01  0.12990125275E+02  0.45399697095E+02  0.47446864831E+02  0.10566000000E+00 0.  1.
        994    1    1    2    0    0  0.48189684405E+01 -0.21257113589E+01  0.22486370853E+01  0.17129576023E+03  0.17120000000E+03 0.  0.
        998    1    1    2    0    0 -0.94361068659E+01 -0.10864413916E+02  0.14523516621E+04  0.14524573749E+04  0.10000000000E+02 0.  1.
</event>
<event>
 5    1  0.9123258E-009  0.3815166E+03  0.7957747E-01  0.3444581E+00
         13   -1    0    0    0    0  0.00000000000E+00  0.00000000000E+00  0.14999999963E+04  0.15000000000E+04  0.10566000000E+00 0.  1.
        994   -1    0    0    0    0 -0.00000000000E+00 -0.00000000000E+00  0.11368683772E-12  0.17120000000E+03  0.17120000000E+03 0.  0.
         13    1    1    2    0    0  0.86625195328E+01 -0.20953736609E+02  0.71127884816E+02  0.74654440491E+02  0.10566000000E+00 0.  1.
        994    1    1    2    0    0 -0.65060539923E+01  0.25350823803E+02  0.56512972305E+01  0.17328118815E+03  0.17120000000E+03 0.  0.
        998    1    1    2    0    0 -0.21564655405E+01 -0.43970871942E+01  0.14232208142E+04  0.14232643714E+04  0.10000000000E+02 0.  1.
</event>
<event>
 5    1  0.9123258E-009  0.3802263E+03  0.7957747E-01  0.3450174E+00
         13   -1    0    0    0    0  0.00000000000E+00  0.00000000000E+00  0.14999999963E+04  0.15000000000E+04  0.10566000000E+00 0.  1.
        994   -1    0    0    0    0 -0.00000000000E+00 -0.00000000000E+00  0.11368683772E-12  0.17120000000E+03  0.17120000000E+03 0.  0.
         13    1    1    2    0    0 -0.30177765915E+02 -0.14654062523E+02  0.13961984392E+03  0.14359370141E+03  0.10566000000E+00 0.  1.
        994    1    1    2    0    0  0.17253737706E+02  0.73331781056E+01  0.51938658983E+01  0.17230172143E+03  0.17120000000E+03 0.  0.
        998    1    1    2    0    0  0.12924028209E+02  0.73208844174E+01  0.13551862865E+04  0.13553045772E+04  0.10000000000E+02 0.  1.
</event>
<event>
 5    1  0.9123258E-009  0.3690389E+03  0.7957747E-01  0.3500320E+00
         13   -1    0    0    0    0  0.00000000000E+00  0.00000000000E+00  0.14999999963E+04  0.15000000000E+04  0.10566000000E+00 0.  1.
        994   -1    0    0    0    0 -0.00000000000E+00 -0.00000000000E+00  0.11368683772E-12  0.17120000000E+03  0.17120000000E+03 0.  0.
         13    1    1    2    0    0 -0.36651780928E+02 -0.58586283377E+02  0.24932368500E+03  0.25872382323E+03  0.10566000000E+00 0.  1.
        994    1    1    2    0    0  0.17966921949E+02  0.15838869119E+02  0.12432893508E+02  0.17331386817E+03  0.17120000000E+03 0.  0.
        998    1    1    2    0    0  0.18684858978E+02  0.42747414258E+02  0.12382434178E+04  0.12391623086E+04  0.10000000000E+02 0.  1.
</event>
<event>
 5    1  0.9123258E-009  0.3847792E+03  0.7957747E-01  0.3430609E+00
         13   -1    0    0    0    0  0.00000000000E+00  0.00000000000E+00  0.14999999963E+04  0.15000000000E+04  0.10566000000E+00 0.  1.
        994   -1    0    0    0    0 -0.00000000000E+00 -0.00000000000E+00  0.11368683772E-12  0.17120000000E+03  0.17120000000E+03 0.  0.
         13    1    1    2    0    0 -0.90193066202E+01 -0.96992477258E+01  0.49458497033E+02  0.51201341693E+02  0.10566000000E+00 0.  1.
        994    1    1    2    0    0  0.76623313533E+01  0.90163860242E+01  0.22006798980E+01  0.17162252046E+03  0.17120000000E+03 0.  0.
        998    1    1    2    0    0  0.13569752669E+01  0.68286170160E+00  0.14483408193E+04  0.14483761378E+04  0.10000000000E+02 0.  1.
</event>
<event>
 5    1  0.9123258E-009  0.3821412E+03  0.7957747E-01  0.3441888E+00
         13   -1    0    0    0    0  0.00000000000E+00  0.00000000000E+00  0.14999999963E+04  0.15000000000E+04  0.10566000000E+00 0.  1.
        994   -1    0    0    0    0 -0.00000000000E+00 -0.00000000000E+00  0.11368683772E-12  0.17120000000E+03  0.17120000000E+03 0.  0.
         13    1    1    2    0    0 -0.87059155912E+00  0.11099561716E+02  0.19132212560E+02  0.22136190310E+02  0.10566000000E+00 0.  1.
        994    1    1    2    0    0  0.63239486006E+00 -0.67121044008E+01  0.32070508139E+01  0.17136270727E+03  0.17120000000E+03 0.  0.
        998    1    1    2    0    0  0.23819669906E+00 -0.43874573150E+01  0.14776607329E+04  0.14777011024E+04  0.10000000000E+02 0.  1.
</event>
<event>
 5    1  0.9123258E-009  0.3827949E+03  0.7957747E-01  0.3439078E+00
         13   -1    0    0    0    0  0.00000000000E+00  0.00000000000E+00  0.14999999963E+04  0.15000000000E+04  0.10566000000E+00 0.  1.
        994   -1    0    0    0    0 -0.00000000000E+00 -0.00000000000E+00  0.11368683772E-12  0.17120000000E+03  0.17120000000E+03 0.  0.
         13    1    1    2    0    0  0.12293030562E+02 -0.17241831637E+02  0.89917430120E+02  0.92377241581E+02  0.10566000000E+00 0.  1.
        994    1    1    2    0    0 -0.29256136099E+01 -0.63078641848E+01  0.28890490888E+01  0.17136550111E+03  0.17120000000E+03 0.  0.
        998    1    1    2    0    0 -0.93674169525E+01  0.23549695822E+02  0.14071935171E+04  0.14074572573E+04  0.10000000000E+02 0.  1.
</event>
<event>
 5    1  0.9123258E-009  0.3830723E+03  0.7957747E-01  0.3437889E+00
         13   -1    0    0    0    0  0.00000000000E+00  0.00000000000E+00  0.14999999963E+04  0.15000000000E+04  0.10566000000E+00 0.  1.
        994   -1    0    0    0    0 -0.00000000000E+00 -0.00000000000E+00  0.11368683772E-12  0.17120000000E+03  0.17120000000E+03 0.  0.
         13    1    1    2    0    0  0.18371612966E+02 -0.38892812339E+01  0.70367230341E+02  0.72829945361E+02  0.10566000000E+00 0.  1.
        994    1    1    2    0    0 -0.46334366962E+01 -0.31579461185E+01  0.26942719879E+01  0.17131298976E+03  0.17120000000E+03 0.  0.
        998    1    1    2    0    0 -0.13738176270E+02  0.70472273524E+01  0.14269384940E+04  0.14270570649E+04  0.10000000000E+02 0.  1.
</event>
<event>
 5    1  0.9123258E-009  0.3765625E+03  0.7957747E-01  0.3466264E+00
         13   -1    0    0    0    0  0.00000000000E+00  0.00000000000E+00  0.14999999963E+04  0.15000000000E+04  0.10566000000E+00 0. -1.
        994   -1    0    0    0    0 -0.00000000000E+00 -0.00000000000E+00  0.11368683772E-12  0.17120000000E+03  0.17120000000E+03 0.  0.
         13    1    1    2    0    0 -0.16999773994E+02  0.51593733178E+02  0.20683926213E+03  0.21385368161E+03  0.10566000000E+00 0. -1.
        994    1    1    2    0    0  0.23476645562E+02 -0.56340514667E+02  0.18581172464E+02  0.18270223439E+03  0.17120000000E+03 0.  0.
        998    1    1    2    0    0 -0.64768715680E+01  0.47467814892E+01  0.12745795617E+04  0.12746440840E+04  0.10000000000E+02 0. -1.
</event>
<event>
 5    1  0.9123258E-009  0.3857954E+03  0.7957747E-01  0.3426306E+00
         13   -1    0    0    0    0  0.00000000000E+00  0.00000000000E+00  0.14999999963E+04  0.15000000000E+04  0.10566000000E+00 0. -1.
        994   -1    0    0    0    0 -0.00000000000E+00 -0.00000000000E+00  0.11368683772E-12  0.17120000000E+03  0.17120000000E+03 0.  0.
         13    1    1    2    0    0  0.11874077538E+02 -0.46262772501E+01  0.63621200084E+02  0.64885009230E+02  0.10566000000E+00 0. -1.
        994    1    1    2    0    0 -0.12263534142E+02  0.77762957911E+01  0.19277275004E+01  0.17182555450E+03  0.17120000000E+03 0.  0.
        998    1    1    2    0    0  0.38945660387E+00 -0.31500185410E+01  0.14344510687E+04  0.14344894363E+04  0.10000000000E+02 0. -1.
</event>
<event>
 5    1  0.9123258E-009  0.3745186E+03  0.7957747E-01  0.3475379E+00
         13   -1    0    0    0    0  0.00000000000E+00  0.00000000000E+00  0.14999999963E+04  0.15000000000E+04  0.10566000000E+00 0. -1.
        994   -1    0    0    0    0 -0.00000000000E+00 -0.00000000000E+00  0.11368683772E-12  0.17120000000E+03  0.17120000000E+03 0.  0.
         13    1    1    2    0    0 -0.82937264147E+02 -0.63384180383E+01  0.37590878488E+03  0.38500154681E+03  0.10566000000E+00 0. -1.
        994    1    1    2    0    0  0.81741703083E+02  0.83886091250E+00  0.30030157765E+02  0.19207722428E+03  0.17120000000E+03 0.  0.
        998    1    1    2    0    0  0.11955610643E+01  0.54995571258E+01  0.10940610536E+04  0.10941212289E+04  0.10000000000E+02 0.  0.
</event>
<event>
 5    1  0.9123258E-009  0.3810360E+03  0.7957747E-01  0.3446660E+00
         13   -1    0    0    0    0  0.00000000000E+00  0.00000000000E+00  0.14999999963E+04  0.15000000000E+04  0.10566000000E+00 0.  1.
        994   -1    0    0    0    0 -0.00000000000E+00 -0.00000000000E+00  0.11368683772E-12  0.17120000000E+03  0.17120000000E+03 0.  0.
         13    1    1    2    0    0  0.12353887689E+02  0.14912498227E+02  0.49164957465E+02  0.52841322381E+02  0.10566000000E+00 0.  1.
        994    1    1    2    0    0 -0.58389285040E+01 -0.21309646218E+02  0.52391840016E+01  0.17269940115E+03  0.17120000000E+03 0.  0.
        998    1    1    2    0    0 -0.65149591853E+01  0.63971479911E+01  0.14455958548E+04  0.14456592765E+04  0.10000000000E+02 0.  1.
</event>
<event>
 5    1  0.9123258E-009  0.3823361E+03  0.7957747E-01  0.3441049E+00
         13   -1    0    0    0    0  0.00000000000E+00  0.00000000000E+00  0.14999999963E+04  0.15000000000E+04  0.10566000000E+00 0. -1.
        994   -1    0    0    0    0 -0.00000000000E+00 -0.00000000000E+00  0.11368683772E-12  0.17120000000E+03  0.17120000000E+03 0.  0.
         13    1    1    2    0    0  0.14891207751E+02 -0.17619481161E+02  0.91033197095E+02  0.93910853058E+02  0.10566000000E+00 0. -1.
        994    1    1    2    0    0 -0.15073169010E+02  0.10762815748E+01  0.37164345894E+01  0.17190581925E+03  0.17120000000E+03 0.  0.
        998    1    1    2    0    0  0.18196125866E+00  0.16543199586E+02  0.14052503646E+04  0.14053833277E+04  0.10000000000E+02 0. -1.
</event>
<event>
 5    1  0.9123258E-009  0.3809275E+03  0.7957747E-01  0.3447130E+00
         13   -1    0    0    0    0  0.00000000000E+00  0.00000000000E+00  0.14999999963E+04  0.15000000000E+04  0.10566000000E+00 0. -1.
        994   -1    0    0    0    0 -0.00000000000E+00 -0.00000000000E+00  0.11368683772E-12  0.17120000000E+03  0.17120000000E+03 0.  0.
         13    1    1    2    0    0  0.37302238576E+02  0.17711937931E+02  0.44224175441E+02  0.60505855961E+02  0.10566000000E+00 0. -1.
        994    1    1    2    0    0 -0.32057651884E+02 -0.32038607731E+01  0.20620659913E+02  0.17542123413E+03  0.17120000000E+03 0.  0.
        998    1    1    2    0    0 -0.52445866924E+01 -0.14508077158E+02  0.14351551609E+04  0.14352729099E+04  0.10000000000E+02 0. -1.
</event>
<event>
 5    1  0.9123258E-009  0.3791081E+03  0.7957747E-01  0.3455051E+00
         13   -1    0    0    0    0  0.00000000000E+00  0.00000000000E+00  0.14999999963E+04  0.15000000000E+04  0.10566000000E+00 0. -1.
        994   -1    0    0    0    0 -0.00000000000E+00 -0.00000000000E+00  0.11368683772E-12  0.17120000000E+03  0.17120000000E+03 0.  0.
         13    1    1    2    0    0  0.71013575878E+02 -0.20283349754E+03  0.10803554518E+04  0.11015227048E+04  0.10566000000E+00 0. -1.
        994    1    1    2    0    0 -0.64073888626E+02  0.19986099362E+03  0.17013191284E+03  0.31985025831E+03  0.17120000000E+03 0.  0.
        998    1    1    2    0    0 -0.69396872521E+01  0.29725039235E+01  0.24951263161E+03  0.24982703692E+03  0.10000000000E+02 0.  0.
</event>
<event>
 5    1  0.9123258E-009  0.3806614E+03  0.7957747E-01  0.3448283E+00
         13   -1    0    0    0    0  0.00000000000E+00  0.00000000000E+00  0.14999999963E+04  0.15000000000E+04  0.10566000000E+00 0. -1.
        994   -1    0    0    0    0 -0.00000000000E+00 -0.00000000000E+00  0.11368683772E-12  0.17120000000E+03  0.17120000000E+03 0.  0.
         13    1    1    2    0    0  0.20774818116E+02  0.37025785894E+02  0.20247865396E+03  0.20688189472E+03  0.10566000000E+00 0. -1.
        994    1    1    2    0    0 -0.11085070680E+02 -0.45341016546E+02  0.11101322631E+02  0.17779585467E+03  0.17120000000E+03 0.  0.
        998    1    1    2    0    0 -0.96897474357E+01  0.83152306513E+01  0.12864200197E+04  0.12865222506E+04  0.10000000000E+02 0. -1.
</event>
<event>
 5    1  0.9123258E-009  0.3141325E+03  0.7957747E-01  0.3800021E+00
         13   -1    0    0    0    0  0.00000000000E+00  0.00000000000E+00  0.14999999963E+04  0.15000000000E+04  0.10566000000E+00 0.  1.
        994   -1    0    0    0    0 -0.00000000000E+00 -0.00000000000E+00  0.11368683772E-12  0.17120000000E+03  0.17120000000E+03 0.  0.
         13    1    1    2    0    0  0.19669794013E+03  0.14034121900E+02  0.84864442907E+03  0.87125450609E+03  0.10566000000E+00 0.  1.
        994    1    1    2    0    0 -0.12474635459E+03 -0.16975094613E+02  0.84892786758E+02  0.22883625601E+03  0.17120000000E+03 0.  0.
        998    1    1    2    0    0 -0.71951585539E+02  0.29409727123E+01  0.56646278045E+03  0.57110923790E+03  0.10000000000E+02 0. -1.
</event>
<event>
 5    1  0.9123258E-009  0.3767959E+03  0.7957747E-01  0.3465230E+00
         13   -1    0    0    0    0  0.00000000000E+00  0.00000000000E+00  0.14999999963E+04  0.15000000000E+04  0.10566000000E+00 0.  1.
        994   -1    0    0    0    0 -0.00000000000E+00 -0.00000000000E+00  0.11368683772E-12  0.17120000000E+03  0.17120000000E+03 0.  0.
         13    1    1    2    0    0 -0.42403260254E+02  0.22831613973E+02  0.25365009305E+03  0.25818152518E+03  0.10566000000E+00 0.  1.
        994    1    1    2    0    0  0.10263501583E+02  0.25168710868E+02  0.82596348125E+01  0.17354096069E+03  0.17120000000E+03 0.  0.
        998    1    1    2    0    0  0.32139758671E+02 -0.48000324841E+02  0.12380902684E+04  0.12394775141E+04  0.10000000000E+02 0.  1.
</event>
<event>
 5    1  0.9123258E-009  0.3897102E+03  0.7957747E-01  0.3409938E+00
         13   -1    0    0    0    0  0.00000000000E+00  0.00000000000E+00  0.14999999963E+04  0.15000000000E+04  0.10566000000E+00 0.  1.
        994   -1    0    0    0    0 -0.00000000000E+00 -0.00000000000E+00  0.11368683772E-12  0.17120000000E+03  0.17120000000E+03 0.  0.
         13    1    1    2    0    0 -0.13479084762E+03 -0.18359051861E+02  0.49057533609E+03  0.50908722134E+03  0.10566000000E+00 0.  1.
        994    1    1    2    0    0  0.59688589531E+02 -0.74498640585E+01  0.35493891219E+02  0.18489857898E+03  0.17120000000E+03 0.  0.
        998    1    1    2    0    0  0.75102258092E+02  0.25808915919E+02  0.97393076897E+03  0.97721419968E+03  0.10000000000E+02 0.  1.
</event>
<event>
 5    1  0.9123258E-009  0.3830633E+03  0.7957747E-01  0.3437928E+00
         13   -1    0    0    0    0  0.00000000000E+00  0.00000000000E+00  0.14999999963E+04  0.15000000000E+04  0.10566000000E+00 0. -1.
        994   -1    0    0    0    0 -0.00000000000E+00 -0.00000000000E+00  0.11368683772E-12  0.17120000000E+03  0.17120000000E+03 0.  0.
         13    1    1    2    0    0  0.20223030347E+02 -0.73921313659E+01  0.87717567295E+02  0.90321632728E+02  0.10566000000E+00 0. -1.
        994    1    1    2    0    0 -0.12423294256E+02  0.10452704570E+02  0.34675516803E+01  0.17200308482E+03  0.17120000000E+03 0.  0.
        998    1    1    2    0    0 -0.77997360909E+01 -0.30605732041E+01  0.14088148773E+04  0.14088752825E+04  0.10000000000E+02 0. -1.
</event>
<event>
 5    1  0.9123258E-009  0.3945463E+03  0.7957747E-01  0.3390167E+00
         13   -1    0    0    0    0  0.00000000000E+00  0.00000000000E+00  0.14999999963E+04  0.15000000000E+04  0.10566000000E+00 0. -1.
        994   -1    0    0    0    0 -0.00000000000E+00 -0.00000000000E+00  0.11368683772E-12  0.17120000000E+03  0.17120000000E+03 0.  0.
         13    1    1    2    0    0  0.95145535057E+02 -0.10439151922E+03  0.26994137798E+03  0.30466148564E+03  0.10566000000E+00 0. -1.
        994    1    1    2    0    0 -0.11185889529E+03  0.12692393207E+03  0.14483638246E+03  0.28090766218E+03  0.17120000000E+03 0.  0.
        998    1    1    2    0    0  0.16713360232E+02 -0.22532412846E+02  0.10852222358E+04  0.10856308522E+04  0.10000000000E+02 0. -1.
</event>
<event>
 5    1  0.9123258E-009  0.3810253E+03  0.7957747E-01  0.3446706E+00
         13   -1    0    0    0    0  0.00000000000E+00  0.00000000000E+00  0.14999999963E+04  0.15000000000E+04  0.10566000000E+00 0.  1.
        994   -1    0    0    0    0 -0.00000000000E+00 -0.00000000000E+00  0.11368683772E-12  0.17120000000E+03  0.17120000000E+03 0.  0.
         13    1    1    2    0    0  0.18054832030E+02 -0.19067452570E+02  0.88314427065E+02  0.92135736275E+02  0.10566000000E+00 0.  1.
        994    1    1    2    0    0 -0.12509059653E+02  0.27713603319E+02  0.67027361856E+01  0.17400829594E+03  0.17120000000E+03 0.  0.
        998    1    1    2    0    0 -0.55457723768E+01 -0.86461507485E+01  0.14049828330E+04  0.14050559678E+04  0.10000000000E+02 0.  1.
</event>
<event>
 5    1  0.9123258E-009  0.3837967E+03  0.7957747E-01  0.3434791E+00
         13   -1    0    0    0    0  0.00000000000E+00  0.00000000000E+00  0.14999999963E+04  0.15000000000E+04  0.10566000000E+00 0. -1.
        994   -1    0    0    0    0 -0.00000000000E+00 -0.00000000000E+00  0.11368683772E-12  0.17120000000E+03  0.17120000000E+03 0.  0.
         13    1    1    2    0    0 -0.18174517497E+02  0.62850277199E+01  0.78230195808E+02  0.80559228894E+02  0.10566000000E+00 0. -1.
        994    1    1    2    0    0  0.14325945676E+02 -0.24371316784E+02  0.48717417012E+01  0.17358677273E+03  0.17120000000E+03 0.  0.
        998    1    1    2    0    0  0.38485718209E+01  0.18086289065E+02  0.14168980588E+04  0.14170539984E+04  0.10000000000E+02 0. -1.
</event>
<event>
 5    1  0.9597091E-009  0.3854529E+03  0.7957747E-01  0.3427754E+00
         13   -1    0    0    0    0  0.00000000000E+00  0.00000000000E+00  0.14999999963E+04  0.15000000000E+04  0.10566000000E+00 0.  1.
        994   -1    0    0    0    0 -0.00000000000E+00 -0.00000000000E+00  0.11368683772E-12  0.17120000000E+03  0.17120000000E+03 0.  0.
         13    1    1    2    0    0 -0.23004596247E+01  0.10666740265E+02  0.42087810680E+02  0.43479494411E+02  0.10566000000E+00 0.  1.
        994    1    1    2    0    0  0.47974791608E+01 -0.82258898673E+01  0.17032966852E+01  0.17147309494E+03  0.17120000000E+03 0.  0.
        998    1    1    2    0    0 -0.24970195361E+01 -0.24408503973E+01  0.14562088889E+04  0.14562474106E+04  0.10000000000E+02 0.  1.
</event>
<event>
 5    1  0.9123258E-009  0.3812105E+03  0.7957747E-01  0.3445905E+00
         13   -1    0    0    0    0  0.00000000000E+00  0.00000000000E+00  0.14999999963E+04  0.15000000000E+04  0.10566000000E+00 0. -1.
        994   -1    0    0    0    0 -0.00000000000E+00 -0.00000000000E+00  0.11368683772E-12  0.17120000000E+03  0.17120000000E+03 0.  0.
         13    1    1    2    0    0  0.16353036861E+02 -0.74598406538E+01  0.45276070466E+02  0.48713496673E+02  0.10566000000E+00 0. -1.
        994    1    1    2    0    0 -0.37084216624E+01  0.10648041498E+02  0.39467784252E+01  0.17161628780E+03  0.17120000000E+03 0.  0.
        998    1    1    2    0    0 -0.12644615199E+02 -0.31882008439E+01  0.14507771474E+04  0.14508702155E+04  0.10000000000E+02 0. -1.
</event>
<event>
 5    1  0.9123258E-009  0.3742484E+03  0.7957747E-01  0.3476591E+00
         13   -1    0    0    0    0  0.00000000000E+00  0.00000000000E+00  0.14999999963E+04  0.15000000000E+04  0.10566000000E+00 0. -1.
        994   -1    0    0    0    0 -0.00000000000E+00 -0.00000000000E+00  0.11368683772E-12  0.17120000000E+03  0.17120000000E+03 0.  0.
         13    1    1    2    0    0  0.41604197055E+02  0.63805527639E+02  0.37808951732E+03  0.38568607551E+03  0.10566000000E+00 0. -1.
        994    1    1    2    0    0  0.97061914248E+00 -0.66273675224E+02  0.22187056599E+02  0.18491848910E+03  0.17120000000E+03 0.  0.
        998    1    1    2    0    0 -0.42574816198E+02  0.24681475851E+01  0.10997234224E+04  0.11005954354E+04  0.10000000000E+02 0. -1.
</event>
<event>
 5    1  0.9123258E-009  0.3834446E+03  0.7957747E-01  0.3436296E+00
         13   -1    0    0    0    0  0.00000000000E+00  0.00000000000E+00  0.14999999963E+04  0.15000000000E+04  0.10566000000E+00 0. -1.
        994   -1    0    0    0    0 -0.00000000000E+00 -0.00000000000E+00  0.11368683772E-12  0.17120000000E+03  0.17120000000E+03 0.  0.
         13    1    1    2    0    0 -0.10835172783E+02  0.10351220643E+02  0.47364627425E+02  0.49678645646E+02  0.10566000000E+00 0. -1.
        994    1    1    2    0    0 -0.24351396892E+01 -0.79990900114E+01  0.26354565051E+01  0.17142433018E+03  0.17120000000E+03 0.  0.
        998    1    1    2    0    0  0.13270312472E+02 -0.23521306320E+01  0.14499999123E+04  0.14500970242E+04  0.10000000000E+02 0. -1.
</event>
<event>
 5    1  0.9123258E-009  0.3721871E+03  0.7957747E-01  0.3485899E+00
         13   -1    0    0    0    0  0.00000000000E+00  0.00000000000E+00  0.14999999963E+04  0.15000000000E+04  0.10566000000E+00 0. -1.
        994   -1    0    0    0    0 -0.00000000000E+00 -0.00000000000E+00  0.11368683772E-12  0.17120000000E+03  0.17120000000E+03 0.  0.
         13    1    1    2    0    0  0.63024734688E+02  0.27383663358E+02  0.28701932008E+03  0.29513062102E+03  0.10566000000E+00 0. -1.
        994    1    1    2    0    0 -0.41450315658E+02 -0.51508421642E+01  0.14141443061E+02  0.17678823562E+03  0.17120000000E+03 0.  0.
        998    1    1    2    0    0 -0.21574419030E+02 -0.22232821193E+02  0.11988392331E+04  0.11992811434E+04  0.10000000000E+02 0. -1.
</event>
<event>
 5    1  0.9123258E-009  0.3834809E+03  0.7957747E-01  0.3436140E+00
         13   -1    0    0    0    0  0.00000000000E+00  0.00000000000E+00  0.14999999963E+04  0.15000000000E+04  0.10566000000E+00 0.  1.
        994   -1    0    0    0    0 -0.00000000000E+00 -0.00000000000E+00  0.11368683772E-12  0.17120000000E+03  0.17120000000E+03 0.  0.
         13    1    1    2    0    0  0.18282569200E+02  0.26975088358E+01  0.65061843474E+02  0.67635667593E+02  0.10566000000E+00 0.  1.
        994    1    1    2    0    0 -0.29338349653E+02  0.38626052836E+01  0.52855638954E+01  0.17381897384E+03  0.17120000000E+03 0.  0.
        998    1    1    2    0    0  0.11055780452E+02 -0.65601141194E+01  0.14296525889E+04  0.14297453586E+04  0.10000000000E+02 0.  1.
</event>
<event>
 5    1  0.9123258E-009  0.3712069E+03  0.7957747E-01  0.3490363E+00
         13   -1    0    0    0    0  0.00000000000E+00  0.00000000000E+00  0.14999999963E+04  0.15000000000E+04  0.10566000000E+00 0. -1.
        994   -1    0    0    0    0 -0.00000000000E+00 -0.00000000000E+00  0.11368683772E-12  0.17120000000E+03  0.17120000000E+03 0.  0.
         13    1    1    2    0    0  0.39058040649E+02  0.13185748110E+03  0.72800191585E+03  0.74087699823E+03  0.10566000000E+00 0. -1.
        994    1    1    2    0    0 -0.50226898524E+02 -0.83142612857E+02  0.45484940232E+02  0.20202414508E+03  0.17120000000E+03 0.  0.
        998    1    1    2    0    0  0.11168857876E+02 -0.48714868245E+02  0.72651314019E+03  0.72829885669E+03  0.10000000000E+02 0. -1.
</event>
<event>
 5    1  0.9123258E-009  0.3702382E+03  0.7957747E-01  0.3494797E+00
         13   -1    0    0    0    0  0.00000000000E+00  0.00000000000E+00  0.14999999963E+04  0.15000000000E+04  0.10566000000E+00 0.  1.
        994   -1    0    0    0    0 -0.00000000000E+00 -0.00000000000E+00  0.11368683772E-12  0.17120000000E+03  0.17120000000E+03 0.  0.
         13    1    1    2    0    0 -0.11675262030E+03  0.23273093147E+02  0.44259390205E+03  0.45832541334E+03  0.10566000000E+00 0.  1.
        994    1    1    2    0    0  0.11431249266E+03 -0.25001176216E+02  0.60639323052E+02  0.21605317005E+03  0.17120000000E+03 0.  0.
        998    1    1    2    0    0  0.24401276419E+01  0.17280830694E+01  0.99676677117E+03  0.99682141661E+03  0.10000000000E+02 0.  0.
</event>
<event>
 5    1  0.9123258E-009  0.3819989E+03  0.7957747E-01  0.3442501E+00
         13   -1    0    0    0    0  0.00000000000E+00  0.00000000000E+00  0.14999999963E+04  0.15000000000E+04  0.10566000000E+00 0. -1.
        994   -1    0    0    0    0 -0.00000000000E+00 -0.00000000000E+00  0.11368683772E-12  0.17120000000E+03  0.17120000000E+03 0.  0.
         13    1    1    2    0    0 -0.38714772264E+01  0.15485248163E+02  0.40602821871E+02  0.43627761283E+02  0.10566000000E+00 0. -1.
        994    1    1    2    0    0  0.27340183986E+01 -0.38167068687E+01  0.32007334601E+01  0.17129426961E+03  0.17120000000E+03 0.  0.
        998    1    1    2    0    0  0.11374588278E+01 -0.11668541294E+02  0.14561964409E+04  0.14562779691E+04  0.10000000000E+02 0. -1.
</event>
<event>
 5    1  0.9123258E-009  0.3797271E+03  0.7957747E-01  0.3452348E+00
         13   -1    0    0    0    0  0.00000000000E+00  0.00000000000E+00  0.14999999963E+04  0.15000000000E+04  0.10566000000E+00 0.  1.
        994   -1    0    0    0    0 -0.00000000000E+00 -0.00000000000E+00  0.11368683772E-12  0.17120000000E+03  0.17120000000E+03 0.  0.
         13    1    1    2    0    0 -0.11263557504E+02  0.79413962178E+01  0.20954108734E+02  0.25080257941E+02  0.10566000000E+00 0.  1.
        994    1    1    2    0    0 -0.85558706518E+01 -0.13219423750E+02  0.51010636919E+01  0.17199830504E+03  0.17120000000E+03 0.  0.
        998    1    1    2    0    0  0.19819428156E+02  0.52780275320E+01  0.14739448239E+04  0.14741214370E+04  0.10000000000E+02 0.  1.
</event>
<event>
 5    1  0.9123258E-009  0.3757537E+03  0.7957747E-01  0.3469859E+00
         13   -1    0    0    0    0  0.00000000000E+00  0.00000000000E+00  0.14999999963E+04  0.15000000000E+04  0.10566000000E+00 0.  1.
        994   -1    0    0    0    0 -0.00000000000E+00 -0.00000000000E+00  0.11368683772E-12  0.17120000000E+03  0.17120000000E+03 0.  0.
         13    1    1    2    0    0 -0.14933224778E+02 -0.39386069834E+02  0.16983152997E+03  0.17497720833E+03  0.10566000000E+00 0.  1.
        994    1    1    2    0    0 -0.64051454723E+01 -0.83233326939E+01  0.66662893315E+01  0.17165134188E+03  0.17120000000E+03 0.  0.
        998    1    1    2    0    0  0.21338370251E+02  0.47709402528E+02  0.13235021770E+04  0.13245714498E+04  0.10000000000E+02 0.  1.
</event>
<event>
 5    1  0.9123258E-009  0.3851073E+03  0.7957747E-01  0.3429217E+00
         13   -1    0    0    0    0  0.00000000000E+00  0.00000000000E+00  0.14999999963E+04  0.15000000000E+04  0.10566000000E+00 0. -1.
        994   -1    0    0    0    0 -0.00000000000E+00 -0.00000000000E+00  0.11368683772E-12  0.17120000000E+03  0.17120000000E+03 0.  0.
         13    1    1    2    0    0  0.11239248168E+02 -0.12239083321E+02  0.90316649106E+02  0.91832587515E+02  0.10566000000E+00 0. -1.
        994    1    1    2    0    0 -0.16489119341E+02 -0.53142850442E+01  0.25641666473E+01  0.17209342705E+03  0.17120000000E+03 0.  0.
        998    1    1    2    0    0  0.52498711728E+01  0.17553368365E+02  0.14071191805E+04  0.14072739854E+04  0.10000000000E+02 0. -1.
</event>
<event>
 5    1  0.9123258E-009  0.3837051E+03  0.7957747E-01  0.3435182E+00
         13   -1    0    0    0    0  0.00000000000E+00  0.00000000000E+00  0.14999999963E+04  0.15000000000E+04  0.10566000000E+00 0.  1.
        994   -1    0    0    0    0 -0.00000000000E+00 -0.00000000000E+00  0.11368683772E-12  0.17120000000E+03  0.17120000000E+03 0.  0.
         13    1    1    2    0    0  0.25654349843E+01 -0.13188778788E+02  0.39176773452E+02  0.41416857494E+02  0.10566000000E+00 0.  1.
        994    1    1    2    0    0 -0.61576496347E+01  0.73605676861E+01  0.25785831243E+01  0.17148814448E+03  0.17120000000E+03 0.  0.
        998    1    1    2    0    0  0.35922146504E+01  0.58282111016E+01  0.14582446397E+04  0.14582949980E+04  0.10000000000E+02 0.  1.
</event>
<event>
 5    1  0.9123258E-009  0.3784704E+03  0.7957747E-01  0.3457846E+00
         13   -1    0    0    0    0  0.00000000000E+00  0.00000000000E+00  0.14999999963E+04  0.15000000000E+04  0.10566000000E+00 0. -1.
        994   -1    0    0    0    0 -0.00000000000E+00 -0.00000000000E+00  0.11368683772E-12  0.17120000000E+03  0.17120000000E+03 0.  0.
         13    1    1    2    0    0  0.30996857616E+02  0.49932038541E+02  0.28909806510E+03  0.29501138294E+03  0.10566000000E+00 0. -1.
        994    1    1    2    0    0 -0.40213494376E+02 -0.42211396293E+02  0.16413503104E+02  0.18159782540E+03  0.17120000000E+03 0.  0.
        998    1    1    2    0    0  0.92166367599E+01 -0.77206422479E+01  0.11944884281E+04  0.11945907917E+04  0.10000000000E+02 0. -1.
</event>
<event>
 5    1  0.9123258E-009  0.3708373E+03  0.7957747E-01  0.3492052E+00
         13   -1    0    0    0    0  0.00000000000E+00  0.00000000000E+00  0.14999999963E+04  0.15000000000E+04  0.10566000000E+00 0.  1.
        994   -1    0    0    0    0 -0.00000000000E+00 -0.00000000000E+00  0.11368683772E-12  0.17120000000E+03  0.17120000000E+03 0.  0.
         13    1    1    2    0    0 -0.16690410466E+02  0.17976700884E+02  0.31309355283E+02  0.39774595768E+02  0.10566000000E+00 0.  1.
        994    1    1    2    0    0 -0.93098084144E+01 -0.16552770612E+02  0.10076529431E+02  0.17254461218E+03  0.17120000000E+03 0.  0.
        998    1    1    2    0    0  0.26000218880E+02 -0.14239302724E+01  0.14586141116E+04  0.14588807921E+04  0.10000000000E+02 0.  1.
</event>
<event>
 5    1  0.9123258E-009  0.3819100E+03  0.7957747E-01  0.3442884E+00
         13   -1    0    0    0    0  0.00000000000E+00  0.00000000000E+00  0.14999999963E+04  0.15000000000E+04  0.10566000000E+00 0.  1.
        994   -1    0    0    0    0 -0.00000000000E+00 -0.00000000000E+00  0.11368683772E-12  0.17120000000E+03  0.17120000000E+03 0.  0.
         13    1    1    2    0    0  0.37637891311E+01 -0.13921994938E+02  0.33527709189E+02  0.36498034183E+02  0.10566000000E+00 0.  1.
        994    1    1    2    0    0 -0.13815349767E+01 -0.74200636329E+01  0.33613324689E+01  0.17139925478E+03  0.17120000000E+03 0.  0.
        998    1    1    2    0    0 -0.23822541544E+01  0.21342058571E+02  0.14631109546E+04  0.14633027110E+04  0.10000000000E+02 0.  1.
</event>
<event>
 5    1  0.9123258E-009  0.2783767E+03  0.7957747E-01  0.4063606E+00
         13   -1    0    0    0    0  0.00000000000E+00  0.00000000000E+00  0.14999999963E+04  0.15000000000E+04  0.10566000000E+00 0.  1.
        994   -1    0    0    0    0 -0.00000000000E+00 -0.00000000000E+00  0.11368683772E-12  0.17120000000E+03  0.17120000000E+03 0.  0.
         13    1    1    2    0    0  0.50628041816E+02 -0.14082795555E+03  0.70675273227E+03  0.72242310831E+03  0.10566000000E+00 0.  1.
        994    1    1    2    0    0 -0.28827427019E+02  0.17285493486E+02  0.32225609075E+02  0.17741966834E+03  0.17120000000E+03 0.  0.
        998    1    1    2    0    0 -0.21800614796E+02  0.12354246206E+03  0.76102165494E+03  0.77135722335E+03  0.10000000000E+02 0. -1.
</event>
<event>
 5    1  0.9123258E-009  0.3764215E+03  0.7957747E-01  0.3466890E+00
         13   -1    0    0    0    0  0.00000000000E+00  0.00000000000E+00  0.14999999963E+04  0.15000000000E+04  0.10566000000E+00 0.  1.
        994   -1    0    0    0    0 -0.00000000000E+00 -0.00000000000E+00  0.11368683772E-12  0.17120000000E+03  0.17120000000E+03 0.  0.
         13    1    1    2    0    0  0.55495381318E+01  0.20427591619E+02  0.36625157745E+02  0.42302449299E+02  0.10566000000E+00 0.  1.
        994    1    1    2    0    0 -0.17872606962E+02  0.36380257600E+01  0.70767842006E+01  0.17231420773E+03  0.17120000000E+03 0.  0.
        998    1    1    2    0    0  0.12323068830E+02 -0.24065617379E+02  0.14562980543E+04  0.14565833430E+04  0.10000000000E+02 0.  1.
</event>
<event>
 5    1  0.9123258E-009  0.3726051E+03  0.7957747E-01  0.3484003E+00
         13   -1    0    0    0    0  0.00000000000E+00  0.00000000000E+00  0.14999999963E+04  0.15000000000E+04  0.10566000000E+00 0.  1.
        994   -1    0    0    0    0 -0.00000000000E+00 -0.00000000000E+00  0.11368683772E-12  0.17120000000E+03  0.17120000000E+03 0.  0.
         13    1    1    2    0    0  0.22152437684E+02 -0.31465184541E+01  0.27988053463E+02  0.35832574209E+02  0.10566000000E+00 0.  1.
        994    1    1    2    0    0 -0.19961952959E+02  0.57925131669E+01  0.93956505900E+01  0.17271291505E+03  0.17120000000E+03 0.  0.
        998    1    1    2    0    0 -0.21904847253E+01 -0.26459947128E+01  0.14626162922E+04  0.14626545107E+04  0.10000000000E+02 0.  1.
</event>
<event>
 5    1  0.9123258E-009  0.3774319E+03  0.7957747E-01  0.3462417E+00
         13   -1    0    0    0    0  0.00000000000E+00  0.00000000000E+00  0.14999999963E+04  0.15000000000E+04  0.10566000000E+00 0. -1.
        994   -1    0    0    0    0 -0.00000000000E+00 -0.00000000000E+00  0.11368683772E-12  0.17120000000E+03  0.17120000000E+03 0.  0.
         13    1    1    2    0    0 -0.13909201032E+02  0.52390210137E+02  0.30796691354E+03  0.31270086503E+03  0.10566000000E+00 0. -1.
        994    1    1    2    0    0 -0.12927033799E+02 -0.19455564682E+02  0.72769417637E+01  0.17293935666E+03  0.17120000000E+03 0.  0.
        998    1    1    2    0    0  0.26836234831E+02 -0.32934645455E+02  0.11847561410E+04  0.11855597783E+04  0.10000000000E+02 0. -1.
</event>
<event>
 5    1  0.9123258E-009  0.3823042E+03  0.7957747E-01  0.3441187E+00
         13   -1    0    0    0    0  0.00000000000E+00  0.00000000000E+00  0.14999999963E+04  0.15000000000E+04  0.10566000000E+00 0.  1.
        994   -1    0    0    0    0 -0.00000000000E+00 -0.00000000000E+00  0.11368683772E-12  0.17120000000E+03  0.17120000000E+03 0.  0.
         13    1    1    2    0    0 -0.53997139424E+01 -0.11088477068E+02  0.23290023004E+02  0.26354270430E+02  0.10566000000E+00 0.  1.
        994    1    1    2    0    0  0.19474665345E+02  0.17169114852E+02  0.52139653174E+01  0.17323586964E+03  0.17120000000E+03 0.  0.
        998    1    1    2    0    0 -0.14074951403E+02 -0.60806377846E+01  0.14714960080E+04  0.14716098599E+04  0.10000000000E+02 0.  1.
</event>
<event>
 5    1  0.9123258E-009  0.3567320E+03  0.7957747E-01  0.3559183E+00
         13   -1    0    0    0    0  0.00000000000E+00  0.00000000000E+00  0.14999999963E+04  0.15000000000E+04  0.10566000000E+00 0.  1.
        994   -1    0    0    0    0 -0.00000000000E+00 -0.00000000000E+00  0.11368683772E-12  0.17120000000E+03  0.17120000000E+03 0.  0.
         13    1    1    2    0    0  0.11285058028E+03  0.28000281678E+03  0.92831752870E+03  0.97617123300E+03  0.10566000000E+00 0.  1.
        994    1    1    2    0    0 -0.61865928076E+02 -0.25744200630E+03  0.37288930218E+03  0.48832330616E+03  0.17120000000E+03 0.  0.
        998    1    1    2    0    0 -0.50984652209E+02 -0.22560810488E+02  0.19879316540E+03  0.20670546084E+03  0.10000000000E+02 0. -1.
</event>
<event>
 5    1  0.9123258E-009  0.3401626E+03  0.7957747E-01  0.3645363E+00
         13   -1    0    0    0    0  0.00000000000E+00  0.00000000000E+00  0.14999999963E+04  0.15000000000E+04  0.10566000000E+00 0.  1.
        994   -1    0    0    0    0 -0.00000000000E+00 -0.00000000000E+00  0.11368683772E-12  0.17120000000E+03  0.17120000000E+03 0.  0.
         13    1    1    2    0    0 -0.39567775276E+02 -0.18923593150E+03  0.10436016203E+04  0.10613577153E+04  0.10566000000E+00 0.  1.
        994    1    1    2    0    0 -0.11788995837E+02  0.15049454947E+03  0.10285050233E+03  0.25035026597E+03  0.17120000000E+03 0.  0.
        998    1    1    2    0    0  0.51356771112E+02  0.38741382029E+02  0.35354787361E+03  0.35949201876E+03  0.10000000000E+02 0.  1.
</event>
<event>
 5    1  0.9123258E-009  0.3787341E+03  0.7957747E-01  0.3456689E+00
         13   -1    0    0    0    0  0.00000000000E+00  0.00000000000E+00  0.14999999963E+04  0.15000000000E+04  0.10566000000E+00 0. -1.
        994   -1    0    0    0    0 -0.00000000000E+00 -0.00000000000E+00  0.11368683772E-12  0.17120000000E+03  0.17120000000E+03 0.  0.
         13    1    1    2    0    0  0.23742731519E+02  0.24878420584E+02  0.11437077768E+03  0.11942922198E+03  0.10566000000E+00 0. -1.
        994    1    1    2    0    0 -0.24790824417E+02 -0.22719629228E+02  0.85788462974E+01  0.17468200575E+03  0.17120000000E+03 0.  0.
        998    1    1    2    0    0  0.10480928983E+01 -0.21587913565E+01  0.13770503723E+04  0.13770887723E+04  0.10000000000E+02 0. -1.
</event>
<event>
 5    1  0.9123258E-009  0.3806408E+03  0.7957747E-01  0.3448373E+00
         13   -1    0    0    0    0  0.00000000000E+00  0.00000000000E+00  0.14999999963E+04  0.15000000000E+04  0.10566000000E+00 0.  1.
        994   -1    0    0    0    0 -0.00000000000E+00 -0.00000000000E+00  0.11368683772E-12  0.17120000000E+03  0.17120000000E+03 0.  0.
         13    1    1    2    0    0 -0.16015532047E+02  0.10468696946E+03  0.28912239913E+03  0.30790847940E+03  0.10566000000E+00 0.  1.
        994    1    1    2    0    0 -0.30344067149E+01 -0.91536435784E+02  0.47820243721E+02  0.19996085219E+03  0.17120000000E+03 0.  0.
        998    1    1    2    0    0  0.19049938762E+02 -0.13150533677E+02  0.11630573534E+04  0.11633306684E+04  0.10000000000E+02 0.  1.
</event>
<event>
 5    1  0.9123258E-009  0.3853712E+03  0.7957747E-01  0.3428099E+00
         13   -1    0    0    0    0  0.00000000000E+00  0.00000000000E+00  0.14999999963E+04  0.15000000000E+04  0.10566000000E+00 0. -1.
        994   -1    0    0    0    0 -0.00000000000E+00 -0.00000000000E+00  0.11368683772E-12  0.17120000000E+03  0.17120000000E+03 0.  0.
         13    1    1    2    0    0  0.12731339513E+02 -0.36182815164E+01  0.61967647070E+02  0.63365443377E+02  0.10566000000E+00 0. -1.
        994    1    1    2    0    0 -0.75574673981E+01 -0.48884110994E+01  0.17120971688E+01  0.17144498579E+03  0.17120000000E+03 0.  0.
        998    1    1    2    0    0 -0.51738721153E+01  0.85066926158E+01  0.14363202520E+04  0.14363895708E+04  0.10000000000E+02 0. -1.
</event>
<event>
 5    1  0.9123258E-009  0.3845405E+03  0.7957747E-01  0.3431623E+00
         13   -1    0    0    0    0  0.00000000000E+00  0.00000000000E+00  0.14999999963E+04  0.15000000000E+04  0.10566000000E+00 0.  1.
        994   -1    0    0    0    0 -0.00000000000E+00 -0.00000000000E+00  0.11368683772E-12  0.17120000000E+03  0.17120000000E+03 0.  0.
         13    1    1    2    0    0 -0.10022115922E+03 -0.19396495013E+03  0.11332010594E+04  0.11540413055E+04  0.10566000000E+00 0.  1.
        994    1    1    2    0    0  0.95181241290E+02  0.20550324343E+03  0.19456165915E+03  0.34417253081E+03  0.17120000000E+03 0.  0.
        998    1    1    2    0    0  0.50399179322E+01 -0.11538293295E+02  0.17223727775E+03  0.17298616370E+03  0.10000000000E+02 0. -1.
</event>
<event>
 5    1  0.9123258E-009  0.3820268E+03  0.7957747E-01  0.3442381E+00
         13   -1    0    0    0    0  0.00000000000E+00  0.00000000000E+00  0.14999999963E+04  0.15000000000E+04  0.10566000000E+00 0. -1.
        994   -1    0    0    0    0 -0.00000000000E+00 -0.00000000000E+00  0.11368683772E-12  0.17120000000E+03  0.17120000000E+03 0.  0.
         13    1    1    2    0    0  0.28291520008E+01  0.30115481567E+02  0.19040029215E+02  0.35741855122E+02  0.10566000000E+00 0. -1.
        994    1    1    2    0    0 -0.13078161098E+02 -0.21564282631E+02  0.19770378238E+02  0.17417337466E+03  0.17120000000E+03 0.  0.
        998    1    1    2    0    0  0.10249009097E+02 -0.85511989360E+01  0.14611895888E+04  0.14612847702E+04  0.10000000000E+02 0. -1.
</event>
<event>
 5    1  0.9123258E-009  0.3809961E+03  0.7957747E-01  0.3446833E+00
         13   -1    0    0    0    0  0.00000000000E+00  0.00000000000E+00  0.14999999963E+04  0.15000000000E+04  0.10566000000E+00 0.  1.
        994   -1    0    0    0    0 -0.00000000000E+00 -0.00000000000E+00  0.11368683772E-12  0.17120000000E+03  0.17120000000E+03 0.  0.
         13    1    1    2    0    0 -0.90537880447E+01 -0.22112063974E+02  0.75617486050E+02  0.79302773039E+02  0.10566000000E+00 0.  1.
        994    1    1    2    0    0  0.65160720279E+01  0.18714767293E+02  0.49407410059E+01  0.17241389918E+03  0.17120000000E+03 0.  0.
        998    1    1    2    0    0  0.25377160167E+01  0.33972966812E+01  0.14194417692E+04  0.14194833278E+04  0.10000000000E+02 0.  1.
</event>
<event>
 5    1  0.9123258E-009  0.2306139E+03  0.7957747E-01  0.4563028E+00
         13   -1    0    0    0    0  0.00000000000E+00  0.00000000000E+00  0.14999999963E+04  0.15000000000E+04  0.10566000000E+00 0. -1.
        994   -1    0    0    0    0 -0.00000000000E+00 -0.00000000000E+00  0.11368683772E-12  0.17120000000E+03  0.17120000000E+03 0.  0.
         13    1    1    2    0    0 -0.14401195402E+03  0.69301925786E+02  0.22013167203E+03  0.27202971164E+03  0.10566000000E+00 0. -1.
        994    1    1    2    0    0  0.10904368612E+03 -0.66565215094E+02  0.13281386599E+03  0.25153611340E+03  0.17120000000E+03 0.  0.
        998    1    1    2    0    0  0.34968267898E+02 -0.27367106920E+01  0.11470544583E+04  0.11476341750E+04  0.10000000000E+02 0.  1.
</event>
<event>
 5    1  0.9123258E-009  0.3719463E+03  0.7957747E-01  0.3486994E+00
         13   -1    0    0    0    0  0.00000000000E+00  0.00000000000E+00  0.14999999963E+04  0.15000000000E+04  0.10566000000E+00 0.  1.
        994   -1    0    0    0    0 -0.00000000000E+00 -0.00000000000E+00  0.11368683772E-12  0.17120000000E+03  0.17120000000E+03 0.  0.
         13    1    1    2    0    0 -0.23221950487E+02 -0.64375435338E+01  0.31484692115E+02  0.39648429386E+02  0.10566000000E+00 0.  1.
        994    1    1    2    0    0  0.20306544164E+02  0.30425764199E+01  0.97047101139E+01  0.17269983904E+03  0.17120000000E+03 0.  0.
        998    1    1    2    0    0  0.29154063224E+01  0.33949671139E+01  0.14588105940E+04  0.14588517316E+04  0.10000000000E+02 0.  1.
</event>
<event>
 5    1  0.9123258E-009  0.3905050E+03  0.7957747E-01  0.3406655E+00
         13   -1    0    0    0    0  0.00000000000E+00  0.00000000000E+00  0.14999999963E+04  0.15000000000E+04  0.10566000000E+00 0.  1.
        994   -1    0    0    0    0 -0.00000000000E+00 -0.00000000000E+00  0.11368683772E-12  0.17120000000E+03  0.17120000000E+03 0.  0.
         13    1    1    2    0    0 -0.10371216459E+02 -0.22297209950E+02  0.38392879560E+01  0.24889335034E+02  0.10566000000E+00 0.  1.
        994    1    1    2    0    0  0.41846980328E+02  0.80740551265E+01  0.29099434245E+02  0.17880877272E+03  0.17120000000E+03 0.  0.
        998    1    1    2    0    0 -0.31475763869E+02  0.14223154823E+02  0.14670612741E+04  0.14675018922E+04  0.10000000000E+02 0.  1.
</event>
<event>
 5    1  0.9123258E-009  0.3687550E+03  0.7957747E-01  0.3501632E+00
         13   -1    0    0    0    0  0.00000000000E+00  0.00000000000E+00  0.14999999963E+04  0.15000000000E+04  0.10566000000E+00 0.  1.
        994   -1    0    0    0    0 -0.00000000000E+00 -0.00000000000E+00  0.11368683772E-12  0.17120000000E+03  0.17120000000E+03 0.  0.
         13    1    1    2    0    0  0.46726574446E+01  0.21876407484E+02  0.20559495003E+02  0.30382806500E+02  0.10566000000E+00 0.  1.
        994    1    1    2    0    0 -0.33699390227E+01 -0.25032257099E+02  0.12139844737E+02  0.17347848920E+03  0.17120000000E+03 0.  0.
        998    1    1    2    0    0 -0.13027184219E+01  0.31558496152E+01  0.14673006565E+04  0.14673387043E+04  0.10000000000E+02 0.  1.
</event>
<event>
 5    1  0.9123258E-009  0.3785734E+03  0.7957747E-01  0.3457394E+00
         13   -1    0    0    0    0  0.00000000000E+00  0.00000000000E+00  0.14999999963E+04  0.15000000000E+04  0.10566000000E+00 0. -1.
        994   -1    0    0    0    0 -0.00000000000E+00 -0.00000000000E+00  0.11368683772E-12  0.17120000000E+03  0.17120000000E+03 0.  0.
         13    1    1    2    0    0 -0.59650400924E+02  0.76349223283E+01  0.31907380978E+03  0.32469149915E+03  0.10566000000E+00 0. -1.
        994    1    1    2    0    0  0.50740978282E+02 -0.70968035048E+01  0.13722909587E+02  0.17922826157E+03  0.17120000000E+03 0.  0.
        998    1    1    2    0    0  0.89094226425E+01 -0.53811882351E+00  0.11672032769E+04  0.11672802393E+04  0.10000000000E+02 0. -1.
</event>
<event>
 5    1  0.9123258E-009  0.3851901E+03  0.7957747E-01  0.3428866E+00
         13   -1    0    0    0    0  0.00000000000E+00  0.00000000000E+00  0.14999999963E+04  0.15000000000E+04  0.10566000000E+00 0.  1.
        994   -1    0    0    0    0 -0.00000000000E+00 -0.00000000000E+00  0.11368683772E-12  0.17120000000E+03  0.17120000000E+03 0.  0.
         13    1    1    2    0    0 -0.99571789479E+00  0.16889986885E+02  0.95075104328E+02  0.96568885973E+02  0.10566000000E+00 0.  1.
        994    1    1    2    0    0 -0.34510920361E+01 -0.88680319712E+01  0.18334516761E+01  0.17147406093E+03  0.17120000000E+03 0.  0.
        998    1    1    2    0    0  0.44468099309E+01 -0.80219549140E+01  0.14030914403E+04  0.14031570531E+04  0.10000000000E+02 0.  1.
</event>
<event>
 5    1  0.9123258E-009  0.3717203E+03  0.7957747E-01  0.3488022E+00
         13   -1    0    0    0    0  0.00000000000E+00  0.00000000000E+00  0.14999999963E+04  0.15000000000E+04  0.10566000000E+00 0. -1.
        994   -1    0    0    0    0 -0.00000000000E+00 -0.00000000000E+00  0.11368683772E-12  0.17120000000E+03  0.17120000000E+03 0.  0.
         13    1    1    2    0    0  0.33400015051E+02 -0.16324299202E+02  0.75708254427E+02  0.84343314509E+02  0.10566000000E+00 0. -1.
        994    1    1    2    0    0 -0.31449569457E+02  0.21550990530E+02  0.13385263487E+02  0.17590374041E+03  0.17120000000E+03 0.  0.
        998    1    1    2    0    0 -0.19504455944E+01 -0.52266913275E+01  0.14109064784E+04  0.14109529451E+04  0.10000000000E+02 0. -1.
</event>
<event>
 5    1  0.9123258E-009  0.3706140E+03  0.7957747E-01  0.3493074E+00
         13   -1    0    0    0    0  0.00000000000E+00  0.00000000000E+00  0.14999999963E+04  0.15000000000E+04  0.10566000000E+00 0.  1.
        994   -1    0    0    0    0 -0.00000000000E+00 -0.00000000000E+00  0.11368683772E-12  0.17120000000E+03  0.17120000000E+03 0.  0.
         13    1    1    2    0    0 -0.41192630892E+01 -0.35013112636E+02  0.48888898247E+02  0.60274554505E+02  0.10566000000E+00 0.  1.
        994    1    1    2    0    0  0.24754024289E+01  0.38338335659E+02  0.16452668758E+02  0.17622736992E+03  0.17120000000E+03 0.  0.
        998    1    1    2    0    0  0.16438606604E+01 -0.33252230225E+01  0.14346584293E+04  0.14346980756E+04  0.10000000000E+02 0.  1.
</event>
<event>
 5    1  0.9123258E-009  0.3822439E+03  0.7957747E-01  0.3441446E+00
         13   -1    0    0    0    0  0.00000000000E+00  0.00000000000E+00  0.14999999963E+04  0.15000000000E+04  0.10566000000E+00 0. -1.
        994   -1    0    0    0    0 -0.00000000000E+00 -0.00000000000E+00  0.11368683772E-12  0.17120000000E+03  0.17120000000E+03 0.  0.
         13    1    1    2    0    0  0.28848991100E+01  0.12805337049E+02  0.26430921526E+02  0.29511083961E+02  0.10566000000E+00 0. -1.
        994    1    1    2    0    0 -0.18973141484E+02 -0.18041033232E+02  0.52825812531E+01  0.17327089958E+03  0.17120000000E+03 0.  0.
        998    1    1    2    0    0  0.16088242374E+02  0.52356961832E+01  0.14682864935E+04  0.14684180165E+04  0.10000000000E+02 0. -1.
</event>
<event>
 5    1  0.9123258E-009  0.3689874E+03  0.7957747E-01  0.3500558E+00
         13   -1    0    0    0    0  0.00000000000E+00  0.00000000000E+00  0.14999999963E+04  0.15000000000E+04  0.10566000000E+00 0. -1.
        994   -1    0    0    0    0 -0.00000000000E+00 -0.00000000000E+00  0.11368683772E-12  0.17120000000E+03  0.17120000000E+03 0.  0.
         13    1    1    2    0    0  0.15291652237E+02  0.77082453430E+01  0.98236748430E+01  0.19742528356E+02  0.10566000000E+00 0. -1.
        994    1    1    2    0    0 -0.31759540341E+02 -0.32001411660E+02  0.16885814850E+02  0.17784074194E+03  0.17120000000E+03 0.  0.
        998    1    1    2    0    0  0.16467888104E+02  0.24293166317E+02  0.14732905066E+04  0.14736167297E+04  0.10000000000E+02 0. -1.
</event>
<event>
 5    1  0.9123258E-009  0.3814505E+03  0.7957747E-01  0.3444867E+00
         13   -1    0    0    0    0  0.00000000000E+00  0.00000000000E+00  0.14999999963E+04  0.15000000000E+04  0.10566000000E+00 0. -1.
        994   -1    0    0    0    0 -0.00000000000E+00 -0.00000000000E+00  0.11368683772E-12  0.17120000000E+03  0.17120000000E+03 0.  0.
         13    1    1    2    0    0 -0.56269881814E+01 -0.14560241629E+02  0.37340976820E+02  0.40472501112E+02  0.10566000000E+00 0. -1.
        994    1    1    2    0    0 -0.31998597455E+01 -0.10725769165E+02  0.38196270040E+01  0.17160801490E+03  0.17120000000E+03 0.  0.
        998    1    1    2    0    0  0.88268479269E+01  0.25286010794E+02  0.14588393925E+04  0.14591194840E+04  0.10000000000E+02 0. -1.
</event>
<event>
 5    1  0.9123258E-009  0.3835650E+03  0.7957747E-01  0.3435781E+00
         13   -1    0    0    0    0  0.00000000000E+00  0.00000000000E+00  0.14999999963E+04  0.15000000000E+04  0.10566000000E+00 0.  1.
        994   -1    0    0    0    0 -0.00000000000E+00 -0.00000000000E+00  0.11368683772E-12  0.17120000000E+03  0.17120000000E+03 0.  0.
         13    1    1    2    0    0 -0.19951365571E+02  0.96789119476E+01  0.10450794606E+03  0.10683473349E+03  0.10566000000E+00 0.  1.
        994    1    1    2    0    0  0.21599667351E+02  0.12342293928E+02  0.43917497427E+01  0.17305376423E+03  0.17120000000E+03 0.  0.
        998    1    1    2    0    0 -0.16483017806E+01 -0.22021205876E+02  0.13911003005E+04  0.13913115023E+04  0.10000000000E+02 0.  1.
</event>
<event>
 5    1  0.9123258E-009  0.3829742E+03  0.7957747E-01  0.3438310E+00
         13   -1    0    0    0    0  0.00000000000E+00  0.00000000000E+00  0.14999999963E+04  0.15000000000E+04  0.10566000000E+00 0. -1.
        994   -1    0    0    0    0 -0.00000000000E+00 -0.00000000000E+00  0.11368683772E-12  0.17120000000E+03  0.17120000000E+03 0.  0.
         13    1    1    2    0    0  0.56891628497E+01  0.95044848142E+01  0.22075386266E+02  0.24698899740E+02  0.10566000000E+00 0. -1.
        994    1    1    2    0    0 -0.71948951523E+01 -0.81164317789E+01  0.30288077772E+01  0.17156997598E+03  0.17120000000E+03 0.  0.
        998    1    1    2    0    0  0.15057323026E+01 -0.13880530353E+01  0.14748958022E+04  0.14749311243E+04  0.10000000000E+02 0. -1.
</event>
<event>
 5    1  0.9123258E-009  0.3833188E+03  0.7957747E-01  0.3436834E+00
         13   -1    0    0    0    0  0.00000000000E+00  0.00000000000E+00  0.14999999963E+04  0.15000000000E+04  0.10566000000E+00 0. -1.
        994   -1    0    0    0    0 -0.00000000000E+00 -0.00000000000E+00  0.11368683772E-12  0.17120000000E+03  0.17120000000E+03 0.  0.
         13    1    1    2    0    0 -0.56077006090E+00 -0.11112980791E+02  0.23982207281E+02  0.26438045223E+02  0.10566000000E+00 0. -1.
        994    1    1    2    0    0 -0.30291181215E+01  0.11094883410E+02  0.29046060844E+01  0.17161045636E+03  0.17120000000E+03 0.  0.
        998    1    1    2    0    0  0.35898881824E+01  0.18097380941E-01  0.14731131829E+04  0.14731514984E+04  0.10000000000E+02 0. -1.
</event>
<event>
 5    1  0.9123258E-009  0.3819820E+03  0.7957747E-01  0.3442574E+00
         13   -1    0    0    0    0  0.00000000000E+00  0.00000000000E+00  0.14999999963E+04  0.15000000000E+04  0.10566000000E+00 0. -1.
        994   -1    0    0    0    0 -0.00000000000E+00 -0.00000000000E+00  0.11368683772E-12  0.17120000000E+03  0.17120000000E+03 0.  0.
         13    1    1    2    0    0 -0.47736425769E+01 -0.20524237450E+02  0.71783770963E+02  0.74812785833E+02  0.10566000000E+00 0. -1.
        994    1    1    2    0    0 -0.80623540251E+01  0.98162456838E+01  0.36720627550E+01  0.17170988404E+03  0.17120000000E+03 0.  0.
        998    1    1    2    0    0  0.12835996602E+02  0.10707991766E+02  0.14245441626E+04  0.14246773301E+04  0.10000000000E+02 0. -1.
</event>
<event>
 5    1  0.9123258E-009  0.3763575E+03  0.7957747E-01  0.3467174E+00
         13   -1    0    0    0    0  0.00000000000E+00  0.00000000000E+00  0.14999999963E+04  0.15000000000E+04  0.10566000000E+00 0. -1.
        994   -1    0    0    0    0 -0.00000000000E+00 -0.00000000000E+00  0.11368683772E-12  0.17120000000E+03  0.17120000000E+03 0.  0.
         13    1    1    2    0    0  0.37071857960E+02 -0.23111849615E+02  0.14801833270E+03  0.15433054858E+03  0.10566000000E+00 0. -1.
        994    1    1    2    0    0 -0.30233592828E+02  0.22154815021E+02  0.10751854414E+02  0.17558459026E+03  0.17120000000E+03 0.  0.
        998    1    1    2    0    0 -0.68382651319E+01  0.95703459473E+00  0.13412298092E+04  0.13412848612E+04  0.10000000000E+02 0. -1.
</event>
<event>
 5    1  0.9123258E-009  0.3842330E+03  0.7957747E-01  0.3432932E+00
         13   -1    0    0    0    0  0.00000000000E+00  0.00000000000E+00  0.14999999963E+04  0.15000000000E+04  0.10566000000E+00 0. -1.
        994   -1    0    0    0    0 -0.00000000000E+00 -0.00000000000E+00  0.11368683772E-12  0.17120000000E+03  0.17120000000E+03 0.  0.
         13    1    1    2    0    0 -0.17949321881E+02 -0.16699986779E+02  0.13419498400E+03  0.13641617430E+03  0.10566000000E+00 0. -1.
        994    1    1    2    0    0  0.16442896281E+02  0.23299974371E+02  0.46972240123E+01  0.17362246847E+03  0.17120000000E+03 0.  0.
        998    1    1    2    0    0  0.15064256008E+01 -0.65999875916E+01  0.13611077883E+04  0.13611613572E+04  0.10000000000E+02 0. -1.
</event>
<event>
 5    1  0.9123258E-009  0.3764049E+03  0.7957747E-01  0.3466963E+00
         13   -1    0    0    0    0  0.00000000000E+00  0.00000000000E+00  0.14999999963E+04  0.15000000000E+04  0.10566000000E+00 0.  1.
        994   -1    0    0    0    0 -0.00000000000E+00 -0.00000000000E+00  0.11368683772E-12  0.17120000000E+03  0.17120000000E+03 0.  0.
         13    1    1    2    0    0  0.11621612800E+02 -0.26806328535E+02  0.72948618127E+02  0.78582142910E+02  0.10566000000E+00 0.  1.
        994    1    1    2    0    0 -0.83464923296E+01  0.24287403565E+01  0.62147528738E+01  0.17153316259E+03  0.17120000000E+03 0.  0.
        998    1    1    2    0    0 -0.32751204703E+01  0.24377588179E+02  0.14208366253E+04  0.14210846945E+04  0.10000000000E+02 0.  1.
</event>
<event>
 5    1  0.9123258E-009  0.3823028E+03  0.7957747E-01  0.3441193E+00
         13   -1    0    0    0    0  0.00000000000E+00  0.00000000000E+00  0.14999999963E+04  0.15000000000E+04  0.10566000000E+00 0. -1.
        994   -1    0    0    0    0 -0.00000000000E+00 -0.00000000000E+00  0.11368683772E-12  0.17120000000E+03  0.17120000000E+03 0.  0.
         13    1    1    2    0    0 -0.38577680718E+02  0.42391125618E+01  0.21235345944E+03  0.21587081884E+03  0.10566000000E+00 0. -1.
        994    1    1    2    0    0  0.41326331304E+02 -0.12812163031E+02  0.92109531678E+01  0.17682278936E+03  0.17120000000E+03 0.  0.
        998    1    1    2    0    0 -0.27486505855E+01  0.85730504690E+01  0.12784355837E+04  0.12785063918E+04  0.10000000000E+02 0. -1.
</event>
<event>
 5    1  0.9123258E-009  0.3779452E+03  0.7957747E-01  0.3460155E+00
         13   -1    0    0    0    0  0.00000000000E+00  0.00000000000E+00  0.14999999963E+04  0.15000000000E+04  0.10566000000E+00 0. -1.
        994   -1    0    0    0    0 -0.00000000000E+00 -0.00000000000E+00  0.11368683772E-12  0.17120000000E+03  0.17120000000E+03 0.  0.
         13    1    1    2    0    0 -0.56755067403E+02  0.83337160940E+02  0.58006831037E+03  0.58876606214E+03  0.10566000000E+00 0. -1.
        994    1    1    2    0    0  0.55056015292E+02 -0.85708652196E+02  0.40936988411E+02  0.20337751818E+03  0.17120000000E+03 0.  0.
        998    1    1    2    0    0  0.16990521110E+01  0.23714912557E+01  0.87899469750E+03  0.87905641968E+03  0.10000000000E+02 0.  0.
</event>
<event>
 5    1  0.9123258E-009  0.3833563E+03  0.7957747E-01  0.3436673E+00
         13   -1    0    0    0    0  0.00000000000E+00  0.00000000000E+00  0.14999999963E+04  0.15000000000E+04  0.10566000000E+00 0. -1.
        994   -1    0    0    0    0 -0.00000000000E+00 -0.00000000000E+00  0.11368683772E-12  0.17120000000E+03  0.17120000000E+03 0.  0.
         13    1    1    2    0    0  0.40471223974E+01 -0.12805613362E+02  0.35636205217E+02  0.38082978082E+02  0.10566000000E+00 0. -1.
        994    1    1    2    0    0 -0.65818124983E+01  0.10737430393E+02  0.29729996700E+01  0.17168835544E+03  0.17120000000E+03 0.  0.
        998    1    1    2    0    0  0.25346901008E+01  0.20681829694E+01  0.14613907914E+04  0.14614286665E+04  0.10000000000E+02 0. -1.
</event>
<event>
 5    1  0.9123258E-009  0.3846962E+03  0.7957747E-01  0.3430962E+00
         13   -1    0    0    0    0  0.00000000000E+00  0.00000000000E+00  0.14999999963E+04  0.15000000000E+04  0.10566000000E+00 0.  1.
        994   -1    0    0    0    0 -0.00000000000E+00 -0.00000000000E+00  0.11368683772E-12  0.17120000000E+03  0.17120000000E+03 0.  0.
         13    1    1    2    0    0 -0.73378528732E+02 -0.20271455772E+03  0.12016970957E+04  0.12208822717E+04  0.10566000000E+00 0.  1.
        994    1    1    2    0    0  0.73943388177E+02  0.20373558670E+03  0.17579650085E+03  0.32739832567E+03  0.17120000000E+03 0.  0.
        998    1    1    2    0    0 -0.56485944476E+00 -0.10210289765E+01  0.12250639969E+03  0.12291940258E+03  0.10000000000E+02 0.  0.
</event>
<event>
 5    1  0.9123258E-009  0.3860467E+03  0.7957747E-01  0.3425245E+00
         13   -1    0    0    0    0  0.00000000000E+00  0.00000000000E+00  0.14999999963E+04  0.15000000000E+04  0.10566000000E+00 0.  1.
        994   -1    0    0    0    0 -0.00000000000E+00 -0.00000000000E+00  0.11368683772E-12  0.17120000000E+03  0.17120000000E+03 0.  0.
         13    1    1    2    0    0 -0.38193523147E+01  0.10863795026E+02  0.65225290956E+02  0.66234124429E+02  0.10566000000E+00 0.  1.
        994    1    1    2    0    0  0.48947207273E+01  0.40005084779E+01  0.12423488828E+01  0.17132117730E+03  0.17120000000E+03 0.  0.
        998    1    1    2    0    0 -0.10753684127E+01 -0.14864303504E+02  0.14335323564E+04  0.14336446983E+04  0.10000000000E+02 0.  1.
</event>
<event>
 5    1  0.9123258E-009  0.3858224E+03  0.7957747E-01  0.3426192E+00
         13   -1    0    0    0    0  0.00000000000E+00  0.00000000000E+00  0.14999999963E+04  0.15000000000E+04  0.10566000000E+00 0. -1.
        994   -1    0    0    0    0 -0.00000000000E+00 -0.00000000000E+00  0.11368683772E-12  0.17120000000E+03  0.17120000000E+03 0.  0.
         13    1    1    2    0    0 -0.84434873204E+01  0.79525341607E+01  0.55875728680E+02  0.57067008834E+02  0.10566000000E+00 0. -1.
        994    1    1    2    0    0  0.49254131791E+01 -0.47584343245E+01  0.13762103610E+01  0.17134245343E+03  0.17120000000E+03 0.  0.
        998    1    1    2    0    0  0.35180741413E+01 -0.31940998362E+01  0.14427480572E+04  0.14427905377E+04  0.10000000000E+02 0.  0.
</event>
<event>
 5    1  0.9123258E-009  0.3803608E+03  0.7957747E-01  0.3449589E+00
         13   -1    0    0    0    0  0.00000000000E+00  0.00000000000E+00  0.14999999963E+04  0.15000000000E+04  0.10566000000E+00 0. -1.
        994   -1    0    0    0    0 -0.00000000000E+00 -0.00000000000E+00  0.11368683772E-12  0.17120000000E+03  0.17120000000E+03 0.  0.
         13    1    1    2    0    0 -0.25918990771E+02 -0.26491301174E+02  0.19118422668E+03  0.19474342817E+03  0.10566000000E+00 0. -1.
        994    1    1    2    0    0  0.48917060302E+01  0.60898601052E+01  0.41548955877E+01  0.17142846421E+03  0.17120000000E+03 0.  0.
        998    1    1    2    0    0  0.21027284741E+02  0.20401441069E+02  0.13046608740E+04  0.13050281076E+04  0.10000000000E+02 0. -1.
</event>
<event>
 5    1  0.9123258E-009  0.3810084E+03  0.7957747E-01  0.3446779E+00
         13   -1    0    0    0    0  0.00000000000E+00  0.00000000000E+00  0.14999999963E+04  0.15000000000E+04  0.10566000000E+00 0.  1.
        994   -1    0    0    0    0 -0.00000000000E+00 -0.00000000000E+00  0.11368683772E-12  0.17120000000E+03  0.17120000000E+03 0.  0.
         13    1    1    2    0    0  0.22558595230E+00 -0.36772748126E+02  0.20640442393E+03  0.20965467625E+03  0.10566000000E+00 0.  1.
        994    1    1    2    0    0  0.65647317548E+01  0.81678052283E+01  0.39909156040E+01  0.17156682708E+03  0.17120000000E+03 0.  0.
        998    1    1    2    0    0 -0.67903177071E+01  0.28604942897E+02  0.12896046567E+04  0.12899784967E+04  0.10000000000E+02 0.  1.
</event>
<event>
 5    1  0.9123258E-009  0.3834757E+03  0.7957747E-01  0.3436163E+00
         13   -1    0    0    0    0  0.00000000000E+00  0.00000000000E+00  0.14999999963E+04  0.15000000000E+04  0.10566000000E+00 0.  1.
        994   -1    0    0    0    0 -0.00000000000E+00 -0.00000000000E+00  0.11368683772E-12  0.17120000000E+03  0.17120000000E+03 0.  0.
         13    1    1    2    0    0  0.92171180902E+01  0.66075619246E+01  0.26618042922E+02  0.28933484296E+02  0.10566000000E+00 0.  1.
        994    1    1    2    0    0  0.45744319325E+01 -0.11101072968E+02  0.28654028434E+01  0.17164442835E+03  0.17120000000E+03 0.  0.
        998    1    1    2    0    0 -0.13791550023E+02  0.44935110429E+01  0.14705165505E+04  0.14706220874E+04  0.10000000000E+02 0.  1.
</event>
<event>
 5    1  0.1136764E-008  0.3855386E+03  0.7957747E-01  0.3427391E+00
         13   -1    0    0    0    0  0.00000000000E+00  0.00000000000E+00  0.14999999963E+04  0.15000000000E+04  0.10566000000E+00 0. -1.
        994   -1    0    0    0    0 -0.00000000000E+00 -0.00000000000E+00  0.11368683772E-12  0.17120000000E+03  0.17120000000E+03 0.  0.
         13    1    1    2    0    0 -0.14930802764E+02  0.19367245222E+01  0.78561600960E+02  0.79991350048E+02  0.10566000000E+00 0. -1.
        994    1    1    2    0    0  0.18048511782E+02 -0.19277359641E+01  0.24453048629E+01  0.17217689874E+03  0.17120000000E+03 0.  0.
        998    1    1    2    0    0 -0.31177090181E+01 -0.89885581194E-02  0.14189930905E+04  0.14190317512E+04  0.10000000000E+02 0. -1.
</event>
<event>
 5    1  0.9123258E-009  0.3828484E+03  0.7957747E-01  0.3438849E+00
         13   -1    0    0    0    0  0.00000000000E+00  0.00000000000E+00  0.14999999963E+04  0.15000000000E+04  0.10566000000E+00 0.  1.
        994   -1    0    0    0    0 -0.00000000000E+00 -0.00000000000E+00  0.11368683772E-12  0.17120000000E+03  0.17120000000E+03 0.  0.
         13    1    1    2    0    0  0.13267191595E+02  0.18235767726E+03  0.95262326139E+03  0.97001104639E+03  0.10566000000E+00 0.  1.
        994    1    1    2    0    0 -0.41385432675E+02 -0.20474733881E+03  0.16394335335E+03  0.31594475767E+03  0.17120000000E+03 0.  0.
        998    1    1    2    0    0  0.28118241080E+02  0.22389661550E+02  0.38343338154E+03  0.38524419594E+03  0.10000000000E+02 0. -1.
</event>
<event>
 5    1  0.9123258E-009  0.3929588E+03  0.7957747E-01  0.3396604E+00
         13   -1    0    0    0    0  0.00000000000E+00  0.00000000000E+00  0.14999999963E+04  0.15000000000E+04  0.10566000000E+00 0. -1.
        994   -1    0    0    0    0 -0.00000000000E+00 -0.00000000000E+00  0.11368683772E-12  0.17120000000E+03  0.17120000000E+03 0.  0.
         13    1    1    2    0    0 -0.11292593594E+03  0.20356782519E+02  0.40193859535E+03  0.41799678372E+03  0.10566000000E+00 0. -1.
        994    1    1    2    0    0 -0.30218572853E+01 -0.32942046872E+02  0.27811312200E+02  0.17657072000E+03  0.17120000000E+03 0.  0.
        998    1    1    2    0    0  0.11594779323E+03  0.12585264352E+02  0.10702500887E+04  0.10766324963E+04  0.10000000000E+02 0. -1.
</event>
<event>
 5    1  0.9123258E-009  0.3819975E+03  0.7957747E-01  0.3442507E+00
         13   -1    0    0    0    0  0.00000000000E+00  0.00000000000E+00  0.14999999963E+04  0.15000000000E+04  0.10566000000E+00 0.  1.
        994   -1    0    0    0    0 -0.00000000000E+00 -0.00000000000E+00  0.11368683772E-12  0.17120000000E+03  0.17120000000E+03 0.  0.
         13    1    1    2    0    0 -0.37514433901E+01 -0.94046389374E+01  0.15155413676E+02  0.18226856251E+02  0.10566000000E+00 0.  1.
        994    1    1    2    0    0 -0.85020867023E+00  0.66491490508E+01  0.32774214976E+01  0.17136252662E+03  0.17120000000E+03 0.  0.
        998    1    1    2    0    0  0.46016520603E+01  0.27554898866E+01  0.14815671611E+04  0.14816106171E+04  0.10000000000E+02 0.  1.
</event>
<event>
 5    1  0.9123258E-009  0.3823574E+03  0.7957747E-01  0.3440958E+00
         13   -1    0    0    0    0  0.00000000000E+00  0.00000000000E+00  0.14999999963E+04  0.15000000000E+04  0.10566000000E+00 0. -1.
        994   -1    0    0    0    0 -0.00000000000E+00 -0.00000000000E+00  0.11368683772E-12  0.17120000000E+03  0.17120000000E+03 0.  0.
         13    1    1    2    0    0  0.22148579964E+03 -0.27905859709E+02  0.10703696272E+04  0.10934010456E+04  0.10566000000E+00 0. -1.
        994    1    1    2    0    0 -0.22667658889E+03  0.31073076518E+02  0.20218213929E+03  0.35004981001E+03  0.17120000000E+03 0.  0.
        998    1    1    2    0    0  0.51907892577E+01 -0.31672168089E+01  0.22744822974E+03  0.22774914438E+03  0.10000000000E+02 0.  0.
</event>
<event>
 5    1  0.9123258E-009  0.3820240E+03  0.7957747E-01  0.3442393E+00
         13   -1    0    0    0    0  0.00000000000E+00  0.00000000000E+00  0.14999999963E+04  0.15000000000E+04  0.10566000000E+00 0.  1.
        994   -1    0    0    0    0 -0.00000000000E+00 -0.00000000000E+00  0.11368683772E-12  0.17120000000E+03  0.17120000000E+03 0.  0.
         13    1    1    2    0    0  0.11840846450E+02  0.11070119505E+02  0.40246746301E+02  0.43388534688E+02  0.10566000000E+00 0.  1.
        994    1    1    2    0    0 -0.10714483439E+02 -0.12291073931E+02  0.39982892572E+01  0.17202121082E+03  0.17120000000E+03 0.  0.
        998    1    1    2    0    0 -0.11263630108E+01  0.12209544267E+01  0.14557549607E+04  0.14557902545E+04  0.10000000000E+02 0.  1.
</event>
<event>
 5    1  0.9123258E-009  0.3906913E+03  0.7957747E-01  0.3405888E+00
         13   -1    0    0    0    0  0.00000000000E+00  0.00000000000E+00  0.14999999963E+04  0.15000000000E+04  0.10566000000E+00 0.  1.
        994   -1    0    0    0    0 -0.00000000000E+00 -0.00000000000E+00  0.11368683772E-12  0.17120000000E+03  0.17120000000E+03 0.  0.
         13    1    1    2    0    0 -0.66796731655E+02  0.61946233750E+02  0.18055775766E+03  0.20223811275E+03  0.10566000000E+00 0.  1.
        994    1    1    2    0    0  0.43344430740E+02 -0.37629520598E+02  0.34864791348E+02  0.18390137077E+03  0.17120000000E+03 0.  0.
        998    1    1    2    0    0  0.23452300916E+02 -0.24316713152E+02  0.12845774473E+04  0.12850605165E+04  0.10000000000E+02 0.  1.
</event>
<event>
 5    1  0.9123258E-009  0.3735269E+03  0.7957747E-01  0.3479837E+00
         13   -1    0    0    0    0  0.00000000000E+00  0.00000000000E+00  0.14999999963E+04  0.15000000000E+04  0.10566000000E+00 0.  1.
        994   -1    0    0    0    0 -0.00000000000E+00 -0.00000000000E+00  0.11368683772E-12  0.17120000000E+03  0.17120000000E+03 0.  0.
         13    1    1    2    0    0 -0.23873951903E+02 -0.42358480102E+02  0.16490932606E+03  0.17192819258E+03  0.10566000000E+00 0.  1.
        994    1    1    2    0    0 -0.46567328346E+01  0.24180892633E+02  0.95114598925E+01  0.17322329115E+03  0.17120000000E+03 0.  0.
        998    1    1    2    0    0  0.28530684737E+02  0.18177587470E+02  0.13255792103E+04  0.13260485163E+04  0.10000000000E+02 0.  1.
</event>
<event>
 5    1  0.9123258E-009  0.3692600E+03  0.7957747E-01  0.3499299E+00
         13   -1    0    0    0    0  0.00000000000E+00  0.00000000000E+00  0.14999999963E+04  0.15000000000E+04  0.10566000000E+00 0. -1.
        994   -1    0    0    0    0 -0.00000000000E+00 -0.00000000000E+00  0.11368683772E-12  0.17120000000E+03  0.17120000000E+03 0.  0.
         13    1    1    2    0    0 -0.18260310147E+02 -0.82296727739E+02  0.35007007057E+03  0.36007673598E+03  0.10566000000E+00 0. -1.
        994    1    1    2    0    0  0.34775510340E+02  0.48785145929E+02  0.22203817856E+02  0.18273416788E+03  0.17120000000E+03 0.  0.
        998    1    1    2    0    0 -0.16515200193E+02  0.33511581811E+02  0.11277261079E+04  0.11283890961E+04  0.10000000000E+02 0. -1.
</event>
<event>
 5    1  0.9123258E-009  0.3761037E+03  0.7957747E-01  0.3468301E+00
         13   -1    0    0    0    0  0.00000000000E+00  0.00000000000E+00  0.14999999963E+04  0.15000000000E+04  0.10566000000E+00 0. -1.
        994   -1    0    0    0    0 -0.00000000000E+00 -0.00000000000E+00  0.11368683772E-12  0.17120000000E+03  0.17120000000E+03 0.  0.
         13    1    1    2    0    0 -0.32787223631E+02  0.52233418018E+02  0.27244356342E+03  0.27933642513E+03  0.10566000000E+00 0. -1.
        994    1    1    2    0    0  0.55662084210E+02 -0.28783716699E+02  0.19529370531E+02  0.18335104657E+03  0.17120000000E+03 0.  0.
        998    1    1    2    0    0 -0.22874860580E+02 -0.23449701319E+02  0.12080270623E+04  0.12085125283E+04  0.10000000000E+02 0.  1.
</event>
<event>
 5    1  0.9123258E-009  0.3831728E+03  0.7957747E-01  0.3437459E+00
         13   -1    0    0    0    0  0.00000000000E+00  0.00000000000E+00  0.14999999963E+04  0.15000000000E+04  0.10566000000E+00 0.  1.
        994   -1    0    0    0    0 -0.00000000000E+00 -0.00000000000E+00  0.11368683772E-12  0.17120000000E+03  0.17120000000E+03 0.  0.
         13    1    1    2    0    0  0.14980430177E+02  0.98194178402E+01  0.65335635335E+02  0.67746517723E+02  0.10566000000E+00 0.  1.
        994    1    1    2    0    0 -0.55620404540E-02 -0.53750188440E+01  0.26356158505E+01  0.17130463312E+03  0.17120000000E+03 0.  0.
        998    1    1    2    0    0 -0.14974868137E+02 -0.44443989962E+01  0.14320287451E+04  0.14321488492E+04  0.10000000000E+02 0.  1.
</event>
<event>
 5    1  0.9123258E-009  0.3845343E+03  0.7957747E-01  0.3431650E+00
         13   -1    0    0    0    0  0.00000000000E+00  0.00000000000E+00  0.14999999963E+04  0.15000000000E+04  0.10566000000E+00 0.  1.
        994   -1    0    0    0    0 -0.00000000000E+00 -0.00000000000E+00  0.11368683772E-12  0.17120000000E+03  0.17120000000E+03 0.  0.
         13    1    1    2    0    0 -0.18740426175E+02 -0.42204028863E+01  0.10403810672E+03  0.10579675887E+03  0.10566000000E+00 0.  1.
        994    1    1    2    0    0  0.55969363185E+01  0.29144989413E+00  0.19649947029E+01  0.17130298259E+03  0.17120000000E+03 0.  0.
        998    1    1    2    0    0  0.13143489857E+02  0.39289529922E+01  0.13939968949E+04  0.13941002585E+04  0.10000000000E+02 0.  1.
</event>
<event>
 5    1  0.9123258E-009  0.3837930E+03  0.7957747E-01  0.3434807E+00
         13   -1    0    0    0    0  0.00000000000E+00  0.00000000000E+00  0.14999999963E+04  0.15000000000E+04  0.10566000000E+00 0. -1.
        994   -1    0    0    0    0 -0.00000000000E+00 -0.00000000000E+00  0.11368683772E-12  0.17120000000E+03  0.17120000000E+03 0.  0.
         13    1    1    2    0    0 -0.11782980787E+02 -0.23423909706E-01  0.30225897438E+02  0.32441566314E+02  0.10566000000E+00 0. -1.
        994    1    1    2    0    0  0.10114879305E+02  0.27901877682E+01  0.25941575593E+01  0.17154085690E+03  0.17120000000E+03 0.  0.
        998    1    1    2    0    0  0.16681014821E+01 -0.27667638585E+01  0.14671799413E+04  0.14672175768E+04  0.10000000000E+02 0. -1.
</event>
<event>
 5    1  0.9123258E-009  0.3835636E+03  0.7957747E-01  0.3435787E+00
         13   -1    0    0    0    0  0.00000000000E+00  0.00000000000E+00  0.14999999963E+04  0.15000000000E+04  0.10566000000E+00 0. -1.
        994   -1    0    0    0    0 -0.00000000000E+00 -0.00000000000E+00  0.11368683772E-12  0.17120000000E+03  0.17120000000E+03 0.  0.
         13    1    1    2    0    0 -0.13684601422E+02 -0.15915807893E+02  0.97586166744E+02  0.99818096359E+02  0.10566000000E+00 0. -1.
        994    1    1    2    0    0  0.84517684475E+00  0.78260922654E+01  0.25497288253E+01  0.17139983419E+03  0.17120000000E+03 0.  0.
        998    1    1    2    0    0  0.12839424577E+02  0.80897156280E+01  0.13998641007E+04  0.13999820694E+04  0.10000000000E+02 0. -1.
</event>
<event>
 5    1  0.9123258E-009  0.3790435E+03  0.7957747E-01  0.3455334E+00
         13   -1    0    0    0    0  0.00000000000E+00  0.00000000000E+00  0.14999999963E+04  0.15000000000E+04  0.10566000000E+00 0.  1.
        994   -1    0    0    0    0 -0.00000000000E+00 -0.00000000000E+00  0.11368683772E-12  0.17120000000E+03  0.17120000000E+03 0.  0.
         13    1    1    2    0    0 -0.39788128092E+02  0.78773913061E+01  0.16570163068E+03  0.17059363999E+03  0.10566000000E+00 0.  1.
        994    1    1    2    0    0  0.32973894570E+02 -0.73034552784E+01  0.84513390726E+01  0.17470398769E+03  0.17120000000E+03 0.  0.
        998    1    1    2    0    0  0.68142335229E+01 -0.57393602777E+00  0.13258470265E+04  0.13259023723E+04  0.10000000000E+02 0.  1.
</event>
<event>
 5    1  0.9123258E-009  0.3850399E+03  0.7957747E-01  0.3429503E+00
         13   -1    0    0    0    0  0.00000000000E+00  0.00000000000E+00  0.14999999963E+04  0.15000000000E+04  0.10566000000E+00 0.  1.
        994   -1    0    0    0    0 -0.00000000000E+00 -0.00000000000E+00  0.11368683772E-12  0.17120000000E+03  0.17120000000E+03 0.  0.
         13    1    1    2    0    0  0.36861020345E+01 -0.95477168894E+01  0.31552712006E+02  0.33171238219E+02  0.10566000000E+00 0.  1.
        994    1    1    2    0    0 -0.50448548964E+01  0.11293598741E+02  0.21135539688E+01  0.17165926437E+03  0.17120000000E+03 0.  0.
        998    1    1    2    0    0  0.13587528618E+01 -0.17458818513E+01  0.14663337303E+04  0.14663694974E+04  0.10000000000E+02 0.  1.
</event>
<event>
 5    1  0.9123258E-009  0.3734626E+03  0.7957747E-01  0.3480127E+00
         13   -1    0    0    0    0  0.00000000000E+00  0.00000000000E+00  0.14999999963E+04  0.15000000000E+04  0.10566000000E+00 0. -1.
        994   -1    0    0    0    0 -0.00000000000E+00 -0.00000000000E+00  0.11368683772E-12  0.17120000000E+03  0.17120000000E+03 0.  0.
         13    1    1    2    0    0 -0.88122472375E+01  0.24846433776E+02  0.46012737189E+02  0.53030030365E+02  0.10566000000E+00 0. -1.
        994    1    1    2    0    0 -0.62219432585E+01 -0.13032690107E+01  0.76084200454E+01  0.17148684831E+03  0.17120000000E+03 0.  0.
        998    1    1    2    0    0  0.15034190496E+02 -0.23543164766E+02  0.14463788390E+04  0.14466831213E+04  0.10000000000E+02 0. -1.
</event>
<event>
 5    1  0.9123258E-009  0.3819726E+03  0.7957747E-01  0.3442614E+00
         13   -1    0    0    0    0  0.00000000000E+00  0.00000000000E+00  0.14999999963E+04  0.15000000000E+04  0.10566000000E+00 0.  1.
        994   -1    0    0    0    0 -0.00000000000E+00 -0.00000000000E+00  0.11368683772E-12  0.17120000000E+03  0.17120000000E+03 0.  0.
         13    1    1    2    0    0  0.37692017855E+02  0.96063136172E+01  0.21939480475E+03  0.22281620450E+03  0.10566000000E+00 0.  1.
        994    1    1    2    0    0 -0.31459517834E+02 -0.88542740096E+01  0.66962341825E+01  0.17442012207E+03  0.17120000000E+03 0.  0.
        998    1    1    2    0    0 -0.62325000215E+01 -0.75203960756E+00  0.12739089573E+04  0.12739636734E+04  0.10000000000E+02 0.  1.
</event>
<event>
 5    1  0.9123258E-009  0.3851455E+03  0.7957747E-01  0.3429055E+00
         13   -1    0    0    0    0  0.00000000000E+00  0.00000000000E+00  0.14999999963E+04  0.15000000000E+04  0.10566000000E+00 0.  1.
        994   -1    0    0    0    0 -0.00000000000E+00 -0.00000000000E+00  0.11368683772E-12  0.17120000000E+03  0.17120000000E+03 0.  0.
         13    1    1    2    0    0  0.60687568066E+01 -0.11753708054E+02  0.62082748609E+02  0.63476438944E+02  0.10566000000E+00 0.  1.
        994    1    1    2    0    0  0.11435779654E+02 -0.14104504924E+01  0.19944350307E+01  0.17159890500E+03  0.17120000000E+03 0.  0.
        998    1    1    2    0    0 -0.17504536460E+02  0.13164158547E+02  0.14359228126E+04  0.14361246561E+04  0.10000000000E+02 0.  1.
</event>
<event>
 5    1  0.9123258E-009  0.3803506E+03  0.7957747E-01  0.3449633E+00
         13   -1    0    0    0    0  0.00000000000E+00  0.00000000000E+00  0.14999999963E+04  0.15000000000E+04  0.10566000000E+00 0.  1.
        994   -1    0    0    0    0 -0.00000000000E+00 -0.00000000000E+00  0.11368683772E-12  0.17120000000E+03  0.17120000000E+03 0.  0.
         13    1    1    2    0    0  0.10800591140E+02  0.21412450600E+02  0.68142708359E+02  0.72239779044E+02  0.10566000000E+00 0.  1.
        994    1    1    2    0    0 -0.43048722640E+01 -0.26398450061E+02  0.63487297186E+01  0.17339306924E+03  0.17120000000E+03 0.  0.
        998    1    1    2    0    0 -0.64957188759E+01  0.49859994607E+01  0.14255085582E+04  0.14255671517E+04  0.10000000000E+02 0.  1.
</event>
<event>
 5    1  0.9123258E-009  0.3767622E+03  0.7957747E-01  0.3465379E+00
         13   -1    0    0    0    0  0.00000000000E+00  0.00000000000E+00  0.14999999963E+04  0.15000000000E+04  0.10566000000E+00 0.  1.
        994   -1    0    0    0    0 -0.00000000000E+00 -0.00000000000E+00  0.11368683772E-12  0.17120000000E+03  0.17120000000E+03 0.  0.
         13    1    1    2    0    0 -0.12710847241E+03  0.71696702436E+02  0.48097360611E+03  0.50262570750E+03  0.10566000000E+00 0.  1.
        994    1    1    2    0    0  0.12002817030E+03 -0.75712320711E+02  0.90696684156E+02  0.24015504511E+03  0.17120000000E+03 0.  0.
        998    1    1    2    0    0  0.70803021024E+01  0.40156182747E+01  0.92832970601E+03  0.92841924739E+03  0.10000000000E+02 0.  1.
</event>
<event>
 5    1  0.9123258E-009  0.3831994E+03  0.7957747E-01  0.3437345E+00
         13   -1    0    0    0    0  0.00000000000E+00  0.00000000000E+00  0.14999999963E+04  0.15000000000E+04  0.10566000000E+00 0.  1.
        994   -1    0    0    0    0 -0.00000000000E+00 -0.00000000000E+00  0.11368683772E-12  0.17120000000E+03  0.17120000000E+03 0.  0.
         13    1    1    2    0    0  0.48395274272E+01 -0.11981663690E+02  0.32041380993E+02  0.34549132413E+02  0.10566000000E+00 0.  1.
        994    1    1    2    0    0  0.14284926788E+01  0.11716606843E+02  0.29877257139E+01  0.17163241527E+03  0.17120000000E+03 0.  0.
        998    1    1    2    0    0 -0.62680201061E+01  0.26505684719E+00  0.14649708896E+04  0.14650184523E+04  0.10000000000E+02 0.  1.
</event>
<event>
 5    1  0.9123258E-009  0.4039803E+03  0.7957747E-01  0.3352958E+00
         13   -1    0    0    0    0  0.00000000000E+00  0.00000000000E+00  0.14999999963E+04  0.15000000000E+04  0.10566000000E+00 0.  1.
        994   -1    0    0    0    0 -0.00000000000E+00 -0.00000000000E+00  0.11368683772E-12  0.17120000000E+03  0.17120000000E+03 0.  0.
         13    1    1    2    0    0  0.91524121956E+02  0.92790828135E+02  0.23087166369E+03  0.26511985770E+03  0.10566000000E+00 0.  1.
        994    1    1    2    0    0 -0.86565646200E+02 -0.90933437998E+02  0.96171005373E+02  0.23306823791E+03  0.17120000000E+03 0.  0.
        998    1    1    2    0    0 -0.49584757561E+01 -0.18573901371E+01  0.11729573272E+04  0.11730119044E+04  0.10000000000E+02 0.  1.
</event>
<event>
 5    1  0.9123258E-009  0.3701773E+03  0.7957747E-01  0.3495076E+00
         13   -1    0    0    0    0  0.00000000000E+00  0.00000000000E+00  0.14999999963E+04  0.15000000000E+04  0.10566000000E+00 0. -1.
        994   -1    0    0    0    0 -0.00000000000E+00 -0.00000000000E+00  0.11368683772E-12  0.17120000000E+03  0.17120000000E+03 0.  0.
         13    1    1    2    0    0 -0.36312839230E+02  0.36099858151E+02  0.14060320349E+03  0.14963653981E+03  0.10566000000E+00 0. -1.
        994    1    1    2    0    0  0.27890844837E+02 -0.14072254551E+02  0.12556196003E+02  0.17447929858E+03  0.17120000000E+03 0.  0.
        998    1    1    2    0    0  0.84219943934E+01 -0.22027603600E+02  0.13468405968E+04  0.13470841616E+04  0.10000000000E+02 0. -1.
</event>
<event>
 5    1  0.9123258E-009  0.3851855E+03  0.7957747E-01  0.3428886E+00
         13   -1    0    0    0    0  0.00000000000E+00  0.00000000000E+00  0.14999999963E+04  0.15000000000E+04  0.10566000000E+00 0.  1.
        994   -1    0    0    0    0 -0.00000000000E+00 -0.00000000000E+00  0.11368683772E-12  0.17120000000E+03  0.17120000000E+03 0.  0.
         13    1    1    2    0    0  0.10328935582E+02  0.11593901775E+02  0.77368144477E+02  0.78911003115E+02  0.10566000000E+00 0.  1.
        994    1    1    2    0    0 -0.58224662593E+01 -0.11254732129E+02  0.20659855499E+01  0.17168074559E+03  0.17120000000E+03 0.  0.
        998    1    1    2    0    0 -0.45064693231E+01 -0.33916964678E+00  0.14205658663E+04  0.14206082513E+04  0.10000000000E+02 0.  1.
</event>
<event>
 5    1  0.9123258E-009  0.3837208E+03  0.7957747E-01  0.3435116E+00
         13   -1    0    0    0    0  0.00000000000E+00  0.00000000000E+00  0.14999999963E+04  0.15000000000E+04  0.10566000000E+00 0.  1.
        994   -1    0    0    0    0 -0.00000000000E+00 -0.00000000000E+00  0.11368683772E-12  0.17120000000E+03  0.17120000000E+03 0.  0.
         13    1    1    2    0    0  0.13790226408E+02  0.74964343098E+01  0.54096176906E+02  0.56327385806E+02  0.10566000000E+00 0.  1.
        994    1    1    2    0    0 -0.80218002472E+01 -0.45554526761E+01  0.25476603055E+01  0.17146729135E+03  0.17120000000E+03 0.  0.
        998    1    1    2    0    0 -0.57684261612E+01 -0.29409816337E+01  0.14433561591E+04  0.14434053228E+04  0.10000000000E+02 0.  1.
</event>
<event>
 5    1  0.9123258E-009  0.3845402E+03  0.7957747E-01  0.3431624E+00
         13   -1    0    0    0    0  0.00000000000E+00  0.00000000000E+00  0.14999999963E+04  0.15000000000E+04  0.10566000000E+00 0.  1.
        994   -1    0    0    0    0 -0.00000000000E+00 -0.00000000000E+00  0.11368683772E-12  0.17120000000E+03  0.17120000000E+03 0.  0.
         13    1    1    2    0    0 -0.37009648304E+00  0.10092423034E+02  0.27074741114E+02  0.28897175373E+02  0.10566000000E+00 0.  1.
        994    1    1    2    0    0  0.29805631793E+01 -0.61176690029E+01  0.20111085569E+01  0.17134699936E+03  0.17120000000E+03 0.  0.
        998    1    1    2    0    0 -0.26104666962E+01 -0.39747540315E+01  0.14709141466E+04  0.14709558253E+04  0.10000000000E+02 0.  1.
</event>
<event>
 5    1  0.9123258E-009  0.3408923E+03  0.7957747E-01  0.3641385E+00
         13   -1    0    0    0    0  0.00000000000E+00  0.00000000000E+00  0.14999999963E+04  0.15000000000E+04  0.10566000000E+00 0. -1.
        994   -1    0    0    0    0 -0.00000000000E+00 -0.00000000000E+00  0.11368683772E-12  0.17120000000E+03  0.17120000000E+03 0.  0.
         13    1    1    2    0    0  0.10370059778E+03  0.20189270759E+03  0.93715309103E+03  0.96424603009E+03  0.10566000000E+00 0. -1.
        994    1    1    2    0    0 -0.17381540168E+03 -0.16506716571E+03  0.25718484003E+03  0.39104020893E+03  0.17120000000E+03 0.  0.
        998    1    1    2    0    0  0.70114803905E+02 -0.36825541874E+02  0.30566206522E+03  0.31591376098E+03  0.10000000000E+02 0. -1.
</event>
<event>
 5    1  0.9123258E-009  0.3746587E+03  0.7957747E-01  0.3474751E+00
         13   -1    0    0    0    0  0.00000000000E+00  0.00000000000E+00  0.14999999963E+04  0.15000000000E+04  0.10566000000E+00 0.  1.
        994   -1    0    0    0    0 -0.00000000000E+00 -0.00000000000E+00  0.11368683772E-12  0.17120000000E+03  0.17120000000E+03 0.  0.
         13    1    1    2    0    0  0.46458005155E+01 -0.97635656299E+01  0.53120449951E+01  0.12047392345E+02  0.10566000000E+00 0.  1.
        994    1    1    2    0    0 -0.32387062942E+01  0.12065754150E+02  0.73854246070E+01  0.17181401613E+03  0.17120000000E+03 0.  0.
        998    1    1    2    0    0 -0.14070942213E+01 -0.23021885199E+01  0.14873025267E+04  0.14873385915E+04  0.10000000000E+02 0.  1.
</event>
<event>
 5    1  0.9123258E-009  0.3778254E+03  0.7957747E-01  0.3460682E+00
         13   -1    0    0    0    0  0.00000000000E+00  0.00000000000E+00  0.14999999963E+04  0.15000000000E+04  0.10566000000E+00 0.  1.
        994   -1    0    0    0    0 -0.00000000000E+00 -0.00000000000E+00  0.11368683772E-12  0.17120000000E+03  0.17120000000E+03 0.  0.
         13    1    1    2    0    0 -0.30412326427E+02  0.64522936139E+02  0.40823729160E+03  0.41442226811E+03  0.10566000000E+00 0.  1.
        994    1    1    2    0    0  0.21982117352E+01 -0.64449700329E+02  0.19367732150E+02  0.18396506477E+03  0.17120000000E+03 0.  0.
        998    1    1    2    0    0  0.28214114691E+02 -0.73235809991E-01  0.10723949725E+04  0.10728126671E+04  0.10000000000E+02 0.  1.
</event>
<event>
 5    1  0.9123258E-009  0.3809059E+03  0.7957747E-01  0.3447224E+00
         13   -1    0    0    0    0  0.00000000000E+00  0.00000000000E+00  0.14999999963E+04  0.15000000000E+04  0.10566000000E+00 0.  1.
        994   -1    0    0    0    0 -0.00000000000E+00 -0.00000000000E+00  0.11368683772E-12  0.17120000000E+03  0.17120000000E+03 0.  0.
         13    1    1    2    0    0 -0.23870989512E+02  0.14769124159E+01  0.77245670808E+02  0.80863528449E+02  0.10566000000E+00 0.  1.
        994    1    1    2    0    0  0.14282405372E+02  0.16738427574E+02  0.52919226062E+01  0.17268933524E+03  0.17120000000E+03 0.  0.
        998    1    1    2    0    0  0.95885841402E+01 -0.18215339990E+02  0.14174624029E+04  0.14176471363E+04  0.10000000000E+02 0.  1.
</event>
<event>
 5    1  0.9123258E-009  0.3790998E+03  0.7957747E-01  0.3455088E+00
         13   -1    0    0    0    0  0.00000000000E+00  0.00000000000E+00  0.14999999963E+04  0.15000000000E+04  0.10566000000E+00 0. -1.
        994   -1    0    0    0    0 -0.00000000000E+00 -0.00000000000E+00  0.11368683772E-12  0.17120000000E+03  0.17120000000E+03 0.  0.
         13    1    1    2    0    0 -0.12495297592E+02 -0.56130093772E+00  0.13813846252E+02  0.18635477804E+02  0.10566000000E+00 0. -1.
        994    1    1    2    0    0  0.43691033187E+02  0.66227650349E+00  0.11016843299E+02  0.17703151083E+03  0.17120000000E+03 0.  0.
        998    1    1    2    0    0 -0.31195735595E+02 -0.10097556577E+00  0.14751693067E+04  0.14755330114E+04  0.10000000000E+02 0. -1.
</event>
<event>
 5    1  0.9123258E-009  0.3732118E+03  0.7957747E-01  0.3481259E+00
         13   -1    0    0    0    0  0.00000000000E+00  0.00000000000E+00  0.14999999963E+04  0.15000000000E+04  0.10566000000E+00 0. -1.
        994   -1    0    0    0    0 -0.00000000000E+00 -0.00000000000E+00  0.11368683772E-12  0.17120000000E+03  0.17120000000E+03 0.  0.
         13    1    1    2    0    0 -0.53195986021E+02 -0.94674478101E+02  0.50233991213E+03  0.51394403218E+03  0.10566000000E+00 0. -1.
        994    1    1    2    0    0 -0.92436078361E+01  0.69664205872E+02  0.30320927020E+02  0.18752958295E+03  0.17120000000E+03 0.  0.
        998    1    1    2    0    0  0.62439593858E+02  0.25010272229E+02  0.96733915713E+03  0.96972638487E+03  0.10000000000E+02 0. -1.
</event>
<event>
 5    1  0.9123258E-009  0.3760563E+03  0.7957747E-01  0.3468512E+00
         13   -1    0    0    0    0  0.00000000000E+00  0.00000000000E+00  0.14999999963E+04  0.15000000000E+04  0.10566000000E+00 0. -1.
        994   -1    0    0    0    0 -0.00000000000E+00 -0.00000000000E+00  0.11368683772E-12  0.17120000000E+03  0.17120000000E+03 0.  0.
         13    1    1    2    0    0  0.41570116443E+02 -0.16434824101E+02  0.14366030373E+03  0.15045421913E+03  0.10566000000E+00 0. -1.
        994    1    1    2    0    0 -0.45266660371E+02  0.16436988359E+02  0.14033638519E+02  0.17839738826E+03  0.17120000000E+03 0.  0.
        998    1    1    2    0    0  0.36965439284E+01 -0.21642583462E-02  0.13423060540E+04  0.13423483926E+04  0.10000000000E+02 0.  0.
</event>
<event>
 5    1  0.9123258E-009  0.3131933E+03  0.7957747E-01  0.3806112E+00
         13   -1    0    0    0    0  0.00000000000E+00  0.00000000000E+00  0.14999999963E+04  0.15000000000E+04  0.10566000000E+00 0. -1.
        994   -1    0    0    0    0 -0.00000000000E+00 -0.00000000000E+00  0.11368683772E-12  0.17120000000E+03  0.17120000000E+03 0.  0.
         13    1    1    2    0    0 -0.13143742083E+02 -0.19483499388E+03  0.77335281005E+03  0.79762648701E+03  0.10566000000E+00 0. -1.
        994    1    1    2    0    0  0.96003063624E+02  0.17248169895E+03  0.17334846997E+03  0.31356922161E+03  0.17120000000E+03 0.  0.
        998    1    1    2    0    0 -0.82859321541E+02  0.22353294929E+02  0.55329871625E+03  0.56000429138E+03  0.10000000000E+02 0. -1.
</event>
<event>
 5    1  0.9123258E-009  0.3724478E+03  0.7957747E-01  0.3484716E+00
         13   -1    0    0    0    0  0.00000000000E+00  0.00000000000E+00  0.14999999963E+04  0.15000000000E+04  0.10566000000E+00 0.  1.
        994   -1    0    0    0    0 -0.00000000000E+00 -0.00000000000E+00  0.11368683772E-12  0.17120000000E+03  0.17120000000E+03 0.  0.
         13    1    1    2    0    0  0.35552389198E+02  0.25678189880E+02  0.21660145389E+03  0.22099670316E+03  0.10566000000E+00 0.  1.
        994    1    1    2    0    0  0.67703760199E+02  0.23918295927E+02  0.25885744461E+02  0.18744438053E+03  0.17120000000E+03 0.  0.
        998    1    1    2    0    0 -0.10325614940E+03 -0.49596485807E+02  0.12575127979E+04  0.12627589163E+04  0.10000000000E+02 0.  1.
</event>
<event>
 5    1  0.9123258E-009  0.3793951E+03  0.7957747E-01  0.3453797E+00
         13   -1    0    0    0    0  0.00000000000E+00  0.00000000000E+00  0.14999999963E+04  0.15000000000E+04  0.10566000000E+00 0.  1.
        994   -1    0    0    0    0 -0.00000000000E+00 -0.00000000000E+00  0.11368683772E-12  0.17120000000E+03  0.17120000000E+03 0.  0.
         13    1    1    2    0    0  0.23013692129E+02  0.91024444225E+01  0.73781461616E+02  0.77821589306E+02  0.10566000000E+00 0.  1.
        994    1    1    2    0    0  0.11661791558E+01  0.11032997327E+02  0.48512242554E+01  0.17162768244E+03  0.17120000000E+03 0.  0.
        998    1    1    2    0    0 -0.24179871284E+02 -0.20135441749E+02  0.14213673104E+04  0.14217507283E+04  0.10000000000E+02 0.  1.
</event>
<event>
 5    1  0.9123258E-009  0.3835940E+03  0.7957747E-01  0.3435657E+00
         13   -1    0    0    0    0  0.00000000000E+00  0.00000000000E+00  0.14999999963E+04  0.15000000000E+04  0.10566000000E+00 0. -1.
        994   -1    0    0    0    0 -0.00000000000E+00 -0.00000000000E+00  0.11368683772E-12  0.17120000000E+03  0.17120000000E+03 0.  0.
         13    1    1    2    0    0  0.84063122749E+00  0.19735827904E+02  0.82219600718E+02  0.84559348804E+02  0.10566000000E+00 0. -1.
        994    1    1    2    0    0 -0.11677723356E+02 -0.14128929538E+02  0.34405990034E+01  0.17221287290E+03  0.17120000000E+03 0.  0.
        998    1    1    2    0    0  0.10837092128E+02 -0.56068983660E+01  0.14143397966E+04  0.14144277783E+04  0.10000000000E+02 0. -1.
</event>
<event>
 5    1  0.9123258E-009  0.3777563E+03  0.7957747E-01  0.3460987E+00
         13   -1    0    0    0    0  0.00000000000E+00  0.00000000000E+00  0.14999999963E+04  0.15000000000E+04  0.10566000000E+00 0. -1.
        994   -1    0    0    0    0 -0.00000000000E+00 -0.00000000000E+00  0.11368683772E-12  0.17120000000E+03  0.17120000000E+03 0.  0.
         13    1    1    2    0    0  0.16073201492E+02 -0.66274485494E+01  0.26141964717E+02  0.31395610581E+02  0.10566000000E+00 0. -1.
        994    1    1    2    0    0 -0.15486821488E+02  0.68197139087E+01  0.62350624645E+01  0.17214722229E+03  0.17120000000E+03 0.  0.
        998    1    1    2    0    0 -0.58638000438E+00 -0.19226535928E+00  0.14676229691E+04  0.14676571671E+04  0.10000000000E+02 0.  0.
</event>
<event>
 5    1  0.9123258E-009  0.3823383E+03  0.7957747E-01  0.3441040E+00
         13   -1    0    0    0    0  0.00000000000E+00  0.00000000000E+00  0.14999999963E+04  0.15000000000E+04  0.10566000000E+00 0. -1.
        994   -1    0    0    0    0 -0.00000000000E+00 -0.00000000000E+00  0.11368683772E-12  0.17120000000E+03  0.17120000000E+03 0.  0.
         13    1    1    2    0    0  0.14498181669E+02  0.22561394883E+02  0.12702427212E+03  0.12982446103E+03  0.10566000000E+00 0. -1.
        994    1    1    2    0    0  0.69342695718E+01 -0.15038994804E+02  0.38677027621E+01  0.17204259526E+03  0.17120000000E+03 0.  0.
        998    1    1    2    0    0 -0.21432451240E+02 -0.75224000786E+01  0.13691080214E+04  0.13693329437E+04  0.10000000000E+02 0. -1.
</event>
<event>
 5    1  0.9123258E-009  0.3838675E+03  0.7957747E-01  0.3434490E+00
         13   -1    0    0    0    0  0.00000000000E+00  0.00000000000E+00  0.14999999963E+04  0.15000000000E+04  0.10566000000E+00 0. -1.
        994   -1    0    0    0    0 -0.00000000000E+00 -0.00000000000E+00  0.11368683772E-12  0.17120000000E+03  0.17120000000E+03 0.  0.
         13    1    1    2    0    0 -0.15134566753E+02  0.10660698402E+02  0.82735499891E+02  0.84781364152E+02  0.10566000000E+00 0. -1.
        994    1    1    2    0    0 -0.53431355074E+01 -0.10924271021E+02  0.26817632856E+01  0.17165232491E+03  0.17120000000E+03 0.  0.
        998    1    1    2    0    0  0.20477702260E+02  0.26357261842E+00  0.14145827331E+04  0.14147663109E+04  0.10000000000E+02 0.  1.
</event>
<event>
 5    1  0.9123258E-009  0.3841070E+03  0.7957747E-01  0.3433468E+00
         13   -1    0    0    0    0  0.00000000000E+00  0.00000000000E+00  0.14999999963E+04  0.15000000000E+04  0.10566000000E+00 0. -1.
        994   -1    0    0    0    0 -0.00000000000E+00 -0.00000000000E+00  0.11368683772E-12  0.17120000000E+03  0.17120000000E+03 0.  0.
         13    1    1    2    0    0  0.18164364662E+02  0.58521124672E+01  0.83680301477E+02  0.85828872667E+02  0.10566000000E+00 0. -1.
        994    1    1    2    0    0 -0.21506453564E+02  0.42708389695E+01  0.36614141674E+01  0.17263723111E+03  0.17120000000E+03 0.  0.
        998    1    1    2    0    0  0.33420889024E+01 -0.10122951437E+02  0.14126582806E+04  0.14127338962E+04  0.10000000000E+02 0. -1.
</event>
<event>
 5    1  0.9123258E-009  0.3701815E+03  0.7957747E-01  0.3495057E+00
         13   -1    0    0    0    0  0.00000000000E+00  0.00000000000E+00  0.14999999963E+04  0.15000000000E+04  0.10566000000E+00 0. -1.
        994   -1    0    0    0    0 -0.00000000000E+00 -0.00000000000E+00  0.11368683772E-12  0.17120000000E+03  0.17120000000E+03 0.  0.
         13    1    1    2    0    0 -0.45121438139E+02  0.31825673519E+02  0.12688168706E+03  0.13837554462E+03  0.10566000000E+00 0. -1.
        994    1    1    2    0    0  0.43476933162E+02 -0.23390508426E+02  0.19610312237E+02  0.17925223554E+03  0.17120000000E+03 0.  0.
        998    1    1    2    0    0  0.16445049770E+01 -0.84351650930E+01  0.13535079970E+04  0.13535722198E+04  0.10000000000E+02 0. -1.
</event>
<event>
 5    1  0.9123258E-009  0.3846281E+03  0.7957747E-01  0.3431251E+00
         13   -1    0    0    0    0  0.00000000000E+00  0.00000000000E+00  0.14999999963E+04  0.15000000000E+04  0.10566000000E+00 0.  1.
        994   -1    0    0    0    0 -0.00000000000E+00 -0.00000000000E+00  0.11368683772E-12  0.17120000000E+03  0.17120000000E+03 0.  0.
         13    1    1    2    0    0 -0.13387566671E+02  0.16225016505E+01  0.48555401714E+02  0.50393428665E+02  0.10566000000E+00 0.  1.
        994    1    1    2    0    0  0.14000243561E+02 -0.19539502151E+01  0.24731078612E+01  0.17180041037E+03  0.17120000000E+03 0.  0.
        998    1    1    2    0    0 -0.61267688956E+00  0.33144856455E+00  0.14489714867E+04  0.14490061610E+04  0.10000000000E+02 0.  0.
</event>
<event>
 5    1  0.9123258E-009  0.3809099E+03  0.7957747E-01  0.3447206E+00
         13   -1    0    0    0    0  0.00000000000E+00  0.00000000000E+00  0.14999999963E+04  0.15000000000E+04  0.10566000000E+00 0. -1.
        994   -1    0    0    0    0 -0.00000000000E+00 -0.00000000000E+00  0.11368683772E-12  0.17120000000E+03  0.17120000000E+03 0.  0.
         13    1    1    2    0    0  0.38245822241E+02 -0.25847569978E+00  0.18026533983E+03  0.18427808778E+03  0.10566000000E+00 0. -1.
        994    1    1    2    0    0 -0.35221395849E+02 -0.96597764848E+01  0.81329501028E+01  0.17524109930E+03  0.17120000000E+03 0.  0.
        998    1    1    2    0    0 -0.30244263922E+01  0.99182521846E+01  0.13116017063E+04  0.13116808129E+04  0.10000000000E+02 0. -1.
</event>
<event>
 5    1  0.9123258E-009  0.3793384E+03  0.7957747E-01  0.3454044E+00
         13   -1    0    0    0    0  0.00000000000E+00  0.00000000000E+00  0.14999999963E+04  0.15000000000E+04  0.10566000000E+00 0.  1.
        994   -1    0    0    0    0 -0.00000000000E+00 -0.00000000000E+00  0.11368683772E-12  0.17120000000E+03  0.17120000000E+03 0.  0.
         13    1    1    2    0    0  0.16904247383E+01 -0.14203898025E+02  0.20820381935E+02  0.25260794185E+02  0.10566000000E+00 0.  1.
        994    1    1    2    0    0  0.58498949849E+00  0.13944450448E+02  0.51203622032E+01  0.17184425513E+03  0.17120000000E+03 0.  0.
        998    1    1    2    0    0 -0.22754142368E+01  0.25944757666E+00  0.14740592521E+04  0.14740949507E+04  0.10000000000E+02 0.  1.
</event>
<event>
 5    1  0.9123258E-009  0.3837995E+03  0.7957747E-01  0.3434780E+00
         13   -1    0    0    0    0  0.00000000000E+00  0.00000000000E+00  0.14999999963E+04  0.15000000000E+04  0.10566000000E+00 0. -1.
        994   -1    0    0    0    0 -0.00000000000E+00 -0.00000000000E+00  0.11368683772E-12  0.17120000000E+03  0.17120000000E+03 0.  0.
         13    1    1    2    0    0 -0.23503593642E+02 -0.13260929791E+02  0.15456639423E+03  0.15690459700E+03  0.10566000000E+00 0. -1.
        994    1    1    2    0    0  0.23351308780E+02  0.44739720538E+01  0.40958954745E+01  0.17289163198E+03  0.17120000000E+03 0.  0.
        998    1    1    2    0    0  0.15228486199E+00  0.87869577375E+01  0.13413377066E+04  0.13414037710E+04  0.10000000000E+02 0. -1.
</event>
<event>
 5    1  0.9123258E-009  0.2523857E+03  0.7957747E-01  0.4308137E+00
         13   -1    0    0    0    0  0.00000000000E+00  0.00000000000E+00  0.14999999963E+04  0.15000000000E+04  0.10566000000E+00 0.  1.
        994   -1    0    0    0    0 -0.00000000000E+00 -0.00000000000E+00  0.11368683772E-12  0.17120000000E+03  0.17120000000E+03 0.  0.
         13    1    1    2    0    0 -0.12138347633E+03  0.12344299842E+03  0.33713881183E+03  0.37899170412E+03  0.10566000000E+00 0.  1.
        994    1    1    2    0    0  0.12409353165E+03 -0.92071780560E+02  0.14204027085E+03  0.27085290457E+03  0.17120000000E+03 0.  0.
        998    1    1    2    0    0 -0.27100553199E+01 -0.31371217863E+02  0.10208209136E+04  0.10213553913E+04  0.10000000000E+02 0.  1.
</event>
<event>
 5    1  0.9123258E-009  0.3789313E+03  0.7957747E-01  0.3455825E+00
         13   -1    0    0    0    0  0.00000000000E+00  0.00000000000E+00  0.14999999963E+04  0.15000000000E+04  0.10566000000E+00 0.  1.
        994   -1    0    0    0    0 -0.00000000000E+00 -0.00000000000E+00  0.11368683772E-12  0.17120000000E+03  0.17120000000E+03 0.  0.
         13    1    1    2    0    0 -0.73385575372E+01  0.87729412859E+01  0.11752210849E+02  0.16399528939E+02  0.10566000000E+00 0.  1.
        994    1    1    2    0    0  0.13528415273E+02 -0.79037006266E+01  0.54975513139E+01  0.17200334175E+03  0.17120000000E+03 0.  0.
        998    1    1    2    0    0 -0.61898577362E+01 -0.86924065927E+00  0.14827502341E+04  0.14827971293E+04  0.10000000000E+02 0.  1.
</event>
<event>
 5    1  0.9123258E-009  0.3798242E+03  0.7957747E-01  0.3451924E+00
         13   -1    0    0    0    0  0.00000000000E+00  0.00000000000E+00  0.14999999963E+04  0.15000000000E+04  0.10566000000E+00 0. -1.
        994   -1    0    0    0    0 -0.00000000000E+00 -0.00000000000E+00  0.11368683772E-12  0.17120000000E+03  0.17120000000E+03 0.  0.
         13    1    1    2    0    0  0.12905043758E+02  0.28516971884E+01  0.19181334332E+02  0.23293928008E+02  0.10566000000E+00 0. -1.
        994    1    1    2    0    0 -0.47516980770E+01  0.30678618601E+01  0.43289267601E+01  0.17134809604E+03  0.17120000000E+03 0.  0.
        998    1    1    2    0    0 -0.81533456806E+01 -0.59195590485E+01  0.14764897352E+04  0.14765579759E+04  0.10000000000E+02 0. -1.
</event>
<event>
 5    1  0.9123258E-009  0.3720766E+03  0.7957747E-01  0.3486401E+00
         13   -1    0    0    0    0  0.00000000000E+00  0.00000000000E+00  0.14999999963E+04  0.15000000000E+04  0.10566000000E+00 0. -1.
        994   -1    0    0    0    0 -0.00000000000E+00 -0.00000000000E+00  0.11368683772E-12  0.17120000000E+03  0.17120000000E+03 0.  0.
         13    1    1    2    0    0 -0.31199988579E+02  0.23520345399E+02  0.87709294608E+02  0.96018630794E+02  0.10566000000E+00 0. -1.
        994    1    1    2    0    0  0.24131781662E+02 -0.21746027608E+02  0.11818970384E+02  0.17465497606E+03  0.17120000000E+03 0.  0.
        998    1    1    2    0    0  0.70682069167E+01 -0.17743177908E+01  0.14004717313E+04  0.14005263931E+04  0.10000000000E+02 0. -1.
</event>
<event>
 5    1  0.9123258E-009  0.3835047E+03  0.7957747E-01  0.3436039E+00
         13   -1    0    0    0    0  0.00000000000E+00  0.00000000000E+00  0.14999999963E+04  0.15000000000E+04  0.10566000000E+00 0. -1.
        994   -1    0    0    0    0 -0.00000000000E+00 -0.00000000000E+00  0.11368683772E-12  0.17120000000E+03  0.17120000000E+03 0.  0.
         13    1    1    2    0    0 -0.42061332561E+01 -0.14587225892E+02  0.53547253130E+02  0.55657867350E+02  0.10566000000E+00 0. -1.
        994    1    1    2    0    0 -0.15530807629E+02 -0.84238511304E+01  0.34066598606E+01  0.17214300039E+03  0.17120000000E+03 0.  0.
        998    1    1    2    0    0  0.19736940885E+02  0.23011077022E+02  0.14430460833E+04  0.14433991323E+04  0.10000000000E+02 0. -1.
</event>
<event>
 5    1  0.9123258E-009  0.3726658E+03  0.7957747E-01  0.3483728E+00
         13   -1    0    0    0    0  0.00000000000E+00  0.00000000000E+00  0.14999999963E+04  0.15000000000E+04  0.10566000000E+00 0.  1.
        994   -1    0    0    0    0 -0.00000000000E+00 -0.00000000000E+00  0.11368683772E-12  0.17120000000E+03  0.17120000000E+03 0.  0.
         13    1    1    2    0    0 -0.67238536666E+02 -0.46655118022E+02  0.44311890766E+03  0.45061302505E+03  0.10566000000E+00 0.  1.
        994    1    1    2    0    0  0.32825994138E+02  0.25872118193E+02  0.13891270748E+02  0.17677477137E+03  0.17120000000E+03 0.  0.
        998    1    1    2    0    0  0.34412542528E+02  0.20782999829E+02  0.10429898179E+04  0.10438122036E+04  0.10000000000E+02 0.  1.
</event>
<event>
 5    1  0.9123258E-009  0.3701842E+03  0.7957747E-01  0.3495045E+00
         13   -1    0    0    0    0  0.00000000000E+00  0.00000000000E+00  0.14999999963E+04  0.15000000000E+04  0.10566000000E+00 0.  1.
        994   -1    0    0    0    0 -0.00000000000E+00 -0.00000000000E+00  0.11368683772E-12  0.17120000000E+03  0.17120000000E+03 0.  0.
         13    1    1    2    0    0  0.17241204394E+02 -0.66103428952E+01  0.10524558730E+02  0.21254017565E+02  0.10566000000E+00 0.  1.
        994    1    1    2    0    0 -0.13084648331E+02  0.89451794417E+01  0.11915536317E+02  0.17234455101E+03  0.17120000000E+03 0.  0.
        998    1    1    2    0    0 -0.41565560638E+01 -0.23348365465E+01  0.14775599012E+04  0.14776014314E+04  0.10000000000E+02 0.  1.
</event>
<event>
 5    1  0.9123258E-009  0.3691737E+03  0.7957747E-01  0.3499697E+00
         13   -1    0    0    0    0  0.00000000000E+00  0.00000000000E+00  0.14999999963E+04  0.15000000000E+04  0.10566000000E+00 0. -1.
        994   -1    0    0    0    0 -0.00000000000E+00 -0.00000000000E+00  0.11368683772E-12  0.17120000000E+03  0.17120000000E+03 0.  0.
         13    1    1    2    0    0 -0.35532851734E+02 -0.10176110398E+03  0.46637216640E+03  0.47866576501E+03  0.10566000000E+00 0. -1.
        994    1    1    2    0    0  0.76817594221E+02  0.74247539688E+02  0.50391361542E+02  0.20799607989E+03  0.17120000000E+03 0.  0.
        998    1    1    2    0    0 -0.41284742487E+02  0.27513564291E+02  0.98323646833E+03  0.98453815510E+03  0.10000000000E+02 0. -1.
</event>
<event>
 5    1  0.9123258E-009  0.3696484E+03  0.7957747E-01  0.3497509E+00
         13   -1    0    0    0    0  0.00000000000E+00  0.00000000000E+00  0.14999999963E+04  0.15000000000E+04  0.10566000000E+00 0.  1.
        994   -1    0    0    0    0 -0.00000000000E+00 -0.00000000000E+00  0.11368683772E-12  0.17120000000E+03  0.17120000000E+03 0.  0.
         13    1    1    2    0    0 -0.39350146149E+02  0.37753103089E+02  0.14407778274E+03  0.15405242431E+03  0.10566000000E+00 0.  1.
        994    1    1    2    0    0  0.30781317192E+02 -0.37793398428E+02  0.17723140423E+02  0.17888370568E+03  0.17120000000E+03 0.  0.
        998    1    1    2    0    0  0.85688289578E+01  0.40295339893E-01  0.13381990731E+04  0.13382638700E+04  0.10000000000E+02 0.  1.
</event>
<event>
 5    1  0.9123258E-009  0.3775763E+03  0.7957747E-01  0.3461780E+00
         13   -1    0    0    0    0  0.00000000000E+00  0.00000000000E+00  0.14999999963E+04  0.15000000000E+04  0.10566000000E+00 0. -1.
        994   -1    0    0    0    0 -0.00000000000E+00 -0.00000000000E+00  0.11368683772E-12  0.17120000000E+03  0.17120000000E+03 0.  0.
         13    1    1    2    0    0 -0.10135759706E+03 -0.10606447108E+03  0.69931915849E+03  0.71454204292E+03  0.10566000000E+00 0. -1.
        994    1    1    2    0    0  0.14392281863E+03  0.99199897439E+02  0.11640126535E+03  0.27094850424E+03  0.17120000000E+03 0.  0.
        998    1    1    2    0    0 -0.42565221564E+02  0.68645736406E+01  0.68427957244E+03  0.68570945284E+03  0.10000000000E+02 0. -1.
</event>
<event>
 5    1  0.9123258E-009  0.3788040E+03  0.7957747E-01  0.3456383E+00
         13   -1    0    0    0    0  0.00000000000E+00  0.00000000000E+00  0.14999999963E+04  0.15000000000E+04  0.10566000000E+00 0.  1.
        994   -1    0    0    0    0 -0.00000000000E+00 -0.00000000000E+00  0.11368683772E-12  0.17120000000E+03  0.17120000000E+03 0.  0.
         13    1    1    2    0    0 -0.26608711848E+02 -0.18714747504E+02  0.10585138060E+03  0.11073748805E+03  0.10566000000E+00 0.  1.
        994    1    1    2    0    0  0.18540055846E+02  0.21365272595E+02  0.74284174917E+01  0.17368025199E+03  0.17120000000E+03 0.  0.
        998    1    1    2    0    0  0.80686560016E+01 -0.26505250913E+01  0.13867201982E+04  0.13867822600E+04  0.10000000000E+02 0.  1.
</event>
<event>
 5    1  0.9123258E-009  0.3752044E+03  0.7957747E-01  0.3472309E+00
         13   -1    0    0    0    0  0.00000000000E+00  0.00000000000E+00  0.14999999963E+04  0.15000000000E+04  0.10566000000E+00 0.  1.
        994   -1    0    0    0    0 -0.00000000000E+00 -0.00000000000E+00  0.11368683772E-12  0.17120000000E+03  0.17120000000E+03 0.  0.
         13    1    1    2    0    0 -0.44023968727E+02  0.17109466287E+01  0.16106076711E+03  0.16697789981E+03  0.10566000000E+00 0.  1.
        994    1    1    2    0    0  0.80066071077E+01  0.15783899523E+02  0.76385115084E+01  0.17228181593E+03  0.17120000000E+03 0.  0.
        998    1    1    2    0    0  0.36017361619E+02 -0.17494846152E+02  0.13313007177E+04  0.13319402843E+04  0.10000000000E+02 0.  1.
</event>
<event>
 5    1  0.9123258E-009  0.3773458E+03  0.7957747E-01  0.3462797E+00
         13   -1    0    0    0    0  0.00000000000E+00  0.00000000000E+00  0.14999999963E+04  0.15000000000E+04  0.10566000000E+00 0. -1.
        994   -1    0    0    0    0 -0.00000000000E+00 -0.00000000000E+00  0.11368683772E-12  0.17120000000E+03  0.17120000000E+03 0.  0.
         13    1    1    2    0    0  0.34093787940E+02  0.41394461221E+01  0.96749988289E+02  0.10266495404E+03  0.10566000000E+00 0. -1.
        994    1    1    2    0    0 -0.40655633317E+02 -0.27210781997E+01  0.11098881494E+02  0.17633181777E+03  0.17120000000E+03 0.  0.
        998    1    1    2    0    0  0.65618453773E+01 -0.14183679224E+01  0.13921511265E+04  0.13922032282E+04  0.10000000000E+02 0. -1.
</event>
<event>
 5    1  0.9123258E-009  0.3846894E+03  0.7957747E-01  0.3430991E+00
         13   -1    0    0    0    0  0.00000000000E+00  0.00000000000E+00  0.14999999963E+04  0.15000000000E+04  0.10566000000E+00 0.  1.
        994   -1    0    0    0    0 -0.00000000000E+00 -0.00000000000E+00  0.11368683772E-12  0.17120000000E+03  0.17120000000E+03 0.  0.
         13    1    1    2    0    0  0.44389783236E+01 -0.19644303848E+02  0.99455728643E+02  0.10147441217E+03  0.10566000000E+00 0.  1.
        994    1    1    2    0    0  0.48709616062E+01  0.32863461186E+02  0.54263362517E+01  0.17447813179E+03  0.17120000000E+03 0.  0.
        998    1    1    2    0    0 -0.93099399298E+01 -0.13219157338E+02  0.13951179314E+04  0.13952474560E+04  0.10000000000E+02 0.  1.
</event>
<event>
 5    1  0.9123258E-009  0.3841245E+03  0.7957747E-01  0.3433394E+00
         13   -1    0    0    0    0  0.00000000000E+00  0.00000000000E+00  0.14999999963E+04  0.15000000000E+04  0.10566000000E+00 0.  1.
        994   -1    0    0    0    0 -0.00000000000E+00 -0.00000000000E+00  0.11368683772E-12  0.17120000000E+03  0.17120000000E+03 0.  0.
         13    1    1    2    0    0 -0.64284852605E+01  0.85095596352E+01  0.26646853658E+02  0.28701986026E+02  0.10566000000E+00 0.  1.
        994    1    1    2    0    0  0.34340921750E+01 -0.10376562422E+02  0.24595375419E+01  0.17156618362E+03  0.17120000000E+03 0.  0.
        998    1    1    2    0    0  0.29943930855E+01  0.18670027865E+01  0.14708936051E+04  0.14709318304E+04  0.10000000000E+02 0.  1.
</event>
<event>
 5    1  0.9123258E-009  0.3825164E+03  0.7957747E-01  0.3440274E+00
         13   -1    0    0    0    0  0.00000000000E+00  0.00000000000E+00  0.14999999963E+04  0.15000000000E+04  0.10566000000E+00 0. -1.
        994   -1    0    0    0    0 -0.00000000000E+00 -0.00000000000E+00  0.11368683772E-12  0.17120000000E+03  0.17120000000E+03 0.  0.
         13    1    1    2    0    0  0.27486274227E+02 -0.92692111614E+01  0.14266930103E+03  0.14558830367E+03  0.10566000000E+00 0. -1.
        994    1    1    2    0    0 -0.20642053565E+02  0.23518589573E+01  0.43005387422E+01  0.17250959466E+03  0.17120000000E+03 0.  0.
        998    1    1    2    0    0 -0.68442206622E+01  0.69173522041E+01  0.13530301565E+04  0.13531021017E+04  0.10000000000E+02 0. -1.
</event>
<event>
 5    1  0.9331806E-009  0.3858593E+03  0.7957747E-01  0.3426036E+00
         13   -1    0    0    0    0  0.00000000000E+00  0.00000000000E+00  0.14999999963E+04  0.15000000000E+04  0.10566000000E+00 0. -1.
        994   -1    0    0    0    0 -0.00000000000E+00 -0.00000000000E+00  0.11368683772E-12  0.17120000000E+03  0.17120000000E+03 0.  0.
         13    1    1    2    0    0  0.10040537845E+02 -0.22802223578E+01  0.43547072144E+02  0.44747854368E+02  0.10566000000E+00 0. -1.
        994    1    1    2    0    0 -0.11541852953E+02 -0.43330937009E+01  0.17027222404E+01  0.17165176764E+03  0.17120000000E+03 0.  0.
        998    1    1    2    0    0  0.15013151083E+01  0.66133160587E+01  0.14547502019E+04  0.14548003780E+04  0.10000000000E+02 0. -1.
</event>
<event>
 5    1  0.9123258E-009  0.3842107E+03  0.7957747E-01  0.3433027E+00
         13   -1    0    0    0    0  0.00000000000E+00  0.00000000000E+00  0.14999999963E+04  0.15000000000E+04  0.10566000000E+00 0.  1.
        994   -1    0    0    0    0 -0.00000000000E+00 -0.00000000000E+00  0.11368683772E-12  0.17120000000E+03  0.17120000000E+03 0.  0.
         13    1    1    2    0    0 -0.14503458595E+02 -0.15024118891E+02  0.10534366416E+03  0.10739354358E+03  0.10566000000E+00 0.  1.
        994    1    1    2    0    0  0.13433526008E+02  0.90304678002E+01  0.28868580015E+01  0.17198774061E+03  0.17120000000E+03 0.  0.
        998    1    1    2    0    0  0.10699325874E+01  0.59936510911E+01  0.13917694741E+04  0.13918187158E+04  0.10000000000E+02 0.  1.
</event>
<event>
 5    1  0.9123258E-009  0.3839458E+03  0.7957747E-01  0.3434156E+00
         13   -1    0    0    0    0  0.00000000000E+00  0.00000000000E+00  0.14999999963E+04  0.15000000000E+04  0.10566000000E+00 0.  1.
        994   -1    0    0    0    0 -0.00000000000E+00 -0.00000000000E+00  0.11368683772E-12  0.17120000000E+03  0.17120000000E+03 0.  0.
         13    1    1    2    0    0  0.12626621394E+02  0.13940910063E+01  0.36405310131E+02  0.38558174585E+02  0.10566000000E+00 0.  1.
        994    1    1    2    0    0 -0.11389458890E+02 -0.37546236638E+01  0.26291651213E+01  0.17163965009E+03  0.17120000000E+03 0.  0.
        998    1    1    2    0    0 -0.12371625047E+01  0.23605326575E+01  0.14609655210E+04  0.14610021753E+04  0.10000000000E+02 0.  1.
</event>
<event>
 5    1  0.9422424E-009  0.3856287E+03  0.7957747E-01  0.3427010E+00
         13   -1    0    0    0    0  0.00000000000E+00  0.00000000000E+00  0.14999999963E+04  0.15000000000E+04  0.10566000000E+00 0. -1.
        994   -1    0    0    0    0 -0.00000000000E+00 -0.00000000000E+00  0.11368683772E-12  0.17120000000E+03  0.17120000000E+03 0.  0.
         13    1    1    2    0    0  0.10691177338E+02 -0.43078958557E+01  0.50872274764E+02  0.52161851417E+02  0.10566000000E+00 0. -1.
        994    1    1    2    0    0 -0.63828530092E+01  0.33973321770E+01  0.14899127435E+01  0.17135910398E+03  0.17120000000E+03 0.  0.
        998    1    1    2    0    0 -0.43083243286E+01  0.91056367869E+00  0.14476378088E+04  0.14476790446E+04  0.10000000000E+02 0. -1.
</event>
<event>
 5    1  0.9123258E-009  0.4141206E+03  0.7957747E-01  0.3314839E+00
         13   -1    0    0    0    0  0.00000000000E+00  0.00000000000E+00  0.14999999963E+04  0.15000000000E+04  0.10566000000E+00 0. -1.
        994   -1    0    0    0    0 -0.00000000000E+00 -0.00000000000E+00  0.11368683772E-12  0.17120000000E+03  0.17120000000E+03 0.  0.
         13    1    1    2    0    0  0.38030283561E+02  0.22228041842E+01  0.49059163022E+01  0.38409927167E+02  0.10566000000E+00 0. -1.
        994    1    1    2    0    0 -0.45120273741E+02 -0.10300998930E+02  0.45456759598E+02  0.18307841674E+03  0.17120000000E+03 0.  0.
        998    1    1    2    0    0  0.70899901808E+01  0.80781947457E+01  0.14496373204E+04  0.14497116561E+04  0.10000000000E+02 0. -1.
</event>
<event>
 5    1  0.9123258E-009  0.3831628E+03  0.7957747E-01  0.3437501E+00
         13   -1    0    0    0    0  0.00000000000E+00  0.00000000000E+00  0.14999999963E+04  0.15000000000E+04  0.10566000000E+00 0.  1.
        994   -1    0    0    0    0 -0.00000000000E+00 -0.00000000000E+00  0.11368683772E-12  0.17120000000E+03  0.17120000000E+03 0.  0.
         13    1    1    2    0    0 -0.43454084267E+01  0.24696800104E+02  0.11346268225E+03  0.11620071401E+03  0.10566000000E+00 0.  1.
        994    1    1    2    0    0  0.66871967643E+01 -0.26363861668E+02  0.49962817715E+01  0.17341907229E+03  0.17120000000E+03 0.  0.
        998    1    1    2    0    0 -0.23417883376E+01  0.16670615639E+01  0.13815410323E+04  0.13815802137E+04  0.10000000000E+02 0.  1.
</event>
<event>
 5    1  0.9123258E-009  0.3841780E+03  0.7957747E-01  0.3433166E+00
         13   -1    0    0    0    0  0.00000000000E+00  0.00000000000E+00  0.14999999963E+04  0.15000000000E+04  0.10566000000E+00 0. -1.
        994   -1    0    0    0    0 -0.00000000000E+00 -0.00000000000E+00  0.11368683772E-12  0.17120000000E+03  0.17120000000E+03 0.  0.
         13    1    1    2    0    0 -0.11444476791E+02  0.17806301959E+02  0.96336973425E+02  0.98635004188E+02  0.10566000000E+00 0. -1.
        994    1    1    2    0    0 -0.84810906704E+01 -0.45278784807E+02  0.90679123431E+01  0.17752116574E+03  0.17120000000E+03 0.  0.
        998    1    1    2    0    0  0.19925567461E+02  0.27472482848E+02  0.13945951105E+04  0.13950438301E+04  0.10000000000E+02 0. -1.
</event>
<event>
 5    1  0.9123258E-009  0.3815136E+03  0.7957747E-01  0.3444594E+00
         13   -1    0    0    0    0  0.00000000000E+00  0.00000000000E+00  0.14999999963E+04  0.15000000000E+04  0.10566000000E+00 0.  1.
        994   -1    0    0    0    0 -0.00000000000E+00 -0.00000000000E+00  0.11368683772E-12  0.17120000000E+03  0.17120000000E+03 0.  0.
         13    1    1    2    0    0  0.20993361691E+02  0.19923587145E+02  0.15644729315E+03  0.15910197126E+03  0.10566000000E+00 0.  1.
        994    1    1    2    0    0  0.10268042431E+02  0.11094403028E+02  0.41315118706E+01  0.17191575805E+03  0.17120000000E+03 0.  0.
        998    1    1    2    0    0 -0.31261404122E+02 -0.31017990173E+02  0.13394211913E+04  0.13401822707E+04  0.10000000000E+02 0.  1.
</event>
<event>
 5    1  0.9123258E-009  0.3840043E+03  0.7957747E-01  0.3433906E+00
         13   -1    0    0    0    0  0.00000000000E+00  0.00000000000E+00  0.14999999963E+04  0.15000000000E+04  0.10566000000E+00 0.  1.
        994   -1    0    0    0    0 -0.00000000000E+00 -0.00000000000E+00  0.11368683772E-12  0.17120000000E+03  0.17120000000E+03 0.  0.
         13    1    1    2    0    0 -0.81830495891E+01 -0.65581999888E+01  0.25144711036E+02  0.27244080913E+02  0.10566000000E+00 0.  1.
        994    1    1    2    0    0  0.94208192662E+01  0.14193987737E+01  0.24248397813E+01  0.17148202931E+03  0.17120000000E+03 0.  0.
        998    1    1    2    0    0 -0.12377696772E+01  0.51388012151E+01  0.14724304455E+04  0.14724738898E+04  0.10000000000E+02 0.  1.
</event>
<event>
 5    1  0.9123258E-009  0.3752687E+03  0.7957747E-01  0.3472022E+00
         13   -1    0    0    0    0  0.00000000000E+00  0.00000000000E+00  0.14999999963E+04  0.15000000000E+04  0.10566000000E+00 0.  1.
        994   -1    0    0    0    0 -0.00000000000E+00 -0.00000000000E+00  0.11368683772E-12  0.17120000000E+03  0.17120000000E+03 0.  0.
         13    1    1    2    0    0  0.11621744982E+02  0.20976724421E+02  0.40957367284E+02  0.47461616310E+02  0.10566000000E+00 0.  1.
        994    1    1    2    0    0 -0.13243996221E+02 -0.14763409941E+02  0.78778698901E+01  0.17252496209E+03  0.17120000000E+03 0.  0.
        998    1    1    2    0    0  0.16222512398E+01 -0.62133144803E+01  0.14511647591E+04  0.14512134216E+04  0.10000000000E+02 0.  1.
</event>
<event>
 5    1  0.9123258E-009  0.3780292E+03  0.7957747E-01  0.3459785E+00
         13   -1    0    0    0    0  0.00000000000E+00  0.00000000000E+00  0.14999999963E+04  0.15000000000E+04  0.10566000000E+00 0.  1.
        994   -1    0    0    0    0 -0.00000000000E+00 -0.00000000000E+00  0.11368683772E-12  0.17120000000E+03  0.17120000000E+03 0.  0.
         13    1    1    2    0    0  0.22374421100E+02 -0.25892600785E+02  0.12699366276E+03  0.13152354557E+03  0.10566000000E+00 0.  1.
        994    1    1    2    0    0 -0.45978218163E+00 -0.35554881756E+01  0.51745776932E+01  0.17131570024E+03  0.17120000000E+03 0.  0.
        998    1    1    2    0    0 -0.21914638918E+02  0.29448088960E+02  0.13678317558E+04  0.13683607542E+04  0.10000000000E+02 0.  1.
</event>
<event>
 5    1  0.9123258E-009  0.3831947E+03  0.7957747E-01  0.3437365E+00
         13   -1    0    0    0    0  0.00000000000E+00  0.00000000000E+00  0.14999999963E+04  0.15000000000E+04  0.10566000000E+00 0. -1.
        994   -1    0    0    0    0 -0.00000000000E+00 -0.00000000000E+00  0.11368683772E-12  0.17120000000E+03  0.17120000000E+03 0.  0.
         13    1    1    2    0    0 -0.83945488668E+01 -0.10842158188E+02  0.36409039476E+02  0.38905657229E+02  0.10566000000E+00 0. -1.
        994    1    1    2    0    0  0.62352355032E+01  0.66313049471E+01  0.28032272699E+01  0.17146472072E+03  0.17120000000E+03 0.  0.
        998    1    1    2    0    0  0.21593133636E+01  0.42108532405E+01  0.14607877295E+04  0.14608296221E+04  0.10000000000E+02 0. -1.
</event>
<event>
 5    1  0.1030369E-008  0.3850900E+03  0.7957747E-01  0.3429290E+00
         13   -1    0    0    0    0  0.00000000000E+00  0.00000000000E+00  0.14999999963E+04  0.15000000000E+04  0.10566000000E+00 0. -1.
        994   -1    0    0    0    0 -0.00000000000E+00 -0.00000000000E+00  0.11368683772E-12  0.17120000000E+03  0.17120000000E+03 0.  0.
         13    1    1    2    0    0  0.10804684248E+02  0.94334988460E+01  0.62404141832E+02  0.64031399985E+02  0.10566000000E+00 0. -1.
        994    1    1    2    0    0 -0.12789557307E+02 -0.94730480343E+01  0.24186971035E+01  0.17195523112E+03  0.17120000000E+03 0.  0.
        998    1    1    2    0    0  0.19848730589E+01  0.39549188274E-01  0.14351771573E+04  0.14352133689E+04  0.10000000000E+02 0. -1.
</event>
<event>
 5    1  0.9123258E-009  0.3789549E+03  0.7957747E-01  0.3455722E+00
         13   -1    0    0    0    0  0.00000000000E+00  0.00000000000E+00  0.14999999963E+04  0.15000000000E+04  0.10566000000E+00 0.  1.
        994   -1    0    0    0    0 -0.00000000000E+00 -0.00000000000E+00  0.11368683772E-12  0.17120000000E+03  0.17120000000E+03 0.  0.
         13    1    1    2    0    0 -0.23319783891E+02  0.26835692219E+02  0.13507249158E+03  0.13967303192E+03  0.10566000000E+00 0.  1.
        994    1    1    2    0    0  0.41607042111E+01 -0.22555768333E+02  0.64283500511E+01  0.17284917654E+03  0.17120000000E+03 0.  0.
        998    1    1    2    0    0  0.19159079680E+02 -0.42799238861E+01  0.13584991546E+04  0.13586777915E+04  0.10000000000E+02 0.  1.
</event>
<event>
 5    1  0.9123258E-009  0.3852692E+03  0.7957747E-01  0.3428531E+00
         13   -1    0    0    0    0  0.00000000000E+00  0.00000000000E+00  0.14999999963E+04  0.15000000000E+04  0.10566000000E+00 0. -1.
        994   -1    0    0    0    0 -0.00000000000E+00 -0.00000000000E+00  0.11368683772E-12  0.17120000000E+03  0.17120000000E+03 0.  0.
         13    1    1    2    0    0 -0.29388685178E+01  0.14209155954E+02  0.72148228368E+02  0.73592901029E+02  0.10566000000E+00 0. -1.
        994    1    1    2    0    0  0.17686515376E+01 -0.60657917368E+01  0.16277411834E+01  0.17132428753E+03  0.17120000000E+03 0.  0.
        998    1    1    2    0    0  0.11702169802E+01 -0.81433642171E+01  0.14262240267E+04  0.14262828114E+04  0.10000000000E+02 0. -1.
</event>
<event>
 5    1  0.9123258E-009  0.3807521E+03  0.7957747E-01  0.3447890E+00
         13   -1    0    0    0    0  0.00000000000E+00  0.00000000000E+00  0.14999999963E+04  0.15000000000E+04  0.10566000000E+00 0.  1.
        994   -1    0    0    0    0 -0.00000000000E+00 -0.00000000000E+00  0.11368683772E-12  0.17120000000E+03  0.17120000000E+03 0.  0.
         13    1    1    2    0    0  0.28849662177E+02 -0.29622199227E+01  0.10553586899E+03  0.10944820036E+03  0.10566000000E+00 0.  1.
        994    1    1    2    0    0 -0.26400627744E+02  0.11216455941E+01  0.60858748191E+01  0.17333415447E+03  0.17120000000E+03 0.  0.
        998    1    1    2    0    0 -0.24490344327E+01  0.18405743286E+01  0.13883782525E+04  0.13884176452E+04  0.10000000000E+02 0.  1.
</event>
<event>
 5    1  0.9123258E-009  0.3837425E+03  0.7957747E-01  0.3435023E+00
         13   -1    0    0    0    0  0.00000000000E+00  0.00000000000E+00  0.14999999963E+04  0.15000000000E+04  0.10566000000E+00 0. -1.
        994   -1    0    0    0    0 -0.00000000000E+00 -0.00000000000E+00  0.11368683772E-12  0.17120000000E+03  0.17120000000E+03 0.  0.
         13    1    1    2    0    0 -0.18152346912E+02 -0.26561145422E+01  0.74951565774E+02  0.77164182228E+02  0.10566000000E+00 0. -1.
        994    1    1    2    0    0  0.12051762410E+02 -0.13095973363E+02  0.33024024209E+01  0.17215427778E+03  0.17120000000E+03 0.  0.
        998    1    1    2    0    0  0.61005845018E+01  0.15752087905E+02  0.14217460281E+04  0.14218815400E+04  0.10000000000E+02 0. -1.
</event>
<event>
 5    1  0.9123258E-009  0.3803611E+03  0.7957747E-01  0.3449588E+00
         13   -1    0    0    0    0  0.00000000000E+00  0.00000000000E+00  0.14999999963E+04  0.15000000000E+04  0.10566000000E+00 0. -1.
        994   -1    0    0    0    0 -0.00000000000E+00 -0.00000000000E+00  0.11368683772E-12  0.17120000000E+03  0.17120000000E+03 0.  0.
         13    1    1    2    0    0  0.97547900078E+01 -0.11721378966E+02  0.27760709617E+02  0.31673566509E+02  0.10566000000E+00 0. -1.
        994    1    1    2    0    0 -0.83776623629E+01  0.81238162441E+01  0.44057872571E+01  0.17165381609E+03  0.17120000000E+03 0.  0.
        998    1    1    2    0    0 -0.13771276449E+01  0.35975627224E+01  0.14678334994E+04  0.14678726174E+04  0.10000000000E+02 0. -1.
</event>
<event>
 5    1  0.9123258E-009  0.3806747E+03  0.7957747E-01  0.3448226E+00
         13   -1    0    0    0    0  0.00000000000E+00  0.00000000000E+00  0.14999999963E+04  0.15000000000E+04  0.10566000000E+00 0. -1.
        994   -1    0    0    0    0 -0.00000000000E+00 -0.00000000000E+00  0.11368683772E-12  0.17120000000E+03  0.17120000000E+03 0.  0.
         13    1    1    2    0    0 -0.22241186550E+02  0.82354216819E-01  0.66275760958E+02  0.69908259999E+02  0.10566000000E+00 0. -1.
        994    1    1    2    0    0  0.57646292578E+01 -0.23614444174E+01  0.39224106275E+01  0.17135819991E+03  0.17120000000E+03 0.  0.
        998    1    1    2    0    0  0.16476557293E+02  0.22790902005E+01  0.14298018247E+04  0.14299335401E+04  0.10000000000E+02 0. -1.
</event>
<event>
 5    1  0.9123258E-009  0.3861097E+03  0.7957747E-01  0.3424979E+00
         13   -1    0    0    0    0  0.00000000000E+00  0.00000000000E+00  0.14999999963E+04  0.15000000000E+04  0.10566000000E+00 0.  1.
        994   -1    0    0    0    0 -0.00000000000E+00 -0.00000000000E+00  0.11368683772E-12  0.17120000000E+03  0.17120000000E+03 0.  0.
         13    1    1    2    0    0  0.28714279545E+01 -0.99328973415E+01  0.48562872866E+02  0.49651498801E+02  0.10566000000E+00 0.  1.
        994    1    1    2    0    0 -0.73184150033E+01  0.10236788212E+02  0.15992603521E+01  0.17166930030E+03  0.17120000000E+03 0.  0.
        998    1    1    2    0    0  0.44469870488E+01 -0.30389087088E+00  0.14498378631E+04  0.14498792009E+04  0.10000000000E+02 0.  1.
</event>
<event>
 5    1  0.9123258E-009  0.3791501E+03  0.7957747E-01  0.3454867E+00
         13   -1    0    0    0    0  0.00000000000E+00  0.00000000000E+00  0.14999999963E+04  0.15000000000E+04  0.10566000000E+00 0. -1.
        994   -1    0    0    0    0 -0.00000000000E+00 -0.00000000000E+00  0.11368683772E-12  0.17120000000E+03  0.17120000000E+03 0.  0.
         13    1    1    2    0    0 -0.49224869204E+02 -0.87334579188E+01  0.24865241473E+03  0.25362845967E+03  0.10566000000E+00 0. -1.
        994    1    1    2    0    0  0.38865976207E+02  0.10539927435E+02  0.10018345020E+02  0.17615749037E+03  0.17120000000E+03 0.  0.
        998    1    1    2    0    0  0.10358892997E+02 -0.18064695157E+01  0.12413292365E+04  0.12414140500E+04  0.10000000000E+02 0. -1.
</event>
<event>
 5    1  0.9123258E-009  0.3810368E+03  0.7957747E-01  0.3446656E+00
         13   -1    0    0    0    0  0.00000000000E+00  0.00000000000E+00  0.14999999963E+04  0.15000000000E+04  0.10566000000E+00 0.  1.
        994   -1    0    0    0    0 -0.00000000000E+00 -0.00000000000E+00  0.11368683772E-12  0.17120000000E+03  0.17120000000E+03 0.  0.
         13    1    1    2    0    0 -0.17443059884E+01  0.29908714886E+02  0.12743274332E+03  0.13090717728E+03  0.10566000000E+00 0.  1.
        994    1    1    2    0    0 -0.23931071231E+02 -0.14445006779E+02  0.62181120349E+01  0.17357839528E+03  0.17120000000E+03 0.  0.
        998    1    1    2    0    0  0.25675377220E+02 -0.15463708107E+02  0.13663491409E+04  0.13667144274E+04  0.10000000000E+02 0.  1.
</event>
<event>
 5    1  0.9123258E-009  0.3818607E+03  0.7957747E-01  0.3443096E+00
         13   -1    0    0    0    0  0.00000000000E+00  0.00000000000E+00  0.14999999963E+04  0.15000000000E+04  0.10566000000E+00 0.  1.
        994   -1    0    0    0    0 -0.00000000000E+00 -0.00000000000E+00  0.11368683772E-12  0.17120000000E+03  0.17120000000E+03 0.  0.
         13    1    1    2    0    0  0.64958674660E+01 -0.26834866604E+02  0.14126514646E+02  0.31014124844E+02  0.10566000000E+00 0.  1.
        994    1    1    2    0    0 -0.40264090178E+02  0.24653705322E+02  0.25530199490E+02  0.17941636834E+03  0.17120000000E+03 0.  0.
        998    1    1    2    0    0  0.33768222712E+02  0.21811612816E+01  0.14603432821E+04  0.14607695068E+04  0.10000000000E+02 0.  1.
</event>
<event>
 5    1  0.9123258E-009  0.3848032E+03  0.7957747E-01  0.3430507E+00
         13   -1    0    0    0    0  0.00000000000E+00  0.00000000000E+00  0.14999999963E+04  0.15000000000E+04  0.10566000000E+00 0. -1.
        994   -1    0    0    0    0 -0.00000000000E+00 -0.00000000000E+00  0.11368683772E-12  0.17120000000E+03  0.17120000000E+03 0.  0.
         13    1    1    2    0    0  0.14035465522E+02  0.55474109011E+01  0.67245983338E+02  0.68918803669E+02  0.10566000000E+00 0. -1.
        994    1    1    2    0    0 -0.22758635718E+01 -0.12327523705E+02  0.22451960718E+01  0.17167302730E+03  0.17120000000E+03 0.  0.
        998    1    1    2    0    0 -0.11759601950E+02  0.67801128037E+01  0.14305088169E+04  0.14306081690E+04  0.10000000000E+02 0. -1.
</event>
<event>
 5    1  0.9123258E-009  0.3841434E+03  0.7957747E-01  0.3433313E+00
         13   -1    0    0    0    0  0.00000000000E+00  0.00000000000E+00  0.14999999963E+04  0.15000000000E+04  0.10566000000E+00 0.  1.
        994   -1    0    0    0    0 -0.00000000000E+00 -0.00000000000E+00  0.11368683772E-12  0.17120000000E+03  0.17120000000E+03 0.  0.
         13    1    1    2    0    0 -0.76948676387E+01 -0.15348557697E+02  0.71832256609E+02  0.73855761217E+02  0.10566000000E+00 0.  1.
        994    1    1    2    0    0  0.24159177599E+02 -0.43086158040E+00  0.39838315325E+01  0.17294265644E+03  0.17120000000E+03 0.  0.
        998    1    1    2    0    0 -0.16464309960E+02  0.15779419278E+02  0.14241839081E+04  0.14244015823E+04  0.10000000000E+02 0.  1.
</event>
<event>
 5    1  0.9123258E-009  0.3794091E+03  0.7957747E-01  0.3453736E+00
         13   -1    0    0    0    0  0.00000000000E+00  0.00000000000E+00  0.14999999963E+04  0.15000000000E+04  0.10566000000E+00 0.  1.
        994   -1    0    0    0    0 -0.00000000000E+00 -0.00000000000E+00  0.11368683772E-12  0.17120000000E+03  0.17120000000E+03 0.  0.
         13    1    1    2    0    0  0.96834449507E+01 -0.40200598913E+02  0.21597929405E+03  0.21990207794E+03  0.10566000000E+00 0.  1.
        994    1    1    2    0    0  0.25857160304E+01  0.88884909561E+01  0.47188131011E+01  0.17151500924E+03  0.17120000000E+03 0.  0.
        998    1    1    2    0    0 -0.12269160981E+02  0.31312107957E+02  0.12793018891E+04  0.12797829128E+04  0.10000000000E+02 0.  1.
</event>
<event>
 5    1  0.9123258E-009  0.3803157E+03  0.7957747E-01  0.3449785E+00
         13   -1    0    0    0    0  0.00000000000E+00  0.00000000000E+00  0.14999999963E+04  0.15000000000E+04  0.10566000000E+00 0.  1.
        994   -1    0    0    0    0 -0.00000000000E+00 -0.00000000000E+00  0.11368683772E-12  0.17120000000E+03  0.17120000000E+03 0.  0.
         13    1    1    2    0    0 -0.14486485201E+02 -0.11835829144E+02  0.41763880930E+02  0.45762189845E+02  0.10566000000E+00 0.  1.
        994    1    1    2    0    0  0.14905362108E+02  0.94931506081E+01  0.50174239137E+01  0.17218276415E+03  0.17120000000E+03 0.  0.
        998    1    1    2    0    0 -0.41887690703E+00  0.23426785361E+01  0.14532186914E+04  0.14532550460E+04  0.10000000000E+02 0.  1.
</event>
<event>
 5    1  0.9123258E-009  0.3832645E+03  0.7957747E-01  0.3437066E+00
         13   -1    0    0    0    0  0.00000000000E+00  0.00000000000E+00  0.14999999963E+04  0.15000000000E+04  0.10566000000E+00 0. -1.
        994   -1    0    0    0    0 -0.00000000000E+00 -0.00000000000E+00  0.11368683772E-12  0.17120000000E+03  0.17120000000E+03 0.  0.
         13    1    1    2    0    0 -0.23504463389E+02  0.12833943709E+02  0.15239571143E+03  0.15473084352E+03  0.10566000000E+00 0. -1.
        994    1    1    2    0    0  0.11084855265E+02  0.27830460962E+01  0.29263516857E+01  0.17160601066E+03  0.17120000000E+03 0.  0.
        998    1    1    2    0    0  0.12419608124E+02 -0.15616989805E+02  0.13446779332E+04  0.13448631458E+04  0.10000000000E+02 0. -1.
</event>
<event>
 5    1  0.9123258E-009  0.3709153E+03  0.7957747E-01  0.3491695E+00
         13   -1    0    0    0    0  0.00000000000E+00  0.00000000000E+00  0.14999999963E+04  0.15000000000E+04  0.10566000000E+00 0.  1.
        994   -1    0    0    0    0 -0.00000000000E+00 -0.00000000000E+00  0.11368683772E-12  0.17120000000E+03  0.17120000000E+03 0.  0.
         13    1    1    2    0    0 -0.12565640621E+02 -0.21621608987E+02  0.33294114541E+02  0.41640107187E+02  0.10566000000E+00 0.  1.
        994    1    1    2    0    0 -0.41013159275E+01  0.43082695420E+01  0.89133977434E+01  0.17153504201E+03  0.17120000000E+03 0.  0.
        998    1    1    2    0    0  0.16666956548E+02  0.17313339445E+02  0.14577924840E+04  0.14580248508E+04  0.10000000000E+02 0.  1.
</event>
<event>
 5    1  0.9123258E-009  0.3826515E+03  0.7957747E-01  0.3439694E+00
         13   -1    0    0    0    0  0.00000000000E+00  0.00000000000E+00  0.14999999963E+04  0.15000000000E+04  0.10566000000E+00 0.  1.
        994   -1    0    0    0    0 -0.00000000000E+00 -0.00000000000E+00  0.11368683772E-12  0.17120000000E+03  0.17120000000E+03 0.  0.
         13    1    1    2    0    0 -0.11802856353E+02  0.32553841301E+01  0.25527258683E+02  0.28311782774E+02  0.10566000000E+00 0.  1.
        994    1    1    2    0    0  0.10855070092E+02 -0.21150196143E+01  0.32060357262E+01  0.17158678422E+03  0.17120000000E+03 0.  0.
        998    1    1    2    0    0  0.94778626069E+00 -0.11403645158E+01  0.14712667019E+04  0.14713014330E+04  0.10000000000E+02 0.  1.
</event>
<event>
 5    1  0.9123258E-009  0.3723683E+03  0.7957747E-01  0.3485077E+00
         13   -1    0    0    0    0  0.00000000000E+00  0.00000000000E+00  0.14999999963E+04  0.15000000000E+04  0.10566000000E+00 0.  1.
        994   -1    0    0    0    0 -0.00000000000E+00 -0.00000000000E+00  0.11368683772E-12  0.17120000000E+03  0.17120000000E+03 0.  0.
         13    1    1    2    0    0  0.10799500980E+03 -0.42364370473E+01  0.47822655378E+03  0.49028717855E+03  0.10566000000E+00 0.  1.
        994    1    1    2    0    0 -0.10835389347E+03  0.18673636367E+02  0.50710325412E+02  0.20969083916E+03  0.17120000000E+03 0.  0.
        998    1    1    2    0    0  0.35888367405E+00 -0.14437199320E+02  0.97106311708E+03  0.97122198229E+03  0.10000000000E+02 0.  1.
</event>
<event>
 5    1  0.9123258E-009  0.3815576E+03  0.7957747E-01  0.3444404E+00
         13   -1    0    0    0    0  0.00000000000E+00  0.00000000000E+00  0.14999999963E+04  0.15000000000E+04  0.10566000000E+00 0. -1.
        994   -1    0    0    0    0 -0.00000000000E+00 -0.00000000000E+00  0.11368683772E-12  0.17120000000E+03  0.17120000000E+03 0.  0.
         13    1    1    2    0    0  0.13829819876E+02  0.89778218345E+01  0.40138044346E+02  0.43392844694E+02  0.10566000000E+00 0. -1.
        994    1    1    2    0    0 -0.62005075290E+01 -0.12133451871E+01  0.34817285175E+01  0.17135192130E+03  0.17120000000E+03 0.  0.
        998    1    1    2    0    0 -0.76293123471E+01 -0.77644766474E+01  0.14563802234E+04  0.14564552340E+04  0.10000000000E+02 0. -1.
</event>
<event>
 5    1  0.9123258E-009  0.3780221E+03  0.7957747E-01  0.3459816E+00
         13   -1    0    0    0    0  0.00000000000E+00  0.00000000000E+00  0.14999999963E+04  0.15000000000E+04  0.10566000000E+00 0. -1.
        994   -1    0    0    0    0 -0.00000000000E+00 -0.00000000000E+00  0.11368683772E-12  0.17120000000E+03  0.17120000000E+03 0.  0.
         13    1    1    2    0    0 -0.16640940416E+02  0.83950840984E+01  0.32395209212E+02  0.37374577976E+02  0.10566000000E+00 0. -1.
        994    1    1    2    0    0  0.55096337087E+01 -0.20212563866E+01  0.52508256465E+01  0.17138101619E+03  0.17120000000E+03 0.  0.
        998    1    1    2    0    0  0.11131306707E+02 -0.63738277118E+01  0.14623539614E+04  0.14624444058E+04  0.10000000000E+02 0. -1.
</event>
<event>
 5    1  0.9123258E-009  0.3981054E+03  0.7957747E-01  0.3375924E+00
         13   -1    0    0    0    0  0.00000000000E+00  0.00000000000E+00  0.14999999963E+04  0.15000000000E+04  0.10566000000E+00 0. -1.
        994   -1    0    0    0    0 -0.00000000000E+00 -0.00000000000E+00  0.11368683772E-12  0.17120000000E+03  0.17120000000E+03 0.  0.
         13    1    1    2    0    0 -0.22860414628E+02  0.13732549574E+03  0.32427053505E+03  0.35289131670E+03  0.10566000000E+00 0. -1.
        994    1    1    2    0    0  0.18236316844E+02 -0.10400854288E+03  0.71431226990E+02  0.21345304034E+03  0.17120000000E+03 0.  0.
        998    1    1    2    0    0  0.46240977834E+01 -0.33316952860E+02  0.11042982342E+04  0.11048556430E+04  0.10000000000E+02 0. -1.
</event>
<event>
 5    1  0.9123258E-009  0.3816199E+03  0.7957747E-01  0.3444135E+00
         13   -1    0    0    0    0  0.00000000000E+00  0.00000000000E+00  0.14999999963E+04  0.15000000000E+04  0.10566000000E+00 0. -1.
        994   -1    0    0    0    0 -0.00000000000E+00 -0.00000000000E+00  0.11368683772E-12  0.17120000000E+03  0.17120000000E+03 0.  0.
         13    1    1    2    0    0  0.13061430450E+02 -0.19410087509E+01  0.24737650861E+02  0.28041594365E+02  0.10566000000E+00 0. -1.
        994    1    1    2    0    0 -0.13819589794E+02 -0.85279011397E+01  0.41949770653E+01  0.17201960351E+03  0.17120000000E+03 0.  0.
        998    1    1    2    0    0  0.75815934391E+00  0.10468909891E+02  0.14710673684E+04  0.14711388021E+04  0.10000000000E+02 0. -1.
</event>
<event>
 5    1  0.9123258E-009  0.3802879E+03  0.7957747E-01  0.3449906E+00
         13   -1    0    0    0    0  0.00000000000E+00  0.00000000000E+00  0.14999999963E+04  0.15000000000E+04  0.10566000000E+00 0. -1.
        994   -1    0    0    0    0 -0.00000000000E+00 -0.00000000000E+00  0.11368683772E-12  0.17120000000E+03  0.17120000000E+03 0.  0.
         13    1    1    2    0    0 -0.89362709576E+01 -0.18457486345E+02  0.76646392280E+01  0.21892775048E+02  0.10566000000E+00 0. -1.
        994    1    1    2    0    0 -0.54005594510E+02 -0.11939028695E+03  0.81751792251E+02  0.23057198527E+03  0.17120000000E+03 0.  0.
        998    1    1    2    0    0  0.62941865467E+02  0.13784777329E+03  0.14105835648E+04  0.14187352397E+04  0.10000000000E+02 0. -1.
</event>
<event>
 5    1  0.9123258E-009  0.3859641E+03  0.7957747E-01  0.3425594E+00
         13   -1    0    0    0    0  0.00000000000E+00  0.00000000000E+00  0.14999999963E+04  0.15000000000E+04  0.10566000000E+00 0.  1.
        994   -1    0    0    0    0 -0.00000000000E+00 -0.00000000000E+00  0.11368683772E-12  0.17120000000E+03  0.17120000000E+03 0.  0.
         13    1    1    2    0    0  0.11188968270E+02 -0.75425714202E+01  0.79233563077E+02  0.80374449152E+02  0.10566000000E+00 0.  1.
        994    1    1    2    0    0 -0.90375850798E+01  0.41934708598E+01  0.14777182657E+01  0.17149602559E+03  0.17120000000E+03 0.  0.
        998    1    1    2    0    0 -0.21513831901E+01  0.33491005604E+01  0.14192887149E+04  0.14193295253E+04  0.10000000000E+02 0.  1.
</event>
<event>
 5    1  0.9123258E-009  0.3760623E+03  0.7957747E-01  0.3468485E+00
         13   -1    0    0    0    0  0.00000000000E+00  0.00000000000E+00  0.14999999963E+04  0.15000000000E+04  0.10566000000E+00 0.  1.
        994   -1    0    0    0    0 -0.00000000000E+00 -0.00000000000E+00  0.11368683772E-12  0.17120000000E+03  0.17120000000E+03 0.  0.
         13    1    1    2    0    0  0.85543288566E+01  0.15304455273E+02  0.22151575994E+02  0.28250776564E+02  0.10566000000E+00 0.  1.
        994    1    1    2    0    0 -0.18412845475E+02 -0.99038259708E+01  0.76161602551E+01  0.17263998536E+03  0.17120000000E+03 0.  0.
        998    1    1    2    0    0  0.98585166183E+01 -0.54006293026E+01  0.14702322600E+04  0.14703092381E+04  0.10000000000E+02 0.  1.
</event>
<event>
 5    1  0.9123258E-009  0.3836525E+03  0.7957747E-01  0.3435407E+00
         13   -1    0    0    0    0  0.00000000000E+00  0.00000000000E+00  0.14999999963E+04  0.15000000000E+04  0.10566000000E+00 0. -1.
        994   -1    0    0    0    0 -0.00000000000E+00 -0.00000000000E+00  0.11368683772E-12  0.17120000000E+03  0.17120000000E+03 0.  0.
         13    1    1    2    0    0 -0.15642567360E+02 -0.26581155928E+02  0.18297530793E+03  0.18555652034E+03  0.10566000000E+00 0. -1.
        994    1    1    2    0    0  0.17160446909E+02  0.26338941754E+02  0.55716160747E+01  0.17415138155E+03  0.17120000000E+03 0.  0.
        998    1    1    2    0    0 -0.15178795487E+01  0.24221417340E+00  0.13114530723E+04  0.13114920981E+04  0.10000000000E+02 0. -1.
</event>
<event>
 5    1  0.9123258E-009  0.3062124E+03  0.7957747E-01  0.3852643E+00
         13   -1    0    0    0    0  0.00000000000E+00  0.00000000000E+00  0.14999999963E+04  0.15000000000E+04  0.10566000000E+00 0. -1.
        994   -1    0    0    0    0 -0.00000000000E+00 -0.00000000000E+00  0.11368683772E-12  0.17120000000E+03  0.17120000000E+03 0.  0.
         13    1    1    2    0    0 -0.16544204915E+03 -0.49162800287E+02  0.79649656942E+03  0.81498150214E+03  0.10566000000E+00 0. -1.
        994    1    1    2    0    0  0.12300321151E+03 -0.10216205780E+02  0.75869632389E+02  0.22427617355E+03  0.17120000000E+03 0.  0.
        998    1    1    2    0    0  0.42438837642E+02  0.59379006067E+02  0.62763379447E+03  0.63194232432E+03  0.10000000000E+02 0. -1.
</event>
<event>
 5    1  0.9123258E-009  0.3791337E+03  0.7957747E-01  0.3454939E+00
         13   -1    0    0    0    0  0.00000000000E+00  0.00000000000E+00  0.14999999963E+04  0.15000000000E+04  0.10566000000E+00 0.  1.
        994   -1    0    0    0    0 -0.00000000000E+00 -0.00000000000E+00  0.11368683772E-12  0.17120000000E+03  0.17120000000E+03 0.  0.
         13    1    1    2    0    0  0.37316489638E+02  0.54753791163E+02  0.38020151909E+03  0.38593225355E+03  0.10566000000E+00 0.  1.
        994    1    1    2    0    0 -0.34435578107E+02 -0.50097649804E+02  0.17061945624E+02  0.18247228158E+03  0.17120000000E+03 0.  0.
        998    1    1    2    0    0 -0.28809115303E+01 -0.46561413588E+01  0.11027365316E+04  0.11027954649E+04  0.10000000000E+02 0.  1.
</event>
<event>
 5    1  0.9123258E-009  0.3800892E+03  0.7957747E-01  0.3450770E+00
         13   -1    0    0    0    0  0.00000000000E+00  0.00000000000E+00  0.14999999963E+04  0.15000000000E+04  0.10566000000E+00 0.  1.
        994   -1    0    0    0    0 -0.00000000000E+00 -0.00000000000E+00  0.11368683772E-12  0.17120000000E+03  0.17120000000E+03 0.  0.
         13    1    1    2    0    0  0.19204553119E+02 -0.25721535060E+00  0.43415984042E+02  0.47474623270E+02  0.10566000000E+00 0.  1.
        994    1    1    2    0    0 -0.13749086716E+02 -0.39021689468E+01  0.47710503296E+01  0.17186176779E+03  0.17120000000E+03 0.  0.
        998    1    1    2    0    0 -0.54554664034E+01  0.41593842974E+01  0.14518129619E+04  0.14518636089E+04  0.10000000000E+02 0.  1.
</event>
<event>
 5    1  0.9123258E-009  0.3784798E+03  0.7957747E-01  0.3457805E+00
         13   -1    0    0    0    0  0.00000000000E+00  0.00000000000E+00  0.14999999963E+04  0.15000000000E+04  0.10566000000E+00 0.  1.
        994   -1    0    0    0    0 -0.00000000000E+00 -0.00000000000E+00  0.11368683772E-12  0.17120000000E+03  0.17120000000E+03 0.  0.
         13    1    1    2    0    0  0.11521410181E+02  0.49670556585E+01  0.13826521862E+02  0.18670790163E+02  0.10566000000E+00 0.  1.
        994    1    1    2    0    0 -0.12375813223E+02 -0.45846714595E+00  0.54179722756E+01  0.17173283136E+03  0.17120000000E+03 0.  0.
        998    1    1    2    0    0  0.85440304212E+00 -0.45085885126E+01  0.14807555021E+04  0.14807963785E+04  0.10000000000E+02 0.  1.
</event>
<event>
 5    1  0.9123258E-009  0.3829290E+03  0.7957747E-01  0.3438503E+00
         13   -1    0    0    0    0  0.00000000000E+00  0.00000000000E+00  0.14999999963E+04  0.15000000000E+04  0.10566000000E+00 0.  1.
        994   -1    0    0    0    0 -0.00000000000E+00 -0.00000000000E+00  0.11368683772E-12  0.17120000000E+03  0.17120000000E+03 0.  0.
         13    1    1    2    0    0  0.16547007943E+02 -0.11835811723E+02  0.77977864678E+02  0.80588140907E+02  0.10566000000E+00 0.  1.
        994    1    1    2    0    0 -0.55586887596E+01  0.10455942518E+02  0.31262509466E+01  0.17163752270E+03  0.17120000000E+03 0.  0.
        998    1    1    2    0    0 -0.10988319183E+02  0.13798692048E+01  0.14188958807E+04  0.14189743364E+04  0.10000000000E+02 0.  1.
</event>
<event>
 5    1  0.9123258E-009  0.3725882E+03  0.7957747E-01  0.3484080E+00
         13   -1    0    0    0    0  0.00000000000E+00  0.00000000000E+00  0.14999999963E+04  0.15000000000E+04  0.10566000000E+00 0.  1.
        994   -1    0    0    0    0 -0.00000000000E+00 -0.00000000000E+00  0.11368683772E-12  0.17120000000E+03  0.17120000000E+03 0.  0.
         13    1    1    2    0    0 -0.11903093076E+03  0.34004204351E+02  0.59870664691E+03  0.61137084377E+03  0.10566000000E+00 0.  1.
        994    1    1    2    0    0  0.11017433177E+03 -0.43023514399E+02  0.57500346473E+02  0.21588222719E+03  0.17120000000E+03 0.  0.
        998    1    1    2    0    0  0.88565989912E+01  0.90193100477E+01  0.84379300289E+03  0.84394692904E+03  0.10000000000E+02 0.  1.
</event>
<event>
 5    1  0.9123258E-009  0.3802268E+03  0.7957747E-01  0.3450171E+00
         13   -1    0    0    0    0  0.00000000000E+00  0.00000000000E+00  0.14999999963E+04  0.15000000000E+04  0.10566000000E+00 0.  1.
        994   -1    0    0    0    0 -0.00000000000E+00 -0.00000000000E+00  0.11368683772E-12  0.17120000000E+03  0.17120000000E+03 0.  0.
         13    1    1    2    0    0 -0.22242159829E+02 -0.14358326407E+02  0.86660247570E+02  0.90613933167E+02  0.10566000000E+00 0.  1.
        994    1    1    2    0    0  0.11220755314E+02  0.90113316585E+01  0.47108234254E+01  0.17186838367E+03  0.17120000000E+03 0.  0.
        998    1    1    2    0    0  0.11021404516E+02  0.53469947488E+01  0.14086289253E+04  0.14087176832E+04  0.10000000000E+02 0.  1.
</event>
<event>
 5    1  0.9123258E-009  0.3809120E+03  0.7957747E-01  0.3447197E+00
         13   -1    0    0    0    0  0.00000000000E+00  0.00000000000E+00  0.14999999963E+04  0.15000000000E+04  0.10566000000E+00 0. -1.
        994   -1    0    0    0    0 -0.00000000000E+00 -0.00000000000E+00  0.11368683772E-12  0.17120000000E+03  0.17120000000E+03 0.  0.
         13    1    1    2    0    0  0.30723563245E+02  0.12392672691E+01  0.12891552557E+03  0.13253187171E+03  0.10566000000E+00 0. -1.
        994    1    1    2    0    0 -0.16692375119E+02  0.37602954992E+01  0.46498796960E+01  0.17211576508E+03  0.17120000000E+03 0.  0.
        998    1    1    2    0    0 -0.14031188126E+02 -0.49995627683E+01  0.13664345910E+04  0.13665523632E+04  0.10000000000E+02 0. -1.
</event>
<event>
 5    1  0.9123258E-009  0.3824056E+03  0.7957747E-01  0.3440750E+00
         13   -1    0    0    0    0  0.00000000000E+00  0.00000000000E+00  0.14999999963E+04  0.15000000000E+04  0.10566000000E+00 0.  1.
        994   -1    0    0    0    0 -0.00000000000E+00 -0.00000000000E+00  0.11368683772E-12  0.17120000000E+03  0.17120000000E+03 0.  0.
         13    1    1    2    0    0 -0.17089649296E+02  0.56108146081E+01  0.52495957315E+02  0.55492108016E+02  0.10566000000E+00 0.  1.
        994    1    1    2    0    0  0.18895782005E+02 -0.58902213145E+01  0.42240223662E+01  0.17239207537E+03  0.17120000000E+03 0.  0.
        998    1    1    2    0    0 -0.18061327083E+01  0.27940670640E+00  0.14432800166E+04  0.14433158166E+04  0.10000000000E+02 0.  1.
</event>
<event>
 5    1  0.9123258E-009  0.3820029E+03  0.7957747E-01  0.3442484E+00
         13   -1    0    0    0    0  0.00000000000E+00  0.00000000000E+00  0.14999999963E+04  0.15000000000E+04  0.10566000000E+00 0.  1.
        994   -1    0    0    0    0 -0.00000000000E+00 -0.00000000000E+00  0.11368683772E-12  0.17120000000E+03  0.17120000000E+03 0.  0.
         13    1    1    2    0    0 -0.64066237232E+01 -0.20081502504E+02  0.74226057084E+02  0.77161067155E+02  0.10566000000E+00 0.  1.
        994    1    1    2    0    0 -0.39847982047E+01  0.33711977754E+01  0.32159798401E+01  0.17130973737E+03  0.17120000000E+03 0.  0.
        998    1    1    2    0    0  0.10391421928E+02  0.16710304729E+02  0.14225579594E+04  0.14227291955E+04  0.10000000000E+02 0.  1.
</event>
<event>
 5    1  0.9123258E-009  0.3732993E+03  0.7957747E-01  0.3480864E+00
         13   -1    0    0    0    0  0.00000000000E+00  0.00000000000E+00  0.14999999963E+04  0.15000000000E+04  0.10566000000E+00 0.  1.
        994   -1    0    0    0    0 -0.00000000000E+00 -0.00000000000E+00  0.11368683772E-12  0.17120000000E+03  0.17120000000E+03 0.  0.
         13    1    1    2    0    0  0.28114016494E+03  0.48767230396E+02  0.10653511264E+04  0.11029012054E+04  0.10566000000E+00 0.  1.
        994    1    1    2    0    0 -0.26318375480E+03 -0.53270982610E+02  0.31898816647E+03  0.45073981045E+03  0.17120000000E+03 0.  0.
        998    1    1    2    0    0 -0.17956410135E+02  0.45037522145E+01  0.11566070342E+03  0.11755898419E+03  0.10000000000E+02 0.  1.
</event>
<event>
 5    1  0.9781676E-009  0.3859628E+03  0.7957747E-01  0.3425599E+00
         13   -1    0    0    0    0  0.00000000000E+00  0.00000000000E+00  0.14999999963E+04  0.15000000000E+04  0.10566000000E+00 0. -1.
        994   -1    0    0    0    0 -0.00000000000E+00 -0.00000000000E+00  0.11368683772E-12  0.17120000000E+03  0.17120000000E+03 0.  0.
         13    1    1    2    0    0  0.46669457278E+01 -0.10118453468E+02  0.53986222703E+02  0.55124285835E+02  0.10566000000E+00 0. -1.
        994    1    1    2    0    0 -0.12739822831E+02  0.38956319256E+01  0.17349652256E+01  0.17172632046E+03  0.17120000000E+03 0.  0.
        998    1    1    2    0    0  0.80728771029E+01  0.62228215420E+01  0.14442788083E+04  0.14443493937E+04  0.10000000000E+02 0. -1.
</event>
<event>
 5    1  0.9123258E-009  0.3760634E+03  0.7957747E-01  0.3468480E+00
         13   -1    0    0    0    0  0.00000000000E+00  0.00000000000E+00  0.14999999963E+04  0.15000000000E+04  0.10566000000E+00 0.  1.
        994   -1    0    0    0    0 -0.00000000000E+00 -0.00000000000E+00  0.11368683772E-12  0.17120000000E+03  0.17120000000E+03 0.  0.
         13    1    1    2    0    0  0.61542295339E+01 -0.58718553150E+02  0.15430689263E+03  0.16521613512E+03  0.10566000000E+00 0.  1.
        994    1    1    2    0    0  0.83515433967E+02 -0.18949900915E+02  0.40867354603E+02  0.19573836396E+03  0.17120000000E+03 0.  0.
        998    1    1    2    0    0 -0.89669663501E+02  0.77668454065E+02  0.13048257490E+04  0.13102455009E+04  0.10000000000E+02 0. -1.
</event>
<event>
 5    1  0.9123258E-009  0.3705496E+03  0.7957747E-01  0.3493369E+00
         13   -1    0    0    0    0  0.00000000000E+00  0.00000000000E+00  0.14999999963E+04  0.15000000000E+04  0.10566000000E+00 0. -1.
        994   -1    0    0    0    0 -0.00000000000E+00 -0.00000000000E+00  0.11368683772E-12  0.17120000000E+03  0.17120000000E+03 0.  0.
         13    1    1    2    0    0  0.27123983033E+01  0.22702697050E+02  0.24767702918E+02  0.33707860059E+02  0.10566000000E+00 0. -1.
        994    1    1    2    0    0 -0.49560080165E+01 -0.25076627605E+02  0.11240290008E+02  0.17346233997E+03  0.17120000000E+03 0.  0.
        998    1    1    2    0    0  0.22436097131E+01  0.23739305551E+01  0.14639920034E+04  0.14640298000E+04  0.10000000000E+02 0. -1.
</event>
<event>
 5    1  0.9123258E-009  0.3843047E+03  0.7957747E-01  0.3432627E+00
         13   -1    0    0    0    0  0.00000000000E+00  0.00000000000E+00  0.14999999963E+04  0.15000000000E+04  0.10566000000E+00 0. -1.
        994   -1    0    0    0    0 -0.00000000000E+00 -0.00000000000E+00  0.11368683772E-12  0.17120000000E+03  0.17120000000E+03 0.  0.
         13    1    1    2    0    0  0.10658631958E+02  0.10662565968E+02  0.58913594508E+02  0.60812165971E+02  0.10566000000E+00 0. -1.
        994    1    1    2    0    0 -0.83963479540E+01  0.18266215442E+01  0.22191639218E+01  0.17142986873E+03  0.17120000000E+03 0.  0.
        998    1    1    2    0    0 -0.22622840040E+01 -0.12489187512E+02  0.14388672378E+04  0.14389579653E+04  0.10000000000E+02 0. -1.
</event>
<event>
 5    1  0.9123258E-009  0.3815228E+03  0.7957747E-01  0.3444555E+00
         13   -1    0    0    0    0  0.00000000000E+00  0.00000000000E+00  0.14999999963E+04  0.15000000000E+04  0.10566000000E+00 0.  1.
        994   -1    0    0    0    0 -0.00000000000E+00 -0.00000000000E+00  0.11368683772E-12  0.17120000000E+03  0.17120000000E+03 0.  0.
         13    1    1    2    0    0  0.11285725999E+02  0.13770474455E+02  0.46275426868E+02  0.49582455304E+02  0.10566000000E+00 0.  1.
        994    1    1    2    0    0 -0.21571189560E+02  0.50986897042E+01  0.50023266317E+01  0.17270140743E+03  0.17120000000E+03 0.  0.
        998    1    1    2    0    0  0.10285463561E+02 -0.18869164159E+02  0.14487222428E+04  0.14489161373E+04  0.10000000000E+02 0.  1.
</event>
<event>
 5    1  0.9123258E-009  0.3750616E+03  0.7957747E-01  0.3472947E+00
         13   -1    0    0    0    0  0.00000000000E+00  0.00000000000E+00  0.14999999963E+04  0.15000000000E+04  0.10566000000E+00 0.  1.
        994   -1    0    0    0    0 -0.00000000000E+00 -0.00000000000E+00  0.11368683772E-12  0.17120000000E+03  0.17120000000E+03 0.  0.
         13    1    1    2    0    0 -0.86076466572E+02  0.70045930669E+02  0.66796036736E+03  0.67711642576E+03  0.10566000000E+00 0.  1.
        994    1    1    2    0    0  0.65057677818E+02 -0.64844231686E+02  0.35884508898E+02  0.19757128791E+03  0.17120000000E+03 0.  0.
        998    1    1    2    0    0  0.21018788754E+02 -0.52016989828E+01  0.79615512002E+03  0.79651228634E+03  0.10000000000E+02 0.  1.
</event>
<event>
 5    1  0.9123258E-009  0.3843328E+03  0.7957747E-01  0.3432507E+00
         13   -1    0    0    0    0  0.00000000000E+00  0.00000000000E+00  0.14999999963E+04  0.15000000000E+04  0.10566000000E+00 0. -1.
        994   -1    0    0    0    0 -0.00000000000E+00 -0.00000000000E+00  0.11368683772E-12  0.17120000000E+03  0.17120000000E+03 0.  0.
         13    1    1    2    0    0 -0.59513108551E+01 -0.13436022907E+02  0.54539279068E+02  0.56484413228E+02  0.10566000000E+00 0. -1.
        994    1    1    2    0    0  0.95558617238E+00  0.10867853973E+02  0.23541242220E+01  0.17156341479E+03  0.17120000000E+03 0.  0.
        998    1    1    2    0    0  0.49957246827E+01  0.25681689347E+01  0.14431065930E+04  0.14431521720E+04  0.10000000000E+02 0. -1.
</event>
<event>
 5    1  0.9123258E-009  0.3808524E+03  0.7957747E-01  0.3447455E+00
         13   -1    0    0    0    0  0.00000000000E+00  0.00000000000E+00  0.14999999963E+04  0.15000000000E+04  0.10566000000E+00 0. -1.
        994   -1    0    0    0    0 -0.00000000000E+00 -0.00000000000E+00  0.11368683772E-12  0.17120000000E+03  0.17120000000E+03 0.  0.
         13    1    1    2    0    0  0.11362366881E+02 -0.13374378105E+01  0.16222837136E+02  0.19851542253E+02  0.10566000000E+00 0. -1.
        994    1    1    2    0    0 -0.60536339506E+01 -0.37595492819E+01  0.38727900491E+01  0.17139200447E+03  0.17120000000E+03 0.  0.
        998    1    1    2    0    0 -0.53087329307E+01  0.50969870924E+01  0.14799043691E+04  0.14799564533E+04  0.10000000000E+02 0. -1.
</event>
<event>
 5    1  0.9123258E-009  0.3825070E+03  0.7957747E-01  0.3440315E+00
         13   -1    0    0    0    0  0.00000000000E+00  0.00000000000E+00  0.14999999963E+04  0.15000000000E+04  0.10566000000E+00 0.  1.
        994   -1    0    0    0    0 -0.00000000000E+00 -0.00000000000E+00  0.11368683772E-12  0.17120000000E+03  0.17120000000E+03 0.  0.
         13    1    1    2    0    0  0.19006207203E+02 -0.19446462762E+02  0.13905810111E+03  0.14169180454E+03  0.10566000000E+00 0.  1.
        994    1    1    2    0    0 -0.43039359322E+01  0.23977533778E+01  0.29534451413E+01  0.17129633949E+03  0.17120000000E+03 0.  0.
        998    1    1    2    0    0 -0.14702271271E+02  0.17048709384E+02  0.13579884500E+04  0.13582118560E+04  0.10000000000E+02 0. -1.
</event>
<event>
 5    1  0.9123258E-009  0.3774790E+03  0.7957747E-01  0.3462209E+00
         13   -1    0    0    0    0  0.00000000000E+00  0.00000000000E+00  0.14999999963E+04  0.15000000000E+04  0.10566000000E+00 0.  1.
        994   -1    0    0    0    0 -0.00000000000E+00 -0.00000000000E+00  0.11368683772E-12  0.17120000000E+03  0.17120000000E+03 0.  0.
         13    1    1    2    0    0  0.20694335544E+02 -0.20749803870E+02  0.67090970445E+02  0.73212153114E+02  0.10566000000E+00 0.  1.
        994    1    1    2    0    0 -0.36843465977E+02  0.41769923956E+02  0.15940986093E+02  0.18073661104E+03  0.17120000000E+03 0.  0.
        998    1    1    2    0    0  0.16149130433E+02 -0.21020120086E+02  0.14169680397E+04  0.14172512358E+04  0.10000000000E+02 0.  1.
</event>
<event>
 5    1  0.9123258E-009  0.3686866E+03  0.7957747E-01  0.3501949E+00
         13   -1    0    0    0    0  0.00000000000E+00  0.00000000000E+00  0.14999999963E+04  0.15000000000E+04  0.10566000000E+00 0.  1.
        994   -1    0    0    0    0 -0.00000000000E+00 -0.00000000000E+00  0.11368683772E-12  0.17120000000E+03  0.17120000000E+03 0.  0.
         13    1    1    2    0    0 -0.54763831804E+02  0.74069783686E+02  0.52252472976E+03  0.53058224103E+03  0.10566000000E+00 0.  1.
        994    1    1    2    0    0 -0.11045121296E+01 -0.37189776984E+02  0.15078768680E+02  0.17584398973E+03  0.17120000000E+03 0.  0.
        998    1    1    2    0    0  0.55868343934E+02 -0.36880006702E+02  0.96239649784E+03  0.96477376924E+03  0.10000000000E+02 0.  1.
</event>
<event>
 5    1  0.9123258E-009  0.3770927E+03  0.7957747E-01  0.3463916E+00
         13   -1    0    0    0    0  0.00000000000E+00  0.00000000000E+00  0.14999999963E+04  0.15000000000E+04  0.10566000000E+00 0.  1.
        994   -1    0    0    0    0 -0.00000000000E+00 -0.00000000000E+00  0.11368683772E-12  0.17120000000E+03  0.17120000000E+03 0.  0.
         13    1    1    2    0    0 -0.15376079104E+02  0.15387619655E+02  0.42382920687E+02  0.47639540062E+02  0.10566000000E+00 0.  1.
        994    1    1    2    0    0  0.10301044204E+02  0.16191050189E+02  0.68519751923E+01  0.17240838489E+03  0.17120000000E+03 0.  0.
        998    1    1    2    0    0  0.50750349004E+01 -0.31578669844E+02  0.14507651004E+04  0.14511520750E+04  0.10000000000E+02 0.  1.
</event>
<event>
 5    1  0.9123258E-009  0.3783241E+03  0.7957747E-01  0.3458488E+00
         13   -1    0    0    0    0  0.00000000000E+00  0.00000000000E+00  0.14999999963E+04  0.15000000000E+04  0.10566000000E+00 0.  1.
        994   -1    0    0    0    0 -0.00000000000E+00 -0.00000000000E+00  0.11368683772E-12  0.17120000000E+03  0.17120000000E+03 0.  0.
         13    1    1    2    0    0 -0.15953050474E+02  0.34230975400E+02  0.14070970426E+03  0.14568970978E+03  0.10566000000E+00 0.  1.
        994    1    1    2    0    0  0.53830301244E+01 -0.23143419338E+02  0.68817368049E+01  0.17297801355E+03  0.17120000000E+03 0.  0.
        998    1    1    2    0    0  0.10570020350E+02 -0.11087556062E+02  0.13524085552E+04  0.13525322767E+04  0.10000000000E+02 0.  1.
</event>
<event>
 5    1  0.9123258E-009  0.3845965E+03  0.7957747E-01  0.3431385E+00
         13   -1    0    0    0    0  0.00000000000E+00  0.00000000000E+00  0.14999999963E+04  0.15000000000E+04  0.10566000000E+00 0.  1.
        994   -1    0    0    0    0 -0.00000000000E+00 -0.00000000000E+00  0.11368683772E-12  0.17120000000E+03  0.17120000000E+03 0.  0.
         13    1    1    2    0    0 -0.13107669346E+02  0.53214398621E+01  0.53899859909E+02  0.55725530775E+02  0.10566000000E+00 0.  1.
        994    1    1    2    0    0  0.10585971467E+02 -0.37496203623E+01  0.22460073654E+01  0.17158265353E+03  0.17120000000E+03 0.  0.
        998    1    1    2    0    0  0.25216978788E+01 -0.15718194998E+01  0.14438541290E+04  0.14438918157E+04  0.10000000000E+02 0.  1.
</event>
<event>
 5    1  0.9123258E-009  0.3791354E+03  0.7957747E-01  0.3454932E+00
         13   -1    0    0    0    0  0.00000000000E+00  0.00000000000E+00  0.14999999963E+04  0.15000000000E+04  0.10566000000E+00 0.  1.
        994   -1    0    0    0    0 -0.00000000000E+00 -0.00000000000E+00  0.11368683772E-12  0.17120000000E+03  0.17120000000E+03 0.  0.
         13    1    1    2    0    0  0.17739143517E+02 -0.34557906343E+02  0.14634224088E+03  0.15141000209E+03  0.10566000000E+00 0.  1.
        994    1    1    2    0    0 -0.13874593189E+02  0.39759087166E+02  0.10538233701E+02  0.17661762007E+03  0.17120000000E+03 0.  0.
        998    1    1    2    0    0 -0.38645503287E+01 -0.52011808238E+01  0.13431195217E+04  0.13431723778E+04  0.10000000000E+02 0.  1.
</event>
<event>
 5    1  0.9123258E-009  0.3848361E+03  0.7957747E-01  0.3430368E+00
         13   -1    0    0    0    0  0.00000000000E+00  0.00000000000E+00  0.14999999963E+04  0.15000000000E+04  0.10566000000E+00 0.  1.
        994   -1    0    0    0    0 -0.00000000000E+00 -0.00000000000E+00  0.11368683772E-12  0.17120000000E+03  0.17120000000E+03 0.  0.
         13    1    1    2    0    0 -0.10302646881E+01  0.13860801568E+02  0.64485637668E+02  0.65966596812E+02  0.10566000000E+00 0.  1.
        994    1    1    2    0    0  0.12730286246E+02  0.12928765851E+02  0.27955475812E+01  0.17218149802E+03  0.17120000000E+03 0.  0.
        998    1    1    2    0    0 -0.11700021558E+02 -0.26789567419E+02  0.14327188110E+04  0.14330519052E+04  0.10000000000E+02 0.  1.
</event>
<event>
 5    1  0.9123258E-009  0.3788353E+03  0.7957747E-01  0.3456246E+00
         13   -1    0    0    0    0  0.00000000000E+00  0.00000000000E+00  0.14999999963E+04  0.15000000000E+04  0.10566000000E+00 0. -1.
        994   -1    0    0    0    0 -0.00000000000E+00 -0.00000000000E+00  0.11368683772E-12  0.17120000000E+03  0.17120000000E+03 0.  0.
         13    1    1    2    0    0 -0.54476550377E+01 -0.39352543840E+02  0.15124196668E+03  0.15637277033E+03  0.10566000000E+00 0. -1.
        994    1    1    2    0    0  0.22342179847E+02  0.36084521345E+02  0.10790866259E+02  0.17671204960E+03  0.17120000000E+03 0.  0.
        998    1    1    2    0    0 -0.16894524809E+02  0.32680224956E+01  0.13379671633E+04  0.13381151801E+04  0.10000000000E+02 0. -1.
</event>
<event>
 5    1  0.9123258E-009  0.3840517E+03  0.7957747E-01  0.3433704E+00
         13   -1    0    0    0    0  0.00000000000E+00  0.00000000000E+00  0.14999999963E+04  0.15000000000E+04  0.10566000000E+00 0. -1.
        994   -1    0    0    0    0 -0.00000000000E+00 -0.00000000000E+00  0.11368683772E-12  0.17120000000E+03  0.17120000000E+03 0.  0.
         13    1    1    2    0    0  0.87546010522E+01 -0.12922392441E+02  0.54454459470E+02  0.56647423473E+02  0.10566000000E+00 0. -1.
        994    1    1    2    0    0 -0.10426460151E+02  0.18276478514E+02  0.35635548210E+01  0.17252501170E+03  0.17120000000E+03 0.  0.
        998    1    1    2    0    0  0.16718590990E+01 -0.53540860734E+01  0.14419819820E+04  0.14420275648E+04  0.10000000000E+02 0. -1.
</event>
<event>
 5    1  0.9123258E-009  0.3821753E+03  0.7957747E-01  0.3441741E+00
         13   -1    0    0    0    0  0.00000000000E+00  0.00000000000E+00  0.14999999963E+04  0.15000000000E+04  0.10566000000E+00 0. -1.
        994   -1    0    0    0    0 -0.00000000000E+00 -0.00000000000E+00  0.11368683772E-12  0.17120000000E+03  0.17120000000E+03 0.  0.
         13    1    1    2    0    0 -0.88128136933E+00  0.20136728370E+02  0.69445469184E+02  0.72311471017E+02  0.10566000000E+00 0. -1.
        994    1    1    2    0    0 -0.22504636477E+02 -0.35862352077E+01  0.47646321387E+01  0.17277575485E+03  0.17120000000E+03 0.  0.
        998    1    1    2    0    0  0.23385917847E+02 -0.16550493163E+02  0.14257898950E+04  0.14261127741E+04  0.10000000000E+02 0. -1.
</event>
<event>
 5    1  0.9123258E-009  0.3757933E+03  0.7957747E-01  0.3469682E+00
         13   -1    0    0    0    0  0.00000000000E+00  0.00000000000E+00  0.14999999963E+04  0.15000000000E+04  0.10566000000E+00 0. -1.
        994   -1    0    0    0    0 -0.00000000000E+00 -0.00000000000E+00  0.11368683772E-12  0.17120000000E+03  0.17120000000E+03 0.  0.
         13    1    1    2    0    0 -0.24818035929E+02  0.32076815611E+02  0.13542664015E+03  0.14136917285E+03  0.10566000000E+00 0. -1.
        994    1    1    2    0    0  0.23413633352E+02 -0.49243026341E+00  0.81334187050E+01  0.17298564453E+03  0.17120000000E+03 0.  0.
        998    1    1    2    0    0  0.14044025772E+01 -0.31584385348E+02  0.13564399374E+04  0.13568451826E+04  0.10000000000E+02 0. -1.
</event>
<event>
 5    1  0.9123258E-009  0.3802987E+03  0.7957747E-01  0.3449859E+00
         13   -1    0    0    0    0  0.00000000000E+00  0.00000000000E+00  0.14999999963E+04  0.15000000000E+04  0.10566000000E+00 0.  1.
        994   -1    0    0    0    0 -0.00000000000E+00 -0.00000000000E+00  0.11368683772E-12  0.17120000000E+03  0.17120000000E+03 0.  0.
         13    1    1    2    0    0  0.70256511378E+01  0.33639733408E+02  0.12922247210E+03  0.13371406021E+03  0.10566000000E+00 0.  1.
        994    1    1    2    0    0 -0.92778200895E+01 -0.41310939657E+02  0.99925881788E+01  0.17664077530E+03  0.17120000000E+03 0.  0.
        998    1    1    2    0    0  0.22521689517E+01  0.76712062488E+01  0.13607849360E+04  0.13608451645E+04  0.10000000000E+02 0.  1.
</event>
<event>
 5    1  0.9123258E-009  0.3856874E+03  0.7957747E-01  0.3426762E+00
         13   -1    0    0    0    0  0.00000000000E+00  0.00000000000E+00  0.14999999963E+04  0.15000000000E+04  0.10566000000E+00 0. -1.
        994   -1    0    0    0    0 -0.00000000000E+00 -0.00000000000E+00  0.11368683772E-12  0.17120000000E+03  0.17120000000E+03 0.  0.
         13    1    1    2    0    0  0.11962538375E+02 -0.82801733587E+01  0.82686233339E+02  0.83956464569E+02  0.10566000000E+00 0. -1.
        994    1    1    2    0    0 -0.63566963136E+01  0.74957876710E+01  0.16062614622E+01  0.17148940054E+03  0.17120000000E+03 0.  0.
        998    1    1    2    0    0 -0.56058420619E+01  0.78438568766E+00  0.14157075015E+04  0.14157541349E+04  0.10000000000E+02 0. -1.
</event>
<event>
 5    1  0.9123258E-009  0.3859721E+03  0.7957747E-01  0.3425560E+00
         13   -1    0    0    0    0  0.00000000000E+00  0.00000000000E+00  0.14999999963E+04  0.15000000000E+04  0.10566000000E+00 0. -1.
        994   -1    0    0    0    0 -0.00000000000E+00 -0.00000000000E+00  0.11368683772E-12  0.17120000000E+03  0.17120000000E+03 0.  0.
         13    1    1    2    0    0 -0.11976810513E+02 -0.32004315880E+01  0.66912888507E+02  0.68051690389E+02  0.10566000000E+00 0. -1.
        994    1    1    2    0    0  0.78387260421E+01  0.85882331009E+01  0.15916429191E+01  0.17160179690E+03  0.17120000000E+03 0.  0.
        998    1    1    2    0    0  0.41380844706E+01 -0.53878015130E+01  0.14314954649E+04  0.14315465127E+04  0.10000000000E+02 0. -1.
</event>
<event>
 5    1  0.9123258E-009  0.3793453E+03  0.7957747E-01  0.3454014E+00
         13   -1    0    0    0    0  0.00000000000E+00  0.00000000000E+00  0.14999999963E+04  0.15000000000E+04  0.10566000000E+00 0.  1.
        994   -1    0    0    0    0 -0.00000000000E+00 -0.00000000000E+00  0.11368683772E-12  0.17120000000E+03  0.17120000000E+03 0.  0.
         13    1    1    2    0    0 -0.37887729194E+02  0.11073606589E+02  0.16738156555E+03  0.17197297589E+03  0.10566000000E+00 0.  1.
        994    1    1    2    0    0  0.26014679875E+02 -0.11295707195E+02  0.71633827586E+01  0.17368106006E+03  0.17120000000E+03 0.  0.
        998    1    1    2    0    0  0.11873049318E+02  0.22210060605E+00  0.13254550480E+04  0.13255459640E+04  0.10000000000E+02 0.  1.
</event>
<event>
 5    1  0.9123258E-009  0.3816771E+03  0.7957747E-01  0.3443888E+00
         13   -1    0    0    0    0  0.00000000000E+00  0.00000000000E+00  0.14999999963E+04  0.15000000000E+04  0.10566000000E+00 0. -1.
        994   -1    0    0    0    0 -0.00000000000E+00 -0.00000000000E+00  0.11368683772E-12  0.17120000000E+03  0.17120000000E+03 0.  0.
         13    1    1    2    0    0 -0.17890976755E+02  0.98031813306E+01  0.66838885203E+02  0.69883024782E+02  0.10566000000E+00 0. -1.
        994    1    1    2    0    0 -0.46534237987E+01 -0.37702999846E+01  0.34081850188E+01  0.17133862740E+03  0.17120000000E+03 0.  0.
        998    1    1    2    0    0  0.22544400554E+02 -0.60328813460E+01  0.14297529261E+04  0.14299783478E+04  0.10000000000E+02 0. -1.
</event>
<event>
 5    1  0.9123258E-009  0.3710730E+03  0.7957747E-01  0.3490974E+00
         13   -1    0    0    0    0  0.00000000000E+00  0.00000000000E+00  0.14999999963E+04  0.15000000000E+04  0.10566000000E+00 0.  1.
        994   -1    0    0    0    0 -0.00000000000E+00 -0.00000000000E+00  0.11368683772E-12  0.17120000000E+03  0.17120000000E+03 0.  0.
         13    1    1    2    0    0 -0.61901503472E+02 -0.11174890987E+02  0.15745651760E+03  0.16955600968E+03  0.10566000000E+00 0.  1.
        994    1    1    2    0    0  0.54542710448E+02  0.83628762501E+00  0.22023395699E+02  0.18102507174E+03  0.17120000000E+03 0.  0.
        998    1    1    2    0    0  0.73587930239E+01  0.10338603362E+02  0.13205200830E+04  0.13206189186E+04  0.10000000000E+02 0.  1.
</event>
<event>
 5    1  0.9123258E-009  0.3741916E+03  0.7957747E-01  0.3476846E+00
         13   -1    0    0    0    0  0.00000000000E+00  0.00000000000E+00  0.14999999963E+04  0.15000000000E+04  0.10566000000E+00 0. -1.
        994   -1    0    0    0    0 -0.00000000000E+00 -0.00000000000E+00  0.11368683772E-12  0.17120000000E+03  0.17120000000E+03 0.  0.
         13    1    1    2    0    0 -0.24178492648E+02  0.96358367906E+01  0.44714920021E+02  0.51738613181E+02  0.10566000000E+00 0. -1.
        994    1    1    2    0    0  0.14730719852E+02 -0.14565681308E+02  0.85585581923E+01  0.17266106132E+03  0.17120000000E+03 0.  0.
        998    1    1    2    0    0  0.94477727959E+01  0.49298445178E+01  0.14467265181E+04  0.14468003255E+04  0.10000000000E+02 0. -1.
</event>
<event>
 5    1  0.9123258E-009  0.3839293E+03  0.7957747E-01  0.3434226E+00
         13   -1    0    0    0    0  0.00000000000E+00  0.00000000000E+00  0.14999999963E+04  0.15000000000E+04  0.10566000000E+00 0. -1.
        994   -1    0    0    0    0 -0.00000000000E+00 -0.00000000000E+00  0.11368683772E-12  0.17120000000E+03  0.17120000000E+03 0.  0.
         13    1    1    2    0    0  0.12910802634E+02 -0.12732842601E+02  0.79315717260E+02  0.81362204210E+02  0.10566000000E+00 0. -1.
        994    1    1    2    0    0  0.43749393378E+00  0.59189001703E+01  0.22789084440E+01  0.17131800315E+03  0.17120000000E+03 0.  0.
        998    1    1    2    0    0 -0.13348296568E+02  0.68139424303E+01  0.14184053706E+04  0.14185197926E+04  0.10000000000E+02 0. -1.
</event>
<event>
 5    1  0.9123258E-009  0.3846050E+03  0.7957747E-01  0.3431349E+00
         13   -1    0    0    0    0  0.00000000000E+00  0.00000000000E+00  0.14999999963E+04  0.15000000000E+04  0.10566000000E+00 0.  1.
        994   -1    0    0    0    0 -0.00000000000E+00 -0.00000000000E+00  0.11368683772E-12  0.17120000000E+03  0.17120000000E+03 0.  0.
         13    1    1    2    0    0 -0.15341813295E+02 -0.11591049456E+02  0.99508219402E+02  0.10134900372E+03  0.10566000000E+00 0.  1.
        994    1    1    2    0    0  0.16305104031E+02  0.22498640280E+01  0.27189997328E+01  0.17201090449E+03  0.17120000000E+03 0.  0.
        998    1    1    2    0    0 -0.96329073603E+00  0.93411854277E+01  0.13977727771E+04  0.13978400918E+04  0.10000000000E+02 0.  1.
</event>
<event>
 5    1  0.9123258E-009  0.3872606E+03  0.7957747E-01  0.3420141E+00
         13   -1    0    0    0    0  0.00000000000E+00  0.00000000000E+00  0.14999999963E+04  0.15000000000E+04  0.10566000000E+00 0. -1.
        994   -1    0    0    0    0 -0.00000000000E+00 -0.00000000000E+00  0.11368683772E-12  0.17120000000E+03  0.17120000000E+03 0.  0.
         13    1    1    2    0    0 -0.18140387323E+02  0.25351211303E+02  0.14911739516E+02  0.34556167411E+02  0.10566000000E+00 0. -1.
        994    1    1    2    0    0  0.31347166488E+02 -0.22755641126E+02  0.25980603302E+02  0.17743983712E+03  0.17120000000E+03 0.  0.
        998    1    1    2    0    0 -0.13206779165E+02 -0.25955701766E+01  0.14591076535E+04  0.14592039955E+04  0.10000000000E+02 0. -1.
</event>
<event>
 5    1  0.9123258E-009  0.3739405E+03  0.7957747E-01  0.3477975E+00
         13   -1    0    0    0    0  0.00000000000E+00  0.00000000000E+00  0.14999999963E+04  0.15000000000E+04  0.10566000000E+00 0.  1.
        994   -1    0    0    0    0 -0.00000000000E+00 -0.00000000000E+00  0.11368683772E-12  0.17120000000E+03  0.17120000000E+03 0.  0.
         13    1    1    2    0    0 -0.31374858112E+02  0.89434725335E+01  0.60361730635E+02  0.68614263180E+02  0.10566000000E+00 0.  1.
        994    1    1    2    0    0  0.62543723141E+02 -0.32426348175E+02  0.24348802732E+02  0.18672302899E+03  0.17120000000E+03 0.  0.
        998    1    1    2    0    0 -0.31168865029E+02  0.23482875641E+02  0.14152894629E+04  0.14158627078E+04  0.10000000000E+02 0.  1.
</event>
<event>
 5    1  0.9123258E-009  0.3851105E+03  0.7957747E-01  0.3429204E+00
         13   -1    0    0    0    0  0.00000000000E+00  0.00000000000E+00  0.14999999963E+04  0.15000000000E+04  0.10566000000E+00 0.  1.
        994   -1    0    0    0    0 -0.00000000000E+00 -0.00000000000E+00  0.11368683772E-12  0.17120000000E+03  0.17120000000E+03 0.  0.
         13    1    1    2    0    0  0.12987498207E+01 -0.10869475880E+02  0.39444823875E+02  0.40935773494E+02  0.10566000000E+00 0.  1.
        994    1    1    2    0    0 -0.14118534383E+02 -0.17561544321E+01  0.22409979462E+01  0.17180477049E+03  0.17120000000E+03 0.  0.
        998    1    1    2    0    0  0.12819784562E+02  0.12625630312E+02  0.14583141745E+04  0.14584594560E+04  0.10000000000E+02 0.  1.
</event>
<event>
 5    1  0.9123258E-009  0.3839525E+03  0.7957747E-01  0.3434127E+00
         13   -1    0    0    0    0  0.00000000000E+00  0.00000000000E+00  0.14999999963E+04  0.15000000000E+04  0.10566000000E+00 0. -1.
        994   -1    0    0    0    0 -0.00000000000E+00 -0.00000000000E+00  0.11368683772E-12  0.17120000000E+03  0.17120000000E+03 0.  0.
         13    1    1    2    0    0 -0.86659619115E+01  0.14687386196E+02  0.69279437372E+02  0.71347528448E+02  0.10566000000E+00 0. -1.
        994    1    1    2    0    0 -0.13587792108E+00 -0.66773061509E+01  0.22983017791E+01  0.17134563628E+03  0.17120000000E+03 0.  0.
        998    1    1    2    0    0  0.88018398325E+01 -0.80100800453E+01  0.14284222571E+04  0.14285068353E+04  0.10000000000E+02 0. -1.
</event>
<event>
 5    1  0.9123258E-009  0.3866451E+03  0.7957747E-01  0.3422725E+00
         13   -1    0    0    0    0  0.00000000000E+00  0.00000000000E+00  0.14999999963E+04  0.15000000000E+04  0.10566000000E+00 0.  1.
        994   -1    0    0    0    0 -0.00000000000E+00 -0.00000000000E+00  0.11368683772E-12  0.17120000000E+03  0.17120000000E+03 0.  0.
         13    1    1    2    0    0  0.31111626714E+02  0.10275642544E+02  0.18303863031E+02  0.37530850142E+02  0.10566000000E+00 0.  1.
        994    1    1    2    0    0 -0.31930116388E+02 -0.67592501246E+01  0.23992763452E+02  0.17592700899E+03  0.17120000000E+03 0.  0.
        998    1    1    2    0    0  0.81848967350E+00 -0.35163924193E+01  0.14577033698E+04  0.14577421409E+04  0.10000000000E+02 0.  1.
</event>
<event>
 5    1  0.9123258E-009  0.3809291E+03  0.7957747E-01  0.3447123E+00
         13   -1    0    0    0    0  0.00000000000E+00  0.00000000000E+00  0.14999999963E+04  0.15000000000E+04  0.10566000000E+00 0.  1.
        994   -1    0    0    0    0 -0.00000000000E+00 -0.00000000000E+00  0.11368683772E-12  0.17120000000E+03  0.17120000000E+03 0.  0.
         13    1    1    2    0    0  0.95011097413E+01  0.44108460691E+02  0.24635759912E+03  0.25045539563E+03  0.10566000000E+00 0.  1.
        994    1    1    2    0    0 -0.65277328549E+01 -0.38699127542E+02  0.88150809474E+01  0.17586181911E+03  0.17120000000E+03 0.  0.
        998    1    1    2    0    0 -0.29733768865E+01 -0.54093331488E+01  0.12448273162E+04  0.12448827853E+04  0.10000000000E+02 0.  1.
</event>
<event>
 5    1  0.9123258E-009  0.3820244E+03  0.7957747E-01  0.3442391E+00
         13   -1    0    0    0    0  0.00000000000E+00  0.00000000000E+00  0.14999999963E+04  0.15000000000E+04  0.10566000000E+00 0. -1.
        994   -1    0    0    0    0 -0.00000000000E+00 -0.00000000000E+00  0.11368683772E-12  0.17120000000E+03  0.17120000000E+03 0.  0.
         13    1    1    2    0    0 -0.16801989437E+01 -0.18118291369E+02  0.51265723171E+02  0.54399274691E+02  0.10566000000E+00 0. -1.
        994    1    1    2    0    0  0.73953271085E+01  0.15101565001E+02  0.40541788257E+01  0.17207156794E+03  0.17120000000E+03 0.  0.
        998    1    1    2    0    0 -0.57151281648E+01  0.30167263676E+01  0.14446800943E+04  0.14447291574E+04  0.10000000000E+02 0. -1.
</event>
<event>
 5    1  0.9123258E-009  0.3821871E+03  0.7957747E-01  0.3441690E+00
         13   -1    0    0    0    0  0.00000000000E+00  0.00000000000E+00  0.14999999963E+04  0.15000000000E+04  0.10566000000E+00 0. -1.
        994   -1    0    0    0    0 -0.00000000000E+00 -0.00000000000E+00  0.11368683772E-12  0.17120000000E+03  0.17120000000E+03 0.  0.
         13    1    1    2    0    0 -0.60030592536E+01 -0.21141359270E+02  0.58016096494E+01  0.22730236047E+02  0.10566000000E+00 0. -1.
        994    1    1    2    0    0  0.10097395304E+02  0.28819346330E+02  0.20947465400E+02  0.17515920878E+03  0.17120000000E+03 0.  0.
        998    1    1    2    0    0 -0.40943360505E+01 -0.76779870601E+01  0.14732509212E+04  0.14733105552E+04  0.10000000000E+02 0. -1.
</event>
<event>
 5    1  0.9123258E-009  0.3823293E+03  0.7957747E-01  0.3441078E+00
         13   -1    0    0    0    0  0.00000000000E+00  0.00000000000E+00  0.14999999963E+04  0.15000000000E+04  0.10566000000E+00 0.  1.
        994   -1    0    0    0    0 -0.00000000000E+00 -0.00000000000E+00  0.11368683772E-12  0.17120000000E+03  0.17120000000E+03 0.  0.
         13    1    1    2    0    0  0.59248194775E+01  0.11696982105E+02  0.27989969904E+02  0.30909099881E+02  0.10566000000E+00 0.  1.
        994    1    1    2    0    0 -0.25750916865E+01 -0.81677946592E+01  0.32052630747E+01  0.17144403658E+03  0.17120000000E+03 0.  0.
        998    1    1    2    0    0 -0.33497277910E+01 -0.35291874463E+01  0.14688047633E+04  0.14688468635E+04  0.10000000000E+02 0.  1.
</event>
<event>
 5    1  0.9123258E-009  0.3839024E+03  0.7957747E-01  0.3434340E+00
         13   -1    0    0    0    0  0.00000000000E+00  0.00000000000E+00  0.14999999963E+04  0.15000000000E+04  0.10566000000E+00 0. -1.
        994   -1    0    0    0    0 -0.00000000000E+00 -0.00000000000E+00  0.11368683772E-12  0.17120000000E+03  0.17120000000E+03 0.  0.
         13    1    1    2    0    0 -0.25177621767E+02 -0.12821015418E+02  0.16341841598E+03  0.16584294052E+03  0.10566000000E+00 0. -1.
        994    1    1    2    0    0  0.27122924901E+02  0.12408564501E+02  0.51176811482E+01  0.17385412330E+03  0.17120000000E+03 0.  0.
        998    1    1    2    0    0 -0.19453031348E+01  0.41245091622E+00  0.13314638991E+04  0.13315029362E+04  0.10000000000E+02 0. -1.
</event>
<event>
 5    1  0.9123258E-009  0.3746483E+03  0.7957747E-01  0.3474797E+00
         13   -1    0    0    0    0  0.00000000000E+00  0.00000000000E+00  0.14999999963E+04  0.15000000000E+04  0.10566000000E+00 0. -1.
        994   -1    0    0    0    0 -0.00000000000E+00 -0.00000000000E+00  0.11368683772E-12  0.17120000000E+03  0.17120000000E+03 0.  0.
         13    1    1    2    0    0  0.80103890396E+01  0.31097537440E+02  0.85523081029E+02  0.91353334477E+02  0.10566000000E+00 0. -1.
        994    1    1    2    0    0  0.61757535868E+01  0.20425481483E+02  0.84105794686E+01  0.17272960972E+03  0.17120000000E+03 0.  0.
        998    1    1    2    0    0 -0.14186142626E+02 -0.51523018922E+02  0.14060663358E+04  0.14071170558E+04  0.10000000000E+02 0. -1.
</event>
<event>
 5    1  0.9123258E-009  0.3851009E+03  0.7957747E-01  0.3429245E+00
         13   -1    0    0    0    0  0.00000000000E+00  0.00000000000E+00  0.14999999963E+04  0.15000000000E+04  0.10566000000E+00 0.  1.
        994   -1    0    0    0    0 -0.00000000000E+00 -0.00000000000E+00  0.11368683772E-12  0.17120000000E+03  0.17120000000E+03 0.  0.
         13    1    1    2    0    0 -0.16685240051E+01 -0.11483409355E+02  0.41966529935E+02  0.43541399399E+02  0.10566000000E+00 0.  1.
        994    1    1    2    0    0  0.15876859183E+02  0.84411551484E+01  0.26437600932E+01  0.17216200866E+03  0.17120000000E+03 0.  0.
        998    1    1    2    0    0 -0.14208335178E+02  0.30422542062E+01  0.14553897063E+04  0.14554965919E+04  0.10000000000E+02 0.  1.
</event>
<event>
 5    1  0.9123258E-009  0.3807366E+03  0.7957747E-01  0.3447957E+00
         13   -1    0    0    0    0  0.00000000000E+00  0.00000000000E+00  0.14999999963E+04  0.15000000000E+04  0.10566000000E+00 0. -1.
        994   -1    0    0    0    0 -0.00000000000E+00 -0.00000000000E+00  0.11368683772E-12  0.17120000000E+03  0.17120000000E+03 0.  0.
         13    1    1    2    0    0  0.39363294315E+01 -0.23966679682E+02  0.86209813295E+02  0.89565838894E+02  0.10566000000E+00 0. -1.
        994    1    1    2    0    0  0.32741651950E+01 -0.64699111341E+01  0.39371323010E+01  0.17139871913E+03  0.17120000000E+03 0.  0.
        998    1    1    2    0    0 -0.72104946266E+01  0.30436590816E+02  0.14098530507E+04  0.14102354420E+04  0.10000000000E+02 0. -1.
</event>
<event>
 5    1  0.9123258E-009  0.3850443E+03  0.7957747E-01  0.3429484E+00
         13   -1    0    0    0    0  0.00000000000E+00  0.00000000000E+00  0.14999999963E+04  0.15000000000E+04  0.10566000000E+00 0. -1.
        994   -1    0    0    0    0 -0.00000000000E+00 -0.00000000000E+00  0.11368683772E-12  0.17120000000E+03  0.17120000000E+03 0.  0.
         13    1    1    2    0    0 -0.15004430641E+02 -0.11542139849E+02  0.11448114225E+03  0.11603575753E+03  0.10566000000E+00 0. -1.
        994    1    1    2    0    0  0.62710076421E+01  0.64288104654E+01  0.18733885309E+01  0.17144563198E+03  0.17120000000E+03 0.  0.
        998    1    1    2    0    0  0.87334229988E+01  0.51133293838E+01  0.13836454655E+04  0.13837186105E+04  0.10000000000E+02 0. -1.
</event>
<event>
 5    1  0.9123258E-009  0.3779646E+03  0.7957747E-01  0.3460069E+00
         13   -1    0    0    0    0  0.00000000000E+00  0.00000000000E+00  0.14999999963E+04  0.15000000000E+04  0.10566000000E+00 0.  1.
        994   -1    0    0    0    0 -0.00000000000E+00 -0.00000000000E+00  0.11368683772E-12  0.17120000000E+03  0.17120000000E+03 0.  0.
         13    1    1    2    0    0 -0.29507947588E+01  0.16465490710E+02  0.28281842187E+01  0.16965534594E+02  0.10566000000E+00 0.  1.
        994    1    1    2    0    0 -0.14088769832E+02  0.24251557262E+02  0.18048033256E+02  0.17441847084E+03  0.17120000000E+03 0.  0.
        998    1    1    2    0    0  0.17039564591E+02 -0.40717047973E+02  0.14791237788E+04  0.14798159946E+04  0.10000000000E+02 0.  1.
</event>
<event>
 5    1  0.9123258E-009  0.3805351E+03  0.7957747E-01  0.3448832E+00
         13   -1    0    0    0    0  0.00000000000E+00  0.00000000000E+00  0.14999999963E+04  0.15000000000E+04  0.10566000000E+00 0.  1.
        994   -1    0    0    0    0 -0.00000000000E+00 -0.00000000000E+00  0.11368683772E-12  0.17120000000E+03  0.17120000000E+03 0.  0.
         13    1    1    2    0    0  0.51776653731E+01 -0.10674623942E+02  0.18076318026E+02  0.21622216641E+02  0.10566000000E+00 0.  1.
        994    1    1    2    0    0  0.34836064576E+02 -0.10292703059E+02  0.82789968097E+01  0.17520694313E+03  0.17120000000E+03 0.  0.
        998    1    1    2    0    0 -0.40013729950E+02  0.20967327002E+02  0.14736446814E+04  0.14743708402E+04  0.10000000000E+02 0.  1.
</event>
<event>
 5    1  0.9123258E-009  0.3833386E+03  0.7957747E-01  0.3436749E+00
         13   -1    0    0    0    0  0.00000000000E+00  0.00000000000E+00  0.14999999963E+04  0.15000000000E+04  0.10566000000E+00 0. -1.
        994   -1    0    0    0    0 -0.00000000000E+00 -0.00000000000E+00  0.11368683772E-12  0.17120000000E+03  0.17120000000E+03 0.  0.
         13    1    1    2    0    0 -0.30468684186E+01  0.23750180524E+02  0.99986814692E+02  0.10281404942E+03  0.10566000000E+00 0. -1.
        994    1    1    2    0    0  0.27835717336E+02 -0.35613030398E+02  0.92422259842E+01  0.17730756846E+03  0.17120000000E+03 0.  0.
        998    1    1    2    0    0 -0.24788848918E+02  0.11862849874E+02  0.13907709556E+04  0.13910783821E+04  0.10000000000E+02 0. -1.
</event>
<event>
 5    1  0.9123258E-009  0.3787864E+03  0.7957747E-01  0.3456460E+00
         13   -1    0    0    0    0  0.00000000000E+00  0.00000000000E+00  0.14999999963E+04  0.15000000000E+04  0.10566000000E+00 0.  1.
        994   -1    0    0    0    0 -0.00000000000E+00 -0.00000000000E+00  0.11368683772E-12  0.17120000000E+03  0.17120000000E+03 0.  0.
         13    1    1    2    0    0 -0.23930502495E+02  0.43972757350E+01  0.63337596357E+02  0.67850329844E+02  0.10566000000E+00 0.  1.
        994    1    1    2    0    0  0.44878480944E+01  0.56623843901E+00  0.48156868309E+01  0.17132744160E+03  0.17120000000E+03 0.  0.
        998    1    1    2    0    0  0.19442654401E+02 -0.49635141740E+01  0.14318467131E+04  0.14320222286E+04  0.10000000000E+02 0.  1.
</event>
<event>
 5    1  0.9123258E-009  0.3769680E+03  0.7957747E-01  0.3464468E+00
         13   -1    0    0    0    0  0.00000000000E+00  0.00000000000E+00  0.14999999963E+04  0.15000000000E+04  0.10566000000E+00 0. -1.
        994   -1    0    0    0    0 -0.00000000000E+00 -0.00000000000E+00  0.11368683772E-12  0.17120000000E+03  0.17120000000E+03 0.  0.
         13    1    1    2    0    0  0.11244237600E+02  0.31497061453E+01  0.95117033715E+01  0.15061115266E+02  0.10566000000E+00 0. -1.
        994    1    1    2    0    0 -0.72355249472E+01  0.18656664795E+01  0.58601276263E+01  0.17146315822E+03  0.17120000000E+03 0.  0.
        998    1    1    2    0    0 -0.40087126523E+01 -0.50153726248E+01  0.14846281653E+04  0.14846757265E+04  0.10000000000E+02 0. -1.
</event>
<event>
 5    1  0.9123258E-009  0.3820324E+03  0.7957747E-01  0.3442357E+00
         13   -1    0    0    0    0  0.00000000000E+00  0.00000000000E+00  0.14999999963E+04  0.15000000000E+04  0.10566000000E+00 0. -1.
        994   -1    0    0    0    0 -0.00000000000E+00 -0.00000000000E+00  0.11368683772E-12  0.17120000000E+03  0.17120000000E+03 0.  0.
         13    1    1    2    0    0  0.11714776383E+03  0.12705605108E+03  0.10335005610E+04  0.10478503039E+04  0.10566000000E+00 0. -1.
        994    1    1    2    0    0 -0.10598648956E+03 -0.14832411655E+03  0.12269424110E+03  0.27856147673E+03  0.17120000000E+03 0.  0.
        998    1    1    2    0    0 -0.11161274267E+02  0.21268065470E+02  0.34380519418E+03  0.34478821934E+03  0.10000000000E+02 0. -1.
</event>
<event>
 5    1  0.9123258E-009  0.3846529E+03  0.7957747E-01  0.3431146E+00
         13   -1    0    0    0    0  0.00000000000E+00  0.00000000000E+00  0.14999999963E+04  0.15000000000E+04  0.10566000000E+00 0.  1.
        994   -1    0    0    0    0 -0.00000000000E+00 -0.00000000000E+00  0.11368683772E-12  0.17120000000E+03  0.17120000000E+03 0.  0.
         13    1    1    2    0    0 -0.10612423429E+02  0.14420133533E+02  0.71595926845E+02  0.73800756683E+02  0.10566000000E+00 0.  1.
        994    1    1    2    0    0  0.49640831693E+02 -0.22427730645E+02  0.11633501027E+02  0.18003331253E+03  0.17120000000E+03 0.  0.
        998    1    1    2    0    0 -0.39028408264E+02  0.80075971121E+01  0.14167705684E+04  0.14173659308E+04  0.10000000000E+02 0.  1.
</event>
<event>
 5    1  0.9123258E-009  0.4068793E+03  0.7957747E-01  0.3341869E+00
         13   -1    0    0    0    0  0.00000000000E+00  0.00000000000E+00  0.14999999963E+04  0.15000000000E+04  0.10566000000E+00 0.  1.
        994   -1    0    0    0    0 -0.00000000000E+00 -0.00000000000E+00  0.11368683772E-12  0.17120000000E+03  0.17120000000E+03 0.  0.
         13    1    1    2    0    0 -0.30177900366E+02  0.99689969784E+02  0.14718964791E+03  0.18031527768E+03  0.10566000000E+00 0.  1.
        994    1    1    2    0    0  0.41697110407E+02 -0.90736560802E+02  0.73396579118E+02  0.21134869365E+03  0.17120000000E+03 0.  0.
        998    1    1    2    0    0 -0.11519210041E+02 -0.89534089825E+01  0.12794137692E+04  0.12795360287E+04  0.10000000000E+02 0.  1.
</event>
<event>
 5    1  0.9123258E-009  0.3857988E+03  0.7957747E-01  0.3426291E+00
         13   -1    0    0    0    0  0.00000000000E+00  0.00000000000E+00  0.14999999963E+04  0.15000000000E+04  0.10566000000E+00 0.  1.
        994   -1    0    0    0    0 -0.00000000000E+00 -0.00000000000E+00  0.11368683772E-12  0.17120000000E+03  0.17120000000E+03 0.  0.
         13    1    1    2    0    0 -0.52064057216E+01  0.10684470077E+02  0.61021051163E+02  0.62167872816E+02  0.10566000000E+00 0.  1.
        994    1    1    2    0    0  0.98501349588E+01  0.44625725094E+01  0.16177279013E+01  0.17154881741E+03  0.17120000000E+03 0.  0.
        998    1    1    2    0    0 -0.46437292372E+01 -0.15147042586E+02  0.14373612172E+04  0.14374833098E+04  0.10000000000E+02 0.  1.
</event>
<event>
 5    1  0.9123258E-009  0.3743799E+03  0.7957747E-01  0.3476001E+00
         13   -1    0    0    0    0  0.00000000000E+00  0.00000000000E+00  0.14999999963E+04  0.15000000000E+04  0.10566000000E+00 0.  1.
        994   -1    0    0    0    0 -0.00000000000E+00 -0.00000000000E+00  0.11368683772E-12  0.17120000000E+03  0.17120000000E+03 0.  0.
         13    1    1    2    0    0 -0.12015872992E+02  0.66366052774E+01  0.10217959938E+02  0.17112673745E+02  0.10566000000E+00 0.  1.
        994    1    1    2    0    0  0.11058303107E+02 -0.10081410716E+02  0.77606309149E+01  0.17202787071E+03  0.17120000000E+03 0.  0.
        998    1    1    2    0    0  0.95756988501E+00  0.34448054390E+01  0.14820214054E+04  0.14820594555E+04  0.10000000000E+02 0.  1.
</event>
<event>
 5    1  0.9123258E-009  0.3838934E+03  0.7957747E-01  0.3434379E+00
         13   -1    0    0    0    0  0.00000000000E+00  0.00000000000E+00  0.14999999963E+04  0.15000000000E+04  0.10566000000E+00 0. -1.
        994   -1    0    0    0    0 -0.00000000000E+00 -0.00000000000E+00  0.11368683772E-12  0.17120000000E+03  0.17120000000E+03 0.  0.
         13    1    1    2    0    0  0.10877151463E+02  0.66236101047E+01  0.36579680804E+02  0.38733304100E+02  0.10566000000E+00 0. -1.
        994    1    1    2    0    0 -0.90673758017E+01 -0.20983525273E+01  0.24665065737E+01  0.17147053403E+03  0.17120000000E+03 0.  0.
        998    1    1    2    0    0 -0.18097756609E+01 -0.45252575775E+01  0.14609538089E+04  0.14609961619E+04  0.10000000000E+02 0. -1.
</event>
<event>
 5    1  0.9123258E-009  0.3698872E+03  0.7957747E-01  0.3496409E+00
         13   -1    0    0    0    0  0.00000000000E+00  0.00000000000E+00  0.14999999963E+04  0.15000000000E+04  0.10566000000E+00 0.  1.
        994   -1    0    0    0    0 -0.00000000000E+00 -0.00000000000E+00  0.11368683772E-12  0.17120000000E+03  0.17120000000E+03 0.  0.
         13    1    1    2    0    0  0.49649108102E+02  0.17970015808E+02  0.18188827103E+03  0.18939722729E+03  0.10566000000E+00 0.  1.
        994    1    1    2    0    0  0.15113280665E+02 -0.87475808439E+01  0.10383485642E+02  0.17240124187E+03  0.17120000000E+03 0.  0.
        998    1    1    2    0    0 -0.64762388767E+02 -0.92224349642E+01  0.13077282396E+04  0.13094015308E+04  0.10000000000E+02 0.  1.
</event>
<event>
 5    1  0.9123258E-009  0.3823161E+03  0.7957747E-01  0.3441135E+00
         13   -1    0    0    0    0  0.00000000000E+00  0.00000000000E+00  0.14999999963E+04  0.15000000000E+04  0.10566000000E+00 0. -1.
        994   -1    0    0    0    0 -0.00000000000E+00 -0.00000000000E+00  0.11368683772E-12  0.17120000000E+03  0.17120000000E+03 0.  0.
         13    1    1    2    0    0  0.11751486075E+02 -0.67091070651E+01  0.30043533681E+02  0.32950487442E+02  0.10566000000E+00 0. -1.
        994    1    1    2    0    0 -0.78468654314E+01 -0.47581311097E+00  0.31736081492E+01  0.17140977651E+03  0.17120000000E+03 0.  0.
        998    1    1    2    0    0 -0.39046206433E+01  0.71849201760E+01  0.14667828544E+04  0.14668397360E+04  0.10000000000E+02 0. -1.
</event>
<event>
 5    1  0.9123258E-009  0.3856501E+03  0.7957747E-01  0.3426920E+00
         13   -1    0    0    0    0  0.00000000000E+00  0.00000000000E+00  0.14999999963E+04  0.15000000000E+04  0.10566000000E+00 0.  1.
        994   -1    0    0    0    0 -0.00000000000E+00 -0.00000000000E+00  0.11368683772E-12  0.17120000000E+03  0.17120000000E+03 0.  0.
         13    1    1    2    0    0  0.13923437322E+02 -0.16849450600E+01  0.75100651067E+02  0.76399084428E+02  0.10566000000E+00 0.  1.
        994    1    1    2    0    0 -0.10765903369E+02 -0.29786470486E+01  0.17173318862E+01  0.17157262673E+03  0.17120000000E+03 0.  0.
        998    1    1    2    0    0 -0.31575339534E+01  0.46635921086E+01  0.14231820133E+04  0.14232282888E+04  0.10000000000E+02 0.  1.
</event>
<event>
 5    1  0.9123258E-009  0.3839990E+03  0.7957747E-01  0.3433929E+00
         13   -1    0    0    0    0  0.00000000000E+00  0.00000000000E+00  0.14999999963E+04  0.15000000000E+04  0.10566000000E+00 0. -1.
        994   -1    0    0    0    0 -0.00000000000E+00 -0.00000000000E+00  0.11368683772E-12  0.17120000000E+03  0.17120000000E+03 0.  0.
         13    1    1    2    0    0  0.13438452979E+02  0.12348764354E+02  0.79963061177E+02  0.82019426457E+02  0.10566000000E+00 0. -1.
        994    1    1    2    0    0 -0.28937644256E+01 -0.78013942853E+01  0.23564215582E+01  0.17141828475E+03  0.17120000000E+03 0.  0.
        998    1    1    2    0    0 -0.10544688554E+02 -0.45473700691E+01  0.14176805135E+04  0.14177622888E+04  0.10000000000E+02 0. -1.
</event>
<event>
 5    1  0.9123258E-009  0.3807402E+03  0.7957747E-01  0.3447942E+00
         13   -1    0    0    0    0  0.00000000000E+00  0.00000000000E+00  0.14999999963E+04  0.15000000000E+04  0.10566000000E+00 0. -1.
        994   -1    0    0    0    0 -0.00000000000E+00 -0.00000000000E+00  0.11368683772E-12  0.17120000000E+03  0.17120000000E+03 0.  0.
         13    1    1    2    0    0  0.11793475678E+02 -0.39726116441E+00  0.17091249946E+02  0.20769349382E+02  0.10566000000E+00 0. -1.
        994    1    1    2    0    0 -0.52857236012E+01 -0.81835981079E+01  0.40765342706E+01  0.17152541585E+03  0.17120000000E+03 0.  0.
        998    1    1    2    0    0 -0.65077520764E+01  0.85808592723E+01  0.14788322121E+04  0.14789052348E+04  0.10000000000E+02 0. -1.
</event>
<event>
 5    1  0.9123258E-009  0.3797432E+03  0.7957747E-01  0.3452277E+00
         13   -1    0    0    0    0  0.00000000000E+00  0.00000000000E+00  0.14999999963E+04  0.15000000000E+04  0.10566000000E+00 0.  1.
        994   -1    0    0    0    0 -0.00000000000E+00 -0.00000000000E+00  0.11368683772E-12  0.17120000000E+03  0.17120000000E+03 0.  0.
         13    1    1    2    0    0  0.21758356205E+02 -0.35485200346E+02  0.24322426487E+03  0.24676036897E+03  0.10566000000E+00 0.  1.
        994    1    1    2    0    0  0.50827541106E+01  0.52637979791E+01  0.44419935951E+01  0.17141386544E+03  0.17120000000E+03 0.  0.
        998    1    1    2    0    0 -0.26841110315E+02  0.30221402367E+02  0.12523337378E+04  0.12530257656E+04  0.10000000000E+02 0.  1.
</event>
<event>
 5    1  0.9123258E-009  0.3739480E+03  0.7957747E-01  0.3477941E+00
         13   -1    0    0    0    0  0.00000000000E+00  0.00000000000E+00  0.14999999963E+04  0.15000000000E+04  0.10566000000E+00 0. -1.
        994   -1    0    0    0    0 -0.00000000000E+00 -0.00000000000E+00  0.11368683772E-12  0.17120000000E+03  0.17120000000E+03 0.  0.
         13    1    1    2    0    0  0.45798058156E+02  0.38880264230E+01  0.14231647818E+03  0.14955457200E+03  0.10566000000E+00 0. -1.
        994    1    1    2    0    0 -0.30557703286E+02  0.90411021841E+01  0.10692011796E+02  0.17446854695E+03  0.17120000000E+03 0.  0.
        998    1    1    2    0    0 -0.15240354870E+02 -0.12929128607E+02  0.13469915063E+04  0.13471768811E+04  0.10000000000E+02 0. -1.
</event>
<event>
 5    1  0.9123258E-009  0.3822701E+03  0.7957747E-01  0.3441333E+00
         13   -1    0    0    0    0  0.00000000000E+00  0.00000000000E+00  0.14999999963E+04  0.15000000000E+04  0.10566000000E+00 0. -1.
        994   -1    0    0    0    0 -0.00000000000E+00 -0.00000000000E+00  0.11368683772E-12  0.17120000000E+03  0.17120000000E+03 0.  0.
         13    1    1    2    0    0  0.97317955952E+01 -0.91935643682E+01  0.29173364709E+02  0.32098689128E+02  0.10566000000E+00 0. -1.
        994    1    1    2    0    0 -0.42075945828E+01  0.43282715966E+01  0.31125055944E+01  0.17133465930E+03  0.17120000000E+03 0.  0.
        998    1    1    2    0    0 -0.55242010125E+01  0.48652927716E+01  0.14677141260E+04  0.14677666516E+04  0.10000000000E+02 0. -1.
</event>
<event>
 5    1  0.9123258E-009  0.3818106E+03  0.7957747E-01  0.3443312E+00
         13   -1    0    0    0    0  0.00000000000E+00  0.00000000000E+00  0.14999999963E+04  0.15000000000E+04  0.10566000000E+00 0. -1.
        994   -1    0    0    0    0 -0.00000000000E+00 -0.00000000000E+00  0.11368683772E-12  0.17120000000E+03  0.17120000000E+03 0.  0.
         13    1    1    2    0    0  0.30325492246E+02  0.10650103394E+02  0.16903985725E+03  0.17206843024E+03  0.10566000000E+00 0. -1.
        994    1    1    2    0    0 -0.10896387109E+02 -0.24037533232E+01  0.36358118422E+01  0.17160177275E+03  0.17120000000E+03 0.  0.
        998    1    1    2    0    0 -0.19429105137E+02 -0.82463500704E+01  0.13273243272E+04  0.13275297970E+04  0.10000000000E+02 0. -1.
</event>
<event>
 5    1  0.9123258E-009  0.3837960E+03  0.7957747E-01  0.3434794E+00
         13   -1    0    0    0    0  0.00000000000E+00  0.00000000000E+00  0.14999999963E+04  0.15000000000E+04  0.10566000000E+00 0. -1.
        994   -1    0    0    0    0 -0.00000000000E+00 -0.00000000000E+00  0.11368683772E-12  0.17120000000E+03  0.17120000000E+03 0.  0.
         13    1    1    2    0    0 -0.87286824118E+01 -0.20595186988E+02  0.10248001557E+03  0.10489288050E+03  0.10566000000E+00 0. -1.
        994    1    1    2    0    0 -0.32689106544E+01  0.30667263623E+02  0.53757083112E+01  0.17403880336E+03  0.17120000000E+03 0.  0.
        998    1    1    2    0    0  0.11997593066E+02 -0.10072076635E+02  0.13921442724E+04  0.13922683161E+04  0.10000000000E+02 0. -1.
</event>
<event>
 5    1  0.9123258E-009  0.3835758E+03  0.7957747E-01  0.3435735E+00
         13   -1    0    0    0    0  0.00000000000E+00  0.00000000000E+00  0.14999999963E+04  0.15000000000E+04  0.10566000000E+00 0. -1.
        994   -1    0    0    0    0 -0.00000000000E+00 -0.00000000000E+00  0.11368683772E-12  0.17120000000E+03  0.17120000000E+03 0.  0.
         13    1    1    2    0    0 -0.62159122910E+01 -0.94862762260E+01  0.26514797246E+02  0.28838735050E+02  0.10566000000E+00 0. -1.
        994    1    1    2    0    0  0.55113345798E+01  0.86222128234E+01  0.26849271226E+01  0.17152657577E+03  0.17120000000E+03 0.  0.
        998    1    1    2    0    0  0.70457771115E+00  0.86406340258E+00  0.14708002719E+04  0.14708346892E+04  0.10000000000E+02 0. -1.
</event>
<event>
 5    1  0.9123258E-009  0.3825979E+03  0.7957747E-01  0.3439924E+00
         13   -1    0    0    0    0  0.00000000000E+00  0.00000000000E+00  0.14999999963E+04  0.15000000000E+04  0.10566000000E+00 0.  1.
        994   -1    0    0    0    0 -0.00000000000E+00 -0.00000000000E+00  0.11368683772E-12  0.17120000000E+03  0.17120000000E+03 0.  0.
         13    1    1    2    0    0 -0.20330396695E+02  0.20880999154E+01  0.70365300172E+02  0.73273268136E+02  0.10566000000E+00 0.  1.
        994    1    1    2    0    0  0.20021095595E+02 -0.29965339399E+01  0.41869604605E+01  0.17244359693E+03  0.17120000000E+03 0.  0.
        998    1    1    2    0    0  0.30930109996E+00  0.90843402451E+00  0.14254477356E+04  0.14254831349E+04  0.10000000000E+02 0.  0.
</event>
<event>
 5    1  0.9123258E-009  0.3848309E+03  0.7957747E-01  0.3430390E+00
         13   -1    0    0    0    0  0.00000000000E+00  0.00000000000E+00  0.14999999963E+04  0.15000000000E+04  0.10566000000E+00 0. -1.
        994   -1    0    0    0    0 -0.00000000000E+00 -0.00000000000E+00  0.11368683772E-12  0.17120000000E+03  0.17120000000E+03 0.  0.
         13    1    1    2    0    0  0.33057921509E+01  0.15599600382E+02  0.69897979298E+02  0.71693894215E+02  0.10566000000E+00 0. -1.
        994    1    1    2    0    0  0.64290833437E+00 -0.20248505869E+02  0.30657164309E+01  0.17242173279E+03  0.17120000000E+03 0.  0.
        998    1    1    2    0    0 -0.39487004852E+01  0.46489054873E+01  0.14270363006E+04  0.14270843730E+04  0.10000000000E+02 0. -1.
</event>
<event>
 5    1  0.9123258E-009  0.3775674E+03  0.7957747E-01  0.3461819E+00
         13   -1    0    0    0    0  0.00000000000E+00  0.00000000000E+00  0.14999999963E+04  0.15000000000E+04  0.10566000000E+00 0. -1.
        994   -1    0    0    0    0 -0.00000000000E+00 -0.00000000000E+00  0.11368683772E-12  0.17120000000E+03  0.17120000000E+03 0.  0.
         13    1    1    2    0    0  0.21442027489E+02  0.85417002248E+02  0.42589131694E+03  0.43490142541E+03  0.10566000000E+00 0. -1.
        994    1    1    2    0    0  0.53461672979E+02 -0.13857994690E+03  0.83738933885E+02  0.24162822933E+03  0.17120000000E+03 0.  0.
        998    1    1    2    0    0 -0.74903700468E+02  0.53162944653E+02  0.99036974546E+03  0.99467034526E+03  0.10000000000E+02 0. -1.
</event>
<event>
 5    1  0.9123258E-009  0.3745277E+03  0.7957747E-01  0.3475338E+00
         13   -1    0    0    0    0  0.00000000000E+00  0.00000000000E+00  0.14999999963E+04  0.15000000000E+04  0.10566000000E+00 0. -1.
        994   -1    0    0    0    0 -0.00000000000E+00 -0.00000000000E+00  0.11368683772E-12  0.17120000000E+03  0.17120000000E+03 0.  0.
         13    1    1    2    0    0 -0.23528660711E+02 -0.53071858151E+02  0.20094089529E+03  0.20915896961E+03  0.10566000000E+00 0. -1.
        994    1    1    2    0    0  0.16511809269E+02  0.64073653878E+02  0.21976468742E+02  0.18485258490E+03  0.17120000000E+03 0.  0.
        998    1    1    2    0    0  0.70168514420E+01 -0.11001795727E+02  0.12770826322E+04  0.12771884455E+04  0.10000000000E+02 0. -1.
</event>
<event>
 5    1  0.9123258E-009  0.3838997E+03  0.7957747E-01  0.3434352E+00
         13   -1    0    0    0    0  0.00000000000E+00  0.00000000000E+00  0.14999999963E+04  0.15000000000E+04  0.10566000000E+00 0. -1.
        994   -1    0    0    0    0 -0.00000000000E+00 -0.00000000000E+00  0.11368683772E-12  0.17120000000E+03  0.17120000000E+03 0.  0.
         13    1    1    2    0    0  0.20287147251E+01 -0.18596858485E+02  0.74532179003E+02  0.76844099968E+02  0.10566000000E+00 0. -1.
        994    1    1    2    0    0 -0.16929112340E+01  0.23830599128E+02  0.40634335069E+01  0.17290666527E+03  0.17120000000E+03 0.  0.
        998    1    1    2    0    0 -0.33580349107E+00 -0.52337406428E+01  0.14214043838E+04  0.14214492348E+04  0.10000000000E+02 0. -1.
</event>
<event>
 5    1  0.9123258E-009  0.3837928E+03  0.7957747E-01  0.3434808E+00
         13   -1    0    0    0    0  0.00000000000E+00  0.00000000000E+00  0.14999999963E+04  0.15000000000E+04  0.10566000000E+00 0. -1.
        994   -1    0    0    0    0 -0.00000000000E+00 -0.00000000000E+00  0.11368683772E-12  0.17120000000E+03  0.17120000000E+03 0.  0.
         13    1    1    2    0    0  0.19833931837E+01  0.21782799857E+02  0.10558686500E+03  0.10782866707E+03  0.10566000000E+00 0. -1.
        994    1    1    2    0    0 -0.82255451021E+01 -0.14539967166E+02  0.31525894352E+01  0.17204199795E+03  0.17120000000E+03 0.  0.
        998    1    1    2    0    0  0.62421519184E+01 -0.72428326914E+01  0.13912605418E+04  0.13913293350E+04  0.10000000000E+02 0. -1.
</event>
<event>
 5    1  0.9123258E-009  0.3690181E+03  0.7957747E-01  0.3500416E+00
         13   -1    0    0    0    0  0.00000000000E+00  0.00000000000E+00  0.14999999963E+04  0.15000000000E+04  0.10566000000E+00 0.  1.
        994   -1    0    0    0    0 -0.00000000000E+00 -0.00000000000E+00  0.11368683772E-12  0.17120000000E+03  0.17120000000E+03 0.  0.
         13    1    1    2    0    0  0.21420969385E+02 -0.12677879306E+03  0.39426093377E+03  0.41469677519E+03  0.10566000000E+00 0.  1.
        994    1    1    2    0    0  0.44938784693E+02  0.19385974211E+03  0.16299272378E+03  0.30899378956E+03  0.17120000000E+03 0.  0.
        998    1    1    2    0    0 -0.66359754078E+02 -0.67080949047E+02  0.94274633873E+03  0.94750943525E+03  0.10000000000E+02 0.  1.
</event>
<event>
 5    1  0.9123258E-009  0.3839759E+03  0.7957747E-01  0.3434027E+00
         13   -1    0    0    0    0  0.00000000000E+00  0.00000000000E+00  0.14999999963E+04  0.15000000000E+04  0.10566000000E+00 0.  1.
        994   -1    0    0    0    0 -0.00000000000E+00 -0.00000000000E+00  0.11368683772E-12  0.17120000000E+03  0.17120000000E+03 0.  0.
         13    1    1    2    0    0  0.22479999167E+02 -0.43463191399E+01  0.12662499400E+03  0.12867844078E+03  0.10566000000E+00 0.  1.
        994    1    1    2    0    0 -0.67690982075E+01  0.16608245029E+02  0.32014801479E+01  0.17216661688E+03  0.17120000000E+03 0.  0.
        998    1    1    2    0    0 -0.15710900960E+02 -0.12261925889E+02  0.13701735221E+04  0.13703549423E+04  0.10000000000E+02 0.  1.
</event>
<event>
 5    1  0.9123258E-009  0.3749708E+03  0.7957747E-01  0.3473353E+00
         13   -1    0    0    0    0  0.00000000000E+00  0.00000000000E+00  0.14999999963E+04  0.15000000000E+04  0.10566000000E+00 0.  1.
        994   -1    0    0    0    0 -0.00000000000E+00 -0.00000000000E+00  0.11368683772E-12  0.17120000000E+03  0.17120000000E+03 0.  0.
         13    1    1    2    0    0  0.15437311121E+02 -0.15926533784E+03  0.93500304674E+03  0.94859605048E+03  0.10566000000E+00 0.  1.
        994    1    1    2    0    0  0.52475114394E+01  0.14551111668E+03  0.82568174954E+02  0.23943258961E+03  0.17120000000E+03 0.  0.
        998    1    1    2    0    0 -0.20684822560E+02  0.13754221159E+02  0.48242877459E+03  0.48317135991E+03  0.10000000000E+02 0.  0.
</event>
<event>
 5    1  0.9123258E-009  0.3821233E+03  0.7957747E-01  0.3441965E+00
         13   -1    0    0    0    0  0.00000000000E+00  0.00000000000E+00  0.14999999963E+04  0.15000000000E+04  0.10566000000E+00 0. -1.
        994   -1    0    0    0    0 -0.00000000000E+00 -0.00000000000E+00  0.11368683772E-12  0.17120000000E+03  0.17120000000E+03 0.  0.
         13    1    1    2    0    0  0.28220576421E+02  0.11968668699E+02  0.16140624181E+03  0.16429131451E+03  0.10566000000E+00 0. -1.
        994    1    1    2    0    0  0.21887596239E+00 -0.30527318988E+02  0.61650726893E+01  0.17400980786E+03  0.17120000000E+03 0.  0.
        998    1    1    2    0    0 -0.28439452383E+02  0.18558650290E+02  0.13324286818E+04  0.13328988776E+04  0.10000000000E+02 0. -1.
</event>
<event>
 5    1  0.9123258E-009  0.2672477E+03  0.7957747E-01  0.4161692E+00
         13   -1    0    0    0    0  0.00000000000E+00  0.00000000000E+00  0.14999999963E+04  0.15000000000E+04  0.10566000000E+00 0. -1.
        994   -1    0    0    0    0 -0.00000000000E+00 -0.00000000000E+00  0.11368683772E-12  0.17120000000E+03  0.17120000000E+03 0.  0.
         13    1    1    2    0    0 -0.21730468373E+03 -0.14309039159E+03  0.63135995686E+03  0.68287011358E+03  0.10566000000E+00 0. -1.
        994    1    1    2    0    0 -0.51147856531E+02  0.69233157655E+02  0.31951654837E+03  0.37257160121E+03  0.17120000000E+03 0.  0.
        998    1    1    2    0    0  0.26845254026E+03  0.73857233931E+02  0.54912349106E+03  0.61575828521E+03  0.10000000000E+02 0.  1.
</event>
<event>
 5    1  0.9123258E-009  0.3793795E+03  0.7957747E-01  0.3453865E+00
         13   -1    0    0    0    0  0.00000000000E+00  0.00000000000E+00  0.14999999963E+04  0.15000000000E+04  0.10566000000E+00 0. -1.
        994   -1    0    0    0    0 -0.00000000000E+00 -0.00000000000E+00  0.11368683772E-12  0.17120000000E+03  0.17120000000E+03 0.  0.
         13    1    1    2    0    0  0.54748064428E+01 -0.21795832111E+02  0.53769706184E+02  0.58277133339E+02  0.10566000000E+00 0. -1.
        994    1    1    2    0    0 -0.32751969679E+01  0.20992886032E+02  0.59603626437E+01  0.17261632050E+03  0.17120000000E+03 0.  0.
        998    1    1    2    0    0 -0.21996094749E+01  0.80294607927E+00  0.14402699275E+04  0.14403065462E+04  0.10000000000E+02 0. -1.
</event>
<event>
 5    1  0.9123258E-009  0.3836890E+03  0.7957747E-01  0.3435251E+00
         13   -1    0    0    0    0  0.00000000000E+00  0.00000000000E+00  0.14999999963E+04  0.15000000000E+04  0.10566000000E+00 0. -1.
        994   -1    0    0    0    0 -0.00000000000E+00 -0.00000000000E+00  0.11368683772E-12  0.17120000000E+03  0.17120000000E+03 0.  0.
         13    1    1    2    0    0 -0.29818590557E+02 -0.67478294013E+01  0.18023974369E+03  0.18281427163E+03  0.10566000000E+00 0. -1.
        994    1    1    2    0    0  0.34735759530E+02 -0.68917309786E+01  0.64352452190E+01  0.17494262296E+03  0.17120000000E+03 0.  0.
        998    1    1    2    0    0 -0.49171689724E+01  0.13639560380E+02  0.13133250074E+04  0.13134431054E+04  0.10000000000E+02 0. -1.
</event>
<event>
 5    1  0.9123258E-009  0.3822959E+03  0.7957747E-01  0.3441222E+00
         13   -1    0    0    0    0  0.00000000000E+00  0.00000000000E+00  0.14999999963E+04  0.15000000000E+04  0.10566000000E+00 0.  1.
        994   -1    0    0    0    0 -0.00000000000E+00 -0.00000000000E+00  0.11368683772E-12  0.17120000000E+03  0.17120000000E+03 0.  0.
         13    1    1    2    0    0 -0.15253762288E+02  0.13365661384E+02  0.65986511076E+02  0.69032955726E+02  0.10566000000E+00 0.  1.
        994    1    1    2    0    0  0.95698085477E+01 -0.18676587306E+02  0.44411555659E+01  0.17253857543E+03  0.17120000000E+03 0.  0.
        998    1    1    2    0    0  0.56839537407E+01  0.53109259212E+01  0.14295723296E+04  0.14296284688E+04  0.10000000000E+02 0.  1.
</event>
<event>
 5    1  0.9123258E-009  0.3767896E+03  0.7957747E-01  0.3465257E+00
         13   -1    0    0    0    0  0.00000000000E+00  0.00000000000E+00  0.14999999963E+04  0.15000000000E+04  0.10566000000E+00 0.  1.
        994   -1    0    0    0    0 -0.00000000000E+00 -0.00000000000E+00  0.11368683772E-12  0.17120000000E+03  0.17120000000E+03 0.  0.
         13    1    1    2    0    0  0.11218337165E+02  0.32374927683E+02  0.10793541902E+03  0.11324333479E+03  0.10566000000E+00 0.  1.
        994    1    1    2    0    0  0.10851315010E+02 -0.82381327426E+01  0.63899880451E+01  0.17186008791E+03  0.17120000000E+03 0.  0.
        998    1    1    2    0    0 -0.22069652174E+02 -0.24136794940E+02  0.13856745892E+04  0.13860965773E+04  0.10000000000E+02 0.  1.
</event>
<event>
 5    1  0.9123258E-009  0.3847447E+03  0.7957747E-01  0.3430756E+00
         13   -1    0    0    0    0  0.00000000000E+00  0.00000000000E+00  0.14999999963E+04  0.15000000000E+04  0.10566000000E+00 0. -1.
        994   -1    0    0    0    0 -0.00000000000E+00 -0.00000000000E+00  0.11368683772E-12  0.17120000000E+03  0.17120000000E+03 0.  0.
         13    1    1    2    0    0  0.20875765514E+02 -0.15434533070E+01  0.11998115285E+03  0.12179354678E+03  0.10566000000E+00 0. -1.
        994    1    1    2    0    0 -0.17580064502E+02  0.11759549229E+01  0.27794031767E+01  0.17212671675E+03  0.17120000000E+03 0.  0.
        998    1    1    2    0    0 -0.32957010120E+01  0.36749838409E+00  0.13772394403E+04  0.13772797365E+04  0.10000000000E+02 0. -1.
</event>
<event>
 5    1  0.9123258E-009  0.3696487E+03  0.7957747E-01  0.3497507E+00
         13   -1    0    0    0    0  0.00000000000E+00  0.00000000000E+00  0.14999999963E+04  0.15000000000E+04  0.10566000000E+00 0. -1.
        994   -1    0    0    0    0 -0.00000000000E+00 -0.00000000000E+00  0.11368683772E-12  0.17120000000E+03  0.17120000000E+03 0.  0.
         13    1    1    2    0    0 -0.70081215456E+02 -0.41764230808E+02  0.23081996672E+03  0.24481318579E+03  0.10566000000E+00 0. -1.
        994    1    1    2    0    0  0.99188809500E+02  0.73520373348E+02  0.64239518077E+02  0.22063504008E+03  0.17120000000E+03 0.  0.
        998    1    1    2    0    0 -0.29107594044E+02 -0.31756142540E+02  0.12049405115E+04  0.12057517741E+04  0.10000000000E+02 0. -1.
</event>
<event>
 5    1  0.9123258E-009  0.3758369E+03  0.7957747E-01  0.3469488E+00
         13   -1    0    0    0    0  0.00000000000E+00  0.00000000000E+00  0.14999999963E+04  0.15000000000E+04  0.10566000000E+00 0. -1.
        994   -1    0    0    0    0 -0.00000000000E+00 -0.00000000000E+00  0.11368683772E-12  0.17120000000E+03  0.17120000000E+03 0.  0.
         13    1    1    2    0    0 -0.16087801840E+02  0.89617175580E+01  0.24434651223E+02  0.30597272657E+02  0.10566000000E+00 0. -1.
        994    1    1    2    0    0  0.14635778410E+02 -0.24128734095E+01  0.69957270935E+01  0.17198374390E+03  0.17120000000E+03 0.  0.
        998    1    1    2    0    0  0.14520234302E+01 -0.65488441485E+01  0.14685696180E+04  0.14686189834E+04  0.10000000000E+02 0. -1.
</event>
<event>
 5    1  0.9123258E-009  0.3764920E+03  0.7957747E-01  0.3466577E+00
         13   -1    0    0    0    0  0.00000000000E+00  0.00000000000E+00  0.14999999963E+04  0.15000000000E+04  0.10566000000E+00 0.  1.
        994   -1    0    0    0    0 -0.00000000000E+00 -0.00000000000E+00  0.11368683772E-12  0.17120000000E+03  0.17120000000E+03 0.  0.
         13    1    1    2    0    0 -0.83852829999E+02 -0.20730523478E+03  0.12802736330E+04  0.12996566255E+04  0.10566000000E+00 0.  1.
        994    1    1    2    0    0  0.67880045410E+02  0.19141276890E+03  0.16813512017E+03  0.31436508601E+03  0.17120000000E+03 0.  0.
        998    1    1    2    0    0  0.15972784589E+02  0.15892465876E+02  0.51591243063E+02  0.57178288536E+02  0.10000000000E+02 0.  1.
</event>
<event>
 5    1  0.9123258E-009  0.3773624E+03  0.7957747E-01  0.3462724E+00
         13   -1    0    0    0    0  0.00000000000E+00  0.00000000000E+00  0.14999999963E+04  0.15000000000E+04  0.10566000000E+00 0.  1.
        994   -1    0    0    0    0 -0.00000000000E+00 -0.00000000000E+00  0.11368683772E-12  0.17120000000E+03  0.17120000000E+03 0.  0.
         13    1    1    2    0    0  0.54794053267E+02  0.66699429929E+02  0.46961926360E+03  0.47748661357E+03  0.10566000000E+00 0.  1.
        994    1    1    2    0    0 -0.49390949838E+02 -0.69491423881E+02  0.30388719493E+02  0.19365288067E+03  0.17120000000E+03 0.  0.
        998    1    1    2    0    0 -0.54031034288E+01  0.27919939519E+01  0.99999201318E+03  0.10000605058E+04  0.10000000000E+02 0.  1.
</event>
<event>
 5    1  0.9123258E-009  0.3834624E+03  0.7957747E-01  0.3436219E+00
         13   -1    0    0    0    0  0.00000000000E+00  0.00000000000E+00  0.14999999963E+04  0.15000000000E+04  0.10566000000E+00 0.  1.
        994   -1    0    0    0    0 -0.00000000000E+00 -0.00000000000E+00  0.11368683772E-12  0.17120000000E+03  0.17120000000E+03 0.  0.
         13    1    1    2    0    0 -0.24932843436E+02 -0.84890377130E+01  0.13741515877E+03  0.13991657324E+03  0.10566000000E+00 0.  1.
        994    1    1    2    0    0  0.26607857000E+02 -0.81611651020E+01  0.49597275596E+01  0.17351836089E+03  0.17120000000E+03 0.  0.
        998    1    1    2    0    0 -0.16750135638E+01  0.16650202815E+02  0.13576251099E+04  0.13577650659E+04  0.10000000000E+02 0.  1.
</event>
<event>
 5    1  0.9123258E-009  0.3784954E+03  0.7957747E-01  0.3457736E+00
         13   -1    0    0    0    0  0.00000000000E+00  0.00000000000E+00  0.14999999963E+04  0.15000000000E+04  0.10566000000E+00 0.  1.
        994   -1    0    0    0    0 -0.00000000000E+00 -0.00000000000E+00  0.11368683772E-12  0.17120000000E+03  0.17120000000E+03 0.  0.
         13    1    1    2    0    0  0.60259179379E+02 -0.12719295390E+02  0.26831928059E+03  0.27529656132E+03  0.10566000000E+00 0.  1.
        994    1    1    2    0    0 -0.83101978048E+02  0.63194745509E+01  0.28596357230E+02  0.19254367339E+03  0.17120000000E+03 0.  0.
        998    1    1    2    0    0  0.22842798669E+02  0.63998208387E+01  0.12030843585E+04  0.12033597653E+04  0.10000000000E+02 0.  1.
</event>
<event>
 5    1  0.9123258E-009  0.3751339E+03  0.7957747E-01  0.3472624E+00
         13   -1    0    0    0    0  0.00000000000E+00  0.00000000000E+00  0.14999999963E+04  0.15000000000E+04  0.10566000000E+00 0. -1.
        994   -1    0    0    0    0 -0.00000000000E+00 -0.00000000000E+00  0.11368683772E-12  0.17120000000E+03  0.17120000000E+03 0.  0.
         13    1    1    2    0    0  0.14277050362E+01  0.51879631011E+02  0.25003065061E+03  0.25536027855E+03  0.10566000000E+00 0. -1.
        994    1    1    2    0    0 -0.24079476426E+02  0.58892019089E+00  0.85837191948E+01  0.17309907061E+03  0.17120000000E+03 0.  0.
        998    1    1    2    0    0  0.22651771390E+02 -0.52468551202E+02  0.12413856265E+04  0.12427406508E+04  0.10000000000E+02 0. -1.
</event>
<event>
 5    1  0.9123258E-009  0.3837323E+03  0.7957747E-01  0.3435066E+00
         13   -1    0    0    0    0  0.00000000000E+00  0.00000000000E+00  0.14999999963E+04  0.15000000000E+04  0.10566000000E+00 0.  1.
        994   -1    0    0    0    0 -0.00000000000E+00 -0.00000000000E+00  0.11368683772E-12  0.17120000000E+03  0.17120000000E+03 0.  0.
         13    1    1    2    0    0  0.17423768727E+02  0.86045579298E+01  0.80562855737E+02  0.82873463921E+02  0.10566000000E+00 0.  1.
        994    1    1    2    0    0 -0.15428487947E+02 -0.78801338504E+01  0.32525675758E+01  0.17210506659E+03  0.17120000000E+03 0.  0.
        998    1    1    2    0    0 -0.19952807797E+01 -0.72442407937E+00  0.14161845730E+04  0.14162214695E+04  0.10000000000E+02 0.  0.
</event>
<event>
 5    1  0.9123258E-009  0.3838664E+03  0.7957747E-01  0.3434494E+00
         13   -1    0    0    0    0  0.00000000000E+00  0.00000000000E+00  0.14999999963E+04  0.15000000000E+04  0.10566000000E+00 0.  1.
        994   -1    0    0    0    0 -0.00000000000E+00 -0.00000000000E+00  0.11368683772E-12  0.17120000000E+03  0.17120000000E+03 0.  0.
         13    1    1    2    0    0  0.54728879208E+01  0.19398264462E+02  0.94872177755E+02  0.96989620282E+02  0.10566000000E+00 0.  1.
        994    1    1    2    0    0 -0.64552351990E+01 -0.68255709946E+01  0.24853576790E+01  0.17147558276E+03  0.17120000000E+03 0.  0.
        998    1    1    2    0    0  0.98234727816E+00 -0.12572693468E+02  0.14026424608E+04  0.14027347970E+04  0.10000000000E+02 0.  1.
</event>
<event>
 5    1  0.9123258E-009  0.3904447E+03  0.7957747E-01  0.3406904E+00
         13   -1    0    0    0    0  0.00000000000E+00  0.00000000000E+00  0.14999999963E+04  0.15000000000E+04  0.10566000000E+00 0. -1.
        994   -1    0    0    0    0 -0.00000000000E+00 -0.00000000000E+00  0.11368683772E-12  0.17120000000E+03  0.17120000000E+03 0.  0.
         13    1    1    2    0    0  0.24051460281E+02 -0.90189405438E+01  0.52371736715E+01  0.26215514152E+02  0.10566000000E+00 0. -1.
        994    1    1    2    0    0 -0.26829939701E+02  0.13426720877E+01  0.24911162363E+02  0.17507613899E+03  0.17120000000E+03 0.  0.
        998    1    1    2    0    0  0.27784794209E+01  0.76762684560E+01  0.14698516602E+04  0.14699083469E+04  0.10000000000E+02 0. -1.
</event>
<event>
 5    1  0.9123258E-009  0.3789197E+03  0.7957747E-01  0.3455876E+00
         13   -1    0    0    0    0  0.00000000000E+00  0.00000000000E+00  0.14999999963E+04  0.15000000000E+04  0.10566000000E+00 0.  1.
        994   -1    0    0    0    0 -0.00000000000E+00 -0.00000000000E+00  0.11368683772E-12  0.17120000000E+03  0.17120000000E+03 0.  0.
         13    1    1    2    0    0 -0.12803204942E+02 -0.31479523960E+02  0.12040336217E+03  0.12510740694E+03  0.10566000000E+00 0.  1.
        994    1    1    2    0    0  0.55067547130E+01  0.22002192613E+02  0.64072184538E+01  0.17281467899E+03  0.17120000000E+03 0.  0.
        998    1    1    2    0    0  0.72964502286E+01  0.94773313469E+01  0.13731894157E+04  0.13732779141E+04  0.10000000000E+02 0.  1.
</event>
<event>
 5    1  0.9123258E-009  0.3867402E+03  0.7957747E-01  0.3422325E+00
         13   -1    0    0    0    0  0.00000000000E+00  0.00000000000E+00  0.14999999963E+04  0.15000000000E+04  0.10566000000E+00 0.  1.
        994   -1    0    0    0    0 -0.00000000000E+00 -0.00000000000E+00  0.11368683772E-12  0.17120000000E+03  0.17120000000E+03 0.  0.
         13    1    1    2    0    0 -0.12103793022E+02 -0.86792345396E+02  0.17939212386E+03  0.19965209313E+03  0.10566000000E+00 0.  1.
        994    1    1    2    0    0  0.26697484372E+02  0.61394958275E+02  0.36930859169E+02  0.18749779981E+03  0.17120000000E+03 0.  0.
        998    1    1    2    0    0 -0.14593691350E+02  0.25397387121E+02  0.12836770132E+04  0.12840501071E+04  0.10000000000E+02 0.  1.
</event>
<event>
 5    1  0.9123258E-009  0.3838804E+03  0.7957747E-01  0.3434434E+00
         13   -1    0    0    0    0  0.00000000000E+00  0.00000000000E+00  0.14999999963E+04  0.15000000000E+04  0.10566000000E+00 0.  1.
        994   -1    0    0    0    0 -0.00000000000E+00 -0.00000000000E+00  0.11368683772E-12  0.17120000000E+03  0.17120000000E+03 0.  0.
         13    1    1    2    0    0  0.12509081299E+02  0.71105248791E+01  0.49432290694E+02  0.51483970382E+02  0.10566000000E+00 0.  1.
        994    1    1    2    0    0  0.67246576100E+01 -0.88842479463E+01  0.25968874396E+01  0.17158186007E+03  0.17120000000E+03 0.  0.
        998    1    1    2    0    0 -0.19233738909E+02  0.17737230672E+01  0.14479708181E+04  0.14481341695E+04  0.10000000000E+02 0.  1.
</event>
<event>
 5    1  0.9123258E-009  0.3851535E+03  0.7957747E-01  0.3429022E+00
         13   -1    0    0    0    0  0.00000000000E+00  0.00000000000E+00  0.14999999963E+04  0.15000000000E+04  0.10566000000E+00 0.  1.
        994   -1    0    0    0    0 -0.00000000000E+00 -0.00000000000E+00  0.11368683772E-12  0.17120000000E+03  0.17120000000E+03 0.  0.
         13    1    1    2    0    0 -0.30203154252E+01 -0.16068169839E+02  0.87725427254E+02  0.89236036097E+02  0.10566000000E+00 0.  1.
        994    1    1    2    0    0  0.21055966161E+02  0.50169791630E+01  0.30955122580E+01  0.17259068917E+03  0.17120000000E+03 0.  0.
        998    1    1    2    0    0 -0.18035650736E+02  0.11051190676E+02  0.14091790568E+04  0.14093732747E+04  0.10000000000E+02 0.  1.
</event>
<event>
 5    1  0.9123258E-009  0.3802967E+03  0.7957747E-01  0.3449867E+00
         13   -1    0    0    0    0  0.00000000000E+00  0.00000000000E+00  0.14999999963E+04  0.15000000000E+04  0.10566000000E+00 0.  1.
        994   -1    0    0    0    0 -0.00000000000E+00 -0.00000000000E+00  0.11368683772E-12  0.17120000000E+03  0.17120000000E+03 0.  0.
         13    1    1    2    0    0  0.14519906792E+02 -0.35666219269E+02  0.21581243689E+03  0.21922118048E+03  0.10566000000E+00 0.  1.
        994    1    1    2    0    0  0.28686499516E+02  0.16880689732E+02  0.76921821545E+01  0.17457514888E+03  0.17120000000E+03 0.  0.
        998    1    1    2    0    0 -0.43206406308E+02  0.18785529537E+02  0.12764953772E+04  0.12774036706E+04  0.10000000000E+02 0.  1.
</event>
<event>
 5    1  0.9123258E-009  0.3760322E+03  0.7957747E-01  0.3468619E+00
         13   -1    0    0    0    0  0.00000000000E+00  0.00000000000E+00  0.14999999963E+04  0.15000000000E+04  0.10566000000E+00 0. -1.
        994   -1    0    0    0    0 -0.00000000000E+00 -0.00000000000E+00  0.11368683772E-12  0.17120000000E+03  0.17120000000E+03 0.  0.
         13    1    1    2    0    0 -0.12999682438E+02 -0.75846788643E+01  0.15100844590E+01  0.15126487235E+02  0.10566000000E+00 0. -1.
        994    1    1    2    0    0  0.10459453752E+02  0.96220711049E+01  0.14886350229E+02  0.17243267628E+03  0.17120000000E+03 0.  0.
        998    1    1    2    0    0  0.25402286857E+01 -0.20373922406E+01  0.14836035616E+04  0.14836408365E+04  0.10000000000E+02 0. -1.
</event>
<event>
 5    1  0.9123258E-009  0.3806598E+03  0.7957747E-01  0.3448291E+00
         13   -1    0    0    0    0  0.00000000000E+00  0.00000000000E+00  0.14999999963E+04  0.15000000000E+04  0.10566000000E+00 0.  1.
        994   -1    0    0    0    0 -0.00000000000E+00 -0.00000000000E+00  0.11368683772E-12  0.17120000000E+03  0.17120000000E+03 0.  0.
         13    1    1    2    0    0 -0.36741961862E+02 -0.38489781957E+02  0.30150890735E+03  0.30616836455E+03  0.10566000000E+00 0.  1.
        994    1    1    2    0    0  0.30041547362E+02  0.43966980897E+02  0.13317512451E+02  0.17978427661E+03  0.17120000000E+03 0.  0.
        998    1    1    2    0    0  0.67004144999E+01 -0.54771989397E+01  0.11851735765E+04  0.11852473588E+04  0.10000000000E+02 0.  1.
</event>
<event>
 5    1  0.9123258E-009  0.3754926E+03  0.7957747E-01  0.3471023E+00
         13   -1    0    0    0    0  0.00000000000E+00  0.00000000000E+00  0.14999999963E+04  0.15000000000E+04  0.10566000000E+00 0. -1.
        994   -1    0    0    0    0 -0.00000000000E+00 -0.00000000000E+00  0.11368683772E-12  0.17120000000E+03  0.17120000000E+03 0.  0.
         13    1    1    2    0    0 -0.16399204330E+02 -0.49156745554E+02  0.29564710307E+03  0.30015419413E+03  0.10566000000E+00 0. -1.
        994    1    1    2    0    0 -0.62940489826E+00 -0.14913696353E+02  0.71825021600E+01  0.17199954310E+03  0.17120000000E+03 0.  0.
        998    1    1    2    0    0  0.17028609228E+02  0.64070441907E+02  0.11971703910E+04  0.11990462628E+04  0.10000000000E+02 0. -1.
</event>
<event>
 5    1  0.9123258E-009  0.3835705E+03  0.7957747E-01  0.3435758E+00
         13   -1    0    0    0    0  0.00000000000E+00  0.00000000000E+00  0.14999999963E+04  0.15000000000E+04  0.10566000000E+00 0.  1.
        994   -1    0    0    0    0 -0.00000000000E+00 -0.00000000000E+00  0.11368683772E-12  0.17120000000E+03  0.17120000000E+03 0.  0.
         13    1    1    2    0    0  0.13899863178E+02 -0.22729790683E+01  0.43059130552E+02  0.45304221858E+02  0.10566000000E+00 0.  1.
        994    1    1    2    0    0 -0.14640230141E+01  0.53109604446E+01  0.24418151525E+01  0.17130601894E+03  0.17120000000E+03 0.  0.
        998    1    1    2    0    0 -0.12435840164E+02 -0.30379813763E+01  0.14544990506E+04  0.14545897592E+04  0.10000000000E+02 0.  1.
</event>
<event>
 5    1  0.9123258E-009  0.3752516E+03  0.7957747E-01  0.3472098E+00
         13   -1    0    0    0    0  0.00000000000E+00  0.00000000000E+00  0.14999999963E+04  0.15000000000E+04  0.10566000000E+00 0.  1.
        994   -1    0    0    0    0 -0.00000000000E+00 -0.00000000000E+00  0.11368683772E-12  0.17120000000E+03  0.17120000000E+03 0.  0.
         13    1    1    2    0    0  0.11975943015E+03  0.44281803254E+02  0.56402204821E+03  0.57829411309E+03  0.10566000000E+00 0.  1.
        994    1    1    2    0    0 -0.71748668709E+02 -0.37832829147E+02  0.37563922802E+02  0.19313125775E+03  0.17120000000E+03 0.  0.
        998    1    1    2    0    0 -0.48010761439E+02 -0.64489741076E+01  0.89841402527E+03  0.89977462916E+03  0.10000000000E+02 0.  1.
</event>
<event>
 5    1  0.9123258E-009  0.3797621E+03  0.7957747E-01  0.3452195E+00
         13   -1    0    0    0    0  0.00000000000E+00  0.00000000000E+00  0.14999999963E+04  0.15000000000E+04  0.10566000000E+00 0.  1.
        994   -1    0    0    0    0 -0.00000000000E+00 -0.00000000000E+00  0.11368683772E-12  0.17120000000E+03  0.17120000000E+03 0.  0.
         13    1    1    2    0    0 -0.77100586324E+01 -0.11137109317E+02  0.19543754545E+02  0.23779186567E+02  0.10566000000E+00 0.  1.
        994    1    1    2    0    0  0.96994257242E+01  0.10536139156E+02  0.49397098861E+01  0.17186893210E+03  0.17120000000E+03 0.  0.
        998    1    1    2    0    0 -0.19893670918E+01  0.60097016086E+00  0.14755165318E+04  0.14755518813E+04  0.10000000000E+02 0.  1.
</event>
<event>
 5    1  0.9123258E-009  0.3721707E+03  0.7957747E-01  0.3485974E+00
         13   -1    0    0    0    0  0.00000000000E+00  0.00000000000E+00  0.14999999963E+04  0.15000000000E+04  0.10566000000E+00 0. -1.
        994   -1    0    0    0    0 -0.00000000000E+00 -0.00000000000E+00  0.11368683772E-12  0.17120000000E+03  0.17120000000E+03 0.  0.
         13    1    1    2    0    0 -0.40423359074E+02 -0.16912359349E+03  0.99691663721E+03  0.10119681964E+04  0.10566000000E+00 0. -1.
        994    1    1    2    0    0  0.13545717512E+02  0.15065635946E+03  0.91271329787E+02  0.24600959483E+03  0.17120000000E+03 0.  0.
        998    1    1    2    0    0  0.26877641562E+02  0.18467234029E+02  0.41181202928E+03  0.41322220875E+03  0.10000000000E+02 0.  1.
</event>
<event>
 5    1  0.9123258E-009  0.3826556E+03  0.7957747E-01  0.3439676E+00
         13   -1    0    0    0    0  0.00000000000E+00  0.00000000000E+00  0.14999999963E+04  0.15000000000E+04  0.10566000000E+00 0.  1.
        994   -1    0    0    0    0 -0.00000000000E+00 -0.00000000000E+00  0.11368683772E-12  0.17120000000E+03  0.17120000000E+03 0.  0.
         13    1    1    2    0    0 -0.34448196904E+02  0.57430657699E+01  0.17639576207E+03  0.17981973506E+03  0.10566000000E+00 0.  1.
        994    1    1    2    0    0  0.44982605487E+02 -0.13252726844E+02  0.10120376999E+02  0.17779463320E+03  0.17120000000E+03 0.  0.
        998    1    1    2    0    0 -0.10534408583E+02  0.75096610737E+01  0.13134838572E+04  0.13135856317E+04  0.10000000000E+02 0.  1.
</event>
<event>
 5    1  0.9123258E-009  0.3851139E+03  0.7957747E-01  0.3429189E+00
         13   -1    0    0    0    0  0.00000000000E+00  0.00000000000E+00  0.14999999963E+04  0.15000000000E+04  0.10566000000E+00 0.  1.
        994   -1    0    0    0    0 -0.00000000000E+00 -0.00000000000E+00  0.11368683772E-12  0.17120000000E+03  0.17120000000E+03 0.  0.
         13    1    1    2    0    0  0.75327942495E+01  0.11567935644E+02  0.58851298329E+02  0.60448710518E+02  0.10566000000E+00 0.  1.
        994    1    1    2    0    0 -0.69876034129E+01 -0.12128422529E+02  0.22179456610E+01  0.17178557715E+03  0.17120000000E+03 0.  0.
        998    1    1    2    0    0 -0.54519083662E+00  0.56048688424E+00  0.14389307523E+04  0.14389657123E+04  0.10000000000E+02 0.  1.
</event>
<event>
 5    1  0.9123258E-009  0.3840022E+03  0.7957747E-01  0.3433915E+00
         13   -1    0    0    0    0  0.00000000000E+00  0.00000000000E+00  0.14999999963E+04  0.15000000000E+04  0.10566000000E+00 0.  1.
        994   -1    0    0    0    0 -0.00000000000E+00 -0.00000000000E+00  0.11368683772E-12  0.17120000000E+03  0.17120000000E+03 0.  0.
         13    1    1    2    0    0  0.17460855302E+02  0.20577183513E+02  0.15304588301E+03  0.15540706361E+03  0.10566000000E+00 0.  1.
        994    1    1    2    0    0 -0.21588203600E+02 -0.19892596761E+02  0.49747879812E+01  0.17376983184E+03  0.17120000000E+03 0.  0.
        998    1    1    2    0    0  0.41273482982E+01 -0.68458675252E+00  0.13419793253E+04  0.13420231046E+04  0.10000000000E+02 0.  1.
</event>
<event>
 5    1  0.9123258E-009  0.3810172E+03  0.7957747E-01  0.3446741E+00
         13   -1    0    0    0    0  0.00000000000E+00  0.00000000000E+00  0.14999999963E+04  0.15000000000E+04  0.10566000000E+00 0.  1.
        994   -1    0    0    0    0 -0.00000000000E+00 -0.00000000000E+00  0.11368683772E-12  0.17120000000E+03  0.17120000000E+03 0.  0.
         13    1    1    2    0    0  0.18052843379E+02  0.22975971418E+02  0.11463392594E+03  0.11829940219E+03  0.10566000000E+00 0.  1.
        994    1    1    2    0    0 -0.94990741746E+01 -0.18843475006E+02  0.51055777301E+01  0.17257119077E+03  0.17120000000E+03 0.  0.
        998    1    1    2    0    0 -0.85537692048E+01 -0.41324964125E+01  0.13802604926E+04  0.13803294070E+04  0.10000000000E+02 0.  1.
</event>
<event>
 5    1  0.9123258E-009  0.3761742E+03  0.7957747E-01  0.3467988E+00
         13   -1    0    0    0    0  0.00000000000E+00  0.00000000000E+00  0.14999999963E+04  0.15000000000E+04  0.10566000000E+00 0. -1.
        994   -1    0    0    0    0 -0.00000000000E+00 -0.00000000000E+00  0.11368683772E-12  0.17120000000E+03  0.17120000000E+03 0.  0.
         13    1    1    2    0    0  0.35595069691E+02 -0.33049912531E+02  0.17525330912E+03  0.18185994398E+03  0.10566000000E+00 0. -1.
        994    1    1    2    0    0 -0.33398465387E+02  0.29090029201E+02  0.12747890349E+02  0.17729533552E+03  0.17120000000E+03 0.  0.
        998    1    1    2    0    0 -0.21966043040E+01  0.39598833305E+01  0.13119987968E+04  0.13120447205E+04  0.10000000000E+02 0. -1.
</event>
<event>
 5    1  0.9123258E-009  0.3795570E+03  0.7957747E-01  0.3453089E+00
         13   -1    0    0    0    0  0.00000000000E+00  0.00000000000E+00  0.14999999963E+04  0.15000000000E+04  0.10566000000E+00 0. -1.
        994   -1    0    0    0    0 -0.00000000000E+00 -0.00000000000E+00  0.11368683772E-12  0.17120000000E+03  0.17120000000E+03 0.  0.
         13    1    1    2    0    0  0.16409054850E+02 -0.23971849372E+02  0.82537660595E+02  0.87500761277E+02  0.10566000000E+00 0. -1.
        994    1    1    2    0    0  0.13108008604E+02  0.70563146632E+02  0.21798984548E+02  0.18691070938E+03  0.17120000000E+03 0.  0.
        998    1    1    2    0    0 -0.29517063454E+02 -0.46591297259E+02  0.13956633511E+04  0.13967885293E+04  0.10000000000E+02 0. -1.
</event>
<event>
 5    1  0.9123258E-009  0.3801246E+03  0.7957747E-01  0.3450616E+00
         13   -1    0    0    0    0  0.00000000000E+00  0.00000000000E+00  0.14999999963E+04  0.15000000000E+04  0.10566000000E+00 0.  1.
        994   -1    0    0    0    0 -0.00000000000E+00 -0.00000000000E+00  0.11368683772E-12  0.17120000000E+03  0.17120000000E+03 0.  0.
         13    1    1    2    0    0  0.10139126785E+02 -0.64198551657E+01  0.15850627439E+02  0.19881398003E+02  0.10566000000E+00 0.  1.
        994    1    1    2    0    0 -0.89441419675E+01  0.67911465071E+01  0.44918151295E+01  0.17162672796E+03  0.17120000000E+03 0.  0.
        998    1    1    2    0    0 -0.11949848170E+01 -0.37129134139E+00  0.14796575537E+04  0.14796918740E+04  0.10000000000E+02 0.  1.
</event>
<event>
 5    1  0.9123258E-009  0.3820397E+03  0.7957747E-01  0.3442325E+00
         13   -1    0    0    0    0  0.00000000000E+00  0.00000000000E+00  0.14999999963E+04  0.15000000000E+04  0.10566000000E+00 0.  1.
        994   -1    0    0    0    0 -0.00000000000E+00 -0.00000000000E+00  0.11368683772E-12  0.17120000000E+03  0.17120000000E+03 0.  0.
         13    1    1    2    0    0  0.41098656346E+01  0.21384334874E+03  0.11301035006E+04  0.11501651194E+04  0.10566000000E+00 0.  1.
        994    1    1    2    0    0 -0.98274067842E+01 -0.21276025504E+03  0.17218904747E+03  0.32298918266E+03  0.17120000000E+03 0.  0.
        998    1    1    2    0    0  0.57175411496E+01 -0.10830936987E+01  0.19770744822E+03  0.19804569789E+03  0.10000000000E+02 0.  0.
</event>
<event>
 5    1  0.9123258E-009  0.3818392E+03  0.7957747E-01  0.3443189E+00
         13   -1    0    0    0    0  0.00000000000E+00  0.00000000000E+00  0.14999999963E+04  0.15000000000E+04  0.10566000000E+00 0. -1.
        994   -1    0    0    0    0 -0.00000000000E+00 -0.00000000000E+00  0.11368683772E-12  0.17120000000E+03  0.17120000000E+03 0.  0.
         13    1    1    2    0    0 -0.27366341835E+02 -0.20140610591E+02  0.17696061259E+03  0.18019331406E+03  0.10566000000E+00 0. -1.
        994    1    1    2    0    0  0.21405077335E+02  0.69460965874E+01  0.48921424245E+01  0.17274200025E+03  0.17120000000E+03 0.  0.
        998    1    1    2    0    0  0.59612644994E+01  0.13194514004E+02  0.13181472413E+04  0.13182646857E+04  0.10000000000E+02 0. -1.
</event>
<event>
 5    1  0.9123258E-009  0.3835267E+03  0.7957747E-01  0.3435945E+00
         13   -1    0    0    0    0  0.00000000000E+00  0.00000000000E+00  0.14999999963E+04  0.15000000000E+04  0.10566000000E+00 0.  1.
        994   -1    0    0    0    0 -0.00000000000E+00 -0.00000000000E+00  0.11368683772E-12  0.17120000000E+03  0.17120000000E+03 0.  0.
         13    1    1    2    0    0 -0.39501652168E+01  0.21504150692E+02  0.96295492612E+02  0.98746470133E+02  0.10566000000E+00 0.  1.
        994    1    1    2    0    0 -0.35448511063E+01 -0.21419280001E+02  0.39224529359E+01  0.17261569211E+03  0.17120000000E+03 0.  0.
        998    1    1    2    0    0  0.74950163231E+01 -0.84870691373E-01  0.13997820507E+04  0.13998378378E+04  0.10000000000E+02 0.  1.
</event>
<event>
 5    1  0.9123258E-009  0.3834641E+03  0.7957747E-01  0.3436212E+00
         13   -1    0    0    0    0  0.00000000000E+00  0.00000000000E+00  0.14999999963E+04  0.15000000000E+04  0.10566000000E+00 0. -1.
        994   -1    0    0    0    0 -0.00000000000E+00 -0.00000000000E+00  0.11368683772E-12  0.17120000000E+03  0.17120000000E+03 0.  0.
         13    1    1    2    0    0 -0.11385778951E+02  0.10442346429E+02  0.70829712653E+02  0.72495088936E+02  0.10566000000E+00 0. -1.
        994    1    1    2    0    0 -0.53359740010E+02  0.17208071876E+02  0.12854013058E+02  0.18060466562E+03  0.17120000000E+03 0.  0.
        998    1    1    2    0    0  0.64745518961E+02 -0.27650418305E+02  0.14163162706E+04  0.14181002454E+04  0.10000000000E+02 0. -1.
</event>
<event>
 5    1  0.9123258E-009  0.2880557E+03  0.7957747E-01  0.3985162E+00
         13   -1    0    0    0    0  0.00000000000E+00  0.00000000000E+00  0.14999999963E+04  0.15000000000E+04  0.10566000000E+00 0. -1.
        994   -1    0    0    0    0 -0.00000000000E+00 -0.00000000000E+00  0.11368683772E-12  0.17120000000E+03  0.17120000000E+03 0.  0.
         13    1    1    2    0    0 -0.94032306664E+02  0.11490044285E+03  0.73352221056E+03  0.74839764231E+03  0.10566000000E+00 0. -1.
        994    1    1    2    0    0  0.23293061581E+02 -0.48430544276E+02  0.32487648545E+02  0.18235397348E+03  0.17120000000E+03 0.  0.
        998    1    1    2    0    0  0.70739245083E+02 -0.66469898572E+02  0.73399013717E+03  0.74044838421E+03  0.10000000000E+02 0. -1.
</event>
<event>
 5    1  0.9123258E-009  0.3848104E+03  0.7957747E-01  0.3430477E+00
         13   -1    0    0    0    0  0.00000000000E+00  0.00000000000E+00  0.14999999963E+04  0.15000000000E+04  0.10566000000E+00 0. -1.
        994   -1    0    0    0    0 -0.00000000000E+00 -0.00000000000E+00  0.11368683772E-12  0.17120000000E+03  0.17120000000E+03 0.  0.
         13    1    1    2    0    0 -0.14434921030E+02  0.11535229439E+02  0.92655587022E+02  0.94480143066E+02  0.10566000000E+00 0. -1.
        994    1    1    2    0    0  0.25349802866E+02 -0.21363310946E+01  0.38568521881E+01  0.17312276489E+03  0.17120000000E+03 0.  0.
        998    1    1    2    0    0 -0.10914881836E+02 -0.93988983448E+01  0.14034875571E+04  0.14035970920E+04  0.10000000000E+02 0. -1.
</event>
<event>
 5    1  0.9123258E-009  0.3742737E+03  0.7957747E-01  0.3476478E+00
         13   -1    0    0    0    0  0.00000000000E+00  0.00000000000E+00  0.14999999963E+04  0.15000000000E+04  0.10566000000E+00 0.  1.
        994   -1    0    0    0    0 -0.00000000000E+00 -0.00000000000E+00  0.11368683772E-12  0.17120000000E+03  0.17120000000E+03 0.  0.
         13    1    1    2    0    0 -0.10949071379E+03  0.43933087023E+02  0.66408012060E+03  0.67447813180E+03  0.10566000000E+00 0.  1.
        994    1    1    2    0    0  0.45650185822E+02 -0.13236788020E+02  0.21278280709E+02  0.17894512358E+03  0.17120000000E+03 0.  0.
        998    1    1    2    0    0  0.63840527966E+02 -0.30696299003E+02  0.81464159497E+03  0.81777674462E+03  0.10000000000E+02 0.  1.
</event>
<event>
 5    1  0.9123258E-009  0.3731335E+03  0.7957747E-01  0.3481613E+00
         13   -1    0    0    0    0  0.00000000000E+00  0.00000000000E+00  0.14999999963E+04  0.15000000000E+04  0.10566000000E+00 0. -1.
        994   -1    0    0    0    0 -0.00000000000E+00 -0.00000000000E+00  0.11368683772E-12  0.17120000000E+03  0.17120000000E+03 0.  0.
         13    1    1    2    0    0 -0.36389563759E+02  0.11689597864E+01  0.91156004126E+02  0.98158010726E+02  0.10566000000E+00 0. -1.
        994    1    1    2    0    0  0.18051253321E+01  0.69734286824E+01  0.78178504102E+01  0.17152972328E+03  0.17120000000E+03 0.  0.
        998    1    1    2    0    0  0.34584438427E+02 -0.81423884689E+01  0.14010261417E+04  0.14015122660E+04  0.10000000000E+02 0. -1.
</event>
<event>
 5    1  0.9123258E-009  0.3854644E+03  0.7957747E-01  0.3427705E+00
         13   -1    0    0    0    0  0.00000000000E+00  0.00000000000E+00  0.14999999963E+04  0.15000000000E+04  0.10566000000E+00 0. -1.
        994   -1    0    0    0    0 -0.00000000000E+00 -0.00000000000E+00  0.11368683772E-12  0.17120000000E+03  0.17120000000E+03 0.  0.
         13    1    1    2    0    0  0.88702316373E+01 -0.10770387244E+02  0.70508343470E+02  0.71875725482E+02  0.10566000000E+00 0. -1.
        994    1    1    2    0    0 -0.13182542444E+02 -0.39288775830E+00  0.19711096269E+01  0.17171854606E+03  0.17120000000E+03 0.  0.
        998    1    1    2    0    0  0.43123108072E+01  0.11163275003E+02  0.14275205432E+04  0.14276057285E+04  0.10000000000E+02 0. -1.
</event>
<event>
 5    1  0.9123258E-009  0.3851097E+03  0.7957747E-01  0.3429207E+00
         13   -1    0    0    0    0  0.00000000000E+00  0.00000000000E+00  0.14999999963E+04  0.15000000000E+04  0.10566000000E+00 0.  1.
        994   -1    0    0    0    0 -0.00000000000E+00 -0.00000000000E+00  0.11368683772E-12  0.17120000000E+03  0.17120000000E+03 0.  0.
         13    1    1    2    0    0  0.14760227542E+01  0.14575193024E+02  0.65873374030E+02  0.67482793844E+02  0.10566000000E+00 0.  1.
        994    1    1    2    0    0 -0.99430361728E+01 -0.14171023549E+02  0.25615156288E+01  0.17209207779E+03  0.17120000000E+03 0.  0.
        998    1    1    2    0    0  0.84670134187E+01 -0.40416947523E+00  0.14315651066E+04  0.14316251284E+04  0.10000000000E+02 0.  1.
</event>
<event>
 5    1  0.9123258E-009  0.3781617E+03  0.7957747E-01  0.3459202E+00
         13   -1    0    0    0    0  0.00000000000E+00  0.00000000000E+00  0.14999999963E+04  0.15000000000E+04  0.10566000000E+00 0. -1.
        994   -1    0    0    0    0 -0.00000000000E+00 -0.00000000000E+00  0.11368683772E-12  0.17120000000E+03  0.17120000000E+03 0.  0.
         13    1    1    2    0    0  0.57948770774E+00  0.14771275598E+02  0.73883782671E-01  0.14783200318E+02  0.10566000000E+00 0. -1.
        994    1    1    2    0    0 -0.65784164524E+00 -0.17069309984E+02  0.16372110052E+02  0.17282731291E+03  0.17120000000E+03 0.  0.
        998    1    1    2    0    0  0.78353937506E-01  0.22980343855E+01  0.14835540024E+04  0.14835894868E+04  0.10000000000E+02 0. -1.
</event>
<event>
 5    1  0.9123258E-009  0.3708380E+03  0.7957747E-01  0.3492048E+00
         13   -1    0    0    0    0  0.00000000000E+00  0.00000000000E+00  0.14999999963E+04  0.15000000000E+04  0.10566000000E+00 0. -1.
        994   -1    0    0    0    0 -0.00000000000E+00 -0.00000000000E+00  0.11368683772E-12  0.17120000000E+03  0.17120000000E+03 0.  0.
         13    1    1    2    0    0 -0.10173446212E+02 -0.40835149506E+02  0.10520900243E+03  0.11331351993E+03  0.10566000000E+00 0. -1.
        994    1    1    2    0    0  0.34855926284E+01  0.50943417740E+01  0.89630751979E+01  0.17154555777E+03  0.17120000000E+03 0.  0.
        998    1    1    2    0    0  0.66878535839E+01  0.35740807732E+02  0.13858279186E+04  0.13863409223E+04  0.10000000000E+02 0. -1.
</event>
<event>
 5    1  0.9123258E-009  0.3837972E+03  0.7957747E-01  0.3434789E+00
         13   -1    0    0    0    0  0.00000000000E+00  0.00000000000E+00  0.14999999963E+04  0.15000000000E+04  0.10566000000E+00 0.  1.
        994   -1    0    0    0    0 -0.00000000000E+00 -0.00000000000E+00  0.11368683772E-12  0.17120000000E+03  0.17120000000E+03 0.  0.
         13    1    1    2    0    0 -0.62612516048E+01 -0.10155753273E+02  0.34226279114E+02  0.36246267977E+02  0.10566000000E+00 0.  1.
        994    1    1    2    0    0  0.45892590787E+01 -0.18653394641E+02  0.34477240811E+01  0.17230884258E+03  0.17120000000E+03 0.  0.
        998    1    1    2    0    0  0.16719925260E+01  0.28809147914E+02  0.14623259931E+04  0.14626448894E+04  0.10000000000E+02 0.  1.
</event>
<event>
 5    1  0.9123258E-009  0.3739691E+03  0.7957747E-01  0.3477846E+00
         13   -1    0    0    0    0  0.00000000000E+00  0.00000000000E+00  0.14999999963E+04  0.15000000000E+04  0.10566000000E+00 0. -1.
        994   -1    0    0    0    0 -0.00000000000E+00 -0.00000000000E+00  0.11368683772E-12  0.17120000000E+03  0.17120000000E+03 0.  0.
         13    1    1    2    0    0 -0.40655447109E+02 -0.18335214918E+02  0.13340277186E+03  0.14066042865E+03  0.10566000000E+00 0. -1.
        994    1    1    2    0    0  0.23132876549E+02  0.21875481341E+02  0.10674544103E+02  0.17446218087E+03  0.17120000000E+03 0.  0.
        998    1    1    2    0    0  0.17522570560E+02 -0.35402664222E+01  0.13559226803E+04  0.13560773905E+04  0.10000000000E+02 0. -1.
</event>
<event>
 5    1  0.9123258E-009  0.3809236E+03  0.7957747E-01  0.3447147E+00
         13   -1    0    0    0    0  0.00000000000E+00  0.00000000000E+00  0.14999999963E+04  0.15000000000E+04  0.10566000000E+00 0. -1.
        994   -1    0    0    0    0 -0.00000000000E+00 -0.00000000000E+00  0.11368683772E-12  0.17120000000E+03  0.17120000000E+03 0.  0.
         13    1    1    2    0    0  0.10152199182E+03 -0.72081959802E+02  0.33573130285E+03  0.35807547058E+03  0.10566000000E+00 0. -1.
        994    1    1    2    0    0 -0.95016640270E+02  0.87597350922E+02  0.80392607436E+02  0.22907175545E+03  0.17120000000E+03 0.  0.
        998    1    1    2    0    0 -0.65053515496E+01 -0.15515391120E+02  0.10838760860E+04  0.10840527740E+04  0.10000000000E+02 0. -1.
</event>
<event>
 5    1  0.9123258E-009  0.3781941E+03  0.7957747E-01  0.3459060E+00
         13   -1    0    0    0    0  0.00000000000E+00  0.00000000000E+00  0.14999999963E+04  0.15000000000E+04  0.10566000000E+00 0.  1.
        994   -1    0    0    0    0 -0.00000000000E+00 -0.00000000000E+00  0.11368683772E-12  0.17120000000E+03  0.17120000000E+03 0.  0.
         13    1    1    2    0    0  0.11417195355E+02 -0.74145747230E+01  0.16041725848E+02  0.21039876433E+02  0.10566000000E+00 0.  1.
        994    1    1    2    0    0 -0.11894837358E+02  0.56882507138E+01  0.56323755199E+01  0.17179932190E+03  0.17120000000E+03 0.  0.
        998    1    1    2    0    0  0.47764200329E+00  0.17263240091E+01  0.14783258949E+04  0.14783608017E+04  0.10000000000E+02 0.  1.
</event>
<event>
 5    1  0.9123258E-009  0.3695295E+03  0.7957747E-01  0.3498056E+00
         13   -1    0    0    0    0  0.00000000000E+00  0.00000000000E+00  0.14999999963E+04  0.15000000000E+04  0.10566000000E+00 0. -1.
        994   -1    0    0    0    0 -0.00000000000E+00 -0.00000000000E+00  0.11368683772E-12  0.17120000000E+03  0.17120000000E+03 0.  0.
         13    1    1    2    0    0  0.49530064936E+02  0.10220606588E+02  0.10461170740E+03  0.11619513166E+03  0.10566000000E+00 0. -1.
        994    1    1    2    0    0 -0.58980866751E+02 -0.10693354573E+02  0.23338261149E+02  0.18288577011E+03  0.17120000000E+03 0.  0.
        998    1    1    2    0    0  0.94508018147E+01  0.47274798469E+00  0.13720500277E+04  0.13721190982E+04  0.10000000000E+02 0. -1.
</event>
<event>
 5    1  0.9123258E-009  0.3854932E+03  0.7957747E-01  0.3427583E+00
         13   -1    0    0    0    0  0.00000000000E+00  0.00000000000E+00  0.14999999963E+04  0.15000000000E+04  0.10566000000E+00 0. -1.
        994   -1    0    0    0    0 -0.00000000000E+00 -0.00000000000E+00  0.11368683772E-12  0.17120000000E+03  0.17120000000E+03 0.  0.
         13    1    1    2    0    0  0.10147713123E+02 -0.16245832024E+01  0.37397219686E+02  0.38783740878E+02  0.10566000000E+00 0. -1.
        994    1    1    2    0    0 -0.10576919429E+02  0.38764235513E+01  0.18022214587E+01  0.17157967795E+03  0.17120000000E+03 0.  0.
        998    1    1    2    0    0  0.42920630672E+00 -0.22518403489E+01  0.14608005551E+04  0.14608365812E+04  0.10000000000E+02 0. -1.
</event>
<event>
 5    1  0.9123258E-009  0.3841773E+03  0.7957747E-01  0.3433169E+00
         13   -1    0    0    0    0  0.00000000000E+00  0.00000000000E+00  0.14999999963E+04  0.15000000000E+04  0.10566000000E+00 0. -1.
        994   -1    0    0    0    0 -0.00000000000E+00 -0.00000000000E+00  0.11368683772E-12  0.17120000000E+03  0.17120000000E+03 0.  0.
         13    1    1    2    0    0  0.77881744375E+01  0.15047285036E+02  0.69384081946E+02  0.71422954571E+02  0.10566000000E+00 0. -1.
        994    1    1    2    0    0 -0.38928821794E+01 -0.12160598347E+02  0.25769435174E+01  0.17169483196E+03  0.17120000000E+03 0.  0.
        998    1    1    2    0    0 -0.38952922581E+01 -0.28866866895E+01  0.14280389708E+04  0.14280822135E+04  0.10000000000E+02 0. -1.
</event>
<event>
 5    1  0.9123258E-009  0.3723906E+03  0.7957747E-01  0.3484976E+00
         13   -1    0    0    0    0  0.00000000000E+00  0.00000000000E+00  0.14999999963E+04  0.15000000000E+04  0.10566000000E+00 0.  1.
        994   -1    0    0    0    0 -0.00000000000E+00 -0.00000000000E+00  0.11368683772E-12  0.17120000000E+03  0.17120000000E+03 0.  0.
         13    1    1    2    0    0 -0.18213531662E+02  0.27678389751E+01  0.17539171493E+02  0.25436732669E+02  0.10566000000E+00 0.  1.
        994    1    1    2    0    0  0.14386652732E+02 -0.14316360616E+02  0.94388141760E+01  0.17265707391E+03  0.17120000000E+03 0.  0.
        998    1    1    2    0    0  0.38268789301E+01  0.11548521641E+02  0.14730220106E+04  0.14731061934E+04  0.10000000000E+02 0.  1.
</event>
<event>
 5    1  0.9123258E-009  0.3842831E+03  0.7957747E-01  0.3432718E+00
         13   -1    0    0    0    0  0.00000000000E+00  0.00000000000E+00  0.14999999963E+04  0.15000000000E+04  0.10566000000E+00 0.  1.
        994   -1    0    0    0    0 -0.00000000000E+00 -0.00000000000E+00  0.11368683772E-12  0.17120000000E+03  0.17120000000E+03 0.  0.
         13    1    1    2    0    0 -0.15026948551E+02  0.79471037448E+00  0.57522511876E+02  0.59458315515E+02  0.10566000000E+00 0.  1.
        994    1    1    2    0    0  0.70205008174E+01 -0.26029723921E+01  0.21713144892E+01  0.17137741247E+03  0.17120000000E+03 0.  0.
        998    1    1    2    0    0  0.80064477341E+01  0.18082620176E+01  0.14403061699E+04  0.14403642720E+04  0.10000000000E+02 0.  1.
</event>
<event>
 5    1  0.9123258E-009  0.3785942E+03  0.7957747E-01  0.3457303E+00
         13   -1    0    0    0    0  0.00000000000E+00  0.00000000000E+00  0.14999999963E+04  0.15000000000E+04  0.10566000000E+00 0. -1.
        994   -1    0    0    0    0 -0.00000000000E+00 -0.00000000000E+00  0.11368683772E-12  0.17120000000E+03  0.17120000000E+03 0.  0.
         13    1    1    2    0    0  0.75647832095E+02 -0.38387096714E+01  0.35783018863E+03  0.36575919025E+03  0.10566000000E+00 0. -1.
        994    1    1    2    0    0 -0.98727562518E+02  0.61998452824E+01  0.38445703662E+02  0.20142760936E+03  0.17120000000E+03 0.  0.
        998    1    1    2    0    0  0.23079730424E+02 -0.23611356110E+01  0.11037241040E+04  0.11040132004E+04  0.10000000000E+02 0. -1.
</event>
<event>
 5    1  0.9123258E-009  0.3780011E+03  0.7957747E-01  0.3459909E+00
         13   -1    0    0    0    0  0.00000000000E+00  0.00000000000E+00  0.14999999963E+04  0.15000000000E+04  0.10566000000E+00 0. -1.
        994   -1    0    0    0    0 -0.00000000000E+00 -0.00000000000E+00  0.11368683772E-12  0.17120000000E+03  0.17120000000E+03 0.  0.
         13    1    1    2    0    0  0.21304847937E+01  0.37692015830E+02  0.14032011210E+03  0.14530991723E+03  0.10566000000E+00 0. -1.
        994    1    1    2    0    0  0.12873364903E+02 -0.18591831251E+02  0.68683696593E+01  0.17282359276E+03  0.17120000000E+03 0.  0.
        998    1    1    2    0    0 -0.15003849696E+02 -0.19100184579E+02  0.13528115145E+04  0.13530664900E+04  0.10000000000E+02 0. -1.
</event>
<event>
 5    1  0.9123258E-009  0.3738605E+03  0.7957747E-01  0.3478335E+00
         13   -1    0    0    0    0  0.00000000000E+00  0.00000000000E+00  0.14999999963E+04  0.15000000000E+04  0.10566000000E+00 0. -1.
        994   -1    0    0    0    0 -0.00000000000E+00 -0.00000000000E+00  0.11368683772E-12  0.17120000000E+03  0.17120000000E+03 0.  0.
         13    1    1    2    0    0 -0.18718784182E+02 -0.62603336144E+02  0.24240351535E+03  0.25105586230E+03  0.10566000000E+00 0. -1.
        994    1    1    2    0    0  0.16960642214E+02  0.64810745863E+02  0.22737924727E+02  0.18524186726E+03  0.17120000000E+03 0.  0.
        998    1    1    2    0    0  0.17581419675E+01 -0.22074097189E+01  0.12348585562E+04  0.12349022704E+04  0.10000000000E+02 0. -1.
</event>
<event>
 5    1  0.9123258E-009  0.3833848E+03  0.7957747E-01  0.3436552E+00
         13   -1    0    0    0    0  0.00000000000E+00  0.00000000000E+00  0.14999999963E+04  0.15000000000E+04  0.10566000000E+00 0. -1.
        994   -1    0    0    0    0 -0.00000000000E+00 -0.00000000000E+00  0.11368683772E-12  0.17120000000E+03  0.17120000000E+03 0.  0.
         13    1    1    2    0    0 -0.66987226096E+01  0.77201449694E+01  0.20207076822E+02  0.22645322710E+02  0.10566000000E+00 0. -1.
        994    1    1    2    0    0  0.10316647387E+02 -0.83658739381E+01  0.30176612482E+01  0.17174098911E+03  0.17120000000E+03 0.  0.
        998    1    1    2    0    0 -0.36179247773E+01  0.64572896869E+00  0.14767752582E+04  0.14768136882E+04  0.10000000000E+02 0. -1.
</event>
<event>
 5    1  0.9123258E-009  0.3812328E+03  0.7957747E-01  0.3445808E+00
         13   -1    0    0    0    0  0.00000000000E+00  0.00000000000E+00  0.14999999963E+04  0.15000000000E+04  0.10566000000E+00 0. -1.
        994   -1    0    0    0    0 -0.00000000000E+00 -0.00000000000E+00  0.11368683772E-12  0.17120000000E+03  0.17120000000E+03 0.  0.
         13    1    1    2    0    0  0.89945591113E+01 -0.28933646367E+02  0.10852504226E+03  0.11267543631E+03  0.10566000000E+00 0. -1.
        994    1    1    2    0    0 -0.40167381018E+02  0.40210284034E+02  0.14342613229E+02  0.18095700040E+03  0.17120000000E+03 0.  0.
        998    1    1    2    0    0  0.31172821907E+02 -0.11276637667E+02  0.13771323408E+04  0.13775675633E+04  0.10000000000E+02 0. -1.
</event>
<event>
 5    1  0.9123258E-009  0.2483767E+03  0.7957747E-01  0.4351124E+00
         13   -1    0    0    0    0  0.00000000000E+00  0.00000000000E+00  0.14999999963E+04  0.15000000000E+04  0.10566000000E+00 0. -1.
        994   -1    0    0    0    0 -0.00000000000E+00 -0.00000000000E+00  0.11368683772E-12  0.17120000000E+03  0.17120000000E+03 0.  0.
         13    1    1    2    0    0  0.44617536881E+02 -0.16176634645E+03  0.38872347604E+03  0.42339700923E+03  0.10566000000E+00 0. -1.
        994    1    1    2    0    0 -0.37409355658E+02  0.96811077660E+02  0.81903152287E+02  0.21630860132E+03  0.17120000000E+03 0.  0.
        998    1    1    2    0    0 -0.72081812224E+01  0.64955268785E+02  0.10293733680E+04  0.10314943895E+04  0.10000000000E+02 0. -1.
</event>
<event>
 5    1  0.9123258E-009  0.3817786E+03  0.7957747E-01  0.3443451E+00
         13   -1    0    0    0    0  0.00000000000E+00  0.00000000000E+00  0.14999999963E+04  0.15000000000E+04  0.10566000000E+00 0. -1.
        994   -1    0    0    0    0 -0.00000000000E+00 -0.00000000000E+00  0.11368683772E-12  0.17120000000E+03  0.17120000000E+03 0.  0.
         13    1    1    2    0    0  0.32505671316E+02  0.13172626018E+02  0.21041126452E+03  0.21331443491E+03  0.10566000000E+00 0. -1.
        994    1    1    2    0    0 -0.12688690659E+02  0.93490494191E+01  0.40640157807E+01  0.17197198557E+03  0.17120000000E+03 0.  0.
        998    1    1    2    0    0 -0.19816980657E+02 -0.22521675437E+02  0.12855247160E+04  0.12859135795E+04  0.10000000000E+02 0. -1.
</event>
<event>
 5    1  0.9123258E-009  0.3771345E+03  0.7957747E-01  0.3463731E+00
         13   -1    0    0    0    0  0.00000000000E+00  0.00000000000E+00  0.14999999963E+04  0.15000000000E+04  0.10566000000E+00 0.  1.
        994   -1    0    0    0    0 -0.00000000000E+00 -0.00000000000E+00  0.11368683772E-12  0.17120000000E+03  0.17120000000E+03 0.  0.
         13    1    1    2    0    0 -0.18385298258E+02 -0.43442828322E+02  0.67521858646E+02  0.82368143622E+02  0.10566000000E+00 0.  1.
        994    1    1    2    0    0  0.12312956599E+02  0.43914351151E+02  0.22258488953E+02  0.17856360062E+03  0.17120000000E+03 0.  0.
        998    1    1    2    0    0  0.60723416597E+01 -0.47152282856E+00  0.14102196487E+04  0.14102682558E+04  0.10000000000E+02 0.  1.
</event>
<event>
 5    1  0.9123258E-009  0.3687629E+03  0.7957747E-01  0.3501596E+00
         13   -1    0    0    0    0  0.00000000000E+00  0.00000000000E+00  0.14999999963E+04  0.15000000000E+04  0.10566000000E+00 0. -1.
        994   -1    0    0    0    0 -0.00000000000E+00 -0.00000000000E+00  0.11368683772E-12  0.17120000000E+03  0.17120000000E+03 0.  0.
         13    1    1    2    0    0  0.15420945574E+02  0.10083359521E+01  0.74393129782E+01  0.17151584341E+02  0.10566000000E+00 0. -1.
        994    1    1    2    0    0  0.14512773350E+02  0.70234639366E+01  0.11191509241E+02  0.17232132635E+03  0.17120000000E+03 0.  0.
        998    1    1    2    0    0 -0.29933718924E+02 -0.80317998887E+01  0.14813691741E+04  0.14817270893E+04  0.10000000000E+02 0. -1.
</event>
<event>
 5    1  0.9123258E-009  0.3850595E+03  0.7957747E-01  0.3429420E+00
         13   -1    0    0    0    0  0.00000000000E+00  0.00000000000E+00  0.14999999963E+04  0.15000000000E+04  0.10566000000E+00 0.  1.
        994   -1    0    0    0    0 -0.00000000000E+00 -0.00000000000E+00  0.11368683772E-12  0.17120000000E+03  0.17120000000E+03 0.  0.
         13    1    1    2    0    0 -0.11668045772E+02 -0.14041079967E+02  0.10745920295E+03  0.10899902147E+03  0.10566000000E+00 0.  1.
        994    1    1    2    0    0  0.52520431887E+01  0.59259095834E+01  0.18067875741E+01  0.17139254606E+03  0.17120000000E+03 0.  0.
        998    1    1    2    0    0  0.64160025833E+01  0.81151703838E+01  0.13907340058E+04  0.13908084325E+04  0.10000000000E+02 0.  1.
</event>
<event>
 5    1  0.9123258E-009  0.3815004E+03  0.7957747E-01  0.3444651E+00
         13   -1    0    0    0    0  0.00000000000E+00  0.00000000000E+00  0.14999999963E+04  0.15000000000E+04  0.10566000000E+00 0. -1.
        994   -1    0    0    0    0 -0.00000000000E+00 -0.00000000000E+00  0.11368683772E-12  0.17120000000E+03  0.17120000000E+03 0.  0.
         13    1    1    2    0    0 -0.23736925364E+01 -0.12711028451E+02  0.24935522470E+02  0.28089074485E+02  0.10566000000E+00 0. -1.
        994    1    1    2    0    0 -0.21889913089E+02 -0.75347816206E+01  0.51624798313E+01  0.17283527541E+03  0.17120000000E+03 0.  0.
        998    1    1    2    0    0  0.24263605625E+02  0.20245810072E+02  0.14699019940E+04  0.14702756501E+04  0.10000000000E+02 0. -1.
</event>
<event>
 5    1  0.9123258E-009  0.3849623E+03  0.7957747E-01  0.3429832E+00
         13   -1    0    0    0    0  0.00000000000E+00  0.00000000000E+00  0.14999999963E+04  0.15000000000E+04  0.10566000000E+00 0.  1.
        994   -1    0    0    0    0 -0.00000000000E+00 -0.00000000000E+00  0.11368683772E-12  0.17120000000E+03  0.17120000000E+03 0.  0.
         13    1    1    2    0    0 -0.38116698078E+01 -0.14230269629E+02  0.68157799515E+02  0.69731816263E+02  0.10566000000E+00 0.  1.
        994    1    1    2    0    0  0.40397476125E+01  0.33688744130E+01  0.17398630514E+01  0.17128962607E+03  0.17120000000E+03 0.  0.
        998    1    1    2    0    0 -0.22807780469E+00  0.10861395216E+02  0.14301023337E+04  0.14301785577E+04  0.10000000000E+02 0.  1.
</event>
<event>
 5    1  0.9123258E-009  0.3851104E+03  0.7957747E-01  0.3429204E+00
         13   -1    0    0    0    0  0.00000000000E+00  0.00000000000E+00  0.14999999963E+04  0.15000000000E+04  0.10566000000E+00 0. -1.
        994   -1    0    0    0    0 -0.00000000000E+00 -0.00000000000E+00  0.11368683772E-12  0.17120000000E+03  0.17120000000E+03 0.  0.
         13    1    1    2    0    0 -0.14778861665E+02 -0.48374095582E+01  0.73497206327E+02  0.75124335507E+02  0.10566000000E+00 0. -1.
        994    1    1    2    0    0  0.16045032919E+02  0.48546497310E+01  0.24997128362E+01  0.17203691252E+03  0.17120000000E+03 0.  0.
        998    1    1    2    0    0 -0.12661712538E+01 -0.17240172789E-01  0.14240030771E+04  0.14240387520E+04  0.10000000000E+02 0.  0.
</event>
<event>
 5    1  0.9123258E-009  0.3927227E+03  0.7957747E-01  0.3397566E+00
         13   -1    0    0    0    0  0.00000000000E+00  0.00000000000E+00  0.14999999963E+04  0.15000000000E+04  0.10566000000E+00 0.  1.
        994   -1    0    0    0    0 -0.00000000000E+00 -0.00000000000E+00  0.11368683772E-12  0.17120000000E+03  0.17120000000E+03 0.  0.
         13    1    1    2    0    0 -0.91875621333E+02  0.41404159785E+02  0.17688553516E+03  0.20357784250E+03  0.10566000000E+00 0.  1.
        994    1    1    2    0    0  0.99715512761E+02 -0.46180331702E+02  0.71049818054E+02  0.21548392786E+03  0.17120000000E+03 0.  0.
        998    1    1    2    0    0 -0.78398914282E+01  0.47761719165E+01  0.12520646431E+04  0.12521382296E+04  0.10000000000E+02 0.  1.
</event>
<event>
 5    1  0.9123258E-009  0.3813570E+03  0.7957747E-01  0.3445271E+00
         13   -1    0    0    0    0  0.00000000000E+00  0.00000000000E+00  0.14999999963E+04  0.15000000000E+04  0.10566000000E+00 0. -1.
        994   -1    0    0    0    0 -0.00000000000E+00 -0.00000000000E+00  0.11368683772E-12  0.17120000000E+03  0.17120000000E+03 0.  0.
         13    1    1    2    0    0 -0.16691154688E+02 -0.77677880015E+01  0.45619250387E+02  0.49194108846E+02  0.10566000000E+00 0. -1.
        994    1    1    2    0    0  0.21310565941E+02  0.12713047763E+02  0.55016526854E+01  0.17307648594E+03  0.17120000000E+03 0.  0.
        998    1    1    2    0    0 -0.46194112538E+01 -0.49452597613E+01  0.14488790932E+04  0.14489294052E+04  0.10000000000E+02 0. -1.
</event>
<event>
 5    1  0.9123258E-009  0.3827845E+03  0.7957747E-01  0.3439123E+00
         13   -1    0    0    0    0  0.00000000000E+00  0.00000000000E+00  0.14999999963E+04  0.15000000000E+04  0.10566000000E+00 0. -1.
        994   -1    0    0    0    0 -0.00000000000E+00 -0.00000000000E+00  0.11368683772E-12  0.17120000000E+03  0.17120000000E+03 0.  0.
         13    1    1    2    0    0 -0.15126046454E+02  0.16029213356E+02  0.90542758542E+02  0.93186561534E+02  0.10566000000E+00 0. -1.
        994    1    1    2    0    0  0.89207650446E+00 -0.11611175025E+02  0.31834688462E+01  0.17162514285E+03  0.17120000000E+03 0.  0.
        998    1    1    2    0    0  0.14233969949E+02 -0.44180383307E+01  0.14062737689E+04  0.14063882956E+04  0.10000000000E+02 0. -1.
</event>
<event>
 5    1  0.9123258E-009  0.3779977E+03  0.7957747E-01  0.3459924E+00
         13   -1    0    0    0    0  0.00000000000E+00  0.00000000000E+00  0.14999999963E+04  0.15000000000E+04  0.10566000000E+00 0. -1.
        994   -1    0    0    0    0 -0.00000000000E+00 -0.00000000000E+00  0.11368683772E-12  0.17120000000E+03  0.17120000000E+03 0.  0.
         13    1    1    2    0    0  0.17211728665E+02  0.11057784173E+02  0.37819870391E+02  0.42998511078E+02  0.10566000000E+00 0. -1.
        994    1    1    2    0    0 -0.19827577831E+02 -0.67982168375E+01  0.66272154223E+01  0.17260564469E+03  0.17120000000E+03 0.  0.
        998    1    1    2    0    0  0.26158491655E+01 -0.42595673360E+01  0.14555529105E+04  0.14555958442E+04  0.10000000000E+02 0. -1.
</event>
<event>
 5    1  0.9123258E-009  0.3785086E+03  0.7957747E-01  0.3457678E+00
         13   -1    0    0    0    0  0.00000000000E+00  0.00000000000E+00  0.14999999963E+04  0.15000000000E+04  0.10566000000E+00 0. -1.
        994   -1    0    0    0    0 -0.00000000000E+00 -0.00000000000E+00  0.11368683772E-12  0.17120000000E+03  0.17120000000E+03 0.  0.
         13    1    1    2    0    0 -0.13673529972E+03 -0.13852255997E+03  0.81042609820E+03  0.83347196331E+03  0.10566000000E+00 0. -1.
        994    1    1    2    0    0  0.14610433035E+03  0.16601927953E+03  0.19207234336E+03  0.33927879628E+03  0.17120000000E+03 0.  0.
        998    1    1    2    0    0 -0.93690306282E+01 -0.27496719556E+02  0.49750155471E+03  0.49844924041E+03  0.10000000000E+02 0. -1.
</event>
<event>
 5    1  0.9123258E-009  0.3788127E+03  0.7957747E-01  0.3456345E+00
         13   -1    0    0    0    0  0.00000000000E+00  0.00000000000E+00  0.14999999963E+04  0.15000000000E+04  0.10566000000E+00 0.  1.
        994   -1    0    0    0    0 -0.00000000000E+00 -0.00000000000E+00  0.11368683772E-12  0.17120000000E+03  0.17120000000E+03 0.  0.
         13    1    1    2    0    0  0.48183064237E+02  0.27432347558E+02  0.25355036808E+03  0.25954179180E+03  0.10566000000E+00 0.  1.
        994    1    1    2    0    0 -0.48511392252E+02 -0.43251038836E+02  0.19043018715E+02  0.18410889196E+03  0.17120000000E+03 0.  0.
        998    1    1    2    0    0  0.32832801532E+00  0.15818691277E+02  0.12274066095E+04  0.12275493162E+04  0.10000000000E+02 0.  1.
</event>
<event>
 5    1  0.9123258E-009  0.3712193E+03  0.7957747E-01  0.3490306E+00
         13   -1    0    0    0    0  0.00000000000E+00  0.00000000000E+00  0.14999999963E+04  0.15000000000E+04  0.10566000000E+00 0. -1.
        994   -1    0    0    0    0 -0.00000000000E+00 -0.00000000000E+00  0.11368683772E-12  0.17120000000E+03  0.17120000000E+03 0.  0.
         13    1    1    2    0    0 -0.81889372281E+01  0.63700524040E+02  0.17668428615E+03  0.18799511587E+03  0.10566000000E+00 0. -1.
        994    1    1    2    0    0 -0.24867262739E+01 -0.36484889151E+02  0.16294906306E+02  0.17581892650E+03  0.17120000000E+03 0.  0.
        998    1    1    2    0    0  0.10675663502E+02 -0.27215634889E+02  0.13070208038E+04  0.13073859576E+04  0.10000000000E+02 0. -1.
</event>
<event>
 5    1  0.9123258E-009  0.3831078E+03  0.7957747E-01  0.3437737E+00
         13   -1    0    0    0    0  0.00000000000E+00  0.00000000000E+00  0.14999999963E+04  0.15000000000E+04  0.10566000000E+00 0. -1.
        994   -1    0    0    0    0 -0.00000000000E+00 -0.00000000000E+00  0.11368683772E-12  0.17120000000E+03  0.17120000000E+03 0.  0.
         13    1    1    2    0    0 -0.99839567377E+01  0.63886546106E+01  0.30891062268E+02  0.33087205865E+02  0.10566000000E+00 0. -1.
        994    1    1    2    0    0 -0.33769763769E+02  0.96081959491E+01  0.66622068451E+01  0.17489007798E+03  0.17120000000E+03 0.  0.
        998    1    1    2    0    0  0.43753720507E+02 -0.15996850560E+02  0.14624467272E+04  0.14632227162E+04  0.10000000000E+02 0. -1.
</event>
<event>
 5    1  0.9123258E-009  0.3852140E+03  0.7957747E-01  0.3428765E+00
         13   -1    0    0    0    0  0.00000000000E+00  0.00000000000E+00  0.14999999963E+04  0.15000000000E+04  0.10566000000E+00 0.  1.
        994   -1    0    0    0    0 -0.00000000000E+00 -0.00000000000E+00  0.11368683772E-12  0.17120000000E+03  0.17120000000E+03 0.  0.
         13    1    1    2    0    0  0.98019170881E+01  0.14047056566E+02  0.98730849464E+02  0.10020573425E+03  0.10566000000E+00 0.  1.
        994    1    1    2    0    0 -0.28650128728E+01 -0.79361952025E+01  0.17579469448E+01  0.17141680743E+03  0.17120000000E+03 0.  0.
        998    1    1    2    0    0 -0.69369042154E+01 -0.61108613631E+01  0.13995111999E+04  0.13995774583E+04  0.10000000000E+02 0.  1.
</event>
<event>
 5    1  0.9123258E-009  0.3797170E+03  0.7957747E-01  0.3452392E+00
         13   -1    0    0    0    0  0.00000000000E+00  0.00000000000E+00  0.14999999963E+04  0.15000000000E+04  0.10566000000E+00 0. -1.
        994   -1    0    0    0    0 -0.00000000000E+00 -0.00000000000E+00  0.11368683772E-12  0.17120000000E+03  0.17120000000E+03 0.  0.
         13    1    1    2    0    0 -0.18537208803E+02  0.21658462477E+02  0.83262654265E+02  0.88007942064E+02  0.10566000000E+00 0. -1.
        994    1    1    2    0    0  0.32602865295E+02 -0.28482766890E+02  0.10572921007E+02  0.17690517656E+03  0.17120000000E+03 0.  0.
        998    1    1    2    0    0 -0.14065656492E+02  0.68243044136E+01  0.14061644210E+04  0.14062868814E+04  0.10000000000E+02 0. -1.
</event>
<event>
 5    1  0.9123258E-009  0.3813204E+03  0.7957747E-01  0.3445429E+00
         13   -1    0    0    0    0  0.00000000000E+00  0.00000000000E+00  0.14999999963E+04  0.15000000000E+04  0.10566000000E+00 0. -1.
        994   -1    0    0    0    0 -0.00000000000E+00 -0.00000000000E+00  0.11368683772E-12  0.17120000000E+03  0.17120000000E+03 0.  0.
         13    1    1    2    0    0  0.17601797928E+02 -0.12728859006E+02  0.67456274940E+02  0.70867533714E+02  0.10566000000E+00 0. -1.
        994    1    1    2    0    0  0.75452142563E+01  0.31519046508E+02  0.69720392334E+01  0.17438013041E+03  0.17120000000E+03 0.  0.
        998    1    1    2    0    0 -0.25147012184E+02 -0.18790187502E+02  0.14255716821E+04  0.14259523359E+04  0.10000000000E+02 0. -1.
</event>
<event>
 5    1  0.9123258E-009  0.3812800E+03  0.7957747E-01  0.3445604E+00
         13   -1    0    0    0    0  0.00000000000E+00  0.00000000000E+00  0.14999999963E+04  0.15000000000E+04  0.10566000000E+00 0. -1.
        994   -1    0    0    0    0 -0.00000000000E+00 -0.00000000000E+00  0.11368683772E-12  0.17120000000E+03  0.17120000000E+03 0.  0.
         13    1    1    2    0    0  0.58272206854E+01 -0.14494035860E+02  0.35160293794E+02  0.38474550032E+02  0.10566000000E+00 0. -1.
        994    1    1    2    0    0 -0.29232094191E+01 -0.32804704539E+01  0.35526708495E+01  0.17129322260E+03  0.17120000000E+03 0.  0.
        998    1    1    2    0    0 -0.29040112663E+01  0.17774506313E+02  0.14612870316E+04  0.14614322274E+04  0.10000000000E+02 0. -1.
</event>
<event>
 5    1  0.9123258E-009  0.3728881E+03  0.7957747E-01  0.3482722E+00
         13   -1    0    0    0    0  0.00000000000E+00  0.00000000000E+00  0.14999999963E+04  0.15000000000E+04  0.10566000000E+00 0.  1.
        994   -1    0    0    0    0 -0.00000000000E+00 -0.00000000000E+00  0.11368683772E-12  0.17120000000E+03  0.17120000000E+03 0.  0.
         13    1    1    2    0    0 -0.10157778740E+03 -0.11171522226E+03  0.51207300793E+03  0.53386994146E+03  0.10566000000E+00 0.  1.
        994    1    1    2    0    0  0.11017658990E+03  0.11565334934E+03  0.10896165822E+03  0.25825696726E+03  0.17120000000E+03 0.  0.
        998    1    1    2    0    0 -0.85988025064E+01 -0.39381270718E+01  0.87896533013E+03  0.87907309128E+03  0.10000000000E+02 0.  1.
</event>
<event>
 5    1  0.9123258E-009  0.3711802E+03  0.7957747E-01  0.3490484E+00
         13   -1    0    0    0    0  0.00000000000E+00  0.00000000000E+00  0.14999999963E+04  0.15000000000E+04  0.10566000000E+00 0. -1.
        994   -1    0    0    0    0 -0.00000000000E+00 -0.00000000000E+00  0.11368683772E-12  0.17120000000E+03  0.17120000000E+03 0.  0.
         13    1    1    2    0    0 -0.29447378800E+02 -0.15247349790E+02  0.42234744027E+02  0.53697435329E+02  0.10566000000E+00 0. -1.
        994    1    1    2    0    0  0.25110222069E+02  0.16945556874E+02  0.14792484253E+02  0.17448762919E+03  0.17120000000E+03 0.  0.
        998    1    1    2    0    0  0.43371567312E+01 -0.16982070838E+01  0.14429727680E+04  0.14430149355E+04  0.10000000000E+02 0. -1.
</event>
<event>
 5    1  0.9123258E-009  0.3813008E+03  0.7957747E-01  0.3445514E+00
         13   -1    0    0    0    0  0.00000000000E+00  0.00000000000E+00  0.14999999963E+04  0.15000000000E+04  0.10566000000E+00 0.  1.
        994   -1    0    0    0    0 -0.00000000000E+00 -0.00000000000E+00  0.11368683772E-12  0.17120000000E+03  0.17120000000E+03 0.  0.
         13    1    1    2    0    0  0.10702849667E+02  0.13085806725E+02  0.39570272683E+02  0.43030302960E+02  0.10566000000E+00 0.  1.
        994    1    1    2    0    0 -0.94826454681E+01 -0.89644983901E+01  0.40449411020E+01  0.17174424108E+03  0.17120000000E+03 0.  0.
        998    1    1    2    0    0 -0.12202041986E+01 -0.41213083347E+01  0.14563847825E+04  0.14564254560E+04  0.10000000000E+02 0.  1.
</event>
<event>
 5    1  0.9123258E-009  0.3809238E+03  0.7957747E-01  0.3447146E+00
         13   -1    0    0    0    0  0.00000000000E+00  0.00000000000E+00  0.14999999963E+04  0.15000000000E+04  0.10566000000E+00 0. -1.
        994   -1    0    0    0    0 -0.00000000000E+00 -0.00000000000E+00  0.11368683772E-12  0.17120000000E+03  0.17120000000E+03 0.  0.
         13    1    1    2    0    0 -0.85331333291E+01  0.65035917861E+01  0.14251653701E+02  0.17839054565E+02  0.10566000000E+00 0. -1.
        994    1    1    2    0    0  0.51696882152E+01 -0.41155238632E+00  0.37572079285E+01  0.17131973518E+03  0.17120000000E+03 0.  0.
        998    1    1    2    0    0  0.33634451139E+01 -0.60920393997E+01  0.14819911346E+04  0.14820412103E+04  0.10000000000E+02 0. -1.
</event>
<event>
 5    1  0.9123258E-009  0.3839902E+03  0.7957747E-01  0.3433966E+00
         13   -1    0    0    0    0  0.00000000000E+00  0.00000000000E+00  0.14999999963E+04  0.15000000000E+04  0.10566000000E+00 0.  1.
        994   -1    0    0    0    0 -0.00000000000E+00 -0.00000000000E+00  0.11368683772E-12  0.17120000000E+03  0.17120000000E+03 0.  0.
         13    1    1    2    0    0  0.22803628602E+02 -0.38473162940E+01  0.12882966029E+03  0.13088888362E+03  0.10566000000E+00 0.  1.
        994    1    1    2    0    0 -0.90279024379E+01  0.93477719652E+01  0.26897364972E+01  0.17171359453E+03  0.17120000000E+03 0.  0.
        998    1    1    2    0    0 -0.13775726164E+02 -0.55004556712E+01  0.13684805995E+04  0.13685975219E+04  0.10000000000E+02 0.  1.
</event>
<event>
 5    1  0.9123258E-009  0.4073515E+03  0.7957747E-01  0.3340077E+00
         13   -1    0    0    0    0  0.00000000000E+00  0.00000000000E+00  0.14999999963E+04  0.15000000000E+04  0.10566000000E+00 0.  1.
        994   -1    0    0    0    0 -0.00000000000E+00 -0.00000000000E+00  0.11368683772E-12  0.17120000000E+03  0.17120000000E+03 0.  0.
         13    1    1    2    0    0  0.83088017397E+01  0.27177006955E+02 -0.94206371247E+00  0.28434565962E+02  0.10566000000E+00 0.  1.
        994    1    1    2    0    0 -0.23451264066E+01 -0.21463762245E+02  0.34133786459E+02  0.17589982401E+03  0.17120000000E+03 0.  0.
        998    1    1    2    0    0 -0.59636753331E+01 -0.57132447102E+01  0.14668082735E+04  0.14668656100E+04  0.10000000000E+02 0.  1.
</event>
<event>
 5    1  0.9123258E-009  0.3838314E+03  0.7957747E-01  0.3434644E+00
         13   -1    0    0    0    0  0.00000000000E+00  0.00000000000E+00  0.14999999963E+04  0.15000000000E+04  0.10566000000E+00 0. -1.
        994   -1    0    0    0    0 -0.00000000000E+00 -0.00000000000E+00  0.11368683772E-12  0.17120000000E+03  0.17120000000E+03 0.  0.
         13    1    1    2    0    0 -0.14976025796E+02  0.83374778703E+01  0.65791443495E+02  0.67987646577E+02  0.10566000000E+00 0. -1.
        994    1    1    2    0    0  0.94679428833E+01 -0.66942867833E+01  0.26554469142E+01  0.17161278162E+03  0.17120000000E+03 0.  0.
        998    1    1    2    0    0  0.55080829130E+01 -0.16431910870E+01  0.14315531059E+04  0.14315995718E+04  0.10000000000E+02 0. -1.
</event>
<event>
 5    1  0.9123258E-009  0.3713464E+03  0.7957747E-01  0.3489726E+00
         13   -1    0    0    0    0  0.00000000000E+00  0.00000000000E+00  0.14999999963E+04  0.15000000000E+04  0.10566000000E+00 0. -1.
        994   -1    0    0    0    0 -0.00000000000E+00 -0.00000000000E+00  0.11368683772E-12  0.17120000000E+03  0.17120000000E+03 0.  0.
         13    1    1    2    0    0 -0.20326824964E+02  0.66088501982E+02  0.19275840680E+03  0.20478448296E+03  0.10566000000E+00 0. -1.
        994    1    1    2    0    0  0.34384336299E+02 -0.42882032979E+02  0.22341136673E+02  0.18118972852E+03  0.17120000000E+03 0.  0.
        998    1    1    2    0    0 -0.14057511336E+02 -0.23206469003E+02  0.12849004528E+04  0.12852257885E+04  0.10000000000E+02 0. -1.
</event>
<event>
 5    1  0.9123258E-009  0.3810576E+03  0.7957747E-01  0.3446566E+00
         13   -1    0    0    0    0  0.00000000000E+00  0.00000000000E+00  0.14999999963E+04  0.15000000000E+04  0.10566000000E+00 0. -1.
        994   -1    0    0    0    0 -0.00000000000E+00 -0.00000000000E+00  0.11368683772E-12  0.17120000000E+03  0.17120000000E+03 0.  0.
         13    1    1    2    0    0 -0.23580222319E+02 -0.23869356346E+02  0.16554608161E+03  0.16891207582E+03  0.10566000000E+00 0. -1.
        994    1    1    2    0    0  0.12063333107E+02  0.31105626072E+01  0.41174112459E+01  0.17170204623E+03  0.17120000000E+03 0.  0.
        998    1    1    2    0    0  0.11516889212E+02  0.20758793739E+02  0.13303365034E+04  0.13305858779E+04  0.10000000000E+02 0. -1.
</event>
<event>
 5    1  0.9123258E-009  0.3830120E+03  0.7957747E-01  0.3438147E+00
         13   -1    0    0    0    0  0.00000000000E+00  0.00000000000E+00  0.14999999963E+04  0.15000000000E+04  0.10566000000E+00 0.  1.
        994   -1    0    0    0    0 -0.00000000000E+00 -0.00000000000E+00  0.11368683772E-12  0.17120000000E+03  0.17120000000E+03 0.  0.
         13    1    1    2    0    0  0.12215695349E+02  0.16003379992E+01  0.29042351964E+02  0.31547641214E+02  0.10566000000E+00 0.  1.
        994    1    1    2    0    0  0.22368654331E+00  0.67369841558E+01  0.27707591409E+01  0.17135505273E+03  0.17120000000E+03 0.  0.
        998    1    1    2    0    0 -0.12439381892E+02 -0.83373221551E+01  0.14681868852E+04  0.14682973061E+04  0.10000000000E+02 0.  1.
</event>
<event>
 5    1  0.9123258E-009  0.3786336E+03  0.7957747E-01  0.3457130E+00
         13   -1    0    0    0    0  0.00000000000E+00  0.00000000000E+00  0.14999999963E+04  0.15000000000E+04  0.10566000000E+00 0. -1.
        994   -1    0    0    0    0 -0.00000000000E+00 -0.00000000000E+00  0.11368683772E-12  0.17120000000E+03  0.17120000000E+03 0.  0.
         13    1    1    2    0    0  0.12967197124E+02  0.60579933850E+01 -0.67130730925E+00  0.14328618309E+02  0.10566000000E+00 0. -1.
        994    1    1    2    0    0 -0.19332489230E+02 -0.11212425281E+02  0.17381517458E+02  0.17352527415E+03  0.17120000000E+03 0.  0.
        998    1    1    2    0    0  0.63652921059E+01  0.51544318956E+01  0.14832897861E+04  0.14833461075E+04  0.10000000000E+02 0. -1.
</event>
<event>
 5    1  0.9123258E-009  0.3848079E+03  0.7957747E-01  0.3430488E+00
         13   -1    0    0    0    0  0.00000000000E+00  0.00000000000E+00  0.14999999963E+04  0.15000000000E+04  0.10566000000E+00 0.  1.
        994   -1    0    0    0    0 -0.00000000000E+00 -0.00000000000E+00  0.11368683772E-12  0.17120000000E+03  0.17120000000E+03 0.  0.
         13    1    1    2    0    0  0.17523273382E+02  0.60675378709E+01  0.11031716654E+03  0.11186495664E+03  0.10566000000E+00 0.  1.
        994    1    1    2    0    0 -0.11024945364E+01  0.51379180379E+01  0.18164397073E+01  0.17129025994E+03  0.17120000000E+03 0.  0.
        998    1    1    2    0    0 -0.16420778846E+02 -0.11205455909E+02  0.13878663900E+04  0.13880447834E+04  0.10000000000E+02 0.  1.
</event>
<event>
 5    1  0.9123258E-009  0.3809741E+03  0.7957747E-01  0.3446928E+00
         13   -1    0    0    0    0  0.00000000000E+00  0.00000000000E+00  0.14999999963E+04  0.15000000000E+04  0.10566000000E+00 0. -1.
        994   -1    0    0    0    0 -0.00000000000E+00 -0.00000000000E+00  0.11368683772E-12  0.17120000000E+03  0.17120000000E+03 0.  0.
         13    1    1    2    0    0 -0.14924065686E+02 -0.19239169079E+02  0.80403695093E+02  0.84009753672E+02  0.10566000000E+00 0. -1.
        994    1    1    2    0    0  0.54556300780E+01  0.14163852626E+02  0.44102518092E+01  0.17192809236E+03  0.17120000000E+03 0.  0.
        998    1    1    2    0    0  0.94684356076E+01  0.50753164528E+01  0.14151860494E+04  0.14152621540E+04  0.10000000000E+02 0. -1.
</event>
<event>
 5    1  0.9123258E-009  0.3831591E+03  0.7957747E-01  0.3437518E+00
         13   -1    0    0    0    0  0.00000000000E+00  0.00000000000E+00  0.14999999963E+04  0.15000000000E+04  0.10566000000E+00 0. -1.
        994   -1    0    0    0    0 -0.00000000000E+00 -0.00000000000E+00  0.11368683772E-12  0.17120000000E+03  0.17120000000E+03 0.  0.
         13    1    1    2    0    0  0.14966565025E+02  0.55522099011E+01  0.47782793575E+02  0.50378880787E+02  0.10566000000E+00 0. -1.
        994    1    1    2    0    0 -0.16814460892E+02 -0.48851371235E+01  0.35618739357E+01  0.17212994395E+03  0.17120000000E+03 0.  0.
        998    1    1    2    0    0  0.18478958670E+01 -0.66707277758E+00  0.14486553288E+04  0.14486911753E+04  0.10000000000E+02 0. -1.
</event>
<event>
 5    1  0.9123258E-009  0.3849060E+03  0.7957747E-01  0.3430071E+00
         13   -1    0    0    0    0  0.00000000000E+00  0.00000000000E+00  0.14999999963E+04  0.15000000000E+04  0.10566000000E+00 0. -1.
        994   -1    0    0    0    0 -0.00000000000E+00 -0.00000000000E+00  0.11368683772E-12  0.17120000000E+03  0.17120000000E+03 0.  0.
         13    1    1    2    0    0  0.10833760896E+02  0.75324174658E+01  0.55256592780E+02  0.56810297462E+02  0.10566000000E+00 0. -1.
        994    1    1    2    0    0  0.51930661897E+01 -0.37215602576E+01  0.18111280574E+01  0.17132874287E+03  0.17120000000E+03 0.  0.
        998    1    1    2    0    0 -0.16026827086E+02 -0.38108572082E+01  0.14429322754E+04  0.14430609597E+04  0.10000000000E+02 0. -1.
</event>
<event>
 5    1  0.9123258E-009  0.3793986E+03  0.7957747E-01  0.3453781E+00
         13   -1    0    0    0    0  0.00000000000E+00  0.00000000000E+00  0.14999999963E+04  0.15000000000E+04  0.10566000000E+00 0.  1.
        994   -1    0    0    0    0 -0.00000000000E+00 -0.00000000000E+00  0.11368683772E-12  0.17120000000E+03  0.17120000000E+03 0.  0.
         13    1    1    2    0    0 -0.90929334322E+01 -0.15758313181E+02  0.32668223890E+02  0.37392912281E+02  0.10566000000E+00 0.  1.
        994    1    1    2    0    0  0.26713914227E+02  0.29988414249E+02  0.98587044985E+01  0.17612374132E+03  0.17120000000E+03 0.  0.
        998    1    1    2    0    0 -0.17620980795E+02 -0.14230101069E+02  0.14574730679E+04  0.14576833464E+04  0.10000000000E+02 0.  1.
</event>
<event>
 5    1  0.9123258E-009  0.3819586E+03  0.7957747E-01  0.3442674E+00
         13   -1    0    0    0    0  0.00000000000E+00  0.00000000000E+00  0.14999999963E+04  0.15000000000E+04  0.10566000000E+00 0. -1.
        994   -1    0    0    0    0 -0.00000000000E+00 -0.00000000000E+00  0.11368683772E-12  0.17120000000E+03  0.17120000000E+03 0.  0.
         13    1    1    2    0    0 -0.44977503265E+01 -0.15685547212E+02  0.41546297205E+02  0.44635995842E+02  0.10566000000E+00 0. -1.
        994    1    1    2    0    0  0.71717870741E+01  0.69530258536E+01  0.34791732799E+01  0.17152645203E+03  0.17120000000E+03 0.  0.
        998    1    1    2    0    0 -0.26740367475E+01  0.87325213580E+01  0.14549745258E+04  0.14550375521E+04  0.10000000000E+02 0. -1.
</event>
<event>
 5    1  0.9123258E-009  0.3818031E+03  0.7957747E-01  0.3443345E+00
         13   -1    0    0    0    0  0.00000000000E+00  0.00000000000E+00  0.14999999963E+04  0.15000000000E+04  0.10566000000E+00 0. -1.
        994   -1    0    0    0    0 -0.00000000000E+00 -0.00000000000E+00  0.11368683772E-12  0.17120000000E+03  0.17120000000E+03 0.  0.
         13    1    1    2    0    0 -0.30980778258E+02  0.19284621290E+01  0.14662242257E+03  0.14987219073E+03  0.10566000000E+00 0. -1.
        994    1    1    2    0    0  0.20221982009E+02  0.23689139076E+01  0.46045035447E+01  0.17246791517E+03  0.17120000000E+03 0.  0.
        998    1    1    2    0    0  0.10758796249E+02 -0.42973760366E+01  0.13487730702E+04  0.13488598941E+04  0.10000000000E+02 0. -1.
</event>
<event>
 5    1  0.9123258E-009  0.3851314E+03  0.7957747E-01  0.3429115E+00
         13   -1    0    0    0    0  0.00000000000E+00  0.00000000000E+00  0.14999999963E+04  0.15000000000E+04  0.10566000000E+00 0.  1.
        994   -1    0    0    0    0 -0.00000000000E+00 -0.00000000000E+00  0.11368683772E-12  0.17120000000E+03  0.17120000000E+03 0.  0.
         13    1    1    2    0    0  0.96336007798E+01  0.47810823540E+01  0.37038172027E+02  0.38568152193E+02  0.10566000000E+00 0.  1.
        994    1    1    2    0    0 -0.79017544936E+01  0.17526717569E+01  0.17802927214E+01  0.17140046390E+03  0.17120000000E+03 0.  0.
        998    1    1    2    0    0 -0.17318462862E+01 -0.65337541109E+01  0.14611815315E+04  0.14612313839E+04  0.10000000000E+02 0.  1.
</event>
<event>
 5    1  0.9123258E-009  0.3841826E+03  0.7957747E-01  0.3433146E+00
         13   -1    0    0    0    0  0.00000000000E+00  0.00000000000E+00  0.14999999963E+04  0.15000000000E+04  0.10566000000E+00 0.  1.
        994   -1    0    0    0    0 -0.00000000000E+00 -0.00000000000E+00  0.11368683772E-12  0.17120000000E+03  0.17120000000E+03 0.  0.
         13    1    1    2    0    0 -0.83790717995E+01  0.18091925902E+02  0.10602875398E+03  0.10788713761E+03  0.10566000000E+00 0.  1.
        994    1    1    2    0    0  0.68374148241E+01  0.21055431135E+01  0.22053116226E+01  0.17136361035E+03  0.17120000000E+03 0.  0.
        998    1    1    2    0    0  0.15416569753E+01 -0.20197469015E+02  0.13917659307E+04  0.13919492520E+04  0.10000000000E+02 0.  1.
</event>
<event>
 5    1  0.9123258E-009  0.3841378E+03  0.7957747E-01  0.3433337E+00
         13   -1    0    0    0    0  0.00000000000E+00  0.00000000000E+00  0.14999999963E+04  0.15000000000E+04  0.10566000000E+00 0. -1.
        994   -1    0    0    0    0 -0.00000000000E+00 -0.00000000000E+00  0.11368683772E-12  0.17120000000E+03  0.17120000000E+03 0.  0.
         13    1    1    2    0    0  0.17201005684E+01  0.14257427845E+02  0.51225899486E+02  0.53200911053E+02  0.10566000000E+00 0. -1.
        994    1    1    2    0    0  0.43362059545E+01 -0.40440700846E+01  0.21747533590E+01  0.17131645203E+03  0.17120000000E+03 0.  0.
        998    1    1    2    0    0 -0.60563065229E+01 -0.10213357760E+02  0.14465993434E+04  0.14466826369E+04  0.10000000000E+02 0. -1.
</event>
<event>
 5    1  0.9123258E-009  0.3780514E+03  0.7957747E-01  0.3459687E+00
         13   -1    0    0    0    0  0.00000000000E+00  0.00000000000E+00  0.14999999963E+04  0.15000000000E+04  0.10566000000E+00 0.  1.
        994   -1    0    0    0    0 -0.00000000000E+00 -0.00000000000E+00  0.11368683772E-12  0.17120000000E+03  0.17120000000E+03 0.  0.
         13    1    1    2    0    0 -0.19459753864E+02  0.26984582450E+02  0.10337118032E+03  0.10859310197E+03  0.10566000000E+00 0.  1.
        994    1    1    2    0    0  0.12695432602E+02 -0.22913145500E+02  0.74321930445E+01  0.17335184954E+03  0.17120000000E+03 0.  0.
        998    1    1    2    0    0  0.67643212620E+01 -0.40714369503E+01  0.13891966229E+04  0.13892550485E+04  0.10000000000E+02 0.  1.
</event>
<event>
 5    1  0.9123258E-009  0.3832174E+03  0.7957747E-01  0.3437268E+00
         13   -1    0    0    0    0  0.00000000000E+00  0.00000000000E+00  0.14999999963E+04  0.15000000000E+04  0.10566000000E+00 0. -1.
        994   -1    0    0    0    0 -0.00000000000E+00 -0.00000000000E+00  0.11368683772E-12  0.17120000000E+03  0.17120000000E+03 0.  0.
         13    1    1    2    0    0  0.11740216013E+02  0.60845199908E+01  0.34340393571E+02  0.36798476194E+02  0.10566000000E+00 0. -1.
        994    1    1    2    0    0 -0.85593907289E+01  0.37681662863E+01  0.28071219077E+01  0.17147822655E+03  0.17120000000E+03 0.  0.
        998    1    1    2    0    0 -0.31808252841E+01 -0.98526862771E+01  0.14628524808E+04  0.14629232973E+04  0.10000000000E+02 0. -1.
</event>
<event>
 5    1  0.9123258E-009  0.3797745E+03  0.7957747E-01  0.3452141E+00
         13   -1    0    0    0    0  0.00000000000E+00  0.00000000000E+00  0.14999999963E+04  0.15000000000E+04  0.10566000000E+00 0. -1.
        994   -1    0    0    0    0 -0.00000000000E+00 -0.00000000000E+00  0.11368683772E-12  0.17120000000E+03  0.17120000000E+03 0.  0.
         13    1    1    2    0    0  0.10508596478E+02  0.69971272828E+00  0.11182645014E+02  0.15361735299E+02  0.10566000000E+00 0. -1.
        994    1    1    2    0    0 -0.80024670009E+01  0.27273833904E+01  0.44861690021E+01  0.17146732578E+03  0.17120000000E+03 0.  0.
        998    1    1    2    0    0 -0.25061294775E+01 -0.34270961187E+01  0.14843311823E+04  0.14843709389E+04  0.10000000000E+02 0. -1.
</event>
<event>
 5    1  0.9123258E-009  0.3858138E+03  0.7957747E-01  0.3426228E+00
         13   -1    0    0    0    0  0.00000000000E+00  0.00000000000E+00  0.14999999963E+04  0.15000000000E+04  0.10566000000E+00 0. -1.
        994   -1    0    0    0    0 -0.00000000000E+00 -0.00000000000E+00  0.11368683772E-12  0.17120000000E+03  0.17120000000E+03 0.  0.
         13    1    1    2    0    0  0.89368787942E+01  0.15808002506E+02 -0.38218982232E+00  0.18163644428E+02  0.10566000000E+00 0. -1.
        994    1    1    2    0    0 -0.98715201506E+01 -0.16067914481E+02  0.20875968718E+02  0.17349602548E+03  0.17120000000E+03 0.  0.
        998    1    1    2    0    0  0.93464135639E+00  0.25991197487E+00  0.14795062174E+04  0.14795403301E+04  0.10000000000E+02 0. -1.
</event>
<event>
 5    1  0.9123258E-009  0.3803923E+03  0.7957747E-01  0.3449452E+00
         13   -1    0    0    0    0  0.00000000000E+00  0.00000000000E+00  0.14999999963E+04  0.15000000000E+04  0.10566000000E+00 0. -1.
        994   -1    0    0    0    0 -0.00000000000E+00 -0.00000000000E+00  0.11368683772E-12  0.17120000000E+03  0.17120000000E+03 0.  0.
         13    1    1    2    0    0 -0.33005415851E+02 -0.89846908090E-01  0.15312113350E+03  0.15663798465E+03  0.10566000000E+00 0. -1.
        994    1    1    2    0    0  0.31468583834E+01  0.16588480011E+02  0.48876066854E+01  0.17209999734E+03  0.17120000000E+03 0.  0.
        998    1    1    2    0    0  0.29858557467E+02 -0.16498633103E+02  0.13419912561E+04  0.13424620180E+04  0.10000000000E+02 0. -1.
</event>
<event>
 5    1  0.9123258E-009  0.3812918E+03  0.7957747E-01  0.3445553E+00
         13   -1    0    0    0    0  0.00000000000E+00  0.00000000000E+00  0.14999999963E+04  0.15000000000E+04  0.10566000000E+00 0. -1.
        994   -1    0    0    0    0 -0.00000000000E+00 -0.00000000000E+00  0.11368683772E-12  0.17120000000E+03  0.17120000000E+03 0.  0.
         13    1    1    2    0    0 -0.72947145889E+02 -0.11010439344E+02  0.40209911845E+03  0.40881074850E+03  0.10566000000E+00 0. -1.
        994    1    1    2    0    0  0.99922378375E+02  0.48099913379E+02  0.45564238862E+02  0.20900627558E+03  0.17120000000E+03 0.  0.
        998    1    1    2    0    0 -0.26975232486E+02 -0.37089474035E+02  0.10523366390E+04  0.10533829759E+04  0.10000000000E+02 0. -1.
</event>
<event>
 5    1  0.9123258E-009  0.3790382E+03  0.7957747E-01  0.3455357E+00
         13   -1    0    0    0    0  0.00000000000E+00  0.00000000000E+00  0.14999999963E+04  0.15000000000E+04  0.10566000000E+00 0. -1.
        994   -1    0    0    0    0 -0.00000000000E+00 -0.00000000000E+00  0.11368683772E-12  0.17120000000E+03  0.17120000000E+03 0.  0.
         13    1    1    2    0    0 -0.13641861508E+01  0.12267064754E+02  0.14660877390E+02  0.19164925552E+02  0.10566000000E+00 0. -1.
        994    1    1    2    0    0  0.10771681828E+02 -0.25917407440E+01  0.50312012195E+01  0.17163187127E+03  0.17120000000E+03 0.  0.
        998    1    1    2    0    0 -0.94074956768E+01 -0.96753240100E+01  0.14803079177E+04  0.14804032032E+04  0.10000000000E+02 0. -1.
</event>
<event>
 5    1  0.9123258E-009  0.3788519E+03  0.7957747E-01  0.3456173E+00
         13   -1    0    0    0    0  0.00000000000E+00  0.00000000000E+00  0.14999999963E+04  0.15000000000E+04  0.10566000000E+00 0.  1.
        994   -1    0    0    0    0 -0.00000000000E+00 -0.00000000000E+00  0.11368683772E-12  0.17120000000E+03  0.17120000000E+03 0.  0.
         13    1    1    2    0    0  0.21701354259E+02 -0.54306315340E+02  0.10722223266E+03  0.12213411892E+03  0.10566000000E+00 0.  1.
        994    1    1    2    0    0 -0.72271827069E+01  0.27662832246E+02  0.18653215103E+02  0.17457046397E+03  0.17120000000E+03 0.  0.
        998    1    1    2    0    0 -0.14474171552E+02  0.26643483094E+02  0.13741245485E+04  0.13744954171E+04  0.10000000000E+02 0.  1.
</event>
<event>
 5    1  0.9123258E-009  0.3840712E+03  0.7957747E-01  0.3433621E+00
         13   -1    0    0    0    0  0.00000000000E+00  0.00000000000E+00  0.14999999963E+04  0.15000000000E+04  0.10566000000E+00 0.  1.
        994   -1    0    0    0    0 -0.00000000000E+00 -0.00000000000E+00  0.11368683772E-12  0.17120000000E+03  0.17120000000E+03 0.  0.
         13    1    1    2    0    0 -0.13001136288E+02  0.24387823860E+02  0.15517876489E+03  0.15762060695E+03  0.10566000000E+00 0.  1.
        994    1    1    2    0    0  0.20990228592E+02 -0.28847870214E+02  0.63017236206E+01  0.17499125988E+03  0.17120000000E+03 0.  0.
        998    1    1    2    0    0 -0.79890923047E+01  0.44600463540E+01  0.13385195078E+04  0.13385881332E+04  0.10000000000E+02 0.  1.
</event>
<event>
 5    1  0.9123258E-009  0.3812260E+03  0.7957747E-01  0.3445838E+00
         13   -1    0    0    0    0  0.00000000000E+00  0.00000000000E+00  0.14999999963E+04  0.15000000000E+04  0.10566000000E+00 0. -1.
        994   -1    0    0    0    0 -0.00000000000E+00 -0.00000000000E+00  0.11368683772E-12  0.17120000000E+03  0.17120000000E+03 0.  0.
         13    1    1    2    0    0 -0.24835732050E+02  0.31371221891E+02  0.17645312618E+03  0.18093281640E+03  0.10566000000E+00 0. -1.
        994    1    1    2    0    0  0.62420795182E+02 -0.26710621122E+02  0.19018850902E+02  0.18515120751E+03  0.17120000000E+03 0.  0.
        998    1    1    2    0    0 -0.37585063132E+02 -0.46606007689E+01  0.13045280192E+04  0.13051159761E+04  0.10000000000E+02 0. -1.
</event>
<event>
 5    1  0.9123258E-009  0.3827063E+03  0.7957747E-01  0.3439458E+00
         13   -1    0    0    0    0  0.00000000000E+00  0.00000000000E+00  0.14999999963E+04  0.15000000000E+04  0.10566000000E+00 0.  1.
        994   -1    0    0    0    0 -0.00000000000E+00 -0.00000000000E+00  0.11368683772E-12  0.17120000000E+03  0.17120000000E+03 0.  0.
         13    1    1    2    0    0 -0.98507235812E+01 -0.18933807393E+02  0.82544382809E+02  0.85259088166E+02  0.10566000000E+00 0.  1.
        994    1    1    2    0    0  0.19941694937E+02  0.20259065882E+01  0.41055281142E+01  0.17241830197E+03  0.17120000000E+03 0.  0.
        998    1    1    2    0    0 -0.10090971356E+02  0.16907900805E+02  0.14133500854E+04  0.14135226099E+04  0.10000000000E+02 0.  1.
</event>
<event>
 5    1  0.9123258E-009  0.3819752E+03  0.7957747E-01  0.3442603E+00
         13   -1    0    0    0    0  0.00000000000E+00  0.00000000000E+00  0.14999999963E+04  0.15000000000E+04  0.10566000000E+00 0.  1.
        994   -1    0    0    0    0 -0.00000000000E+00 -0.00000000000E+00  0.11368683772E-12  0.17120000000E+03  0.17120000000E+03 0.  0.
         13    1    1    2    0    0 -0.39782665124E+02  0.13972125695E+02  0.22824179936E+03  0.23210387950E+03  0.10566000000E+00 0.  1.
        994    1    1    2    0    0  0.34526636731E+02 -0.60059925253E+02  0.19246228194E+02  0.18568559601E+03  0.17120000000E+03 0.  0.
        998    1    1    2    0    0  0.52560283938E+01  0.46087799558E+02  0.12525119687E+04  0.12534105245E+04  0.10000000000E+02 0.  1.
</event>
<event>
 5    1  0.9123258E-009  0.3799178E+03  0.7957747E-01  0.3451516E+00
         13   -1    0    0    0    0  0.00000000000E+00  0.00000000000E+00  0.14999999963E+04  0.15000000000E+04  0.10566000000E+00 0. -1.
        994   -1    0    0    0    0 -0.00000000000E+00 -0.00000000000E+00  0.11368683772E-12  0.17120000000E+03  0.17120000000E+03 0.  0.
         13    1    1    2    0    0 -0.38980996609E+02 -0.55729428592E+01  0.18256552162E+03  0.18676390614E+03  0.10566000000E+00 0. -1.
        994    1    1    2    0    0  0.23330598451E+02  0.79311405792E+01  0.62077191982E+01  0.17307569325E+03  0.17120000000E+03 0.  0.
        998    1    1    2    0    0  0.15650398159E+02 -0.23581977200E+01  0.13112267555E+04  0.13113604006E+04  0.10000000000E+02 0. -1.
</event>
<event>
 5    1  0.9123258E-009  0.3776778E+03  0.7957747E-01  0.3461333E+00
         13   -1    0    0    0    0  0.00000000000E+00  0.00000000000E+00  0.14999999963E+04  0.15000000000E+04  0.10566000000E+00 0. -1.
        994   -1    0    0    0    0 -0.00000000000E+00 -0.00000000000E+00  0.11368683772E-12  0.17120000000E+03  0.17120000000E+03 0.  0.
         13    1    1    2    0    0  0.33491563558E+02  0.47120381745E+01  0.29040653463E+02  0.44578681574E+02  0.10566000000E+00 0. -1.
        994    1    1    2    0    0 -0.62214643017E+02 -0.89031826353E+01  0.29389304361E+02  0.18472438842E+03  0.17120000000E+03 0.  0.
        998    1    1    2    0    0  0.28723079459E+02  0.41911444608E+01  0.14415700385E+04  0.14418969300E+04  0.10000000000E+02 0. -1.
</event>
<event>
 5    1  0.9123258E-009  0.3843169E+03  0.7957747E-01  0.3432574E+00
         13   -1    0    0    0    0  0.00000000000E+00  0.00000000000E+00  0.14999999963E+04  0.15000000000E+04  0.10566000000E+00 0.  1.
        994   -1    0    0    0    0 -0.00000000000E+00 -0.00000000000E+00  0.11368683772E-12  0.17120000000E+03  0.17120000000E+03 0.  0.
         13    1    1    2    0    0  0.30035899435E+02  0.24612054138E+02  0.32349951437E+02  0.50541458089E+02  0.10566000000E+00 0.  1.
        994    1    1    2    0    0 -0.29009808584E+02 -0.23524415194E+02  0.23872303913E+02  0.17684539575E+03  0.17120000000E+03 0.  0.
        998    1    1    2    0    0 -0.10260908508E+01 -0.10876389440E+01  0.14437777409E+04  0.14438131462E+04  0.10000000000E+02 0.  1.
</event>
<event>
 5    1  0.9123258E-009  0.2676612E+03  0.7957747E-01  0.4157882E+00
         13   -1    0    0    0    0  0.00000000000E+00  0.00000000000E+00  0.14999999963E+04  0.15000000000E+04  0.10566000000E+00 0. -1.
        994   -1    0    0    0    0 -0.00000000000E+00 -0.00000000000E+00  0.11368683772E-12  0.17120000000E+03  0.17120000000E+03 0.  0.
         13    1    1    2    0    0 -0.16052619330E+03  0.25275180070E+02  0.11023758657E+03  0.19636657078E+03  0.10566000000E+00 0. -1.
        994    1    1    2    0    0  0.23640752037E+03  0.56906710935E+02  0.52968986310E+03  0.60746002380E+03  0.17120000000E+03 0.  0.
        998    1    1    2    0    0 -0.75881327072E+02 -0.82181891005E+02  0.86007254660E+03  0.86737340542E+03  0.10000000000E+02 0. -1.
</event>
<event>
 5    1  0.9123258E-009  0.3793201E+03  0.7957747E-01  0.3454124E+00
         13   -1    0    0    0    0  0.00000000000E+00  0.00000000000E+00  0.14999999963E+04  0.15000000000E+04  0.10566000000E+00 0.  1.
        994   -1    0    0    0    0 -0.00000000000E+00 -0.00000000000E+00  0.11368683772E-12  0.17120000000E+03  0.17120000000E+03 0.  0.
         13    1    1    2    0    0 -0.25430836820E+02 -0.45609112493E+02  0.30427444510E+03  0.30872296272E+03  0.10566000000E+00 0.  1.
        994    1    1    2    0    0  0.14563060932E+02  0.25373677996E+02  0.73497128989E+01  0.17383717830E+03  0.17120000000E+03 0.  0.
        998    1    1    2    0    0  0.10867775888E+02  0.20235434497E+02  0.11883758383E+04  0.11886398590E+04  0.10000000000E+02 0.  1.
</event>
<event>
 5    1  0.9123258E-009  0.3796014E+03  0.7957747E-01  0.3452896E+00
         13   -1    0    0    0    0  0.00000000000E+00  0.00000000000E+00  0.14999999963E+04  0.15000000000E+04  0.10566000000E+00 0. -1.
        994   -1    0    0    0    0 -0.00000000000E+00 -0.00000000000E+00  0.11368683772E-12  0.17120000000E+03  0.17120000000E+03 0.  0.
         13    1    1    2    0    0  0.51268963404E+02  0.92270759217E+01  0.77118161298E+02  0.93063781917E+02  0.10566000000E+00 0. -1.
        994    1    1    2    0    0 -0.41566731561E+02 -0.74067421374E+01  0.22586287061E+02  0.17777017007E+03  0.17120000000E+03 0.  0.
        998    1    1    2    0    0 -0.97022318429E+01 -0.18203337844E+01  0.14002955479E+04  0.14003660480E+04  0.10000000000E+02 0. -1.
</event>
<event>
 5    1  0.9123258E-009  0.3801702E+03  0.7957747E-01  0.3450418E+00
         13   -1    0    0    0    0  0.00000000000E+00  0.00000000000E+00  0.14999999963E+04  0.15000000000E+04  0.10566000000E+00 0.  1.
        994   -1    0    0    0    0 -0.00000000000E+00 -0.00000000000E+00  0.11368683772E-12  0.17120000000E+03  0.17120000000E+03 0.  0.
         13    1    1    2    0    0 -0.74810381995E-01 -0.38419803937E+02  0.20266088776E+03  0.20627053479E+03  0.10566000000E+00 0.  1.
        994    1    1    2    0    0 -0.84038483694E+02  0.19054664112E+02  0.29268804887E+02  0.19388566194E+03  0.17120000000E+03 0.  0.
        998    1    1    2    0    0  0.84113294076E+02  0.19365139825E+02  0.12680703036E+04  0.12710438033E+04  0.10000000000E+02 0.  1.
</event>
<event>
 5    1  0.9123258E-009  0.3805198E+03  0.7957747E-01  0.3448898E+00
         13   -1    0    0    0    0  0.00000000000E+00  0.00000000000E+00  0.14999999963E+04  0.15000000000E+04  0.10566000000E+00 0. -1.
        994   -1    0    0    0    0 -0.00000000000E+00 -0.00000000000E+00  0.11368683772E-12  0.17120000000E+03  0.17120000000E+03 0.  0.
         13    1    1    2    0    0 -0.36377076184E+02 -0.16999745392E+01  0.19366999927E+03  0.19706410471E+03  0.10566000000E+00 0. -1.
        994    1    1    2    0    0  0.41912524187E+01 -0.14734084326E+01  0.39368650817E+01  0.17130287924E+03  0.17120000000E+03 0.  0.
        998    1    1    2    0    0  0.32185823766E+02  0.31733829719E+01  0.13023931319E+04  0.13028330160E+04  0.10000000000E+02 0. -1.
</event>
<event>
 5    1  0.9123258E-009  0.3826796E+03  0.7957747E-01  0.3439573E+00
         13   -1    0    0    0    0  0.00000000000E+00  0.00000000000E+00  0.14999999963E+04  0.15000000000E+04  0.10566000000E+00 0. -1.
        994   -1    0    0    0    0 -0.00000000000E+00 -0.00000000000E+00  0.11368683772E-12  0.17120000000E+03  0.17120000000E+03 0.  0.
         13    1    1    2    0    0 -0.14563332578E+02  0.18756719192E+02  0.96114368758E+02  0.99004485840E+02  0.10566000000E+00 0. -1.
        994    1    1    2    0    0  0.12751874908E+02 -0.17840028932E+02  0.43816366265E+01  0.17265432426E+03  0.17120000000E+03 0.  0.
        998    1    1    2    0    0  0.18114576699E+01 -0.91669025925E+00  0.13995039909E+04  0.13995411899E+04  0.10000000000E+02 0. -1.
</event>
<event>
 5    1  0.9123258E-009  0.3702217E+03  0.7957747E-01  0.3494873E+00
         13   -1    0    0    0    0  0.00000000000E+00  0.00000000000E+00  0.14999999963E+04  0.15000000000E+04  0.10566000000E+00 0.  1.
        994   -1    0    0    0    0 -0.00000000000E+00 -0.00000000000E+00  0.11368683772E-12  0.17120000000E+03  0.17120000000E+03 0.  0.
         13    1    1    2    0    0  0.70726616512E+02  0.68234194776E+02  0.39015200376E+03  0.40233910675E+03  0.10566000000E+00 0.  1.
        994    1    1    2    0    0 -0.67923643533E+02 -0.67729766544E+02  0.41649406177E+02  0.20061170370E+03  0.17120000000E+03 0.  0.
        998    1    1    2    0    0 -0.28029729784E+01 -0.50442823222E+00  0.10681985863E+04  0.10682491895E+04  0.10000000000E+02 0.  0.
</event>
<event>
 5    1  0.9123258E-009  0.3823260E+03  0.7957747E-01  0.3441093E+00
         13   -1    0    0    0    0  0.00000000000E+00  0.00000000000E+00  0.14999999963E+04  0.15000000000E+04  0.10566000000E+00 0. -1.
        994   -1    0    0    0    0 -0.00000000000E+00 -0.00000000000E+00  0.11368683772E-12  0.17120000000E+03  0.17120000000E+03 0.  0.
         13    1    1    2    0    0 -0.74496081967E+01 -0.22905957024E+02  0.95604316732E+02  0.98591967580E+02  0.10566000000E+00 0. -1.
        994    1    1    2    0    0  0.10031080325E+02  0.14960570964E+02  0.40406282106E+01  0.17219235736E+03  0.17120000000E+03 0.  0.
        998    1    1    2    0    0 -0.25814721283E+01  0.79453860600E+01  0.14003550513E+04  0.14004156751E+04  0.10000000000E+02 0. -1.
</event>
<event>
 5    1  0.9123258E-009  0.3823102E+03  0.7957747E-01  0.3441161E+00
         13   -1    0    0    0    0  0.00000000000E+00  0.00000000000E+00  0.14999999963E+04  0.15000000000E+04  0.10566000000E+00 0. -1.
        994   -1    0    0    0    0 -0.00000000000E+00 -0.00000000000E+00  0.11368683772E-12  0.17120000000E+03  0.17120000000E+03 0.  0.
         13    1    1    2    0    0  0.23060168820E+02 -0.15821401301E+01  0.86714062857E+02  0.89741932310E+02  0.10566000000E+00 0. -1.
        994    1    1    2    0    0 -0.19039445318E+02  0.88274273997E+00  0.41776222692E+01  0.17230836381E+03  0.17120000000E+03 0.  0.
        998    1    1    2    0    0 -0.40207235022E+01  0.69939739015E+00  0.14091083112E+04  0.14091497039E+04  0.10000000000E+02 0. -1.
</event>
<event>
 5    1  0.9123258E-009  0.3839311E+03  0.7957747E-01  0.3434218E+00
         13   -1    0    0    0    0  0.00000000000E+00  0.00000000000E+00  0.14999999963E+04  0.15000000000E+04  0.10566000000E+00 0. -1.
        994   -1    0    0    0    0 -0.00000000000E+00 -0.00000000000E+00  0.11368683772E-12  0.17120000000E+03  0.17120000000E+03 0.  0.
         13    1    1    2    0    0  0.12064475845E+02 -0.21301683703E+01  0.31287436815E+02  0.33600655666E+02  0.10566000000E+00 0. -1.
        994    1    1    2    0    0 -0.30915795609E+02 -0.10520330182E+01  0.53259801123E+01  0.17405372520E+03  0.17120000000E+03 0.  0.
        998    1    1    2    0    0  0.18851319764E+02  0.31822013885E+01  0.14633865794E+04  0.14635456191E+04  0.10000000000E+02 0. -1.
</event>
<event>
 5    1  0.9123258E-009  0.3806347E+03  0.7957747E-01  0.3448399E+00
         13   -1    0    0    0    0  0.00000000000E+00  0.00000000000E+00  0.14999999963E+04  0.15000000000E+04  0.10566000000E+00 0. -1.
        994   -1    0    0    0    0 -0.00000000000E+00 -0.00000000000E+00  0.11368683772E-12  0.17120000000E+03  0.17120000000E+03 0.  0.
         13    1    1    2    0    0 -0.12660063188E+02 -0.24214994812E+02  0.91104609582E+02  0.95114164165E+02  0.10566000000E+00 0. -1.
        994    1    1    2    0    0  0.10956705070E+02  0.26255578730E+02  0.65178925172E+01  0.17367016935E+03  0.17120000000E+03 0.  0.
        998    1    1    2    0    0  0.17033581187E+01 -0.20405839179E+01  0.14023774942E+04  0.14024156665E+04  0.10000000000E+02 0.  0.
</event>
<event>
 5    1  0.9123258E-009  0.3786439E+03  0.7957747E-01  0.3457084E+00
         13   -1    0    0    0    0  0.00000000000E+00  0.00000000000E+00  0.14999999963E+04  0.15000000000E+04  0.10566000000E+00 0. -1.
        994   -1    0    0    0    0 -0.00000000000E+00 -0.00000000000E+00  0.11368683772E-12  0.17120000000E+03  0.17120000000E+03 0.  0.
         13    1    1    2    0    0  0.27257615316E+02 -0.16369036203E+02  0.99199608303E+02  0.10417051594E+03  0.10566000000E+00 0. -1.
        994    1    1    2    0    0 -0.22715419928E+02  0.15717585433E+02  0.73857149795E+01  0.17357137316E+03  0.17120000000E+03 0.  0.
        998    1    1    2    0    0 -0.45421953879E+01  0.65145077041E+00  0.13934146730E+04  0.13934581109E+04  0.10000000000E+02 0.  0.
</event>
<event>
 5    1  0.9123258E-009  0.3849405E+03  0.7957747E-01  0.3429925E+00
         13   -1    0    0    0    0  0.00000000000E+00  0.00000000000E+00  0.14999999963E+04  0.15000000000E+04  0.10566000000E+00 0.  1.
        994   -1    0    0    0    0 -0.00000000000E+00 -0.00000000000E+00  0.11368683772E-12  0.17120000000E+03  0.17120000000E+03 0.  0.
         13    1    1    2    0    0 -0.91234382326E+01  0.11711904851E+02  0.63927132494E+02  0.65628463896E+02  0.10566000000E+00 0.  1.
        994    1    1    2    0    0  0.10202764196E+02 -0.12170668193E+02  0.24897609624E+01  0.17195307636E+03  0.17120000000E+03 0.  0.
        998    1    1    2    0    0 -0.10793259638E+01  0.45876334203E+00  0.14335831028E+04  0.14336184597E+04  0.10000000000E+02 0.  1.
</event>
<event>
 5    1  0.9123258E-009  0.3845713E+03  0.7957747E-01  0.3431492E+00
         13   -1    0    0    0    0  0.00000000000E+00  0.00000000000E+00  0.14999999963E+04  0.15000000000E+04  0.10566000000E+00 0. -1.
        994   -1    0    0    0    0 -0.00000000000E+00 -0.00000000000E+00  0.11368683772E-12  0.17120000000E+03  0.17120000000E+03 0.  0.
         13    1    1    2    0    0  0.73303231071E+00 -0.13023298226E+02 -0.41571697894E+01  0.13690758115E+02  0.10566000000E+00 0. -1.
        994    1    1    2    0    0 -0.75359775785E+01  0.11582641681E+02  0.19565455030E+02  0.17286756658E+03  0.17120000000E+03 0.  0.
        998    1    1    2    0    0  0.68029452678E+01  0.14406565451E+01  0.14845917110E+04  0.14846416753E+04  0.10000000000E+02 0. -1.
</event>
<event>
 5    1  0.9123258E-009  0.3820132E+03  0.7957747E-01  0.3442439E+00
         13   -1    0    0    0    0  0.00000000000E+00  0.00000000000E+00  0.14999999963E+04  0.15000000000E+04  0.10566000000E+00 0.  1.
        994   -1    0    0    0    0 -0.00000000000E+00 -0.00000000000E+00  0.11368683772E-12  0.17120000000E+03  0.17120000000E+03 0.  0.
         13    1    1    2    0    0  0.10120466807E+02 -0.25860397538E+02  0.11589708973E+03  0.11917772687E+03  0.10566000000E+00 0.  1.
        994    1    1    2    0    0 -0.10453776357E+02  0.23595010594E+02  0.53351659900E+01  0.17321636747E+03  0.17120000000E+03 0.  0.
        998    1    1    2    0    0  0.33330954916E+00  0.22653869438E+01  0.13787677406E+04  0.13788059057E+04  0.10000000000E+02 0.  0.
</event>
<event>
 5    1  0.9123258E-009  0.3830247E+03  0.7957747E-01  0.3438093E+00
         13   -1    0    0    0    0  0.00000000000E+00  0.00000000000E+00  0.14999999963E+04  0.15000000000E+04  0.10566000000E+00 0.  1.
        994   -1    0    0    0    0 -0.00000000000E+00 -0.00000000000E+00  0.11368683772E-12  0.17120000000E+03  0.17120000000E+03 0.  0.
         13    1    1    2    0    0  0.20605222344E+02  0.16185641979E+01  0.77830083605E+02  0.80527808960E+02  0.10566000000E+00 0.  1.
        994    1    1    2    0    0 -0.20059825505E+02 -0.30584953440E+01  0.39780531830E+01  0.17244423997E+03  0.17120000000E+03 0.  0.
        998    1    1    2    0    0 -0.54539683830E+00  0.14399311461E+01  0.14181918595E+04  0.14182279511E+04  0.10000000000E+02 0.  1.
</event>
<event>
 5    1  0.9123258E-009  0.3788851E+03  0.7957747E-01  0.3456027E+00
         13   -1    0    0    0    0  0.00000000000E+00  0.00000000000E+00  0.14999999963E+04  0.15000000000E+04  0.10566000000E+00 0. -1.
        994   -1    0    0    0    0 -0.00000000000E+00 -0.00000000000E+00  0.11368683772E-12  0.17120000000E+03  0.17120000000E+03 0.  0.
         13    1    1    2    0    0 -0.19937679078E+02  0.17568556787E+02  0.72686856481E+02  0.77392218625E+02  0.10566000000E+00 0. -1.
        994    1    1    2    0    0  0.13052481336E+02 -0.14254865515E+02  0.59514091702E+01  0.17239033538E+03  0.17120000000E+03 0.  0.
        998    1    1    2    0    0  0.68851977429E+01 -0.33136912719E+01  0.14213617306E+04  0.14214174460E+04  0.10000000000E+02 0. -1.
</event>
<event>
 5    1  0.9123258E-009  0.3811966E+03  0.7957747E-01  0.3445965E+00
         13   -1    0    0    0    0  0.00000000000E+00  0.00000000000E+00  0.14999999963E+04  0.15000000000E+04  0.10566000000E+00 0.  1.
        994   -1    0    0    0    0 -0.00000000000E+00 -0.00000000000E+00  0.11368683772E-12  0.17120000000E+03  0.17120000000E+03 0.  0.
         13    1    1    2    0    0 -0.15497094835E+02 -0.18624878200E+02  0.77994139856E+02  0.81670943745E+02  0.10566000000E+00 0.  1.
        994    1    1    2    0    0  0.22134933468E+02  0.14543273665E+02  0.58694995948E+01  0.17333595448E+03  0.17120000000E+03 0.  0.
        998    1    1    2    0    0 -0.66378386325E+01  0.40816045349E+01  0.14161363568E+04  0.14161931018E+04  0.10000000000E+02 0.  1.
</event>
<event>
 5    1  0.9123258E-009  0.3838474E+03  0.7957747E-01  0.3434575E+00
         13   -1    0    0    0    0  0.00000000000E+00  0.00000000000E+00  0.14999999963E+04  0.15000000000E+04  0.10566000000E+00 0. -1.
        994   -1    0    0    0    0 -0.00000000000E+00 -0.00000000000E+00  0.11368683772E-12  0.17120000000E+03  0.17120000000E+03 0.  0.
         13    1    1    2    0    0  0.10108961764E+02  0.91245356684E+01  0.40383195186E+02  0.42617624013E+02  0.10566000000E+00 0. -1.
        994    1    1    2    0    0 -0.77615892590E+01 -0.14461111203E+02  0.30931337494E+01  0.17201271314E+03  0.17120000000E+03 0.  0.
        998    1    1    2    0    0 -0.23473725049E+01  0.53365755343E+01  0.14565236673E+04  0.14565696628E+04  0.10000000000E+02 0. -1.
</event>
<event>
 5    1  0.9816588E-009  0.3849592E+03  0.7957747E-01  0.3429845E+00
         13   -1    0    0    0    0  0.00000000000E+00  0.00000000000E+00  0.14999999963E+04  0.15000000000E+04  0.10566000000E+00 0.  1.
        994   -1    0    0    0    0 -0.00000000000E+00 -0.00000000000E+00  0.11368683772E-12  0.17120000000E+03  0.17120000000E+03 0.  0.
         13    1    1    2    0    0 -0.97195297740E+01  0.14328700414E+02  0.85898664802E+02  0.87626324203E+02  0.10566000000E+00 0.  1.
        994    1    1    2    0    0  0.13485028461E+02 -0.13824722054E+02  0.28780716902E+01  0.17230987270E+03  0.17120000000E+03 0.  0.
        998    1    1    2    0    0 -0.37654986873E+01 -0.50397835996E+00  0.14112232598E+04  0.14112638031E+04  0.10000000000E+02 0.  1.
</event>
<event>
 5    1  0.9123258E-009  0.3792716E+03  0.7957747E-01  0.3454336E+00
         13   -1    0    0    0    0  0.00000000000E+00  0.00000000000E+00  0.14999999963E+04  0.15000000000E+04  0.10566000000E+00 0. -1.
        994   -1    0    0    0    0 -0.00000000000E+00 -0.00000000000E+00  0.11368683772E-12  0.17120000000E+03  0.17120000000E+03 0.  0.
         13    1    1    2    0    0 -0.33700724251E+01 -0.11736021997E+02  0.15001139656E+02  0.19342620181E+02  0.10566000000E+00 0. -1.
        994    1    1    2    0    0  0.38877231402E+01 -0.32170882366E+01  0.45866109393E+01  0.17133575531E+03  0.17120000000E+03 0.  0.
        998    1    1    2    0    0 -0.51765071510E+00  0.14953110233E+02  0.14804122457E+04  0.14805216245E+04  0.10000000000E+02 0. -1.
</event>
<event>
 5    1  0.9123258E-009  0.3788520E+03  0.7957747E-01  0.3456172E+00
         13   -1    0    0    0    0  0.00000000000E+00  0.00000000000E+00  0.14999999963E+04  0.15000000000E+04  0.10566000000E+00 0. -1.
        994   -1    0    0    0    0 -0.00000000000E+00 -0.00000000000E+00  0.11368683772E-12  0.17120000000E+03  0.17120000000E+03 0.  0.
         13    1    1    2    0    0 -0.87623454050E+01  0.12706353907E+02  0.22943881066E+02  0.27652540010E+02  0.10566000000E+00 0. -1.
        994    1    1    2    0    0 -0.13342356977E+01 -0.20937936141E+02  0.61922246127E+01  0.17259189147E+03  0.17120000000E+03 0.  0.
        998    1    1    2    0    0  0.10096581103E+02  0.82315822340E+01  0.14708638906E+04  0.14709555685E+04  0.10000000000E+02 0. -1.
</event>
<event>
 5    1  0.9123258E-009  0.3836420E+03  0.7957747E-01  0.3435452E+00
         13   -1    0    0    0    0  0.00000000000E+00  0.00000000000E+00  0.14999999963E+04  0.15000000000E+04  0.10566000000E+00 0. -1.
        994   -1    0    0    0    0 -0.00000000000E+00 -0.00000000000E+00  0.11368683772E-12  0.17120000000E+03  0.17120000000E+03 0.  0.
         13    1    1    2    0    0 -0.12768274509E+01  0.10512951842E+02  0.23124021322E+02  0.25433913795E+02  0.10566000000E+00 0. -1.
        994    1    1    2    0    0 -0.33329090321E+01 -0.13256419800E+02  0.29232621204E+01  0.17176969002E+03  0.17120000000E+03 0.  0.
        998    1    1    2    0    0  0.46097364829E+01  0.27434679576E+01  0.14739527128E+04  0.14739963962E+04  0.10000000000E+02 0. -1.
</event>
<event>
 5    1  0.9123258E-009  0.3844308E+03  0.7957747E-01  0.3432090E+00
         13   -1    0    0    0    0  0.00000000000E+00  0.00000000000E+00  0.14999999963E+04  0.15000000000E+04  0.10566000000E+00 0. -1.
        994   -1    0    0    0    0 -0.00000000000E+00 -0.00000000000E+00  0.11368683772E-12  0.17120000000E+03  0.17120000000E+03 0.  0.
         13    1    1    2    0    0 -0.10758000209E+02 -0.27709967000E+01  0.31925311720E+02  0.33803101687E+02  0.10566000000E+00 0. -1.
        994    1    1    2    0    0  0.64394009344E+01  0.24265674550E+01  0.20690301444E+01  0.17135073679E+03  0.17120000000E+03 0.  0.
        998    1    1    2    0    0  0.43185992743E+01  0.34442924498E+00  0.14660056544E+04  0.14660461615E+04  0.10000000000E+02 0. -1.
</event>
<event>
 5    1  0.9123258E-009  0.3841159E+03  0.7957747E-01  0.3433430E+00
         13   -1    0    0    0    0  0.00000000000E+00  0.00000000000E+00  0.14999999963E+04  0.15000000000E+04  0.10566000000E+00 0.  1.
        994   -1    0    0    0    0 -0.00000000000E+00 -0.00000000000E+00  0.11368683772E-12  0.17120000000E+03  0.17120000000E+03 0.  0.
         13    1    1    2    0    0  0.15213965698E+02  0.12305961165E+02  0.97129367039E+02  0.99080909048E+02  0.10566000000E+00 0.  1.
        994    1    1    2    0    0 -0.10025274610E+00 -0.75943327534E+01  0.22599891230E+01  0.17138328825E+03  0.17120000000E+03 0.  0.
        998    1    1    2    0    0 -0.15113712951E+02 -0.47116284116E+01  0.14006106401E+04  0.14007358027E+04  0.10000000000E+02 0.  1.
</event>
<event>
 5    1  0.9123258E-009  0.3824262E+03  0.7957747E-01  0.3440662E+00
         13   -1    0    0    0    0  0.00000000000E+00  0.00000000000E+00  0.14999999963E+04  0.15000000000E+04  0.10566000000E+00 0.  1.
        994   -1    0    0    0    0 -0.00000000000E+00 -0.00000000000E+00  0.11368683772E-12  0.17120000000E+03  0.17120000000E+03 0.  0.
         13    1    1    2    0    0 -0.29875580344E+02  0.42378459474E+01  0.14332147405E+03  0.14646353037E+03  0.10566000000E+00 0.  1.
        994    1    1    2    0    0  0.27800260144E+02 -0.12940275132E+02  0.60380165250E+01  0.17402931600E+03  0.17120000000E+03 0.  0.
        998    1    1    2    0    0  0.20753202002E+01  0.87024291851E+01  0.13506405057E+04  0.13507071536E+04  0.10000000000E+02 0.  1.
</event>
<event>
 5    1  0.1191168E-008  0.3860119E+03  0.7957747E-01  0.3425392E+00
         13   -1    0    0    0    0  0.00000000000E+00  0.00000000000E+00  0.14999999963E+04  0.15000000000E+04  0.10566000000E+00 0. -1.
        994   -1    0    0    0    0 -0.00000000000E+00 -0.00000000000E+00  0.11368683772E-12  0.17120000000E+03  0.17120000000E+03 0.  0.
         13    1    1    2    0    0  0.10090071272E+02 -0.35428060130E+01  0.50922091331E+02  0.52032985329E+02  0.10566000000E+00 0. -1.
        994    1    1    2    0    0 -0.80218181983E+01  0.19704385406E+01  0.13522526231E+01  0.17140449464E+03  0.17120000000E+03 0.  0.
        998    1    1    2    0    0 -0.20682530738E+01  0.15723674724E+01  0.14477256523E+04  0.14477625200E+04  0.10000000000E+02 0. -1.
</event>
<event>
 5    1  0.9123258E-009  0.3747330E+03  0.7957747E-01  0.3474418E+00
         13   -1    0    0    0    0  0.00000000000E+00  0.00000000000E+00  0.14999999963E+04  0.15000000000E+04  0.10566000000E+00 0.  1.
        994   -1    0    0    0    0 -0.00000000000E+00 -0.00000000000E+00  0.11368683772E-12  0.17120000000E+03  0.17120000000E+03 0.  0.
         13    1    1    2    0    0  0.18219704297E+03  0.91080494936E+02  0.10467288603E+04  0.10663642611E+04  0.10566000000E+00 0.  1.
        994    1    1    2    0    0 -0.16606003286E+03 -0.88718135121E+02  0.13895752209E+03  0.28994046795E+03  0.17120000000E+03 0.  0.
        998    1    1    2    0    0 -0.16137010107E+02 -0.23623598152E+01  0.31431361385E+03  0.31489527098E+03  0.10000000000E+02 0.  0.
</event>
<event>
 5    1  0.9123258E-009  0.3776658E+03  0.7957747E-01  0.3461385E+00
         13   -1    0    0    0    0  0.00000000000E+00  0.00000000000E+00  0.14999999963E+04  0.15000000000E+04  0.10566000000E+00 0.  1.
        994   -1    0    0    0    0 -0.00000000000E+00 -0.00000000000E+00  0.11368683772E-12  0.17120000000E+03  0.17120000000E+03 0.  0.
         13    1    1    2    0    0 -0.11355930424E+02  0.21465580748E+02  0.50060507934E+02  0.55639859195E+02  0.10566000000E+00 0.  1.
        994    1    1    2    0    0  0.15412782031E+02 -0.31202969115E+02  0.94072897910E+01  0.17495461192E+03  0.17120000000E+03 0.  0.
        998    1    1    2    0    0 -0.40568516066E+01  0.97373883662E+01  0.14405321986E+04  0.14406055289E+04  0.10000000000E+02 0.  1.
</event>
<event>
 5    1  0.9123258E-009  0.3689877E+03  0.7957747E-01  0.3500556E+00
         13   -1    0    0    0    0  0.00000000000E+00  0.00000000000E+00  0.14999999963E+04  0.15000000000E+04  0.10566000000E+00 0.  1.
        994   -1    0    0    0    0 -0.00000000000E+00 -0.00000000000E+00  0.11368683772E-12  0.17120000000E+03  0.17120000000E+03 0.  0.
         13    1    1    2    0    0  0.41129271875E+02 -0.12722212211E+03  0.71922624275E+03  0.73154868927E+03  0.10566000000E+00 0.  1.
        994    1    1    2    0    0 -0.47768837564E+02  0.90517123532E+02  0.47079938445E+02  0.20494187493E+03  0.17120000000E+03 0.  0.
        998    1    1    2    0    0  0.66395656896E+01  0.36704998582E+02  0.73369381509E+03  0.73470943580E+03  0.10000000000E+02 0.  1.
</event>
<event>
 5    1  0.9123258E-009  0.3793346E+03  0.7957747E-01  0.3454061E+00
         13   -1    0    0    0    0  0.00000000000E+00  0.00000000000E+00  0.14999999963E+04  0.15000000000E+04  0.10566000000E+00 0. -1.
        994   -1    0    0    0    0 -0.00000000000E+00 -0.00000000000E+00  0.11368683772E-12  0.17120000000E+03  0.17120000000E+03 0.  0.
         13    1    1    2    0    0  0.17133669478E+02  0.71794256947E+01  0.40181917142E+02  0.44268548794E+02  0.10566000000E+00 0. -1.
        994    1    1    2    0    0  0.81440749207E+01  0.15282045818E+02  0.54746916111E+01  0.17216062015E+03  0.17120000000E+03 0.  0.
        998    1    1    2    0    0 -0.25277744399E+02 -0.22461471513E+02  0.14543433875E+04  0.14547708311E+04  0.10000000000E+02 0. -1.
</event>
<event>
 5    1  0.1178695E-008  0.3853885E+03  0.7957747E-01  0.3428026E+00
         13   -1    0    0    0    0  0.00000000000E+00  0.00000000000E+00  0.14999999963E+04  0.15000000000E+04  0.10566000000E+00 0.  1.
        994   -1    0    0    0    0 -0.00000000000E+00 -0.00000000000E+00  0.11368683772E-12  0.17120000000E+03  0.17120000000E+03 0.  0.
         13    1    1    2    0    0  0.10146552972E+02  0.13837173486E+02  0.76973046331E+02  0.78862417746E+02  0.10566000000E+00 0.  1.
        994    1    1    2    0    0 -0.45458621819E+02 -0.32592819506E+02  0.11782192781E+02  0.18049110296E+03  0.17120000000E+03 0.  0.
        998    1    1    2    0    0  0.35312068847E+02  0.18755646021E+02  0.14112447572E+04  0.14118464793E+04  0.10000000000E+02 0.  1.
</event>
<event>
 5    1  0.9123258E-009  0.3808902E+03  0.7957747E-01  0.3447292E+00
         13   -1    0    0    0    0  0.00000000000E+00  0.00000000000E+00  0.14999999963E+04  0.15000000000E+04  0.10566000000E+00 0.  1.
        994   -1    0    0    0    0 -0.00000000000E+00 -0.00000000000E+00  0.11368683772E-12  0.17120000000E+03  0.17120000000E+03 0.  0.
         13    1    1    2    0    0 -0.30280322490E+02 -0.25668293337E+02  0.21296874560E+03  0.21663669352E+03  0.10566000000E+00 0.  1.
        994    1    1    2    0    0  0.22245849955E+02  0.89397748559E+01  0.56026777471E+01  0.17296134659E+03  0.17120000000E+03 0.  0.
        998    1    1    2    0    0  0.80344725353E+01  0.16728518481E+02  0.12814285729E+04  0.12816019599E+04  0.10000000000E+02 0.  1.
</event>
<event>
 5    1  0.9123258E-009  0.4272366E+03  0.7957747E-01  0.3268176E+00
         13   -1    0    0    0    0  0.00000000000E+00  0.00000000000E+00  0.14999999963E+04  0.15000000000E+04  0.10566000000E+00 0.  1.
        994   -1    0    0    0    0 -0.00000000000E+00 -0.00000000000E+00  0.11368683772E-12  0.17120000000E+03  0.17120000000E+03 0.  0.
         13    1    1    2    0    0 -0.10920917187E+03 -0.61315191158E+02  0.43032391206E+03  0.44817951353E+03  0.10566000000E+00 0.  1.
        994    1    1    2    0    0 -0.81144647052E+02 -0.66303704255E+02  0.95653850705E+02  0.22235047582E+03  0.17120000000E+03 0.  0.
        998    1    1    2    0    0  0.19035381893E+03  0.12761889541E+03  0.97402223351E+03  0.10006700107E+04  0.10000000000E+02 0.  1.
</event>
<event>
 5    1  0.9123258E-009  0.3845422E+03  0.7957747E-01  0.3431616E+00
         13   -1    0    0    0    0  0.00000000000E+00  0.00000000000E+00  0.14999999963E+04  0.15000000000E+04  0.10566000000E+00 0.  1.
        994   -1    0    0    0    0 -0.00000000000E+00 -0.00000000000E+00  0.11368683772E-12  0.17120000000E+03  0.17120000000E+03 0.  0.
         13    1    1    2    0    0  0.14928542897E+02 -0.32118697811E+01  0.63520878508E+02  0.65330625827E+02  0.10566000000E+00 0.  1.
        994    1    1    2    0    0 -0.79545317386E+01 -0.16400843143E+01  0.20748632037E+01  0.17140510351E+03  0.17120000000E+03 0.  0.
        998    1    1    2    0    0 -0.69740111582E+01  0.48519540954E+01  0.14344042546E+04  0.14344642707E+04  0.10000000000E+02 0.  1.
</event>
<event>
 5    1  0.9123258E-009  0.3780646E+03  0.7957747E-01  0.3459629E+00
         13   -1    0    0    0    0  0.00000000000E+00  0.00000000000E+00  0.14999999963E+04  0.15000000000E+04  0.10566000000E+00 0.  1.
        994   -1    0    0    0    0 -0.00000000000E+00 -0.00000000000E+00  0.11368683772E-12  0.17120000000E+03  0.17120000000E+03 0.  0.
         13    1    1    2    0    0 -0.35517912969E+01 -0.10652548161E+02  0.11668835162E+02  0.16194594216E+02  0.10566000000E+00 0.  1.
        994    1    1    2    0    0 -0.10652085705E+02 -0.60471539327E+02  0.17904841216E+02  0.18275748230E+03  0.17120000000E+03 0.  0.
        998    1    1    2    0    0  0.14203877002E+02  0.71124087487E+02  0.14704263199E+04  0.14722479235E+04  0.10000000000E+02 0.  1.
</event>
<event>
 5    1  0.9123258E-009  0.3852800E+03  0.7957747E-01  0.3428485E+00
         13   -1    0    0    0    0  0.00000000000E+00  0.00000000000E+00  0.14999999963E+04  0.15000000000E+04  0.10566000000E+00 0. -1.
        994   -1    0    0    0    0 -0.00000000000E+00 -0.00000000000E+00  0.11368683772E-12  0.17120000000E+03  0.17120000000E+03 0.  0.
         13    1    1    2    0    0 -0.82278240977E+00  0.10790882629E+02  0.39834916897E+02  0.41278952106E+02  0.10566000000E+00 0. -1.
        994    1    1    2    0    0  0.36866882369E+01 -0.43114286584E+01  0.15969160971E+01  0.17130140171E+03  0.17120000000E+03 0.  0.
        998    1    1    2    0    0 -0.28639058272E+01 -0.64794539708E+01  0.14585681633E+04  0.14586196462E+04  0.10000000000E+02 0. -1.
</event>
<event>
 5    1  0.9123258E-009  0.3725651E+03  0.7957747E-01  0.3484184E+00
         13   -1    0    0    0    0  0.00000000000E+00  0.00000000000E+00  0.14999999963E+04  0.15000000000E+04  0.10566000000E+00 0. -1.
        994   -1    0    0    0    0 -0.00000000000E+00 -0.00000000000E+00  0.11368683772E-12  0.17120000000E+03  0.17120000000E+03 0.  0.
         13    1    1    2    0    0 -0.26997347162E+02  0.20124817625E+02  0.66962398562E+02  0.74952244953E+02  0.10566000000E+00 0. -1.
        994    1    1    2    0    0  0.35755033219E+02  0.44266218218E+00  0.12329357311E+02  0.17532846718E+03  0.17120000000E+03 0.  0.
        998    1    1    2    0    0 -0.87576860571E+01 -0.20567479807E+02  0.14207082404E+04  0.14209192879E+04  0.10000000000E+02 0. -1.
</event>
<event>
 5    1  0.9123258E-009  0.4380613E+03  0.7957747E-01  0.3231725E+00
         13   -1    0    0    0    0  0.00000000000E+00  0.00000000000E+00  0.14999999963E+04  0.15000000000E+04  0.10566000000E+00 0.  1.
        994   -1    0    0    0    0 -0.00000000000E+00 -0.00000000000E+00  0.11368683772E-12  0.17120000000E+03  0.17120000000E+03 0.  0.
         13    1    1    2    0    0 -0.85496213230E+02  0.24775611592E+02  0.57488435914E+02  0.10596397895E+03  0.10566000000E+00 0.  1.
        994    1    1    2    0    0  0.81458978841E+02 -0.27707308218E+02  0.88290734293E+02  0.21096908286E+03  0.17120000000E+03 0.  0.
        998    1    1    2    0    0  0.40372343883E+01  0.29316966253E+01  0.13542208261E+04  0.13542669382E+04  0.10000000000E+02 0. -1.
</event>
<event>
 5    1  0.9123258E-009  0.3825088E+03  0.7957747E-01  0.3440307E+00
         13   -1    0    0    0    0  0.00000000000E+00  0.00000000000E+00  0.14999999963E+04  0.15000000000E+04  0.10566000000E+00 0.  1.
        994   -1    0    0    0    0 -0.00000000000E+00 -0.00000000000E+00  0.11368683772E-12  0.17120000000E+03  0.17120000000E+03 0.  0.
         13    1    1    2    0    0 -0.22749028767E+02  0.10558564501E+02  0.12678512163E+03  0.12924194298E+03  0.10566000000E+00 0.  1.
        994    1    1    2    0    0 -0.74865518908E+01 -0.72030136901E-01  0.30578967967E+01  0.17139091102E+03  0.17120000000E+03 0.  0.
        998    1    1    2    0    0  0.30235580658E+02 -0.10486534364E+02  0.13701569778E+04  0.13705671460E+04  0.10000000000E+02 0.  1.
</event>
<event>
 5    1  0.9123258E-009  0.3847422E+03  0.7957747E-01  0.3430766E+00
         13   -1    0    0    0    0  0.00000000000E+00  0.00000000000E+00  0.14999999963E+04  0.15000000000E+04  0.10566000000E+00 0.  1.
        994   -1    0    0    0    0 -0.00000000000E+00 -0.00000000000E+00  0.11368683772E-12  0.17120000000E+03  0.17120000000E+03 0.  0.
         13    1    1    2    0    0 -0.16793740432E+01 -0.17951570550E+02  0.94272867579E+02  0.95981581087E+02  0.10566000000E+00 0.  1.
        994    1    1    2    0    0  0.27469273334E+01  0.85404984579E+01  0.20231216303E+01  0.17144683941E+03  0.17120000000E+03 0.  0.
        998    1    1    2    0    0 -0.10675532903E+01  0.94110720923E+01  0.14037040071E+04  0.14037715795E+04  0.10000000000E+02 0.  1.
</event>
<event>
 5    1  0.9123258E-009  0.3778213E+03  0.7957747E-01  0.3460700E+00
         13   -1    0    0    0    0  0.00000000000E+00  0.00000000000E+00  0.14999999963E+04  0.15000000000E+04  0.10566000000E+00 0. -1.
        994   -1    0    0    0    0 -0.00000000000E+00 -0.00000000000E+00  0.11368683772E-12  0.17120000000E+03  0.17120000000E+03 0.  0.
         13    1    1    2    0    0 -0.34978395674E+01  0.41036947695E+02  0.14884757578E+03  0.15444053204E+03  0.10566000000E+00 0. -1.
        994    1    1    2    0    0  0.64365332656E+01 -0.36810623898E+02  0.99535396941E+01  0.17551342953E+03  0.17120000000E+03 0.  0.
        998    1    1    2    0    0 -0.29386936983E+01 -0.42263237969E+01  0.13411988808E+04  0.13412460384E+04  0.10000000000E+02 0. -1.
</event>
<event>
 5    1  0.9123258E-009  0.3922302E+03  0.7957747E-01  0.3399575E+00
         13   -1    0    0    0    0  0.00000000000E+00  0.00000000000E+00  0.14999999963E+04  0.15000000000E+04  0.10566000000E+00 0. -1.
        994   -1    0    0    0    0 -0.00000000000E+00 -0.00000000000E+00  0.11368683772E-12  0.17120000000E+03  0.17120000000E+03 0.  0.
         13    1    1    2    0    0 -0.80901831989E+01  0.29047587555E+02  0.94456120440E+01  0.31598167002E+02  0.10566000000E+00 0. -1.
        994    1    1    2    0    0  0.19233078873E+02 -0.33730464373E+02  0.28956942273E+02  0.17792020699E+03  0.17120000000E+03 0.  0.
        998    1    1    2    0    0 -0.11142895674E+02  0.46828768186E+01  0.14615974420E+04  0.14616816260E+04  0.10000000000E+02 0. -1.
</event>
<event>
 5    1  0.9123258E-009  0.3858968E+03  0.7957747E-01  0.3425878E+00
         13   -1    0    0    0    0  0.00000000000E+00  0.00000000000E+00  0.14999999963E+04  0.15000000000E+04  0.10566000000E+00 0. -1.
        994   -1    0    0    0    0 -0.00000000000E+00 -0.00000000000E+00  0.11368683772E-12  0.17120000000E+03  0.17120000000E+03 0.  0.
         13    1    1    2    0    0  0.10843791620E+02  0.38236858310E+01  0.53834520701E+02  0.55048843523E+02  0.10566000000E+00 0. -1.
        994    1    1    2    0    0 -0.11315109027E+02 -0.11709587744E+02  0.20554649793E+01  0.17198491525E+03  0.17120000000E+03 0.  0.
        998    1    1    2    0    0  0.47131740660E+00  0.78859019129E+01  0.14441100106E+04  0.14441662412E+04  0.10000000000E+02 0. -1.
</event>
<event>
 5    1  0.9123258E-009  0.3792986E+03  0.7957747E-01  0.3454218E+00
         13   -1    0    0    0    0  0.00000000000E+00  0.00000000000E+00  0.14999999963E+04  0.15000000000E+04  0.10566000000E+00 0.  1.
        994   -1    0    0    0    0 -0.00000000000E+00 -0.00000000000E+00  0.11368683772E-12  0.17120000000E+03  0.17120000000E+03 0.  0.
         13    1    1    2    0    0  0.57457445550E+00  0.13102554553E+02  0.16719667697E+02  0.21250071142E+02  0.10566000000E+00 0.  1.
        994    1    1    2    0    0  0.35811044693E+01 -0.21710011230E+02  0.61115262337E+01  0.17271635606E+03  0.17120000000E+03 0.  0.
        998    1    1    2    0    0 -0.41556789248E+01  0.86074566770E+01  0.14771688023E+04  0.14772335728E+04  0.10000000000E+02 0.  1.
</event>
<event>
 5    1  0.9123258E-009  0.3707528E+03  0.7957747E-01  0.3492438E+00
         13   -1    0    0    0    0  0.00000000000E+00  0.00000000000E+00  0.14999999963E+04  0.15000000000E+04  0.10566000000E+00 0.  1.
        994   -1    0    0    0    0 -0.00000000000E+00 -0.00000000000E+00  0.11368683772E-12  0.17120000000E+03  0.17120000000E+03 0.  0.
         13    1    1    2    0    0  0.14991958529E+02  0.37810715006E+02  0.86369897344E+02  0.95468211050E+02  0.10566000000E+00 0.  1.
        994    1    1    2    0    0 -0.45125828496E+01 -0.38298089712E+02  0.14022110767E+02  0.17604876219E+03  0.17120000000E+03 0.  0.
        998    1    1    2    0    0 -0.10479375679E+02  0.48737470603E+00  0.13996079882E+04  0.13996830268E+04  0.10000000000E+02 0.  1.
</event>
<event>
 5    1  0.9123258E-009  0.3686487E+03  0.7957747E-01  0.3502124E+00
         13   -1    0    0    0    0  0.00000000000E+00  0.00000000000E+00  0.14999999963E+04  0.15000000000E+04  0.10566000000E+00 0.  1.
        994   -1    0    0    0    0 -0.00000000000E+00 -0.00000000000E+00  0.11368683772E-12  0.17120000000E+03  0.17120000000E+03 0.  0.
         13    1    1    2    0    0 -0.16742645366E+01 -0.31498011224E+02  0.44706625351E+02  0.54713996263E+02  0.10566000000E+00 0.  1.
        994    1    1    2    0    0 -0.76085734405E+01  0.31973122110E+02  0.13738718624E+02  0.17486670157E+03  0.17120000000E+03 0.  0.
        998    1    1    2    0    0  0.92828379770E+01 -0.47511088597E+00  0.14415546523E+04  0.14416193022E+04  0.10000000000E+02 0.  1.
</event>
<event>
 5    1  0.9123258E-009  0.3831076E+03  0.7957747E-01  0.3437738E+00
         13   -1    0    0    0    0  0.00000000000E+00  0.00000000000E+00  0.14999999963E+04  0.15000000000E+04  0.10566000000E+00 0.  1.
        994   -1    0    0    0    0 -0.00000000000E+00 -0.00000000000E+00  0.11368683772E-12  0.17120000000E+03  0.17120000000E+03 0.  0.
         13    1    1    2    0    0  0.87320905602E+01  0.83551640881E+01  0.29618713346E+02  0.31989647026E+02  0.10566000000E+00 0.  1.
        994    1    1    2    0    0 -0.22295099051E+00  0.17431797038E+02  0.35788745471E+01  0.17212253077E+03  0.17120000000E+03 0.  0.
        998    1    1    2    0    0 -0.85091395697E+01 -0.25786961126E+02  0.14668024084E+04  0.14670878222E+04  0.10000000000E+02 0.  1.
</event>
<event>
 5    1  0.9123258E-009  0.3778873E+03  0.7957747E-01  0.3460410E+00
         13   -1    0    0    0    0  0.00000000000E+00  0.00000000000E+00  0.14999999963E+04  0.15000000000E+04  0.10566000000E+00 0. -1.
        994   -1    0    0    0    0 -0.00000000000E+00 -0.00000000000E+00  0.11368683772E-12  0.17120000000E+03  0.17120000000E+03 0.  0.
         13    1    1    2    0    0 -0.62718609941E+01 -0.13032811193E+02  0.17776542410E+02  0.22917395839E+02  0.10566000000E+00 0. -1.
        994    1    1    2    0    0  0.38587282087E+01  0.11759950987E+02  0.57192977891E+01  0.17174206415E+03  0.17120000000E+03 0.  0.
        998    1    1    2    0    0  0.24131327855E+01  0.12728602064E+01  0.14765041561E+04  0.14765405400E+04  0.10000000000E+02 0. -1.
</event>
<event>
 5    1  0.9123258E-009  0.3848720E+03  0.7957747E-01  0.3430215E+00
         13   -1    0    0    0    0  0.00000000000E+00  0.00000000000E+00  0.14999999963E+04  0.15000000000E+04  0.10566000000E+00 0.  1.
        994   -1    0    0    0    0 -0.00000000000E+00 -0.00000000000E+00  0.11368683772E-12  0.17120000000E+03  0.17120000000E+03 0.  0.
         13    1    1    2    0    0  0.17256757357E+02 -0.82894781143E+01  0.10396457009E+03  0.10571260152E+03  0.10566000000E+00 0.  1.
        994    1    1    2    0    0 -0.94324500630E+01  0.20950495078E+02  0.34324287347E+01  0.17276896690E+03  0.17120000000E+03 0.  0.
        998    1    1    2    0    0 -0.78243072942E+01 -0.12661016964E+02  0.13926029975E+04  0.13927184316E+04  0.10000000000E+02 0.  1.
</event>
<event>
 5    1  0.1149169E-008  0.3862500E+03  0.7957747E-01  0.3424388E+00
         13   -1    0    0    0    0  0.00000000000E+00  0.00000000000E+00  0.14999999963E+04  0.15000000000E+04  0.10566000000E+00 0.  1.
        994   -1    0    0    0    0 -0.00000000000E+00 -0.00000000000E+00  0.11368683772E-12  0.17120000000E+03  0.17120000000E+03 0.  0.
         13    1    1    2    0    0  0.80210187224E+01  0.60194887783E+01  0.49000139782E+02  0.50015955946E+02  0.10566000000E+00 0.  1.
        994    1    1    2    0    0 -0.12242285889E+02 -0.26208523064E+01  0.15243719037E+01  0.17166393372E+03  0.17120000000E+03 0.  0.
        998    1    1    2    0    0  0.42212671661E+01 -0.33986364718E+01  0.14494754846E+04  0.14495201103E+04  0.10000000000E+02 0.  1.
</event>
<event>
 5    1  0.9123258E-009  0.3753231E+03  0.7957747E-01  0.3471779E+00
         13   -1    0    0    0    0  0.00000000000E+00  0.00000000000E+00  0.14999999963E+04  0.15000000000E+04  0.10566000000E+00 0. -1.
        994   -1    0    0    0    0 -0.00000000000E+00 -0.00000000000E+00  0.11368683772E-12  0.17120000000E+03  0.17120000000E+03 0.  0.
         13    1    1    2    0    0  0.21265959680E+02  0.16114594324E+01  0.32687488640E+02  0.39029744045E+02  0.10566000000E+00 0. -1.
        994    1    1    2    0    0 -0.10328112540E+02  0.73731458265E+01  0.70598621382E+01  0.17181476899E+03  0.17120000000E+03 0.  0.
        998    1    1    2    0    0 -0.10937847139E+02 -0.89846052589E+01  0.14602526455E+04  0.14603554870E+04  0.10000000000E+02 0. -1.
</event>
<event>
 5    1  0.9123258E-009  0.3825508E+03  0.7957747E-01  0.3440127E+00
         13   -1    0    0    0    0  0.00000000000E+00  0.00000000000E+00  0.14999999963E+04  0.15000000000E+04  0.10566000000E+00 0. -1.
        994   -1    0    0    0    0 -0.00000000000E+00 -0.00000000000E+00  0.11368683772E-12  0.17120000000E+03  0.17120000000E+03 0.  0.
         13    1    1    2    0    0  0.31898714356E+02  0.73059821507E+01  0.16452949580E+03  0.16775241132E+03  0.10566000000E+00 0. -1.
        994    1    1    2    0    0 -0.34923521308E+02 -0.79499652978E+01  0.71153513979E+01  0.17505119969E+03  0.17120000000E+03 0.  0.
        998    1    1    2    0    0  0.30248069527E+01  0.64398314703E+00  0.13283551491E+04  0.13283963890E+04  0.10000000000E+02 0. -1.
</event>
<event>
 5    1  0.9123258E-009  0.3839240E+03  0.7957747E-01  0.3434249E+00
         13   -1    0    0    0    0  0.00000000000E+00  0.00000000000E+00  0.14999999963E+04  0.15000000000E+04  0.10566000000E+00 0.  1.
        994   -1    0    0    0    0 -0.00000000000E+00 -0.00000000000E+00  0.11368683772E-12  0.17120000000E+03  0.17120000000E+03 0.  0.
         13    1    1    2    0    0  0.71396235953E+01  0.22372364966E+02  0.12492630988E+03  0.12711447991E+03  0.10566000000E+00 0.  1.
        994    1    1    2    0    0 -0.37479001643E+01 -0.16040837486E+02  0.30613360046E+01  0.17201792639E+03  0.17120000000E+03 0.  0.
        998    1    1    2    0    0 -0.33917234310E+01 -0.63315274802E+01  0.13720123504E+04  0.13720675937E+04  0.10000000000E+02 0.  1.
</event>
<event>
 5    1  0.1145117E-008  0.3857517E+03  0.7957747E-01  0.3426490E+00
         13   -1    0    0    0    0  0.00000000000E+00  0.00000000000E+00  0.14999999963E+04  0.15000000000E+04  0.10566000000E+00 0. -1.
        994   -1    0    0    0    0 -0.00000000000E+00 -0.00000000000E+00  0.11368683772E-12  0.17120000000E+03  0.17120000000E+03 0.  0.
         13    1    1    2    0    0 -0.30042706867E+01 -0.10667107530E+02  0.61768490993E+02  0.62754844187E+02  0.10566000000E+00 0. -1.
        994    1    1    2    0    0 -0.22349261830E+02 -0.17786334648E+02  0.39384642518E+01  0.17361104431E+03  0.17120000000E+03 0.  0.
        998    1    1    2    0    0  0.25353532516E+02  0.28453442178E+02  0.14342930410E+04  0.14348341115E+04  0.10000000000E+02 0. -1.
</event>
<event>
 5    1  0.9123258E-009  0.3782139E+03  0.7957747E-01  0.3458973E+00
         13   -1    0    0    0    0  0.00000000000E+00  0.00000000000E+00  0.14999999963E+04  0.15000000000E+04  0.10566000000E+00 0. -1.
        994   -1    0    0    0    0 -0.00000000000E+00 -0.00000000000E+00  0.11368683772E-12  0.17120000000E+03  0.17120000000E+03 0.  0.
         13    1    1    2    0    0 -0.13496104707E+02  0.13252794834E+02  0.26359532361E+02  0.32444067616E+02  0.10566000000E+00 0. -1.
        994    1    1    2    0    0  0.98472642670E+02 -0.33415751706E+02  0.42307714547E+02  0.20472629662E+03  0.17120000000E+03 0.  0.
        998    1    1    2    0    0 -0.84976537963E+02  0.20162956872E+02  0.14313327494E+04  0.14340296358E+04  0.10000000000E+02 0. -1.
</event>
<event>
 5    1  0.9123258E-009  0.3760129E+03  0.7957747E-01  0.3468705E+00
         13   -1    0    0    0    0  0.00000000000E+00  0.00000000000E+00  0.14999999963E+04  0.15000000000E+04  0.10566000000E+00 0. -1.
        994   -1    0    0    0    0 -0.00000000000E+00 -0.00000000000E+00  0.11368683772E-12  0.17120000000E+03  0.17120000000E+03 0.  0.
         13    1    1    2    0    0  0.25754537377E+02 -0.51768313031E+02  0.29362604103E+03  0.29926496214E+03  0.10566000000E+00 0. -1.
        994    1    1    2    0    0  0.65944949309E+01  0.28431680576E+02  0.90506179881E+01  0.17390572593E+03  0.17120000000E+03 0.  0.
        998    1    1    2    0    0 -0.32349032308E+02  0.23336632455E+02  0.11973233373E+04  0.11980293119E+04  0.10000000000E+02 0.  1.
</event>
<event>
 5    1  0.1863680E-008  0.3865997E+03  0.7957747E-01  0.3422916E+00
         13   -1    0    0    0    0  0.00000000000E+00  0.00000000000E+00  0.14999999963E+04  0.15000000000E+04  0.10566000000E+00 0.  1.
        994   -1    0    0    0    0 -0.00000000000E+00 -0.00000000000E+00  0.11368683772E-12  0.17120000000E+03  0.17120000000E+03 0.  0.
         13    1    1    2    0    0 -0.74745900191E+01  0.73224013646E+01  0.61948249769E+02  0.62825821691E+02  0.10566000000E+00 0.  1.
        994    1    1    2    0    0  0.16308683312E+02 -0.66004330772E+01  0.18513418428E+01  0.17211161011E+03  0.17120000000E+03 0.  0.
        998    1    1    2    0    0 -0.88340932927E+01 -0.72196828741E+00  0.14362004047E+04  0.14362625682E+04  0.10000000000E+02 0.  1.
</event>
<event>
 5    1  0.9123258E-009  0.3870315E+03  0.7957747E-01  0.3421102E+00
         13   -1    0    0    0    0  0.00000000000E+00  0.00000000000E+00  0.14999999963E+04  0.15000000000E+04  0.10566000000E+00 0. -1.
        994   -1    0    0    0    0 -0.00000000000E+00 -0.00000000000E+00  0.11368683772E-12  0.17120000000E+03  0.17120000000E+03 0.  0.
         13    1    1    2    0    0 -0.46653616030E+02  0.47664845710E+02  0.10463702352E+03  0.12408632181E+03  0.10566000000E+00 0. -1.
        994    1    1    2    0    0  0.32330456930E+02 -0.26597988043E+02  0.26792296587E+02  0.17826939886E+03  0.17120000000E+03 0.  0.
        998    1    1    2    0    0  0.14323159100E+02 -0.21066857667E+02  0.13685706762E+04  0.13688442793E+04  0.10000000000E+02 0. -1.
</event>
<event>
 5    1  0.9123258E-009  0.3827868E+03  0.7957747E-01  0.3439113E+00
         13   -1    0    0    0    0  0.00000000000E+00  0.00000000000E+00  0.14999999963E+04  0.15000000000E+04  0.10566000000E+00 0. -1.
        994   -1    0    0    0    0 -0.00000000000E+00 -0.00000000000E+00  0.11368683772E-12  0.17120000000E+03  0.17120000000E+03 0.  0.
         13    1    1    2    0    0 -0.11380632704E+02  0.22764274006E+00  0.21615078006E+02  0.24429354949E+02  0.10566000000E+00 0. -1.
        994    1    1    2    0    0  0.23575534011E+02  0.85838520510E+01  0.48208439148E+01  0.17309583720E+03  0.17120000000E+03 0.  0.
        998    1    1    2    0    0 -0.12194901307E+02 -0.88114947911E+01  0.14735640744E+04  0.14736748079E+04  0.10000000000E+02 0. -1.
</event>
<event>
 5    1  0.9123258E-009  0.3809900E+03  0.7957747E-01  0.3446859E+00
         13   -1    0    0    0    0  0.00000000000E+00  0.00000000000E+00  0.14999999963E+04  0.15000000000E+04  0.10566000000E+00 0. -1.
        994   -1    0    0    0    0 -0.00000000000E+00 -0.00000000000E+00  0.11368683772E-12  0.17120000000E+03  0.17120000000E+03 0.  0.
         13    1    1    2    0    0 -0.49269743151E+00  0.29844721332E+02  0.13883651234E+03  0.14200893798E+03  0.10566000000E+00 0. -1.
        994    1    1    2    0    0 -0.49348095746E+01  0.25318199543E+01  0.37367246530E+01  0.17133057395E+03  0.17120000000E+03 0.  0.
        998    1    1    2    0    0  0.54275070061E+01 -0.32376541286E+02  0.13574267593E+04  0.13578604881E+04  0.10000000000E+02 0. -1.
</event>
<event>
 5    1  0.9123258E-009  0.3762057E+03  0.7957747E-01  0.3467848E+00
         13   -1    0    0    0    0  0.00000000000E+00  0.00000000000E+00  0.14999999963E+04  0.15000000000E+04  0.10566000000E+00 0. -1.
        994   -1    0    0    0    0 -0.00000000000E+00 -0.00000000000E+00  0.11368683772E-12  0.17120000000E+03  0.17120000000E+03 0.  0.
         13    1    1    2    0    0 -0.14270730926E+03 -0.24098160812E+02  0.83239728086E+03  0.84488540159E+03  0.10566000000E+00 0. -1.
        994    1    1    2    0    0  0.13233125234E+03  0.50390899871E+02  0.77276325810E+02  0.23522728087E+03  0.17120000000E+03 0.  0.
        998    1    1    2    0    0  0.10376056919E+02 -0.26292739059E+02  0.59032638961E+03  0.59108731754E+03  0.10000000000E+02 0. -1.
</event>
<event>
 5    1  0.9123258E-009  0.3745251E+03  0.7957747E-01  0.3475349E+00
         13   -1    0    0    0    0  0.00000000000E+00  0.00000000000E+00  0.14999999963E+04  0.15000000000E+04  0.10566000000E+00 0. -1.
        994   -1    0    0    0    0 -0.00000000000E+00 -0.00000000000E+00  0.11368683772E-12  0.17120000000E+03  0.17120000000E+03 0.  0.
         13    1    1    2    0    0  0.26478571756E+02  0.31222680956E+02  0.13170716685E+03  0.13792302031E+03  0.10566000000E+00 0. -1.
        994    1    1    2    0    0 -0.72151703559E+01  0.23583410701E+01  0.71190040390E+01  0.17151600705E+03  0.17120000000E+03 0.  0.
        998    1    1    2    0    0 -0.19263401400E+02 -0.33581022026E+02  0.13611738254E+04  0.13617609726E+04  0.10000000000E+02 0. -1.
</event>
<event>
 5    1  0.9123258E-009  0.3828780E+03  0.7957747E-01  0.3438722E+00
         13   -1    0    0    0    0  0.00000000000E+00  0.00000000000E+00  0.14999999963E+04  0.15000000000E+04  0.10566000000E+00 0. -1.
        994   -1    0    0    0    0 -0.00000000000E+00 -0.00000000000E+00  0.11368683772E-12  0.17120000000E+03  0.17120000000E+03 0.  0.
         13    1    1    2    0    0 -0.14170689788E+01  0.10333387330E+02  0.19191075159E+02  0.21842516063E+02  0.10566000000E+00 0. -1.
        994    1    1    2    0    0  0.18616852929E+01 -0.77200291723E+01  0.28962006082E+01  0.17140855492E+03  0.17120000000E+03 0.  0.
        998    1    1    2    0    0 -0.44461631406E+00 -0.26133581574E+01  0.14779127205E+04  0.14779489290E+04  0.10000000000E+02 0. -1.
</event>
<event>
 5    1  0.9123258E-009  0.3816025E+03  0.7957747E-01  0.3444210E+00
         13   -1    0    0    0    0  0.00000000000E+00  0.00000000000E+00  0.14999999963E+04  0.15000000000E+04  0.10566000000E+00 0. -1.
        994   -1    0    0    0    0 -0.00000000000E+00 -0.00000000000E+00  0.11368683772E-12  0.17120000000E+03  0.17120000000E+03 0.  0.
         13    1    1    2    0    0  0.76334116979E+01 -0.75575202582E+01  0.16234123879E+02  0.19466459071E+02  0.10566000000E+00 0. -1.
        994    1    1    2    0    0  0.22946108689E+01  0.44566716383E+01  0.34099557331E+01  0.17130731146E+03  0.17120000000E+03 0.  0.
        998    1    1    2    0    0 -0.99280225668E+01  0.31008486199E+01  0.14803559167E+04  0.14804262295E+04  0.10000000000E+02 0. -1.
</event>
<event>
 5    1  0.9123258E-009  0.3853337E+03  0.7957747E-01  0.3428258E+00
         13   -1    0    0    0    0  0.00000000000E+00  0.00000000000E+00  0.14999999963E+04  0.15000000000E+04  0.10566000000E+00 0. -1.
        994   -1    0    0    0    0 -0.00000000000E+00 -0.00000000000E+00  0.11368683772E-12  0.17120000000E+03  0.17120000000E+03 0.  0.
         13    1    1    2    0    0  0.39224466751E+01 -0.11467967309E+02  0.52930212802E+02  0.54300262001E+02  0.10566000000E+00 0. -1.
        994    1    1    2    0    0 -0.74652558018E+01 -0.28383692324E+01  0.16741442311E+01  0.17139436730E+03  0.17120000000E+03 0.  0.
        998    1    1    2    0    0  0.35428091266E+01  0.14306336541E+02  0.14453956392E+04  0.14455053707E+04  0.10000000000E+02 0. -1.
</event>
<event>
 5    1  0.9123258E-009  0.4226734E+03  0.7957747E-01  0.3284088E+00
         13   -1    0    0    0    0  0.00000000000E+00  0.00000000000E+00  0.14999999963E+04  0.15000000000E+04  0.10566000000E+00 0. -1.
        994   -1    0    0    0    0 -0.00000000000E+00 -0.00000000000E+00  0.11368683772E-12  0.17120000000E+03  0.17120000000E+03 0.  0.
         13    1    1    2    0    0 -0.19701244601E+02 -0.36507768408E+02  0.38437441750E+01  0.41662233812E+02  0.10566000000E+00 0. -1.
        994    1    1    2    0    0  0.17674897679E+02  0.40091976844E+02  0.50432206724E+02  0.18377327360E+03  0.17120000000E+03 0.  0.
        998    1    1    2    0    0  0.20263469217E+01 -0.35842084366E+01  0.14457240454E+04  0.14457644926E+04  0.10000000000E+02 0. -1.
</event>
<event>
 5    1  0.9123258E-009  0.3824389E+03  0.7957747E-01  0.3440607E+00
         13   -1    0    0    0    0  0.00000000000E+00  0.00000000000E+00  0.14999999963E+04  0.15000000000E+04  0.10566000000E+00 0.  1.
        994   -1    0    0    0    0 -0.00000000000E+00 -0.00000000000E+00  0.11368683772E-12  0.17120000000E+03  0.17120000000E+03 0.  0.
         13    1    1    2    0    0  0.13254796130E+02  0.14997136408E+01  0.29424149454E+02  0.32306818113E+02  0.10566000000E+00 0.  1.
        994    1    1    2    0    0 -0.10235651549E+02 -0.25751106671E+01  0.32765747740E+01  0.17155633390E+03  0.17120000000E+03 0.  0.
        998    1    1    2    0    0 -0.30191445807E+01  0.10753970263E+01  0.14672992721E+04  0.14673368480E+04  0.10000000000E+02 0.  1.
</event>
<event>
 5    1  0.9123258E-009  0.3777174E+03  0.7957747E-01  0.3461158E+00
         13   -1    0    0    0    0  0.00000000000E+00  0.00000000000E+00  0.14999999963E+04  0.15000000000E+04  0.10566000000E+00 0.  1.
        994   -1    0    0    0    0 -0.00000000000E+00 -0.00000000000E+00  0.11368683772E-12  0.17120000000E+03  0.17120000000E+03 0.  0.
         13    1    1    2    0    0 -0.21776754205E+02 -0.12547832653E+02  0.57619242675E+02  0.62862257503E+02  0.10566000000E+00 0.  1.
        994    1    1    2    0    0  0.10707626517E+02  0.14671334745E+02  0.64018481658E+01  0.17227978694E+03  0.17120000000E+03 0.  0.
        998    1    1    2    0    0  0.11069127688E+02 -0.21235020925E+01  0.14359789054E+04  0.14360579556E+04  0.10000000000E+02 0.  1.
</event>
<event>
 5    1  0.9123258E-009  0.3732181E+03  0.7957747E-01  0.3481231E+00
         13   -1    0    0    0    0  0.00000000000E+00  0.00000000000E+00  0.14999999963E+04  0.15000000000E+04  0.10566000000E+00 0.  1.
        994   -1    0    0    0    0 -0.00000000000E+00 -0.00000000000E+00  0.11368683772E-12  0.17120000000E+03  0.17120000000E+03 0.  0.
         13    1    1    2    0    0 -0.19513977628E+02 -0.12499041876E+01  0.21404717841E+02  0.28991907375E+02  0.10566000000E+00 0.  1.
        994    1    1    2    0    0  0.23977534715E+02 -0.15572280476E+01  0.95735138191E+01  0.17314282918E+03  0.17120000000E+03 0.  0.
        998    1    1    2    0    0 -0.44635570866E+01  0.28071322352E+01  0.14690217646E+04  0.14690652634E+04  0.10000000000E+02 0.  1.
</event>
<event>
 5    1  0.9123258E-009  0.3727874E+03  0.7957747E-01  0.3483178E+00
         13   -1    0    0    0    0  0.00000000000E+00  0.00000000000E+00  0.14999999963E+04  0.15000000000E+04  0.10566000000E+00 0. -1.
        994   -1    0    0    0    0 -0.00000000000E+00 -0.00000000000E+00  0.11368683772E-12  0.17120000000E+03  0.17120000000E+03 0.  0.
         13    1    1    2    0    0 -0.94242760317E+01  0.14031825519E+02  0.15644509323E+02  0.23031954805E+02  0.10566000000E+00 0. -1.
        994    1    1    2    0    0 -0.24153076995E+01  0.11472404993E+02  0.82902033797E+01  0.17180109796E+03  0.17120000000E+03 0.  0.
        998    1    1    2    0    0  0.11839583731E+02 -0.25504230512E+02  0.14760652836E+04  0.14763669472E+04  0.10000000000E+02 0. -1.
</event>
<event>
 5    1  0.9123258E-009  0.3845143E+03  0.7957747E-01  0.3431735E+00
         13   -1    0    0    0    0  0.00000000000E+00  0.00000000000E+00  0.14999999963E+04  0.15000000000E+04  0.10566000000E+00 0.  1.
        994   -1    0    0    0    0 -0.00000000000E+00 -0.00000000000E+00  0.11368683772E-12  0.17120000000E+03  0.17120000000E+03 0.  0.
         13    1    1    2    0    0 -0.12654926927E+02 -0.11462634301E+01  0.40196538258E+02  0.42157252606E+02  0.10566000000E+00 0.  1.
        994    1    1    2    0    0  0.24899124051E+02 -0.25630778089E+02  0.60887180592E+01  0.17499547323E+03  0.17120000000E+03 0.  0.
        998    1    1    2    0    0 -0.12244197124E+02  0.26777041519E+02  0.14537147400E+04  0.14540472742E+04  0.10000000000E+02 0.  1.
</event>
<event>
 5    1  0.9123258E-009  0.3775358E+03  0.7957747E-01  0.3461959E+00
         13   -1    0    0    0    0  0.00000000000E+00  0.00000000000E+00  0.14999999963E+04  0.15000000000E+04  0.10566000000E+00 0. -1.
        994   -1    0    0    0    0 -0.00000000000E+00 -0.00000000000E+00  0.11368683772E-12  0.17120000000E+03  0.17120000000E+03 0.  0.
         13    1    1    2    0    0 -0.95285459223E+01 -0.11121939091E+02  0.17188975737E+02  0.22582355224E+02  0.10566000000E+00 0. -1.
        994    1    1    2    0    0  0.15713218367E+02  0.13000736918E+02  0.67853246310E+01  0.17254392201E+03  0.17120000000E+03 0.  0.
        998    1    1    2    0    0 -0.61846724445E+01 -0.18787978265E+01  0.14760256959E+04  0.14760737228E+04  0.10000000000E+02 0. -1.
</event>
<event>
 5    1  0.9123258E-009  0.3752511E+03  0.7957747E-01  0.3472100E+00
         13   -1    0    0    0    0  0.00000000000E+00  0.00000000000E+00  0.14999999963E+04  0.15000000000E+04  0.10566000000E+00 0. -1.
        994   -1    0    0    0    0 -0.00000000000E+00 -0.00000000000E+00  0.11368683772E-12  0.17120000000E+03  0.17120000000E+03 0.  0.
         13    1    1    2    0    0  0.76659347183E+01 -0.94041682300E+01  0.81896262607E+01  0.14638513501E+02  0.10566000000E+00 0. -1.
        994    1    1    2    0    0 -0.11478022485E+02  0.72915364909E+01  0.71780991043E+01  0.17188914047E+03  0.17120000000E+03 0.  0.
        998    1    1    2    0    0  0.38120877670E+01  0.21126317390E+01  0.14846322709E+04  0.14846723460E+04  0.10000000000E+02 0. -1.
</event>
<event>
 5    1  0.9123258E-009  0.3843527E+03  0.7957747E-01  0.3432422E+00
         13   -1    0    0    0    0  0.00000000000E+00  0.00000000000E+00  0.14999999963E+04  0.15000000000E+04  0.10566000000E+00 0. -1.
        994   -1    0    0    0    0 -0.00000000000E+00 -0.00000000000E+00  0.11368683772E-12  0.17120000000E+03  0.17120000000E+03 0.  0.
         13    1    1    2    0    0  0.76746411235E+01 -0.85027829310E+01  0.32778947044E+02  0.34722729836E+02  0.10566000000E+00 0. -1.
        994    1    1    2    0    0 -0.13357666457E+02  0.21785815788E+01  0.25557464184E+01  0.17175315226E+03  0.17120000000E+03 0.  0.
        998    1    1    2    0    0  0.56830253339E+01  0.63242013522E+01  0.14646653028E+04  0.14647241179E+04  0.10000000000E+02 0. -1.
</event>
<event>
 5    1  0.9123258E-009  0.3767114E+03  0.7957747E-01  0.3465604E+00
         13   -1    0    0    0    0  0.00000000000E+00  0.00000000000E+00  0.14999999963E+04  0.15000000000E+04  0.10566000000E+00 0. -1.
        994   -1    0    0    0    0 -0.00000000000E+00 -0.00000000000E+00  0.11368683772E-12  0.17120000000E+03  0.17120000000E+03 0.  0.
         13    1    1    2    0    0  0.91513089529E+00  0.11312014733E+02  0.88794012717E+01  0.14410207246E+02  0.10566000000E+00 0. -1.
        994    1    1    2    0    0 -0.81262622541E+01  0.13620937396E+02  0.66531849328E+01  0.17206182303E+03  0.17120000000E+03 0.  0.
        998    1    1    2    0    0  0.72111313589E+01 -0.24932952130E+02  0.14844674101E+04  0.14847279697E+04  0.10000000000E+02 0. -1.
</event>
<event>
 5    1  0.9123258E-009  0.3796574E+03  0.7957747E-01  0.3452652E+00
         13   -1    0    0    0    0  0.00000000000E+00  0.00000000000E+00  0.14999999963E+04  0.15000000000E+04  0.10566000000E+00 0. -1.
        994   -1    0    0    0    0 -0.00000000000E+00 -0.00000000000E+00  0.11368683772E-12  0.17120000000E+03  0.17120000000E+03 0.  0.
         13    1    1    2    0    0 -0.10727072295E+03 -0.20904931978E+02  0.51245107996E+03  0.52397532833E+03  0.10566000000E+00 0. -1.
        994    1    1    2    0    0  0.15855885397E+03 -0.45054143108E+01  0.93711202762E+02  0.25150037466E+03  0.17120000000E+03 0.  0.
        998    1    1    2    0    0 -0.51288131013E+02  0.25410346289E+02  0.89383771356E+03  0.89572429701E+03  0.10000000000E+02 0. -1.
</event>
<event>
 5    1  0.9123258E-009  0.3749583E+03  0.7957747E-01  0.3473409E+00
         13   -1    0    0    0    0  0.00000000000E+00  0.00000000000E+00  0.14999999963E+04  0.15000000000E+04  0.10566000000E+00 0. -1.
        994   -1    0    0    0    0 -0.00000000000E+00 -0.00000000000E+00  0.11368683772E-12  0.17120000000E+03  0.17120000000E+03 0.  0.
         13    1    1    2    0    0  0.54682384349E+02 -0.14266052964E+02  0.21618281936E+03  0.22344732259E+03  0.10566000000E+00 0. -1.
        994    1    1    2    0    0 -0.66445764894E+02 -0.50614409486E+02  0.30801987766E+02  0.19296388411E+03  0.17120000000E+03 0.  0.
        998    1    1    2    0    0  0.11763380545E+02  0.64880462450E+02  0.12530151892E+04  0.12547887933E+04  0.10000000000E+02 0. -1.
</event>
<event>
 5    1  0.9123258E-009  0.3741794E+03  0.7957747E-01  0.3476901E+00
         13   -1    0    0    0    0  0.00000000000E+00  0.00000000000E+00  0.14999999963E+04  0.15000000000E+04  0.10566000000E+00 0.  1.
        994   -1    0    0    0    0 -0.00000000000E+00 -0.00000000000E+00  0.11368683772E-12  0.17120000000E+03  0.17120000000E+03 0.  0.
         13    1    1    2    0    0 -0.11148719888E+03 -0.28217681004E+02  0.68822687836E+03  0.69776921708E+03  0.10566000000E+00 0.  1.
        994    1    1    2    0    0  0.91578290519E+02  0.13377897413E+02  0.36883883426E+02  0.19807930808E+03  0.17120000000E+03 0.  0.
        998    1    1    2    0    0  0.19908908362E+02  0.14839783590E+02  0.77488923449E+03  0.77535147484E+03  0.10000000000E+02 0.  1.
</event>
<event>
 5    1  0.9123258E-009  0.3790324E+03  0.7957747E-01  0.3455383E+00
         13   -1    0    0    0    0  0.00000000000E+00  0.00000000000E+00  0.14999999963E+04  0.15000000000E+04  0.10566000000E+00 0.  1.
        994   -1    0    0    0    0 -0.00000000000E+00 -0.00000000000E+00  0.11368683772E-12  0.17120000000E+03  0.17120000000E+03 0.  0.
         13    1    1    2    0    0  0.23948876972E+02 -0.30888113519E+02  0.15588123141E+03  0.16070654540E+03  0.10566000000E+00 0.  1.
        994    1    1    2    0    0 -0.15357713728E+02  0.27177541913E+02  0.78973526956E+01  0.17420185514E+03  0.17120000000E+03 0.  0.
        998    1    1    2    0    0 -0.85911632442E+01  0.37105716061E+01  0.13362214122E+04  0.13362915995E+04  0.10000000000E+02 0.  1.
</event>
<event>
 5    1  0.9123258E-009  0.3719627E+03  0.7957747E-01  0.3486919E+00
         13   -1    0    0    0    0  0.00000000000E+00  0.00000000000E+00  0.14999999963E+04  0.15000000000E+04  0.10566000000E+00 0.  1.
        994   -1    0    0    0    0 -0.00000000000E+00 -0.00000000000E+00  0.11368683772E-12  0.17120000000E+03  0.17120000000E+03 0.  0.
         13    1    1    2    0    0  0.61469825755E+01 -0.35241183603E+02  0.78302922651E+02  0.86087660418E+02  0.10566000000E+00 0.  1.
        994    1    1    2    0    0 -0.27319408277E+01  0.85362366802E+01  0.85227040738E+01  0.17164616897E+03  0.17120000000E+03 0.  0.
        998    1    1    2    0    0 -0.34150417478E+01  0.26704946923E+02  0.14131743696E+04  0.14134661706E+04  0.10000000000E+02 0.  1.
</event>
<event>
 5    1  0.9123258E-009  0.3791071E+03  0.7957747E-01  0.3455056E+00
         13   -1    0    0    0    0  0.00000000000E+00  0.00000000000E+00  0.14999999963E+04  0.15000000000E+04  0.10566000000E+00 0. -1.
        994   -1    0    0    0    0 -0.00000000000E+00 -0.00000000000E+00  0.11368683772E-12  0.17120000000E+03  0.17120000000E+03 0.  0.
         13    1    1    2    0    0  0.35741267427E+02  0.94356013058E+01  0.14240488183E+03  0.14712454011E+03  0.10566000000E+00 0. -1.
        994    1    1    2    0    0 -0.25172477756E+02 -0.13539540227E+02  0.73285455786E+01  0.17372426534E+03  0.17120000000E+03 0.  0.
        998    1    1    2    0    0 -0.10568789671E+02  0.41039389211E+01  0.13502665689E+04  0.13503511946E+04  0.10000000000E+02 0. -1.
</event>
<event>
 5    1  0.9123258E-009  0.3726958E+03  0.7957747E-01  0.3483593E+00
         13   -1    0    0    0    0  0.00000000000E+00  0.00000000000E+00  0.14999999963E+04  0.15000000000E+04  0.10566000000E+00 0.  1.
        994   -1    0    0    0    0 -0.00000000000E+00 -0.00000000000E+00  0.11368683772E-12  0.17120000000E+03  0.17120000000E+03 0.  0.
         13    1    1    2    0    0 -0.35867266700E+02  0.83045138284E+02  0.33463762350E+03  0.34664867812E+03  0.10566000000E+00 0.  1.
        994    1    1    2    0    0  0.59207097443E+02 -0.97473889687E+02  0.53829876944E+02  0.21263521630E+03  0.17120000000E+03 0.  0.
        998    1    1    2    0    0 -0.23339830743E+02  0.14428751403E+02  0.11115324958E+04  0.11119161056E+04  0.10000000000E+02 0.  1.
</event>
<event>
 5    1  0.9123258E-009  0.3831479E+03  0.7957747E-01  0.3437565E+00
         13   -1    0    0    0    0  0.00000000000E+00  0.00000000000E+00  0.14999999963E+04  0.15000000000E+04  0.10566000000E+00 0.  1.
        994   -1    0    0    0    0 -0.00000000000E+00 -0.00000000000E+00  0.11368683772E-12  0.17120000000E+03  0.17120000000E+03 0.  0.
         13    1    1    2    0    0 -0.20115697947E+02 -0.82429221093E+01  0.94836021433E+02  0.97295781996E+02  0.10566000000E+00 0.  1.
        994    1    1    2    0    0 -0.26152169069E+00  0.24671567249E+02  0.45691196741E+01  0.17302910587E+03  0.17120000000E+03 0.  0.
        998    1    1    2    0    0  0.20377219637E+02 -0.16428645139E+02  0.14005948552E+04  0.14008751121E+04  0.10000000000E+02 0. -1.
</event>
<event>
 5    1  0.9123258E-009  0.3792065E+03  0.7957747E-01  0.3454621E+00
         13   -1    0    0    0    0  0.00000000000E+00  0.00000000000E+00  0.14999999963E+04  0.15000000000E+04  0.10566000000E+00 0.  1.
        994   -1    0    0    0    0 -0.00000000000E+00 -0.00000000000E+00  0.11368683772E-12  0.17120000000E+03  0.17120000000E+03 0.  0.
         13    1    1    2    0    0 -0.10883230939E+02  0.85583571795E+01  0.18944694933E+02  0.23464927518E+02  0.10566000000E+00 0.  1.
        994    1    1    2    0    0  0.19671149316E+02  0.35722072559E+00  0.58327036159E+01  0.17242546840E+03  0.17120000000E+03 0.  0.
        998    1    1    2    0    0 -0.87879183774E+01 -0.89155779051E+01  0.14752225977E+04  0.14753096041E+04  0.10000000000E+02 0.  1.
</event>
<event>
 5    1  0.9123258E-009  0.3803647E+03  0.7957747E-01  0.3449572E+00
         13   -1    0    0    0    0  0.00000000000E+00  0.00000000000E+00  0.14999999963E+04  0.15000000000E+04  0.10566000000E+00 0.  1.
        994   -1    0    0    0    0 -0.00000000000E+00 -0.00000000000E+00  0.11368683772E-12  0.17120000000E+03  0.17120000000E+03 0.  0.
         13    1    1    2    0    0 -0.31321244413E+02  0.48909721091E+01  0.23958693765E+02  0.39736282296E+02  0.10566000000E+00 0.  1.
        994    1    1    2    0    0  0.16582022423E+02 -0.15801439499E+02  0.18433551983E+02  0.17370631766E+03  0.17120000000E+03 0.  0.
        998    1    1    2    0    0  0.14739221990E+02  0.10910467390E+02  0.14576077505E+04  0.14577574000E+04  0.10000000000E+02 0.  1.
</event>
<event>
 5    1  0.9123258E-009  0.3849922E+03  0.7957747E-01  0.3429705E+00
         13   -1    0    0    0    0  0.00000000000E+00  0.00000000000E+00  0.14999999963E+04  0.15000000000E+04  0.10566000000E+00 0.  1.
        994   -1    0    0    0    0 -0.00000000000E+00 -0.00000000000E+00  0.11368683772E-12  0.17120000000E+03  0.17120000000E+03 0.  0.
         13    1    1    2    0    0 -0.59325570098E+01 -0.11231899495E+02  0.48814256259E+02  0.50439999773E+02  0.10566000000E+00 0.  1.
        994    1    1    2    0    0  0.93327228176E+01  0.67815074342E+01  0.20718263424E+01  0.17160076055E+03  0.17120000000E+03 0.  0.
        998    1    1    2    0    0 -0.34001658078E+01  0.44503920610E+01  0.14491139137E+04  0.14491592397E+04  0.10000000000E+02 0.  1.
</event>
<event>
 5    1  0.9123258E-009  0.3704686E+03  0.7957747E-01  0.3493740E+00
         13   -1    0    0    0    0  0.00000000000E+00  0.00000000000E+00  0.14999999963E+04  0.15000000000E+04  0.10566000000E+00 0.  1.
        994   -1    0    0    0    0 -0.00000000000E+00 -0.00000000000E+00  0.11368683772E-12  0.17120000000E+03  0.17120000000E+03 0.  0.
         13    1    1    2    0    0  0.32369188558E+02  0.14839578672E+02  0.63697632022E+02  0.72975180386E+02  0.10566000000E+00 0.  1.
        994    1    1    2    0    0 -0.30768282242E+02 -0.25512199552E+02  0.14559381892E+02  0.17640571170E+03  0.17120000000E+03 0.  0.
        998    1    1    2    0    0 -0.16009063157E+01  0.10672620880E+02  0.14217429824E+04  0.14218191079E+04  0.10000000000E+02 0.  1.
</event>
<event>
 5    1  0.9123258E-009  0.3847929E+03  0.7957747E-01  0.3430551E+00
         13   -1    0    0    0    0  0.00000000000E+00  0.00000000000E+00  0.14999999963E+04  0.15000000000E+04  0.10566000000E+00 0. -1.
        994   -1    0    0    0    0 -0.00000000000E+00 -0.00000000000E+00  0.11368683772E-12  0.17120000000E+03  0.17120000000E+03 0.  0.
         13    1    1    2    0    0 -0.89838429726E+01  0.50833626091E+01  0.29645697801E+02  0.31391536632E+02  0.10566000000E+00 0. -1.
        994    1    1    2    0    0  0.14785297895E+02 -0.63767419387E+00  0.24540618507E+01  0.17185596900E+03  0.17120000000E+03 0.  0.
        998    1    1    2    0    0 -0.58014549221E+01 -0.44456884152E+01  0.14679002366E+04  0.14679524944E+04  0.10000000000E+02 0. -1.
</event>
<event>
 5    1  0.9123258E-009  0.3825169E+03  0.7957747E-01  0.3440272E+00
         13   -1    0    0    0    0  0.00000000000E+00  0.00000000000E+00  0.14999999963E+04  0.15000000000E+04  0.10566000000E+00 0. -1.
        994   -1    0    0    0    0 -0.00000000000E+00 -0.00000000000E+00  0.11368683772E-12  0.17120000000E+03  0.17120000000E+03 0.  0.
         13    1    1    2    0    0 -0.13186361086E+02 -0.87376972779E+01  0.42546609498E+02  0.45392208762E+02  0.10566000000E+00 0. -1.
        994    1    1    2    0    0  0.79964518517E+01  0.83344636931E+01  0.33104066023E+01  0.17162110977E+03  0.17120000000E+03 0.  0.
        998    1    1    2    0    0  0.51899092346E+01  0.40323358476E+00  0.14541429802E+04  0.14541866815E+04  0.10000000000E+02 0. -1.
</event>
<event>
 5    1  0.9123258E-009  0.3822776E+03  0.7957747E-01  0.3441301E+00
         13   -1    0    0    0    0  0.00000000000E+00  0.00000000000E+00  0.14999999963E+04  0.15000000000E+04  0.10566000000E+00 0. -1.
        994   -1    0    0    0    0 -0.00000000000E+00 -0.00000000000E+00  0.11368683772E-12  0.17120000000E+03  0.17120000000E+03 0.  0.
         13    1    1    2    0    0  0.15261283896E+02  0.90488096816E+00  0.39602005172E+02  0.42450625124E+02  0.10566000000E+00 0. -1.
        994    1    1    2    0    0 -0.47370252885E+00  0.56102953519E+01  0.30929895449E+01  0.17132047861E+03  0.17120000000E+03 0.  0.
        998    1    1    2    0    0 -0.14787581367E+02 -0.65151763201E+01  0.14573050016E+04  0.14574288963E+04  0.10000000000E+02 0. -1.
</event>
<event>
 5    1  0.9123258E-009  0.3788760E+03  0.7957747E-01  0.3456067E+00
         13   -1    0    0    0    0  0.00000000000E+00  0.00000000000E+00  0.14999999963E+04  0.15000000000E+04  0.10566000000E+00 0. -1.
        994   -1    0    0    0    0 -0.00000000000E+00 -0.00000000000E+00  0.11368683772E-12  0.17120000000E+03  0.17120000000E+03 0.  0.
         13    1    1    2    0    0  0.40218787970E+02 -0.98735186811E+01  0.16848183643E+03  0.17349690962E+03  0.10566000000E+00 0. -1.
        994    1    1    2    0    0 -0.33098861460E+02  0.13428601070E+02  0.89945014636E+01  0.17511768333E+03  0.17120000000E+03 0.  0.
        998    1    1    2    0    0 -0.71199265101E+01 -0.35550823892E+01  0.13225236584E+04  0.13225854071E+04  0.10000000000E+02 0. -1.
</event>
<event>
 5    1  0.9123258E-009  0.3823582E+03  0.7957747E-01  0.3440954E+00
         13   -1    0    0    0    0  0.00000000000E+00  0.00000000000E+00  0.14999999963E+04  0.15000000000E+04  0.10566000000E+00 0.  1.
        994   -1    0    0    0    0 -0.00000000000E+00 -0.00000000000E+00  0.11368683772E-12  0.17120000000E+03  0.17120000000E+03 0.  0.
         13    1    1    2    0    0  0.19391722879E+02 -0.25360065464E+02  0.15472311487E+03  0.15798235749E+03  0.10566000000E+00 0.  1.
        994    1    1    2    0    0 -0.22765869679E+02  0.24387250992E+02  0.66482140719E+01  0.17454701826E+03  0.17120000000E+03 0.  0.
        998    1    1    2    0    0  0.33741468001E+01  0.97281447178E+00  0.13386286673E+04  0.13386706243E+04  0.10000000000E+02 0.  1.
</event>
<event>
 5    1  0.9123258E-009  0.3785999E+03  0.7957747E-01  0.3457278E+00
         13   -1    0    0    0    0  0.00000000000E+00  0.00000000000E+00  0.14999999963E+04  0.15000000000E+04  0.10566000000E+00 0.  1.
        994   -1    0    0    0    0 -0.00000000000E+00 -0.00000000000E+00  0.11368683772E-12  0.17120000000E+03  0.17120000000E+03 0.  0.
         13    1    1    2    0    0  0.72958942594E+02  0.16030940031E+01  0.15057494535E+03  0.16732723193E+03  0.10566000000E+00 0.  1.
        994    1    1    2    0    0 -0.71993631267E+02  0.20342585508E+01  0.34506715359E+02  0.18891102285E+03  0.17120000000E+03 0.  0.
        998    1    1    2    0    0 -0.96531132729E+00 -0.36373525539E+01  0.13149183356E+04  0.13149617452E+04  0.10000000000E+02 0.  0.
</event>
<event>
 5    1  0.9123258E-009  0.3806638E+03  0.7957747E-01  0.3448273E+00
         13   -1    0    0    0    0  0.00000000000E+00  0.00000000000E+00  0.14999999963E+04  0.15000000000E+04  0.10566000000E+00 0. -1.
        994   -1    0    0    0    0 -0.00000000000E+00 -0.00000000000E+00  0.11368683772E-12  0.17120000000E+03  0.17120000000E+03 0.  0.
         13    1    1    2    0    0  0.25142869042E+01 -0.11059241512E+02  0.15540984069E+02  0.19239589687E+02  0.10566000000E+00 0. -1.
        994    1    1    2    0    0 -0.37578712457E+01  0.17476210708E+01  0.38557298240E+01  0.17129355629E+03  0.17120000000E+03 0.  0.
        998    1    1    2    0    0  0.12435843414E+01  0.93116204407E+01  0.14806032824E+04  0.14806668540E+04  0.10000000000E+02 0. -1.
</event>
<event>
 5    1  0.9123258E-009  0.3861760E+03  0.7957747E-01  0.3424700E+00
         13   -1    0    0    0    0  0.00000000000E+00  0.00000000000E+00  0.14999999963E+04  0.15000000000E+04  0.10566000000E+00 0. -1.
        994   -1    0    0    0    0 -0.00000000000E+00 -0.00000000000E+00  0.11368683772E-12  0.17120000000E+03  0.17120000000E+03 0.  0.
         13    1    1    2    0    0  0.82863360001E+01 -0.66704893603E+01  0.54574714528E+02  0.55601883263E+02  0.10566000000E+00 0. -1.
        994    1    1    2    0    0 -0.99833045382E+01  0.12048925394E+00  0.13740223170E+01  0.17149638137E+03  0.17120000000E+03 0.  0.
        998    1    1    2    0    0  0.16969685381E+01  0.65500001064E+01  0.14440512594E+04  0.14441017354E+04  0.10000000000E+02 0. -1.
</event>
<event>
 5    1  0.9123258E-009  0.3788739E+03  0.7957747E-01  0.3456076E+00
         13   -1    0    0    0    0  0.00000000000E+00  0.00000000000E+00  0.14999999963E+04  0.15000000000E+04  0.10566000000E+00 0. -1.
        994   -1    0    0    0    0 -0.00000000000E+00 -0.00000000000E+00  0.11368683772E-12  0.17120000000E+03  0.17120000000E+03 0.  0.
         13    1    1    2    0    0  0.33873181806E+02  0.33638305540E+02  0.21621340922E+03  0.22142081549E+03  0.10566000000E+00 0. -1.
        994    1    1    2    0    0 -0.33560868879E+02 -0.26398696229E+02  0.10844770482E+02  0.17677746499E+03  0.17120000000E+03 0.  0.
        998    1    1    2    0    0 -0.31231292727E+00 -0.72396093111E+01  0.12729418166E+04  0.12730017195E+04  0.10000000000E+02 0. -1.
</event>
<event>
 5    1  0.9123258E-009  0.3791480E+03  0.7957747E-01  0.3454877E+00
         13   -1    0    0    0    0  0.00000000000E+00  0.00000000000E+00  0.14999999963E+04  0.15000000000E+04  0.10566000000E+00 0.  1.
        994   -1    0    0    0    0 -0.00000000000E+00 -0.00000000000E+00  0.11368683772E-12  0.17120000000E+03  0.17120000000E+03 0.  0.
         13    1    1    2    0    0 -0.21481705994E+02  0.35445597006E+02  0.18621868226E+03  0.19077542511E+03  0.10566000000E+00 0.  1.
        994    1    1    2    0    0  0.95161194028E+02  0.16541537570E+02  0.36502812488E+02  0.19992791359E+03  0.17120000000E+03 0.  0.
        998    1    1    2    0    0 -0.73679488034E+02 -0.51987134576E+02  0.12772785015E+04  0.12804966613E+04  0.10000000000E+02 0.  1.
</event>
<event>
 5    1  0.9123258E-009  0.4087292E+03  0.7957747E-01  0.3334873E+00
         13   -1    0    0    0    0  0.00000000000E+00  0.00000000000E+00  0.14999999963E+04  0.15000000000E+04  0.10566000000E+00 0. -1.
        994   -1    0    0    0    0 -0.00000000000E+00 -0.00000000000E+00  0.11368683772E-12  0.17120000000E+03  0.17120000000E+03 0.  0.
         13    1    1    2    0    0 -0.39476727952E+02  0.59679606217E+02  0.59381890631E+02  0.92985415776E+02  0.10566000000E+00 0. -1.
        994    1    1    2    0    0  0.57805073725E+02 -0.76401893393E+02  0.71457147481E+02  0.20879233652E+03  0.17120000000E+03 0.  0.
        998    1    1    2    0    0 -0.18328345772E+02  0.16722287176E+02  0.13691609582E+04  0.13694222477E+04  0.10000000000E+02 0. -1.
</event>
<event>
 5    1  0.9123258E-009  0.3817950E+03  0.7957747E-01  0.3443380E+00
         13   -1    0    0    0    0  0.00000000000E+00  0.00000000000E+00  0.14999999963E+04  0.15000000000E+04  0.10566000000E+00 0.  1.
        994   -1    0    0    0    0 -0.00000000000E+00 -0.00000000000E+00  0.11368683772E-12  0.17120000000E+03  0.17120000000E+03 0.  0.
         13    1    1    2    0    0  0.24668353656E+02  0.19950948907E+02  0.17960705516E+03  0.18238770096E+03  0.10566000000E+00 0.  1.
        994    1    1    2    0    0 -0.47503945162E+01  0.56440239831E+01  0.34106736219E+01  0.17139280600E+03  0.17120000000E+03 0.  0.
        998    1    1    2    0    0 -0.19917959140E+02 -0.25594972890E+02  0.13169822675E+04  0.13174194930E+04  0.10000000000E+02 0.  1.
</event>
<event>
 5    1  0.9123258E-009  0.3835728E+03  0.7957747E-01  0.3435748E+00
         13   -1    0    0    0    0  0.00000000000E+00  0.00000000000E+00  0.14999999963E+04  0.15000000000E+04  0.10566000000E+00 0. -1.
        994   -1    0    0    0    0 -0.00000000000E+00 -0.00000000000E+00  0.11368683772E-12  0.17120000000E+03  0.17120000000E+03 0.  0.
         13    1    1    2    0    0 -0.10993040152E+02  0.11792574064E+02  0.53064893740E+02  0.55459948129E+02  0.10566000000E+00 0. -1.
        994    1    1    2    0    0  0.14248893484E+02 -0.10930866344E+02  0.34066695250E+01  0.17217305307E+03  0.17120000000E+03 0.  0.
        998    1    1    2    0    0 -0.32558533314E+01 -0.86170771960E+00  0.14435284330E+04  0.14435669988E+04  0.10000000000E+02 0. -1.
</event>
<event>
 5    1  0.9123258E-009  0.3777198E+03  0.7957747E-01  0.3461147E+00
         13   -1    0    0    0    0  0.00000000000E+00  0.00000000000E+00  0.14999999963E+04  0.15000000000E+04  0.10566000000E+00 0. -1.
        994   -1    0    0    0    0 -0.00000000000E+00 -0.00000000000E+00  0.11368683772E-12  0.17120000000E+03  0.17120000000E+03 0.  0.
         13    1    1    2    0    0  0.85111761220E+02 -0.14167624758E+02  0.51482127401E+03  0.52200161765E+03  0.10566000000E+00 0. -1.
        994    1    1    2    0    0 -0.74080189529E+02  0.26921427543E+02  0.26508921022E+02  0.19032813937E+03  0.17120000000E+03 0.  0.
        998    1    1    2    0    0 -0.11031571692E+02 -0.12753802786E+02  0.95866980124E+03  0.95887024298E+03  0.10000000000E+02 0.  1.
</event>
<event>
 5    1  0.9123258E-009  0.3778867E+03  0.7957747E-01  0.3460412E+00
         13   -1    0    0    0    0  0.00000000000E+00  0.00000000000E+00  0.14999999963E+04  0.15000000000E+04  0.10566000000E+00 0.  1.
        994   -1    0    0    0    0 -0.00000000000E+00 -0.00000000000E+00  0.11368683772E-12  0.17120000000E+03  0.17120000000E+03 0.  0.
         13    1    1    2    0    0  0.54128506115E+02  0.10476855475E+03  0.64515192919E+03  0.65584096254E+03  0.10566000000E+00 0.  1.
        994    1    1    2    0    0 -0.76204134739E+02 -0.10369753874E+03  0.63148299868E+02  0.22328770111E+03  0.17120000000E+03 0.  0.
        998    1    1    2    0    0  0.22075628623E+02 -0.10710160097E+01  0.79169976722E+03  0.79207133635E+03  0.10000000000E+02 0.  1.
</event>
<event>
 5    1  0.9123258E-009  0.3777541E+03  0.7957747E-01  0.3460996E+00
         13   -1    0    0    0    0  0.00000000000E+00  0.00000000000E+00  0.14999999963E+04  0.15000000000E+04  0.10566000000E+00 0. -1.
        994   -1    0    0    0    0 -0.00000000000E+00 -0.00000000000E+00  0.11368683772E-12  0.17120000000E+03  0.17120000000E+03 0.  0.
         13    1    1    2    0    0  0.13897356127E+02  0.72035853306E+01  0.21214195425E+02  0.26364396456E+02  0.10566000000E+00 0. -1.
        994    1    1    2    0    0 -0.29763136220E+01 -0.99277630957E+01  0.56330511995E+01  0.17160591537E+03  0.17120000000E+03 0.  0.
        998    1    1    2    0    0 -0.10921042505E+02  0.27241777651E+01  0.14731527497E+04  0.14732296882E+04  0.10000000000E+02 0. -1.
</event>
<event>
 5    1  0.9123258E-009  0.3703687E+03  0.7957747E-01  0.3494198E+00
         13   -1    0    0    0    0  0.00000000000E+00  0.00000000000E+00  0.14999999963E+04  0.15000000000E+04  0.10566000000E+00 0.  1.
        994   -1    0    0    0    0 -0.00000000000E+00 -0.00000000000E+00  0.11368683772E-12  0.17120000000E+03  0.17120000000E+03 0.  0.
         13    1    1    2    0    0 -0.12107552533E+03 -0.67318688765E+02  0.66502377187E+03  0.67929943104E+03  0.10566000000E+00 0.  1.
        994    1    1    2    0    0  0.12118768107E+03  0.39912551764E+02  0.67587551094E+02  0.22395754708E+03  0.17120000000E+03 0.  0.
        998    1    1    2    0    0 -0.11215574626E+00  0.27406137000E+02  0.76738867331E+03  0.76794302188E+03  0.10000000000E+02 0.  1.
</event>
<event>
 5    1  0.9123258E-009  0.3851620E+03  0.7957747E-01  0.3428985E+00
         13   -1    0    0    0    0  0.00000000000E+00  0.00000000000E+00  0.14999999963E+04  0.15000000000E+04  0.10566000000E+00 0. -1.
        994   -1    0    0    0    0 -0.00000000000E+00 -0.00000000000E+00  0.11368683772E-12  0.17120000000E+03  0.17120000000E+03 0.  0.
         13    1    1    2    0    0 -0.13941672451E+02 -0.19303167408E+01  0.66105616928E+02  0.67587425657E+02  0.10566000000E+00 0. -1.
        994    1    1    2    0    0  0.54476471209E+01 -0.66480867620E+01  0.17925888059E+01  0.17142499028E+03  0.17120000000E+03 0.  0.
        998    1    1    2    0    0  0.84940253296E+01  0.85784035028E+01  0.14321017905E+04  0.14321875841E+04  0.10000000000E+02 0. -1.
</event>
<event>
 5    1  0.9123258E-009  0.3764727E+03  0.7957747E-01  0.3466662E+00
         13   -1    0    0    0    0  0.00000000000E+00  0.00000000000E+00  0.14999999963E+04  0.15000000000E+04  0.10566000000E+00 0.  1.
        994   -1    0    0    0    0 -0.00000000000E+00 -0.00000000000E+00  0.11368683772E-12  0.17120000000E+03  0.17120000000E+03 0.  0.
         13    1    1    2    0    0  0.21493199643E+02  0.21794576677E+02  0.86153284105E+02  0.91429539699E+02  0.10566000000E+00 0.  1.
        994    1    1    2    0    0 -0.51466168267E+01  0.16356479570E+02  0.69195166952E+01  0.17219564977E+03  0.17120000000E+03 0.  0.
        998    1    1    2    0    0 -0.16346582817E+02 -0.38151056247E+02  0.14069271955E+04  0.14075748105E+04  0.10000000000E+02 0.  1.
</event>
<event>
 5    1  0.9123258E-009  0.3810283E+03  0.7957747E-01  0.3446693E+00
         13   -1    0    0    0    0  0.00000000000E+00  0.00000000000E+00  0.14999999963E+04  0.15000000000E+04  0.10566000000E+00 0.  1.
        994   -1    0    0    0    0 -0.00000000000E+00 -0.00000000000E+00  0.11368683772E-12  0.17120000000E+03  0.17120000000E+03 0.  0.
         13    1    1    2    0    0  0.72252316275E+01 -0.21182861701E+02  0.75651340421E+02  0.78892674396E+02  0.10566000000E+00 0.  1.
        994    1    1    2    0    0 -0.40644313224E+01 -0.96222240656E+01  0.39785458547E+01  0.17156449407E+03  0.17120000000E+03 0.  0.
        998    1    1    2    0    0 -0.31608003051E+01  0.30805085766E+02  0.14203701100E+04  0.14207428315E+04  0.10000000000E+02 0.  1.
</event>
<event>
 5    1  0.9123258E-009  0.3754029E+03  0.7957747E-01  0.3471423E+00
         13   -1    0    0    0    0  0.00000000000E+00  0.00000000000E+00  0.14999999963E+04  0.15000000000E+04  0.10566000000E+00 0.  1.
        994   -1    0    0    0    0 -0.00000000000E+00 -0.00000000000E+00  0.11368683772E-12  0.17120000000E+03  0.17120000000E+03 0.  0.
         13    1    1    2    0    0 -0.48844459539E+02 -0.17825925973E+02  0.84517281243E+02  0.99230674982E+02  0.10566000000E+00 0.  1.
        994    1    1    2    0    0  0.58812254653E+02  0.27261427724E+02  0.28954571597E+02  0.18533718989E+03  0.17120000000E+03 0.  0.
        998    1    1    2    0    0 -0.99677951137E+01 -0.94355017510E+01  0.13865281434E+04  0.13866321351E+04  0.10000000000E+02 0.  1.
</event>
<event>
 5    1  0.9123258E-009  0.3851471E+03  0.7957747E-01  0.3429048E+00
         13   -1    0    0    0    0  0.00000000000E+00  0.00000000000E+00  0.14999999963E+04  0.15000000000E+04  0.10566000000E+00 0.  1.
        994   -1    0    0    0    0 -0.00000000000E+00 -0.00000000000E+00  0.11368683772E-12  0.17120000000E+03  0.17120000000E+03 0.  0.
         13    1    1    2    0    0  0.12528341110E+02 -0.55372974414E+01  0.59099186478E+02  0.60665855308E+02  0.10566000000E+00 0.  1.
        994    1    1    2    0    0 -0.94148020432E+01  0.94864021262E+01  0.21445036912E+01  0.17173429832E+03  0.17120000000E+03 0.  0.
        998    1    1    2    0    0 -0.31135390669E+01 -0.39491046847E+01  0.14387563061E+04  0.14387998464E+04  0.10000000000E+02 0.  1.
</event>
<event>
 5    1  0.9123258E-009  0.3849735E+03  0.7957747E-01  0.3429785E+00
         13   -1    0    0    0    0  0.00000000000E+00  0.00000000000E+00  0.14999999963E+04  0.15000000000E+04  0.10566000000E+00 0. -1.
        994   -1    0    0    0    0 -0.00000000000E+00 -0.00000000000E+00  0.11368683772E-12  0.17120000000E+03  0.17120000000E+03 0.  0.
         13    1    1    2    0    0  0.15163550422E+02  0.75571894780E+01  0.81852380412E+02  0.83587485411E+02  0.10566000000E+00 0. -1.
        994    1    1    2    0    0 -0.18919623101E+02 -0.75612123664E+01  0.30098199316E+01  0.17243440227E+03  0.17120000000E+03 0.  0.
        998    1    1    2    0    0  0.37560726784E+01  0.40228883881E-02  0.14151377959E+04  0.14151781123E+04  0.10000000000E+02 0. -1.
</event>
<event>
 5    1  0.9123258E-009  0.3842526E+03  0.7957747E-01  0.3432848E+00
         13   -1    0    0    0    0  0.00000000000E+00  0.00000000000E+00  0.14999999963E+04  0.15000000000E+04  0.10566000000E+00 0. -1.
        994   -1    0    0    0    0 -0.00000000000E+00 -0.00000000000E+00  0.11368683772E-12  0.17120000000E+03  0.17120000000E+03 0.  0.
         13    1    1    2    0    0 -0.59863395246E+00 -0.20793196663E+02  0.11514913311E+03  0.11701303095E+03  0.10566000000E+00 0. -1.
        994    1    1    2    0    0  0.13891598876E+02  0.43658313869E+01  0.27009807427E+01  0.17183937936E+03  0.17120000000E+03 0.  0.
        998    1    1    2    0    0 -0.13292964923E+02  0.16427365276E+02  0.13821498824E+04  0.13823475897E+04  0.10000000000E+02 0. -1.
</event>
<event>
 5    1  0.1405374E-008  0.3863034E+03  0.7957747E-01  0.3424163E+00
         13   -1    0    0    0    0  0.00000000000E+00  0.00000000000E+00  0.14999999963E+04  0.15000000000E+04  0.10566000000E+00 0.  1.
        994   -1    0    0    0    0 -0.00000000000E+00 -0.00000000000E+00  0.11368683772E-12  0.17120000000E+03  0.17120000000E+03 0.  0.
         13    1    1    2    0    0 -0.27502237033E+01  0.10344566964E+02  0.59031087709E+02  0.59993785313E+02  0.10566000000E+00 0.  1.
        994    1    1    2    0    0 -0.13391753709E+02 -0.11826929320E+02  0.20304785082E+01  0.17214173860E+03  0.17120000000E+03 0.  0.
        998    1    1    2    0    0  0.16141977412E+02  0.14823623562E+01  0.14389384301E+04  0.14390644761E+04  0.10000000000E+02 0.  1.
</event>
<event>
 5    1  0.9123258E-009  0.3862453E+03  0.7957747E-01  0.3424408E+00
         13   -1    0    0    0    0  0.00000000000E+00  0.00000000000E+00  0.14999999963E+04  0.15000000000E+04  0.10566000000E+00 0.  1.
        994   -1    0    0    0    0 -0.00000000000E+00 -0.00000000000E+00  0.11368683772E-12  0.17120000000E+03  0.17120000000E+03 0.  0.
         13    1    1    2    0    0 -0.88838512265E+01 -0.65665461089E+01  0.60151246703E+02  0.61157386998E+02  0.10566000000E+00 0.  1.
        994    1    1    2    0    0  0.62701103234E+01  0.78100209718E+01  0.13417685870E+01  0.17149796224E+03  0.17120000000E+03 0.  0.
        998    1    1    2    0    0  0.26137409031E+01 -0.12434748629E+01  0.14385069810E+04  0.14385446508E+04  0.10000000000E+02 0.  1.
</event>
<event>
 5    1  0.9123258E-009  0.3847361E+03  0.7957747E-01  0.3430792E+00
         13   -1    0    0    0    0  0.00000000000E+00  0.00000000000E+00  0.14999999963E+04  0.15000000000E+04  0.10566000000E+00 0.  1.
        994   -1    0    0    0    0 -0.00000000000E+00 -0.00000000000E+00  0.11368683772E-12  0.17120000000E+03  0.17120000000E+03 0.  0.
         13    1    1    2    0    0  0.38427925009E+01  0.14387651948E+02  0.62715870436E+02  0.64459779330E+02  0.10566000000E+00 0.  1.
        994    1    1    2    0    0 -0.61001836602E+01 -0.88558823612E+01  0.21419511145E+01  0.17155077047E+03  0.17120000000E+03 0.  0.
        998    1    1    2    0    0  0.22573911593E+01 -0.55317695870E+01  0.14351421747E+04  0.14351894502E+04  0.10000000000E+02 0.  1.
</event>
<event>
 5    1  0.9123258E-009  0.3772634E+03  0.7957747E-01  0.3463161E+00
         13   -1    0    0    0    0  0.00000000000E+00  0.00000000000E+00  0.14999999963E+04  0.15000000000E+04  0.10566000000E+00 0. -1.
        994   -1    0    0    0    0 -0.00000000000E+00 -0.00000000000E+00  0.11368683772E-12  0.17120000000E+03  0.17120000000E+03 0.  0.
         13    1    1    2    0    0  0.30460089811E+02 -0.52566873457E+02  0.11918094549E+03  0.13377295014E+03  0.10566000000E+00 0. -1.
        994    1    1    2    0    0 -0.25553022290E+02  0.31571562269E+02  0.20773908028E+02  0.17717425249E+03  0.17120000000E+03 0.  0.
        998    1    1    2    0    0 -0.49070675208E+01  0.20995311188E+02  0.13600451428E+04  0.13602527974E+04  0.10000000000E+02 0. -1.
</event>
<event>
 5    1  0.9123258E-009  0.3860116E+03  0.7957747E-01  0.3425393E+00
         13   -1    0    0    0    0  0.00000000000E+00  0.00000000000E+00  0.14999999963E+04  0.15000000000E+04  0.10566000000E+00 0. -1.
        994   -1    0    0    0    0 -0.00000000000E+00 -0.00000000000E+00  0.11368683772E-12  0.17120000000E+03  0.17120000000E+03 0.  0.
         13    1    1    2    0    0 -0.86213017197E+00 -0.10816748825E+02  0.52657312469E+02  0.53763826539E+02  0.10566000000E+00 0. -1.
        994    1    1    2    0    0  0.41022457231E+01  0.73591434161E+01  0.13614509938E+01  0.17141259861E+03  0.17120000000E+03 0.  0.
        998    1    1    2    0    0 -0.32401155511E+01  0.34576054092E+01  0.14459812328E+04  0.14460235749E+04  0.10000000000E+02 0. -1.
</event>
<event>
 5    1  0.9123258E-009  0.3808291E+03  0.7957747E-01  0.3447556E+00
         13   -1    0    0    0    0  0.00000000000E+00  0.00000000000E+00  0.14999999963E+04  0.15000000000E+04  0.10566000000E+00 0.  1.
        994   -1    0    0    0    0 -0.00000000000E+00 -0.00000000000E+00  0.11368683772E-12  0.17120000000E+03  0.17120000000E+03 0.  0.
         13    1    1    2    0    0  0.29994624561E+02  0.21768464934E+02  0.17699650782E+03  0.18083505886E+03  0.10566000000E+00 0.  1.
        994    1    1    2    0    0 -0.23689467669E+02 -0.12753091894E+02  0.61320232816E+01  0.17340955551E+03  0.17120000000E+03 0.  0.
        998    1    1    2    0    0 -0.63051568919E+01 -0.90153730398E+01  0.13168714652E+04  0.13169553856E+04  0.10000000000E+02 0.  1.
</event>
<event>
 5    1  0.9123258E-009  0.3857899E+03  0.7957747E-01  0.3426329E+00
         13   -1    0    0    0    0  0.00000000000E+00  0.00000000000E+00  0.14999999963E+04  0.15000000000E+04  0.10566000000E+00 0. -1.
        994   -1    0    0    0    0 -0.00000000000E+00 -0.00000000000E+00  0.11368683772E-12  0.17120000000E+03  0.17120000000E+03 0.  0.
         13    1    1    2    0    0 -0.19780098765E+02  0.18797611778E+02  0.10629755110E+02  0.29284900093E+02  0.10566000000E+00 0. -1.
        994    1    1    2    0    0  0.20285157574E+02 -0.16385286121E+02  0.22065944582E+02  0.17457465775E+03  0.17120000000E+03 0.  0.
        998    1    1    2    0    0 -0.50505880847E+00 -0.24123256578E+01  0.14673042966E+04  0.14673404422E+04  0.10000000000E+02 0. -1.
</event>
<event>
 5    1  0.9123258E-009  0.3844124E+03  0.7957747E-01  0.3432168E+00
         13   -1    0    0    0    0  0.00000000000E+00  0.00000000000E+00  0.14999999963E+04  0.15000000000E+04  0.10566000000E+00 0. -1.
        994   -1    0    0    0    0 -0.00000000000E+00 -0.00000000000E+00  0.11368683772E-12  0.17120000000E+03  0.17120000000E+03 0.  0.
         13    1    1    2    0    0 -0.15562898475E+02 -0.68098074507E+01  0.75496792772E+02  0.77384456898E+02  0.10566000000E+00 0. -1.
        994    1    1    2    0    0  0.81858249671E+01  0.51401643821E+01  0.22300750640E+01  0.17148714895E+03  0.17120000000E+03 0.  0.
        998    1    1    2    0    0  0.73770735077E+01  0.16696430686E+01  0.14222731284E+04  0.14223283942E+04  0.10000000000E+02 0. -1.
</event>
<event>
 5    1  0.9123258E-009  0.3787704E+03  0.7957747E-01  0.3456530E+00
         13   -1    0    0    0    0  0.00000000000E+00  0.00000000000E+00  0.14999999963E+04  0.15000000000E+04  0.10566000000E+00 0. -1.
        994   -1    0    0    0    0 -0.00000000000E+00 -0.00000000000E+00  0.11368683772E-12  0.17120000000E+03  0.17120000000E+03 0.  0.
         13    1    1    2    0    0 -0.15265349220E+02 -0.50953023618E+01  0.10994068805E+01  0.16131114422E+02  0.10566000000E+00 0. -1.
        994    1    1    2    0    0  0.17239760496E+02  0.71018249886E+01  0.16908525306E+02  0.17304040999E+03  0.17120000000E+03 0.  0.
        998    1    1    2    0    0 -0.19744112757E+01 -0.20065226268E+01  0.14819920641E+04  0.14820284756E+04  0.10000000000E+02 0. -1.
</event>
<event>
 5    1  0.9123258E-009  0.3840275E+03  0.7957747E-01  0.3433807E+00
         13   -1    0    0    0    0  0.00000000000E+00  0.00000000000E+00  0.14999999963E+04  0.15000000000E+04  0.10566000000E+00 0.  1.
        994   -1    0    0    0    0 -0.00000000000E+00 -0.00000000000E+00  0.11368683772E-12  0.17120000000E+03  0.17120000000E+03 0.  0.
         13    1    1    2    0    0  0.82751896848E+01  0.65092787239E+01  0.24568932027E+02  0.26730002971E+02  0.10566000000E+00 0.  1.
        994    1    1    2    0    0 -0.17689131307E+02 -0.74775241446E+01  0.33314489589E+01  0.17230599898E+03  0.17120000000E+03 0.  0.
        998    1    1    2    0    0  0.94139416219E+01  0.96824542074E+00  0.14720996153E+04  0.14721639980E+04  0.10000000000E+02 0.  1.
</event>
<event>
 5    1  0.9123258E-009  0.3794218E+03  0.7957747E-01  0.3453680E+00
         13   -1    0    0    0    0  0.00000000000E+00  0.00000000000E+00  0.14999999963E+04  0.15000000000E+04  0.10566000000E+00 0. -1.
        994   -1    0    0    0    0 -0.00000000000E+00 -0.00000000000E+00  0.11368683772E-12  0.17120000000E+03  0.17120000000E+03 0.  0.
         13    1    1    2    0    0  0.16372329326E+02 -0.38333425147E+02  0.18333730004E+03  0.18801617325E+03  0.10566000000E+00 0. -1.
        994    1    1    2    0    0 -0.15958847326E+02  0.29202837202E+02  0.81435228134E+01  0.17459452303E+03  0.17120000000E+03 0.  0.
        998    1    1    2    0    0 -0.41348199994E+00  0.91305879445E+01  0.13085191734E+04  0.13085893037E+04  0.10000000000E+02 0. -1.
</event>
<event>
 5    1  0.9123258E-009  0.3819535E+03  0.7957747E-01  0.3442697E+00
         13   -1    0    0    0    0  0.00000000000E+00  0.00000000000E+00  0.14999999963E+04  0.15000000000E+04  0.10566000000E+00 0.  1.
        994   -1    0    0    0    0 -0.00000000000E+00 -0.00000000000E+00  0.11368683772E-12  0.17120000000E+03  0.17120000000E+03 0.  0.
         13    1    1    2    0    0 -0.24288533547E+02 -0.43540812017E+01  0.95253769662E+02  0.98398082724E+02  0.10566000000E+00 0.  1.
        994    1    1    2    0    0  0.15467971862E+02  0.38708520580E+01  0.39951924815E+01  0.17198733445E+03  0.17120000000E+03 0.  0.
        998    1    1    2    0    0  0.88205616846E+01  0.48322914377E+00  0.14007510341E+04  0.14008145828E+04  0.10000000000E+02 0.  1.
</event>
<event>
 5    1  0.1188159E-008  0.3860751E+03  0.7957747E-01  0.3425125E+00
         13   -1    0    0    0    0  0.00000000000E+00  0.00000000000E+00  0.14999999963E+04  0.15000000000E+04  0.10566000000E+00 0. -1.
        994   -1    0    0    0    0 -0.00000000000E+00 -0.00000000000E+00  0.11368683772E-12  0.17120000000E+03  0.17120000000E+03 0.  0.
         13    1    1    2    0    0 -0.11043798461E+02 -0.14404180155E+01  0.57413937778E+02  0.58484285956E+02  0.10566000000E+00 0. -1.
        994    1    1    2    0    0  0.69474903786E+01  0.16325442121E+01  0.12642195366E+01  0.17135335151E+03  0.17120000000E+03 0.  0.
        998    1    1    2    0    0  0.40963080824E+01 -0.19212619656E+00  0.14413218390E+04  0.14413623625E+04  0.10000000000E+02 0. -1.
</event>
<event>
 5    1  0.9123258E-009  0.3845545E+03  0.7957747E-01  0.3431564E+00
         13   -1    0    0    0    0  0.00000000000E+00  0.00000000000E+00  0.14999999963E+04  0.15000000000E+04  0.10566000000E+00 0.  1.
        994   -1    0    0    0    0 -0.00000000000E+00 -0.00000000000E+00  0.11368683772E-12  0.17120000000E+03  0.17120000000E+03 0.  0.
         13    1    1    2    0    0  0.12445818779E+02 -0.17108987168E+02  0.11679146894E+03  0.11869235118E+03  0.10566000000E+00 0.  1.
        994    1    1    2    0    0 -0.15780088386E+02  0.10010416407E+02  0.30024532352E+01  0.17224306764E+03  0.17120000000E+03 0.  0.
        998    1    1    2    0    0  0.33342696068E+01  0.70985707605E+01  0.13802060741E+04  0.13802645812E+04  0.10000000000E+02 0.  1.
</event>
<event>
 5    1  0.9123258E-009  0.3809744E+03  0.7957747E-01  0.3446927E+00
         13   -1    0    0    0    0  0.00000000000E+00  0.00000000000E+00  0.14999999963E+04  0.15000000000E+04  0.10566000000E+00 0. -1.
        994   -1    0    0    0    0 -0.00000000000E+00 -0.00000000000E+00  0.11368683772E-12  0.17120000000E+03  0.17120000000E+03 0.  0.
         13    1    1    2    0    0  0.39798118890E+02 -0.17119404677E+02  0.25413056219E+03  0.25779704825E+03  0.10566000000E+00 0. -1.
        994    1    1    2    0    0 -0.24504356498E+02  0.83240567595E+01  0.58770211892E+01  0.17324471936E+03  0.17120000000E+03 0.  0.
        998    1    1    2    0    0 -0.15293762392E+02  0.87953479172E+01  0.12399924129E+04  0.12401582324E+04  0.10000000000E+02 0. -1.
</event>
<event>
 5    1  0.9123258E-009  0.3838876E+03  0.7957747E-01  0.3434404E+00
         13   -1    0    0    0    0  0.00000000000E+00  0.00000000000E+00  0.14999999963E+04  0.15000000000E+04  0.10566000000E+00 0.  1.
        994   -1    0    0    0    0 -0.00000000000E+00 -0.00000000000E+00  0.11368683772E-12  0.17120000000E+03  0.17120000000E+03 0.  0.
         13    1    1    2    0    0 -0.96230587861E+01 -0.12601265503E+02  0.55301605059E+02  0.57529764808E+02  0.10566000000E+00 0.  1.
        994    1    1    2    0    0  0.15236933372E+02  0.93278880467E+01  0.32375777192E+01  0.17216008696E+03  0.17120000000E+03 0.  0.
        998    1    1    2    0    0 -0.56138745855E+01  0.32733774566E+01  0.14414608135E+04  0.14415101482E+04  0.10000000000E+02 0.  1.
</event>
<event>
 5    1  0.9123258E-009  0.3791452E+03  0.7957747E-01  0.3454889E+00
         13   -1    0    0    0    0  0.00000000000E+00  0.00000000000E+00  0.14999999963E+04  0.15000000000E+04  0.10566000000E+00 0. -1.
        994   -1    0    0    0    0 -0.00000000000E+00 -0.00000000000E+00  0.11368683772E-12  0.17120000000E+03  0.17120000000E+03 0.  0.
         13    1    1    2    0    0 -0.10979548115E+02  0.24673072542E+02  0.79273114242E+02  0.83746933025E+02  0.10566000000E+00 0. -1.
        994    1    1    2    0    0  0.45334400319E+01 -0.13139900603E+02  0.52132445998E+01  0.17184244815E+03  0.17120000000E+03 0.  0.
        998    1    1    2    0    0  0.64461080836E+01 -0.11533171938E+02  0.14155136374E+04  0.14156106188E+04  0.10000000000E+02 0. -1.
</event>
<event>
 5    1  0.9123258E-009  0.3843475E+03  0.7957747E-01  0.3432444E+00
         13   -1    0    0    0    0  0.00000000000E+00  0.00000000000E+00  0.14999999963E+04  0.15000000000E+04  0.10566000000E+00 0. -1.
        994   -1    0    0    0    0 -0.00000000000E+00 -0.00000000000E+00  0.11368683772E-12  0.17120000000E+03  0.17120000000E+03 0.  0.
         13    1    1    2    0    0 -0.86000716480E+02  0.48909956473E+02  0.29390566532E+03  0.31011104197E+03  0.10566000000E+00 0. -1.
        994    1    1    2    0    0  0.38141698299E+02  0.92208850355E+00  0.24115000942E+02  0.17704974631E+03  0.17120000000E+03 0.  0.
        998    1    1    2    0    0  0.47859018181E+02 -0.49832044976E+02  0.11819793300E+04  0.11840392117E+04  0.10000000000E+02 0. -1.
</event>
<event>
 5    1  0.9123258E-009  0.3834690E+03  0.7957747E-01  0.3436192E+00
         13   -1    0    0    0    0  0.00000000000E+00  0.00000000000E+00  0.14999999963E+04  0.15000000000E+04  0.10566000000E+00 0. -1.
        994   -1    0    0    0    0 -0.00000000000E+00 -0.00000000000E+00  0.11368683772E-12  0.17120000000E+03  0.17120000000E+03 0.  0.
         13    1    1    2    0    0 -0.13810513248E+02  0.16382724560E+02  0.99256828639E+02  0.10154335594E+03  0.10566000000E+00 0. -1.
        994    1    1    2    0    0  0.13387838230E+02  0.15159085807E+01  0.29923763568E+01  0.17175542643E+03  0.17120000000E+03 0.  0.
        998    1    1    2    0    0  0.42267501807E+00 -0.17898633141E+02  0.13977507913E+04  0.13979012176E+04  0.10000000000E+02 0. -1.
</event>
<event>
 5    1  0.9123258E-009  0.3858402E+03  0.7957747E-01  0.3426117E+00
         13   -1    0    0    0    0  0.00000000000E+00  0.00000000000E+00  0.14999999963E+04  0.15000000000E+04  0.10566000000E+00 0. -1.
        994   -1    0    0    0    0 -0.00000000000E+00 -0.00000000000E+00  0.11368683772E-12  0.17120000000E+03  0.17120000000E+03 0.  0.
         13    1    1    2    0    0 -0.11689763244E+02  0.94619475428E+00  0.54577881479E+02  0.55823849384E+02  0.10566000000E+00 0. -1.
        994    1    1    2    0    0  0.14685545365E+02 -0.36220792031E+01  0.19642972410E+01  0.17187810554E+03  0.17120000000E+03 0.  0.
        998    1    1    2    0    0 -0.29957821207E+01  0.26758844488E+01  0.14434578176E+04  0.14434980451E+04  0.10000000000E+02 0. -1.
</event>
<event>
 5    1  0.9123258E-009  0.3742383E+03  0.7957747E-01  0.3476636E+00
         13   -1    0    0    0    0  0.00000000000E+00  0.00000000000E+00  0.14999999963E+04  0.15000000000E+04  0.10566000000E+00 0. -1.
        994   -1    0    0    0    0 -0.00000000000E+00 -0.00000000000E+00  0.11368683772E-12  0.17120000000E+03  0.17120000000E+03 0.  0.
         13    1    1    2    0    0  0.50594355198E+02  0.37993336807E+02  0.28342905367E+03  0.29040544425E+03  0.10566000000E+00 0. -1.
        994    1    1    2    0    0 -0.13657116559E+03  0.73930137113E+02  0.94297452350E+02  0.24963733287E+03  0.17120000000E+03 0.  0.
        998    1    1    2    0    0  0.85976810391E+02 -0.11192347392E+03  0.11222734903E+04  0.11311572229E+04  0.10000000000E+02 0. -1.
</event>
<event>
 5    1  0.9123258E-009  0.3829922E+03  0.7957747E-01  0.3438233E+00
         13   -1    0    0    0    0  0.00000000000E+00  0.00000000000E+00  0.14999999963E+04  0.15000000000E+04  0.10566000000E+00 0.  1.
        994   -1    0    0    0    0 -0.00000000000E+00 -0.00000000000E+00  0.11368683772E-12  0.17120000000E+03  0.17120000000E+03 0.  0.
         13    1    1    2    0    0 -0.10339533119E+02  0.45729499406E+01  0.25008564728E+02  0.27445533153E+02  0.10566000000E+00 0.  1.
        994    1    1    2    0    0 -0.10054493103E+02  0.80557444406E+01  0.31799320381E+01  0.17171354000E+03  0.17120000000E+03 0.  0.
        998    1    1    2    0    0  0.20394026222E+02 -0.12628694381E+02  0.14718114995E+04  0.14720409269E+04  0.10000000000E+02 0.  1.
</event>
<event>
 5    1  0.9123258E-009  0.3821055E+03  0.7957747E-01  0.3442042E+00
         13   -1    0    0    0    0  0.00000000000E+00  0.00000000000E+00  0.14999999963E+04  0.15000000000E+04  0.10566000000E+00 0. -1.
        994   -1    0    0    0    0 -0.00000000000E+00 -0.00000000000E+00  0.11368683772E-12  0.17120000000E+03  0.17120000000E+03 0.  0.
         13    1    1    2    0    0 -0.56462948358E+01  0.27462370649E+02  0.11685364752E+03  0.12017008175E+03  0.10566000000E+00 0. -1.
        994    1    1    2    0    0  0.12321496738E+02 -0.28196060898E+02  0.62237421365E+01  0.17405462389E+03  0.17120000000E+03 0.  0.
        998    1    1    2    0    0 -0.66752019023E+01  0.73369024824E+00  0.13769226066E+04  0.13769752944E+04  0.10000000000E+02 0. -1.
</event>
<event>
 5    1  0.9123258E-009  0.3740260E+03  0.7957747E-01  0.3477590E+00
         13   -1    0    0    0    0  0.00000000000E+00  0.00000000000E+00  0.14999999963E+04  0.15000000000E+04  0.10566000000E+00 0. -1.
        994   -1    0    0    0    0 -0.00000000000E+00 -0.00000000000E+00  0.11368683772E-12  0.17120000000E+03  0.17120000000E+03 0.  0.
         13    1    1    2    0    0  0.27509265763E+02  0.74909322810E+01  0.49835860805E+02  0.57415136990E+02  0.10566000000E+00 0. -1.
        994    1    1    2    0    0 -0.40653055045E+02 -0.16080880574E+02  0.13726049451E+02  0.17722615506E+03  0.17120000000E+03 0.  0.
        998    1    1    2    0    0  0.13143789281E+02  0.85899482926E+01  0.14364380860E+04  0.14365587079E+04  0.10000000000E+02 0. -1.
</event>
<event>
 5    1  0.9123258E-009  0.3830783E+03  0.7957747E-01  0.3437863E+00
         13   -1    0    0    0    0  0.00000000000E+00  0.00000000000E+00  0.14999999963E+04  0.15000000000E+04  0.10566000000E+00 0. -1.
        994   -1    0    0    0    0 -0.00000000000E+00 -0.00000000000E+00  0.11368683772E-12  0.17120000000E+03  0.17120000000E+03 0.  0.
         13    1    1    2    0    0  0.10929548749E+02 -0.73066154024E+01  0.35165695846E+02  0.37543028552E+02  0.10566000000E+00 0. -1.
        994    1    1    2    0    0  0.68962063312E+01 -0.90249377111E+01  0.30142632780E+01  0.17160283490E+03  0.17120000000E+03 0.  0.
        998    1    1    2    0    0 -0.17825755080E+02  0.16331553114E+02  0.14618200372E+04  0.14620541365E+04  0.10000000000E+02 0. -1.
</event>
<event>
 5    1  0.9123258E-009  0.3835674E+03  0.7957747E-01  0.3435771E+00
         13   -1    0    0    0    0  0.00000000000E+00  0.00000000000E+00  0.14999999963E+04  0.15000000000E+04  0.10566000000E+00 0. -1.
        994   -1    0    0    0    0 -0.00000000000E+00 -0.00000000000E+00  0.11368683772E-12  0.17120000000E+03  0.17120000000E+03 0.  0.
         13    1    1    2    0    0  0.15643714474E+01  0.27418782912E+02  0.15382213007E+03  0.15625458642E+03  0.10566000000E+00 0. -1.
        994    1    1    2    0    0  0.62908757815E+01 -0.21957781373E+02  0.40687126630E+01  0.17276490877E+03  0.17120000000E+03 0.  0.
        998    1    1    2    0    0 -0.78552472289E+01 -0.54610015390E+01  0.13421091535E+04  0.13421805048E+04  0.10000000000E+02 0. -1.
</event>
<event>
 5    1  0.9123258E-009  0.3755058E+03  0.7957747E-01  0.3470964E+00
         13   -1    0    0    0    0  0.00000000000E+00  0.00000000000E+00  0.14999999963E+04  0.15000000000E+04  0.10566000000E+00 0.  1.
        994   -1    0    0    0    0 -0.00000000000E+00 -0.00000000000E+00  0.11368683772E-12  0.17120000000E+03  0.17120000000E+03 0.  0.
         13    1    1    2    0    0 -0.16600523228E+03  0.40805931421E+02  0.87399980201E+03  0.89056079313E+03  0.10566000000E+00 0.  1.
        994    1    1    2    0    0  0.16641119125E+03 -0.25777882206E+02  0.10967522407E+03  0.26399863363E+03  0.17120000000E+03 0.  0.
        998    1    1    2    0    0 -0.40595896488E+00 -0.15028049215E+02  0.51632497020E+03  0.51664057324E+03  0.10000000000E+02 0. -1.
</event>
<event>
 5    1  0.9123258E-009  0.3802639E+03  0.7957747E-01  0.3450010E+00
         13   -1    0    0    0    0  0.00000000000E+00  0.00000000000E+00  0.14999999963E+04  0.15000000000E+04  0.10566000000E+00 0.  1.
        994   -1    0    0    0    0 -0.00000000000E+00 -0.00000000000E+00  0.11368683772E-12  0.17120000000E+03  0.17120000000E+03 0.  0.
         13    1    1    2    0    0 -0.15470167944E+02  0.28663749742E+01  0.29790264099E+02  0.33689956973E+02  0.10566000000E+00 0.  1.
        994    1    1    2    0    0  0.41382137138E+01 -0.10812268098E+02  0.44477705807E+01  0.17164863127E+03  0.17120000000E+03 0.  0.
        998    1    1    2    0    0  0.11331954231E+02  0.79458931237E+01  0.14657619616E+04  0.14658614118E+04  0.10000000000E+02 0.  1.
</event>
<event>
 5    1  0.9123258E-009  0.3841712E+03  0.7957747E-01  0.3433195E+00
         13   -1    0    0    0    0  0.00000000000E+00  0.00000000000E+00  0.14999999963E+04  0.15000000000E+04  0.10566000000E+00 0.  1.
        994   -1    0    0    0    0 -0.00000000000E+00 -0.00000000000E+00  0.11368683772E-12  0.17120000000E+03  0.17120000000E+03 0.  0.
         13    1    1    2    0    0 -0.76994281497E+01  0.14317554532E+02  0.66383294562E+02  0.68344908534E+02  0.10566000000E+00 0.  1.
        994    1    1    2    0    0  0.19435454431E+01 -0.48715517647E+01  0.21328781787E+01  0.17129360337E+03  0.17120000000E+03 0.  0.
        998    1    1    2    0    0  0.57558827066E+01 -0.94460027670E+01  0.14314838235E+04  0.14315614881E+04  0.10000000000E+02 0.  1.
</event>
<event>
 5    1  0.9123258E-009  0.3845828E+03  0.7957747E-01  0.3431443E+00
         13   -1    0    0    0    0  0.00000000000E+00  0.00000000000E+00  0.14999999963E+04  0.15000000000E+04  0.10566000000E+00 0.  1.
        994   -1    0    0    0    0 -0.00000000000E+00 -0.00000000000E+00  0.11368683772E-12  0.17120000000E+03  0.17120000000E+03 0.  0.
         13    1    1    2    0    0  0.11874433013E+02 -0.10574494597E+02  0.68670750536E+02  0.70487624720E+02  0.10566000000E+00 0.  1.
        994    1    1    2    0    0 -0.10771025194E+02  0.33595114864E+01  0.22567257452E+01  0.17158622938E+03  0.17120000000E+03 0.  0.
        998    1    1    2    0    0 -0.11034078188E+01  0.72149831108E+01  0.14290725200E+04  0.14291261459E+04  0.10000000000E+02 0.  1.
</event>
<event>
 5    1  0.9123258E-009  0.3848296E+03  0.7957747E-01  0.3430395E+00
         13   -1    0    0    0    0  0.00000000000E+00  0.00000000000E+00  0.14999999963E+04  0.15000000000E+04  0.10566000000E+00 0.  1.
        994   -1    0    0    0    0 -0.00000000000E+00 -0.00000000000E+00  0.11368683772E-12  0.17120000000E+03  0.17120000000E+03 0.  0.
         13    1    1    2    0    0 -0.52327224494E+01  0.11986852580E+02  0.47643532843E+02  0.49406309362E+02  0.10566000000E+00 0.  1.
        994    1    1    2    0    0  0.49655584259E+01 -0.16250612638E+02  0.26654170224E+01  0.17206185989E+03  0.17120000000E+03 0.  0.
        998    1    1    2    0    0  0.26716402349E+00  0.42637600582E+01  0.14496910464E+04  0.14497318307E+04  0.10000000000E+02 0.  1.
</event>
<event>
 5    1  0.9123258E-009  0.3703103E+03  0.7957747E-01  0.3494466E+00
         13   -1    0    0    0    0  0.00000000000E+00  0.00000000000E+00  0.14999999963E+04  0.15000000000E+04  0.10566000000E+00 0.  1.
        994   -1    0    0    0    0 -0.00000000000E+00 -0.00000000000E+00  0.11368683772E-12  0.17120000000E+03  0.17120000000E+03 0.  0.
         13    1    1    2    0    0  0.48730076002E+01 -0.54139858466E+02  0.14125184017E+03  0.15135046743E+03  0.10566000000E+00 0.  1.
        994    1    1    2    0    0  0.94860475727E+00  0.60303108463E+02  0.21777147396E+02  0.18281424696E+03  0.17120000000E+03 0.  0.
        998    1    1    2    0    0 -0.58216123575E+01 -0.61632499970E+01  0.13369710087E+04  0.13370352856E+04  0.10000000000E+02 0.  1.
</event>
<event>
 5    1  0.9123258E-009  0.3838261E+03  0.7957747E-01  0.3434666E+00
         13   -1    0    0    0    0  0.00000000000E+00  0.00000000000E+00  0.14999999963E+04  0.15000000000E+04  0.10566000000E+00 0.  1.
        994   -1    0    0    0    0 -0.00000000000E+00 -0.00000000000E+00  0.11368683772E-12  0.17120000000E+03  0.17120000000E+03 0.  0.
         13    1    1    2    0    0 -0.10574996039E+02 -0.99087283854E+01  0.44964844619E+02  0.47242585186E+02  0.10566000000E+00 0.  1.
        994    1    1    2    0    0  0.12229615682E+02  0.14323813943E+02  0.33860272021E+01  0.17226619032E+03  0.17120000000E+03 0.  0.
        998    1    1    2    0    0 -0.16546196432E+01 -0.44150855580E+01  0.14516491245E+04  0.14516912245E+04  0.10000000000E+02 0.  1.
</event>
<event>
 5    1  0.9123258E-009  0.3821628E+03  0.7957747E-01  0.3441795E+00
         13   -1    0    0    0    0  0.00000000000E+00  0.00000000000E+00  0.14999999963E+04  0.15000000000E+04  0.10566000000E+00 0.  1.
        994   -1    0    0    0    0 -0.00000000000E+00 -0.00000000000E+00  0.11368683772E-12  0.17120000000E+03  0.17120000000E+03 0.  0.
         13    1    1    2    0    0  0.19083808152E+02 -0.94385166724E+02  0.22055281091E+03  0.24065806655E+03  0.10566000000E+00 0.  1.
        994    1    1    2    0    0 -0.20258717415E+02  0.93658236410E+02  0.51884486202E+02  0.20293772638E+03  0.17120000000E+03 0.  0.
        998    1    1    2    0    0  0.11749092636E+01  0.72693031391E+00  0.12275626992E+04  0.12276042071E+04  0.10000000000E+02 0.  1.
</event>
<event>
 5    1  0.1103786E-008  0.3860742E+03  0.7957747E-01  0.3425129E+00
         13   -1    0    0    0    0  0.00000000000E+00  0.00000000000E+00  0.14999999963E+04  0.15000000000E+04  0.10566000000E+00 0.  1.
        994   -1    0    0    0    0 -0.00000000000E+00 -0.00000000000E+00  0.11368683772E-12  0.17120000000E+03  0.17120000000E+03 0.  0.
         13    1    1    2    0    0  0.79863251958E+00 -0.11139889022E+02  0.55541629734E+02  0.56653497146E+02  0.10566000000E+00 0.  1.
        994    1    1    2    0    0  0.48003105614E+01  0.12977172137E+02  0.17254511527E+01  0.17176689774E+03  0.17120000000E+03 0.  0.
        998    1    1    2    0    0 -0.55989430810E+01 -0.18372831153E+01  0.14427329154E+04  0.14427796051E+04  0.10000000000E+02 0.  1.
</event>
<event>
 5    1  0.1517843E-008  0.3857978E+03  0.7957747E-01  0.3426296E+00
         13   -1    0    0    0    0  0.00000000000E+00  0.00000000000E+00  0.14999999963E+04  0.15000000000E+04  0.10566000000E+00 0. -1.
        994   -1    0    0    0    0 -0.00000000000E+00 -0.00000000000E+00  0.11368683772E-12  0.17120000000E+03  0.17120000000E+03 0.  0.
         13    1    1    2    0    0  0.93146099549E+01 -0.45079531930E+01  0.42699373808E+02  0.43935535598E+02  0.10566000000E+00 0. -1.
        994    1    1    2    0    0 -0.10568424335E+02  0.33813868112E+01  0.16385248628E+01  0.17156704268E+03  0.17120000000E+03 0.  0.
        998    1    1    2    0    0  0.12538143798E+01  0.11265663818E+01  0.14556620976E+04  0.14556974217E+04  0.10000000000E+02 0. -1.
</event>
<event>
 5    1  0.9123258E-009  0.3823919E+03  0.7957747E-01  0.3440809E+00
         13   -1    0    0    0    0  0.00000000000E+00  0.00000000000E+00  0.14999999963E+04  0.15000000000E+04  0.10566000000E+00 0. -1.
        994   -1    0    0    0    0 -0.00000000000E+00 -0.00000000000E+00  0.11368683772E-12  0.17120000000E+03  0.17120000000E+03 0.  0.
         13    1    1    2    0    0  0.10929253399E+02 -0.59352234107E+01  0.25854444208E+02  0.28690397455E+02  0.10566000000E+00 0. -1.
        994    1    1    2    0    0 -0.84613066740E+01 -0.11355474255E+02  0.35959926301E+01  0.17182232588E+03  0.17120000000E+03 0.  0.
        998    1    1    2    0    0 -0.24679467251E+01  0.17290697666E+02  0.14705495594E+04  0.14706872767E+04  0.10000000000E+02 0. -1.
</event>
<event>
 5    1  0.9123258E-009  0.3764092E+03  0.7957747E-01  0.3466944E+00
         13   -1    0    0    0    0  0.00000000000E+00  0.00000000000E+00  0.14999999963E+04  0.15000000000E+04  0.10566000000E+00 0. -1.
        994   -1    0    0    0    0 -0.00000000000E+00 -0.00000000000E+00  0.11368683772E-12  0.17120000000E+03  0.17120000000E+03 0.  0.
         13    1    1    2    0    0 -0.10724070939E+02  0.14011847769E+02  0.22726012413E+02  0.28771867851E+02  0.10566000000E+00 0. -1.
        994    1    1    2    0    0  0.16381203984E+02 -0.21805229235E+02  0.84773493066E+01  0.17356588754E+03  0.17120000000E+03 0.  0.
        998    1    1    2    0    0 -0.56571330447E+01  0.77933814666E+01  0.14687966346E+04  0.14688622446E+04  0.10000000000E+02 0. -1.
</event>
<event>
 5    1  0.9123258E-009  0.3837638E+03  0.7957747E-01  0.3434932E+00
         13   -1    0    0    0    0  0.00000000000E+00  0.00000000000E+00  0.14999999963E+04  0.15000000000E+04  0.10566000000E+00 0. -1.
        994   -1    0    0    0    0 -0.00000000000E+00 -0.00000000000E+00  0.11368683772E-12  0.17120000000E+03  0.17120000000E+03 0.  0.
         13    1    1    2    0    0  0.80394498059E+01 -0.12275969443E+02  0.47310989657E+02  0.49534564552E+02  0.10566000000E+00 0. -1.
        994    1    1    2    0    0 -0.13252103739E+01  0.11263950070E+02  0.26699926941E+01  0.17159604196E+03  0.17120000000E+03 0.  0.
        998    1    1    2    0    0 -0.67142394320E+01  0.10120193733E+01  0.14500190139E+04  0.14500693935E+04  0.10000000000E+02 0. -1.
</event>
<event>
 5    1  0.9123258E-009  0.3740492E+03  0.7957747E-01  0.3477486E+00
         13   -1    0    0    0    0  0.00000000000E+00  0.00000000000E+00  0.14999999963E+04  0.15000000000E+04  0.10566000000E+00 0. -1.
        994   -1    0    0    0    0 -0.00000000000E+00 -0.00000000000E+00  0.11368683772E-12  0.17120000000E+03  0.17120000000E+03 0.  0.
         13    1    1    2    0    0 -0.72410999558E+02 -0.53743283481E+02  0.25580087754E+03  0.27123014856E+03  0.10566000000E+00 0. -1.
        994    1    1    2    0    0  0.77410731805E+02  0.43681342914E+02  0.41671935790E+02  0.19734860362E+03  0.17120000000E+03 0.  0.
        998    1    1    2    0    0 -0.49997322472E+01  0.10061940567E+02  0.12025271830E+04  0.12026212478E+04  0.10000000000E+02 0. -1.
</event>
<event>
 5    1  0.9123258E-009  0.3706336E+03  0.7957747E-01  0.3492984E+00
         13   -1    0    0    0    0  0.00000000000E+00  0.00000000000E+00  0.14999999963E+04  0.15000000000E+04  0.10566000000E+00 0. -1.
        994   -1    0    0    0    0 -0.00000000000E+00 -0.00000000000E+00  0.11368683772E-12  0.17120000000E+03  0.17120000000E+03 0.  0.
         13    1    1    2    0    0 -0.34531313859E+01 -0.21481149121E+02  0.22952210078E+02  0.31625606641E+02  0.10566000000E+00 0. -1.
        994    1    1    2    0    0  0.11478852715E+02  0.91442775438E+01  0.96817005089E+01  0.17210042765E+03  0.17120000000E+03 0.  0.
        998    1    1    2    0    0 -0.80257213293E+01  0.12336871578E+02  0.14673660857E+04  0.14674739657E+04  0.10000000000E+02 0. -1.
</event>
<event>
 5    1  0.9123258E-009  0.2884574E+03  0.7957747E-01  0.3982032E+00
         13   -1    0    0    0    0  0.00000000000E+00  0.00000000000E+00  0.14999999963E+04  0.15000000000E+04  0.10566000000E+00 0.  1.
        994   -1    0    0    0    0 -0.00000000000E+00 -0.00000000000E+00  0.11368683772E-12  0.17120000000E+03  0.17120000000E+03 0.  0.
         13    1    1    2    0    0 -0.10189141614E+03 -0.12258669509E+03  0.78483526172E+03  0.80085938697E+03  0.10566000000E+00 0.  1.
        994    1    1    2    0    0 -0.65239447269E+01  0.52659780031E+02  0.40992252850E+02  0.18386250048E+03  0.17120000000E+03 0.  0.
        998    1    1    2    0    0  0.10841536087E+03  0.69926915058E+02  0.67417248171E+03  0.68647811255E+03  0.10000000000E+02 0. -1.
</event>
<event>
 5    1  0.9123258E-009  0.3752825E+03  0.7957747E-01  0.3471960E+00
         13   -1    0    0    0    0  0.00000000000E+00  0.00000000000E+00  0.14999999963E+04  0.15000000000E+04  0.10566000000E+00 0.  1.
        994   -1    0    0    0    0 -0.00000000000E+00 -0.00000000000E+00  0.11368683772E-12  0.17120000000E+03  0.17120000000E+03 0.  0.
         13    1    1    2    0    0  0.49294703240E+01 -0.35715433329E+02  0.42211494674E+02  0.55513181337E+02  0.10566000000E+00 0.  1.
        994    1    1    2    0    0 -0.28276848121E+01  0.22611338664E+02  0.15611444713E+02  0.17341402955E+03  0.17120000000E+03 0.  0.
        998    1    1    2    0    0 -0.21017855118E+01  0.13104094665E+02  0.14421770569E+04  0.14422727891E+04  0.10000000000E+02 0.  1.
</event>
<event>
 5    1  0.9123258E-009  0.3688800E+03  0.7957747E-01  0.3501054E+00
         13   -1    0    0    0    0  0.00000000000E+00  0.00000000000E+00  0.14999999963E+04  0.15000000000E+04  0.10566000000E+00 0. -1.
        994   -1    0    0    0    0 -0.00000000000E+00 -0.00000000000E+00  0.11368683772E-12  0.17120000000E+03  0.17120000000E+03 0.  0.
         13    1    1    2    0    0 -0.11355498721E+02  0.34646005064E+02  0.62777777676E+02  0.72597200718E+02  0.10566000000E+00 0. -1.
        994    1    1    2    0    0  0.35340912930E+02 -0.18840889448E+02  0.15443747507E+02  0.17649903280E+03  0.17120000000E+03 0.  0.
        998    1    1    2    0    0 -0.23985414210E+02 -0.15805115616E+02  0.14217784711E+04  0.14221037665E+04  0.10000000000E+02 0. -1.
</event>
<event>
 5    1  0.9123258E-009  0.3776128E+03  0.7957747E-01  0.3461619E+00
         13   -1    0    0    0    0  0.00000000000E+00  0.00000000000E+00  0.14999999963E+04  0.15000000000E+04  0.10566000000E+00 0. -1.
        994   -1    0    0    0    0 -0.00000000000E+00 -0.00000000000E+00  0.11368683772E-12  0.17120000000E+03  0.17120000000E+03 0.  0.
         13    1    1    2    0    0  0.11149461012E+02  0.22596590866E+01  0.94997956355E+01  0.14821397411E+02  0.10566000000E+00 0. -1.
        994    1    1    2    0    0 -0.17856544273E+02 -0.15172088754E+01  0.64259368115E+01  0.17225530691E+03  0.17120000000E+03 0.  0.
        998    1    1    2    0    0  0.67070832607E+01 -0.74245021112E+00  0.14840742638E+04  0.14841232957E+04  0.10000000000E+02 0. -1.
</event>
<event>
 5    1  0.9123258E-009  0.3842913E+03  0.7957747E-01  0.3432683E+00
         13   -1    0    0    0    0  0.00000000000E+00  0.00000000000E+00  0.14999999963E+04  0.15000000000E+04  0.10566000000E+00 0. -1.
        994   -1    0    0    0    0 -0.00000000000E+00 -0.00000000000E+00  0.11368683772E-12  0.17120000000E+03  0.17120000000E+03 0.  0.
         13    1    1    2    0    0  0.10167554365E+02  0.20497172438E+01  0.27181738525E+02  0.29093617441E+02  0.10566000000E+00 0. -1.
        994    1    1    2    0    0 -0.30666448378E+01  0.68378649290E+01  0.21675196974E+01  0.17137764979E+03  0.17120000000E+03 0.  0.
        998    1    1    2    0    0 -0.71009095277E+01 -0.88875821727E+01  0.14706507381E+04  0.14707287328E+04  0.10000000000E+02 0. -1.
</event>
<event>
 5    1  0.9123258E-009  0.3830111E+03  0.7957747E-01  0.3438151E+00
         13   -1    0    0    0    0  0.00000000000E+00  0.00000000000E+00  0.14999999963E+04  0.15000000000E+04  0.10566000000E+00 0. -1.
        994   -1    0    0    0    0 -0.00000000000E+00 -0.00000000000E+00  0.11368683772E-12  0.17120000000E+03  0.17120000000E+03 0.  0.
         13    1    1    2    0    0 -0.83373839381E+01 -0.60230082603E+01  0.19312444439E+02  0.21880819767E+02  0.10566000000E+00 0. -1.
        994    1    1    2    0    0  0.42119881318E+01  0.32969090429E+01  0.27155357239E+01  0.17130506294E+03  0.17120000000E+03 0.  0.
        998    1    1    2    0    0  0.41253958064E+01  0.27260992173E+01  0.14779720161E+04  0.14780141173E+04  0.10000000000E+02 0. -1.
</event>
<event>
 5    1  0.9123258E-009  0.3829248E+03  0.7957747E-01  0.3438521E+00
         13   -1    0    0    0    0  0.00000000000E+00  0.00000000000E+00  0.14999999963E+04  0.15000000000E+04  0.10566000000E+00 0. -1.
        994   -1    0    0    0    0 -0.00000000000E+00 -0.00000000000E+00  0.11368683772E-12  0.17120000000E+03  0.17120000000E+03 0.  0.
         13    1    1    2    0    0  0.50750419808E+01  0.11004990698E+02  0.27751038097E+02  0.30281960816E+02  0.10566000000E+00 0. -1.
        994    1    1    2    0    0  0.88730577947E+01 -0.32150481415E+00  0.29250240130E+01  0.17145503867E+03  0.17120000000E+03 0.  0.
        998    1    1    2    0    0 -0.13948099776E+02 -0.10683485883E+02  0.14693239342E+04  0.14694630005E+04  0.10000000000E+02 0. -1.
</event>
<event>
 5    1  0.9123258E-009  0.3850898E+03  0.7957747E-01  0.3429291E+00
         13   -1    0    0    0    0  0.00000000000E+00  0.00000000000E+00  0.14999999963E+04  0.15000000000E+04  0.10566000000E+00 0. -1.
        994   -1    0    0    0    0 -0.00000000000E+00 -0.00000000000E+00  0.11368683772E-12  0.17120000000E+03  0.17120000000E+03 0.  0.
         13    1    1    2    0    0  0.12873498590E+02 -0.11778046681E+02  0.81146471707E+02  0.83001267364E+02  0.10566000000E+00 0. -1.
        994    1    1    2    0    0 -0.27042573808E+02  0.23256454147E+02  0.57792603160E+01  0.17497143569E+03  0.17120000000E+03 0.  0.
        998    1    1    2    0    0  0.14169075217E+02 -0.11478407466E+02  0.14130742643E+04  0.14132272969E+04  0.10000000000E+02 0. -1.
</event>
<event>
 5    1  0.9123258E-009  0.3796097E+03  0.7957747E-01  0.3452860E+00
         13   -1    0    0    0    0  0.00000000000E+00  0.00000000000E+00  0.14999999963E+04  0.15000000000E+04  0.10566000000E+00 0.  1.
        994   -1    0    0    0    0 -0.00000000000E+00 -0.00000000000E+00  0.11368683772E-12  0.17120000000E+03  0.17120000000E+03 0.  0.
         13    1    1    2    0    0  0.13795502069E+02  0.14353726481E+02  0.43648672743E+02  0.47974609300E+02  0.10566000000E+00 0.  1.
        994    1    1    2    0    0 -0.10489293224E+02 -0.12343835147E+02  0.52090575631E+01  0.17204351141E+03  0.17120000000E+03 0.  0.
        998    1    1    2    0    0 -0.33062088456E+01 -0.20098913336E+01  0.14511422660E+04  0.14511818793E+04  0.10000000000E+02 0.  1.
</event>
<event>
 5    1  0.9123258E-009  0.3823486E+03  0.7957747E-01  0.3440995E+00
         13   -1    0    0    0    0  0.00000000000E+00  0.00000000000E+00  0.14999999963E+04  0.15000000000E+04  0.10566000000E+00 0.  1.
        994   -1    0    0    0    0 -0.00000000000E+00 -0.00000000000E+00  0.11368683772E-12  0.17120000000E+03  0.17120000000E+03 0.  0.
         13    1    1    2    0    0 -0.64055183553E+01 -0.13357605829E+02  0.34068499353E+02  0.37150102437E+02  0.10566000000E+00 0.  1.
        994    1    1    2    0    0  0.11927256772E+02  0.23315550541E+02  0.52307320834E+01  0.17327052522E+03  0.17120000000E+03 0.  0.
        998    1    1    2    0    0 -0.55217384164E+01 -0.99579447120E+01  0.14607007648E+04  0.14607793723E+04  0.10000000000E+02 0.  1.
</event>
<event>
 5    1  0.9123258E-009  0.3808228E+03  0.7957747E-01  0.3447584E+00
         13   -1    0    0    0    0  0.00000000000E+00  0.00000000000E+00  0.14999999963E+04  0.15000000000E+04  0.10566000000E+00 0. -1.
        994   -1    0    0    0    0 -0.00000000000E+00 -0.00000000000E+00  0.11368683772E-12  0.17120000000E+03  0.17120000000E+03 0.  0.
         13    1    1    2    0    0 -0.23536634733E+02 -0.16557838392E+02  0.11974961973E+03  0.12315891269E+03  0.10566000000E+00 0. -1.
        994    1    1    2    0    0 -0.25188415889E+01  0.94429555987E+01  0.40368679226E+01  0.17152623786E+03  0.17120000000E+03 0.  0.
        998    1    1    2    0    0  0.26055476322E+02  0.71148827937E+01  0.13762135086E+04  0.13765148494E+04  0.10000000000E+02 0. -1.
</event>
<event>
 5    1  0.9123258E-009  0.3797857E+03  0.7957747E-01  0.3452092E+00
         13   -1    0    0    0    0  0.00000000000E+00  0.00000000000E+00  0.14999999963E+04  0.15000000000E+04  0.10566000000E+00 0.  1.
        994   -1    0    0    0    0 -0.00000000000E+00 -0.00000000000E+00  0.11368683772E-12  0.17120000000E+03  0.17120000000E+03 0.  0.
         13    1    1    2    0    0  0.13208025700E+02 -0.74486291561E+01  0.26401535948E+02  0.30446449442E+02  0.10566000000E+00 0.  1.
        994    1    1    2    0    0  0.16492544063E+01 -0.33303944797E+01  0.42875878600E+01  0.17129400158E+03  0.17120000000E+03 0.  0.
        998    1    1    2    0    0 -0.14857280106E+02  0.10779023636E+02  0.14693108725E+04  0.14694595490E+04  0.10000000000E+02 0.  1.
</event>
<event>
 5    1  0.9123258E-009  0.3765762E+03  0.7957747E-01  0.3466203E+00
         13   -1    0    0    0    0  0.00000000000E+00  0.00000000000E+00  0.14999999963E+04  0.15000000000E+04  0.10566000000E+00 0. -1.
        994   -1    0    0    0    0 -0.00000000000E+00 -0.00000000000E+00  0.11368683772E-12  0.17120000000E+03  0.17120000000E+03 0.  0.
         13    1    1    2    0    0  0.18571119231E+02 -0.32788089299E+02  0.11018178915E+03  0.11644734043E+03  0.10566000000E+00 0. -1.
        994    1    1    2    0    0 -0.23319847603E+02  0.31754289083E+02  0.11137763313E+02  0.17602738406E+03  0.17120000000E+03 0.  0.
        998    1    1    2    0    0  0.47487283716E+01  0.10338002159E+01  0.13786804438E+04  0.13787252755E+04  0.10000000000E+02 0. -1.
</event>
<event>
 5    1  0.9123258E-009  0.3849607E+03  0.7957747E-01  0.3429839E+00
         13   -1    0    0    0    0  0.00000000000E+00  0.00000000000E+00  0.14999999963E+04  0.15000000000E+04  0.10566000000E+00 0.  1.
        994   -1    0    0    0    0 -0.00000000000E+00 -0.00000000000E+00  0.11368683772E-12  0.17120000000E+03  0.17120000000E+03 0.  0.
         13    1    1    2    0    0  0.44293931199E+01 -0.16953230180E+02  0.98065549092E+02  0.99618746327E+02  0.10566000000E+00 0.  1.
        994    1    1    2    0    0  0.23461949755E+01  0.53622309049E+01  0.17623597009E+01  0.17130908926E+03  0.17120000000E+03 0.  0.
        998    1    1    2    0    0 -0.67755880954E+01  0.11590999275E+02  0.14001720875E+04  0.14002721644E+04  0.10000000000E+02 0.  1.
</event>
<event>
 5    1  0.9123258E-009  0.3819016E+03  0.7957747E-01  0.3442920E+00
         13   -1    0    0    0    0  0.00000000000E+00  0.00000000000E+00  0.14999999963E+04  0.15000000000E+04  0.10566000000E+00 0.  1.
        994   -1    0    0    0    0 -0.00000000000E+00 -0.00000000000E+00  0.11368683772E-12  0.17120000000E+03  0.17120000000E+03 0.  0.
         13    1    1    2    0    0  0.13441954435E+02  0.21129126442E+02  0.10293296323E+03  0.10593550965E+03  0.10566000000E+00 0.  1.
        994    1    1    2    0    0  0.12494612091E+02 -0.16152497910E+02  0.45628505524E+01  0.17247399261E+03  0.17120000000E+03 0.  0.
        998    1    1    2    0    0 -0.25936566527E+02 -0.49766285320E+01  0.13925041825E+04  0.13927904977E+04  0.10000000000E+02 0.  1.
</event>
<event>
 5    1  0.9123258E-009  0.3743548E+03  0.7957747E-01  0.3476113E+00
         13   -1    0    0    0    0  0.00000000000E+00  0.00000000000E+00  0.14999999963E+04  0.15000000000E+04  0.10566000000E+00 0.  1.
        994   -1    0    0    0    0 -0.00000000000E+00 -0.00000000000E+00  0.11368683772E-12  0.17120000000E+03  0.17120000000E+03 0.  0.
         13    1    1    2    0    0 -0.33598692995E+02 -0.35125017894E+02  0.19508970495E+03  0.20105383158E+03  0.10566000000E+00 0.  1.
        994    1    1    2    0    0 -0.37666643916E+01  0.53464589448E+01  0.71561604092E+01  0.17147426342E+03  0.17120000000E+03 0.  0.
        998    1    1    2    0    0  0.37365357387E+02  0.29778558949E+02  0.12977541309E+04  0.12986719050E+04  0.10000000000E+02 0.  1.
</event>
<event>
 5    1  0.9123258E-009  0.3822059E+03  0.7957747E-01  0.3441609E+00
         13   -1    0    0    0    0  0.00000000000E+00  0.00000000000E+00  0.14999999963E+04  0.15000000000E+04  0.10566000000E+00 0.  1.
        994   -1    0    0    0    0 -0.00000000000E+00 -0.00000000000E+00  0.11368683772E-12  0.17120000000E+03  0.17120000000E+03 0.  0.
         13    1    1    2    0    0 -0.94324714429E+01  0.51264994412E+01  0.17789924200E+02  0.20778476390E+02  0.10566000000E+00 0.  1.
        994    1    1    2    0    0  0.74913828913E+01 -0.47186584794E+01  0.32839170068E+01  0.17146023057E+03  0.17120000000E+03 0.  0.
        998    1    1    2    0    0  0.19410885516E+01 -0.40784096182E+00  0.14789261551E+04  0.14789612930E+04  0.10000000000E+02 0.  1.
</event>
<event>
 5    1  0.9123258E-009  0.3694670E+03  0.7957747E-01  0.3498344E+00
         13   -1    0    0    0    0  0.00000000000E+00  0.00000000000E+00  0.14999999963E+04  0.15000000000E+04  0.10566000000E+00 0.  1.
        994   -1    0    0    0    0 -0.00000000000E+00 -0.00000000000E+00  0.11368683772E-12  0.17120000000E+03  0.17120000000E+03 0.  0.
         13    1    1    2    0    0 -0.58412522425E+01 -0.11202007602E+02  0.25450469625E+01  0.12887731769E+02  0.10566000000E+00 0.  1.
        994    1    1    2    0    0  0.76044659034E+01  0.94374493033E+01  0.11169990398E+02  0.17199157548E+03  0.17120000000E+03 0.  0.
        998    1    1    2    0    0 -0.17632136609E+01  0.17645582990E+01  0.14862849589E+04  0.14863206927E+04  0.10000000000E+02 0.  1.
</event>
<event>
 5    1  0.9123258E-009  0.3684673E+03  0.7957747E-01  0.3502965E+00
         13   -1    0    0    0    0  0.00000000000E+00  0.00000000000E+00  0.14999999963E+04  0.15000000000E+04  0.10566000000E+00 0. -1.
        994   -1    0    0    0    0 -0.00000000000E+00 -0.00000000000E+00  0.11368683772E-12  0.17120000000E+03  0.17120000000E+03 0.  0.
         13    1    1    2    0    0  0.46710799985E+01  0.55717413454E+02  0.15452235055E+03  0.16432716493E+03  0.10566000000E+00 0. -1.
        994    1    1    2    0    0 -0.52945411512E+02 -0.25406804715E+02  0.22220806937E+02  0.18235110799E+03  0.17120000000E+03 0.  0.
        998    1    1    2    0    0  0.48274331514E+02 -0.30310608739E+02  0.13232568388E+04  0.13245217271E+04  0.10000000000E+02 0. -1.
</event>
<event>
 5    1  0.9123258E-009  0.3754891E+03  0.7957747E-01  0.3471038E+00
         13   -1    0    0    0    0  0.00000000000E+00  0.00000000000E+00  0.14999999963E+04  0.15000000000E+04  0.10566000000E+00 0.  1.
        994   -1    0    0    0    0 -0.00000000000E+00 -0.00000000000E+00  0.11368683772E-12  0.17120000000E+03  0.17120000000E+03 0.  0.
         13    1    1    2    0    0  0.55659990941E+01 -0.96372761406E+01  0.66534555070E+01  0.12966767968E+02  0.10566000000E+00 0.  1.
        994    1    1    2    0    0 -0.33763095615E+01  0.10402672642E+02  0.68338025080E+01  0.17168504862E+03  0.17120000000E+03 0.  0.
        998    1    1    2    0    0 -0.21896895326E+01 -0.76539650145E+00  0.14865127383E+04  0.14865481834E+04  0.10000000000E+02 0.  1.
</event>
<event>
 5    1  0.9123258E-009  0.3850074E+03  0.7957747E-01  0.3429641E+00
         13   -1    0    0    0    0  0.00000000000E+00  0.00000000000E+00  0.14999999963E+04  0.15000000000E+04  0.10566000000E+00 0.  1.
        994   -1    0    0    0    0 -0.00000000000E+00 -0.00000000000E+00  0.11368683772E-12  0.17120000000E+03  0.17120000000E+03 0.  0.
         13    1    1    2    0    0 -0.79561719827E+01  0.12277156121E+02  0.74378395189E+02  0.75803601959E+02  0.10566000000E+00 0.  1.
        994    1    1    2    0    0 -0.40136283560E+01  0.69471674078E+01  0.18381631217E+01  0.17139775725E+03  0.17120000000E+03 0.  0.
        998    1    1    2    0    0  0.11969800339E+02 -0.19224323528E+02  0.14237834380E+04  0.14239986408E+04  0.10000000000E+02 0.  1.
</event>
<event>
 5    1  0.9123258E-009  0.3714221E+03  0.7957747E-01  0.3489380E+00
         13   -1    0    0    0    0  0.00000000000E+00  0.00000000000E+00  0.14999999963E+04  0.15000000000E+04  0.10566000000E+00 0. -1.
        994   -1    0    0    0    0 -0.00000000000E+00 -0.00000000000E+00  0.11368683772E-12  0.17120000000E+03  0.17120000000E+03 0.  0.
         13    1    1    2    0    0 -0.37609966539E+02  0.19853411295E+02  0.10735004452E+03  0.11546735793E+03  0.10566000000E+00 0. -1.
        994    1    1    2    0    0  0.23545827551E+02  0.99253176368E+01  0.10777428759E+02  0.17343157410E+03  0.17120000000E+03 0.  0.
        998    1    1    2    0    0  0.14064138989E+02 -0.29778728932E+02  0.13818725230E+04  0.13823010680E+04  0.10000000000E+02 0. -1.
</event>
<event>
 5    1  0.9123258E-009  0.3855090E+03  0.7957747E-01  0.3427516E+00
         13   -1    0    0    0    0  0.00000000000E+00  0.00000000000E+00  0.14999999963E+04  0.15000000000E+04  0.10566000000E+00 0.  1.
        994   -1    0    0    0    0 -0.00000000000E+00 -0.00000000000E+00  0.11368683772E-12  0.17120000000E+03  0.17120000000E+03 0.  0.
         13    1    1    2    0    0  0.11470734470E+02  0.58318075457E+01  0.66174284374E+02  0.67413906614E+02  0.10566000000E+00 0.  1.
        994    1    1    2    0    0 -0.12368875931E+00  0.97148508647E+01  0.16876230536E+01  0.17148376511E+03  0.17120000000E+03 0.  0.
        998    1    1    2    0    0 -0.11347045710E+02 -0.15546658410E+02  0.14321380889E+04  0.14323023283E+04  0.10000000000E+02 0.  1.
</event>
<event>
 5    1  0.9123258E-009  0.3850004E+03  0.7957747E-01  0.3429671E+00
         13   -1    0    0    0    0  0.00000000000E+00  0.00000000000E+00  0.14999999963E+04  0.15000000000E+04  0.10566000000E+00 0.  1.
        994   -1    0    0    0    0 -0.00000000000E+00 -0.00000000000E+00  0.11368683772E-12  0.17120000000E+03  0.17120000000E+03 0.  0.
         13    1    1    2    0    0  0.96052724841E+01 -0.61508926254E+01  0.38862153036E+02  0.40501516543E+02  0.10566000000E+00 0.  1.
        994    1    1    2    0    0 -0.35236727480E+01  0.17712585538E+02  0.27032825252E+01  0.17217113490E+03  0.17120000000E+03 0.  0.
        998    1    1    2    0    0 -0.60815997362E+01 -0.11561692913E+02  0.14584345607E+04  0.14585273486E+04  0.10000000000E+02 0.  1.
</event>
<event>
 5    1  0.9123258E-009  0.3833343E+03  0.7957747E-01  0.3436768E+00
         13   -1    0    0    0    0  0.00000000000E+00  0.00000000000E+00  0.14999999963E+04  0.15000000000E+04  0.10566000000E+00 0.  1.
        994   -1    0    0    0    0 -0.00000000000E+00 -0.00000000000E+00  0.11368683772E-12  0.17120000000E+03  0.17120000000E+03 0.  0.
         13    1    1    2    0    0  0.65460814178E+01  0.81839682115E+01  0.21636646294E+02  0.24041300807E+02  0.10566000000E+00 0.  1.
        994    1    1    2    0    0 -0.10088485170E+01 -0.53232584972E+01  0.25564784143E+01  0.17130478814E+03  0.17120000000E+03 0.  0.
        998    1    1    2    0    0 -0.55372329008E+01 -0.28607097143E+01  0.14758068716E+04  0.14758539111E+04  0.10000000000E+02 0.  1.
</event>
<event>
 5    1  0.9123258E-009  0.3845269E+03  0.7957747E-01  0.3431681E+00
         13   -1    0    0    0    0  0.00000000000E+00  0.00000000000E+00  0.14999999963E+04  0.15000000000E+04  0.10566000000E+00 0. -1.
        994   -1    0    0    0    0 -0.00000000000E+00 -0.00000000000E+00  0.11368683772E-12  0.17120000000E+03  0.17120000000E+03 0.  0.
         13    1    1    2    0    0  0.89852623492E+01  0.12384307483E+02  0.61244340967E+02  0.63126749290E+02  0.10566000000E+00 0. -1.
        994    1    1    2    0    0 -0.63369421757E+01 -0.12296054035E+02  0.24957317680E+01  0.17177607068E+03  0.17120000000E+03 0.  0.
        998    1    1    2    0    0 -0.26483201734E+01 -0.88253448077E-01  0.14362599235E+04  0.14362971800E+04  0.10000000000E+02 0. -1.
</event>
<event>
 5    1  0.9123258E-009  0.3723865E+03  0.7957747E-01  0.3484994E+00
         13   -1    0    0    0    0  0.00000000000E+00  0.00000000000E+00  0.14999999963E+04  0.15000000000E+04  0.10566000000E+00 0.  1.
        994   -1    0    0    0    0 -0.00000000000E+00 -0.00000000000E+00  0.11368683772E-12  0.17120000000E+03  0.17120000000E+03 0.  0.
         13    1    1    2    0    0 -0.84194608325E+02  0.66934408419E+02  0.41115318706E+03  0.42498929574E+03  0.10566000000E+00 0.  1.
        994    1    1    2    0    0  0.95426303323E+02 -0.91438596447E+02  0.70530887228E+02  0.22748899389E+03  0.17120000000E+03 0.  0.
        998    1    1    2    0    0 -0.11231694998E+02  0.24504188028E+02  0.10183159220E+04  0.10187217104E+04  0.10000000000E+02 0.  1.
</event>
<event>
 5    1  0.9123258E-009  0.3761570E+03  0.7957747E-01  0.3468064E+00
         13   -1    0    0    0    0  0.00000000000E+00  0.00000000000E+00  0.14999999963E+04  0.15000000000E+04  0.10566000000E+00 0. -1.
        994   -1    0    0    0    0 -0.00000000000E+00 -0.00000000000E+00  0.11368683772E-12  0.17120000000E+03  0.17120000000E+03 0.  0.
         13    1    1    2    0    0  0.40435739350E-01  0.11193852696E+02  0.74975979970E+01  0.13473274026E+02  0.10566000000E+00 0. -1.
        994    1    1    2    0    0 -0.93543439453E-01 -0.96724702917E+01  0.64026349261E+01  0.17159253820E+03  0.17120000000E+03 0.  0.
        998    1    1    2    0    0  0.53107700103E-01 -0.15213824042E+01  0.14860997634E+04  0.14861341878E+04  0.10000000000E+02 0. -1.
</event>
<event>
 5    1  0.9123258E-009  0.3841542E+03  0.7957747E-01  0.3433267E+00
         13   -1    0    0    0    0  0.00000000000E+00  0.00000000000E+00  0.14999999963E+04  0.15000000000E+04  0.10566000000E+00 0.  1.
        994   -1    0    0    0    0 -0.00000000000E+00 -0.00000000000E+00  0.11368683772E-12  0.17120000000E+03  0.17120000000E+03 0.  0.
         13    1    1    2    0    0  0.23591211692E+01  0.16320197328E+02  0.66643546771E+02  0.68653388728E+02  0.10566000000E+00 0.  1.
        994    1    1    2    0    0 -0.10375247090E+02 -0.75578688809E+01  0.25942063996E+01  0.17170013699E+03  0.17120000000E+03 0.  0.
        998    1    1    2    0    0  0.80161259207E+01 -0.87623284469E+01  0.14307622431E+04  0.14308464743E+04  0.10000000000E+02 0.  1.
</event>
<event>
 5    1  0.9123258E-009  0.3838614E+03  0.7957747E-01  0.3434516E+00
         13   -1    0    0    0    0  0.00000000000E+00  0.00000000000E+00  0.14999999963E+04  0.15000000000E+04  0.10566000000E+00 0.  1.
        994   -1    0    0    0    0 -0.00000000000E+00 -0.00000000000E+00  0.11368683772E-12  0.17120000000E+03  0.17120000000E+03 0.  0.
         13    1    1    2    0    0 -0.19321936800E+02  0.12570918146E+02  0.11763955362E+03  0.11987677409E+03  0.10566000000E+00 0.  1.
        994    1    1    2    0    0  0.10481646383E+02 -0.15983682582E+02  0.34033524239E+01  0.17229731811E+03  0.17120000000E+03 0.  0.
        998    1    1    2    0    0  0.88402904169E+01  0.34127644368E+01  0.13789570902E+04  0.13790259078E+04  0.10000000000E+02 0.  1.
</event>
<event>
 5    1  0.9123258E-009  0.3844012E+03  0.7957747E-01  0.3432216E+00
         13   -1    0    0    0    0  0.00000000000E+00  0.00000000000E+00  0.14999999963E+04  0.15000000000E+04  0.10566000000E+00 0.  1.
        994   -1    0    0    0    0 -0.00000000000E+00 -0.00000000000E+00  0.11368683772E-12  0.17120000000E+03  0.17120000000E+03 0.  0.
         13    1    1    2    0    0 -0.11437456102E+02  0.11498546754E+02  0.72468237872E+02  0.74260949656E+02  0.10566000000E+00 0.  1.
        994    1    1    2    0    0 -0.38927430198E+01 -0.43192559150E+01  0.20391393861E+01  0.17131085053E+03  0.17120000000E+03 0.  0.
        998    1    1    2    0    0  0.15330199122E+02 -0.71792908392E+01  0.14254926190E+04  0.14256281998E+04  0.10000000000E+02 0.  1.
</event>
<event>
 5    1  0.9123258E-009  0.3774808E+03  0.7957747E-01  0.3462201E+00
         13   -1    0    0    0    0  0.00000000000E+00  0.00000000000E+00  0.14999999963E+04  0.15000000000E+04  0.10566000000E+00 0. -1.
        994   -1    0    0    0    0 -0.00000000000E+00 -0.00000000000E+00  0.11368683772E-12  0.17120000000E+03  0.17120000000E+03 0.  0.
         13    1    1    2    0    0 -0.54763125317E+01  0.14912294898E+02  0.20651303318E+02  0.26054827400E+02  0.10566000000E+00 0. -1.
        994    1    1    2    0    0  0.10242606453E+02 -0.15619767855E+02  0.65872205072E+01  0.17234186842E+03  0.17120000000E+03 0.  0.
        998    1    1    2    0    0 -0.47662939211E+01  0.70747295795E+00  0.14727614725E+04  0.14728033042E+04  0.10000000000E+02 0. -1.
</event>
<event>
 5    1  0.9123258E-009  0.3815108E+03  0.7957747E-01  0.3444606E+00
         13   -1    0    0    0    0  0.00000000000E+00  0.00000000000E+00  0.14999999963E+04  0.15000000000E+04  0.10566000000E+00 0. -1.
        994   -1    0    0    0    0 -0.00000000000E+00 -0.00000000000E+00  0.11368683772E-12  0.17120000000E+03  0.17120000000E+03 0.  0.
         13    1    1    2    0    0 -0.11593542291E+02 -0.29493438090E+02  0.17474117808E+03  0.17759156397E+03  0.10566000000E+00 0. -1.
        994    1    1    2    0    0 -0.17640455767E+02  0.43116201924E+01  0.44701453668E+01  0.17221845995E+03  0.17120000000E+03 0.  0.
        998    1    1    2    0    0  0.29233998057E+02  0.25181817898E+02  0.13207886728E+04  0.13213899761E+04  0.10000000000E+02 0. -1.
</event>
<event>
 5    1  0.9123258E-009  0.3819260E+03  0.7957747E-01  0.3442815E+00
         13   -1    0    0    0    0  0.00000000000E+00  0.00000000000E+00  0.14999999963E+04  0.15000000000E+04  0.10566000000E+00 0. -1.
        994   -1    0    0    0    0 -0.00000000000E+00 -0.00000000000E+00  0.11368683772E-12  0.17120000000E+03  0.17120000000E+03 0.  0.
         13    1    1    2    0    0  0.10943676097E+02 -0.31330942322E+01  0.19222827996E+02  0.22340738711E+02  0.10566000000E+00 0. -1.
        994    1    1    2    0    0 -0.75931499653E+01  0.20705046710E+01  0.33698712847E+01  0.17141394036E+03  0.17120000000E+03 0.  0.
        998    1    1    2    0    0 -0.33505261312E+01  0.10625895612E+01  0.14774072970E+04  0.14774453209E+04  0.10000000000E+02 0. -1.
</event>
<event>
 5    1  0.9123258E-009  0.3800021E+03  0.7957747E-01  0.3451149E+00
         13   -1    0    0    0    0  0.00000000000E+00  0.00000000000E+00  0.14999999963E+04  0.15000000000E+04  0.10566000000E+00 0. -1.
        994   -1    0    0    0    0 -0.00000000000E+00 -0.00000000000E+00  0.11368683772E-12  0.17120000000E+03  0.17120000000E+03 0.  0.
         13    1    1    2    0    0  0.22145849789E+02 -0.27459552699E+02  0.13306697308E+03  0.13766370685E+03  0.10566000000E+00 0. -1.
        994    1    1    2    0    0 -0.21109513942E+02  0.34920544102E+02  0.97183130708E+01  0.17626384084E+03  0.17120000000E+03 0.  0.
        998    1    1    2    0    0 -0.10363358463E+01 -0.74609914032E+01  0.13572147101E+04  0.13572724523E+04  0.10000000000E+02 0. -1.
</event>
<event>
 5    1  0.9123258E-009  0.3853599E+03  0.7957747E-01  0.3428147E+00
         13   -1    0    0    0    0  0.00000000000E+00  0.00000000000E+00  0.14999999963E+04  0.15000000000E+04  0.10566000000E+00 0. -1.
        994   -1    0    0    0    0 -0.00000000000E+00 -0.00000000000E+00  0.11368683772E-12  0.17120000000E+03  0.17120000000E+03 0.  0.
         13    1    1    2    0    0 -0.39645870450E+01 -0.16123850089E+02  0.95675578594E+02  0.97105736162E+02  0.10566000000E+00 0. -1.
        994    1    1    2    0    0 -0.22117721916E+00  0.10571599911E+02  0.18189137311E+01  0.17153587406E+03  0.17120000000E+03 0.  0.
        998    1    1    2    0    0  0.41857642642E+01  0.55522501772E+01  0.14025055040E+04  0.14025583898E+04  0.10000000000E+02 0. -1.
</event>
<event>
 5    1  0.9123258E-009  0.3834482E+03  0.7957747E-01  0.3436280E+00
         13   -1    0    0    0    0  0.00000000000E+00  0.00000000000E+00  0.14999999963E+04  0.15000000000E+04  0.10566000000E+00 0. -1.
        994   -1    0    0    0    0 -0.00000000000E+00 -0.00000000000E+00  0.11368683772E-12  0.17120000000E+03  0.17120000000E+03 0.  0.
         13    1    1    2    0    0  0.11633839624E+02  0.32252063506E+02  0.17850616525E+03  0.18176909535E+03  0.10566000000E+00 0. -1.
        994    1    1    2    0    0 -0.23016637242E+02 -0.52556507317E+02  0.13360411578E+02  0.18105218212E+03  0.17120000000E+03 0.  0.
        998    1    1    2    0    0  0.11382797618E+02  0.20304443810E+02  0.13081334194E+04  0.13083787225E+04  0.10000000000E+02 0. -1.
</event>
<event>
 5    1  0.9123258E-009  0.3849934E+03  0.7957747E-01  0.3429700E+00
         13   -1    0    0    0    0  0.00000000000E+00  0.00000000000E+00  0.14999999963E+04  0.15000000000E+04  0.10566000000E+00 0. -1.
        994   -1    0    0    0    0 -0.00000000000E+00 -0.00000000000E+00  0.11368683772E-12  0.17120000000E+03  0.17120000000E+03 0.  0.
         13    1    1    2    0    0 -0.25804426878E+01  0.98829225501E+01  0.31499699698E+02  0.33114544956E+02  0.10566000000E+00 0. -1.
        994    1    1    2    0    0 -0.59261126665E+01 -0.10372167216E+02  0.21028349242E+01  0.17162914257E+03  0.17120000000E+03 0.  0.
        998    1    1    2    0    0  0.85065553543E+01  0.48924466557E+00  0.14663974617E+04  0.14664563125E+04  0.10000000000E+02 0. -1.
</event>
<event>
 5    1  0.9123258E-009  0.3800996E+03  0.7957747E-01  0.3450725E+00
         13   -1    0    0    0    0  0.00000000000E+00  0.00000000000E+00  0.14999999963E+04  0.15000000000E+04  0.10566000000E+00 0. -1.
        994   -1    0    0    0    0 -0.00000000000E+00 -0.00000000000E+00  0.11368683772E-12  0.17120000000E+03  0.17120000000E+03 0.  0.
         13    1    1    2    0    0  0.14176036860E+02  0.14034004789E+02  0.45784934317E+02  0.49941813002E+02  0.10566000000E+00 0. -1.
        994    1    1    2    0    0 -0.12177959698E+02 -0.18221850566E+02  0.56897376868E+01  0.17269091364E+03  0.17120000000E+03 0.  0.
        998    1    1    2    0    0 -0.19980771624E+01  0.41878457767E+01  0.14485253243E+04  0.14485672734E+04  0.10000000000E+02 0. -1.
</event>
<event>
 5    1  0.9123258E-009  0.3792583E+03  0.7957747E-01  0.3454394E+00
         13   -1    0    0    0    0  0.00000000000E+00  0.00000000000E+00  0.14999999963E+04  0.15000000000E+04  0.10566000000E+00 0.  1.
        994   -1    0    0    0    0 -0.00000000000E+00 -0.00000000000E+00  0.11368683772E-12  0.17120000000E+03  0.17120000000E+03 0.  0.
         13    1    1    2    0    0 -0.25947388264E+02 -0.25096165927E+02  0.16542217172E+03  0.16931506301E+03  0.10566000000E+00 0.  1.
        994    1    1    2    0    0 -0.42177912074E+01  0.29003921324E+01  0.45958144678E+01  0.17133815555E+03  0.17120000000E+03 0.  0.
        998    1    1    2    0    0  0.30165179472E+02  0.22195773795E+02  0.13299820101E+04  0.13305467814E+04  0.10000000000E+02 0.  1.
</event>
<event>
 5    1  0.9123258E-009  0.3770846E+03  0.7957747E-01  0.3463952E+00
         13   -1    0    0    0    0  0.00000000000E+00  0.00000000000E+00  0.14999999963E+04  0.15000000000E+04  0.10566000000E+00 0. -1.
        994   -1    0    0    0    0 -0.00000000000E+00 -0.00000000000E+00  0.11368683772E-12  0.17120000000E+03  0.17120000000E+03 0.  0.
         13    1    1    2    0    0  0.23670782947E+02 -0.16363246819E+02  0.79181443217E+02  0.84248287376E+02  0.10566000000E+00 0. -1.
        994    1    1    2    0    0  0.15807820706E+02  0.12306753101E+02  0.69680225336E+01  0.17250894674E+03  0.17120000000E+03 0.  0.
        998    1    1    2    0    0 -0.39478603653E+02  0.40564937185E+01  0.14138505305E+04  0.14144427659E+04  0.10000000000E+02 0. -1.
</event>
<event>
 5    1  0.9123258E-009  0.3815199E+03  0.7957747E-01  0.3444567E+00
         13   -1    0    0    0    0  0.00000000000E+00  0.00000000000E+00  0.14999999963E+04  0.15000000000E+04  0.10566000000E+00 0.  1.
        994   -1    0    0    0    0 -0.00000000000E+00 -0.00000000000E+00  0.11368683772E-12  0.17120000000E+03  0.17120000000E+03 0.  0.
         13    1    1    2    0    0  0.87080648557E+01 -0.20100683315E+02  0.68284028276E+02  0.71711836853E+02  0.10566000000E+00 0.  1.
        994    1    1    2    0    0  0.39885737632E+01  0.23123065114E+02  0.52013553991E+01  0.17287879847E+03  0.17120000000E+03 0.  0.
        998    1    1    2    0    0 -0.12696638619E+02 -0.30223817991E+01  0.14265146126E+04  0.14266093647E+04  0.10000000000E+02 0.  1.
</event>
<event>
 5    1  0.9123258E-009  0.3943325E+03  0.7957747E-01  0.3391031E+00
         13   -1    0    0    0    0  0.00000000000E+00  0.00000000000E+00  0.14999999963E+04  0.15000000000E+04  0.10566000000E+00 0.  1.
        994   -1    0    0    0    0 -0.00000000000E+00 -0.00000000000E+00  0.11368683772E-12  0.17120000000E+03  0.17120000000E+03 0.  0.
         13    1    1    2    0    0 -0.63095181774E+02 -0.12272870113E+03  0.54762304851E+03  0.56474272945E+03  0.10566000000E+00 0.  1.
        994    1    1    2    0    0 -0.24678352209E+02  0.52693301163E+02  0.37505945732E+02  0.18466656714E+03  0.17120000000E+03 0.  0.
        998    1    1    2    0    0  0.87773533982E+02  0.70035399970E+02  0.91487100203E+03  0.92179070340E+03  0.10000000000E+02 0.  1.
</event>
<event>
 5    1  0.9123258E-009  0.3823390E+03  0.7957747E-01  0.3441037E+00
         13   -1    0    0    0    0  0.00000000000E+00  0.00000000000E+00  0.14999999963E+04  0.15000000000E+04  0.10566000000E+00 0. -1.
        994   -1    0    0    0    0 -0.00000000000E+00 -0.00000000000E+00  0.11368683772E-12  0.17120000000E+03  0.17120000000E+03 0.  0.
         13    1    1    2    0    0 -0.12532435347E+02 -0.32382959672E+02  0.19348643088E+03  0.19657753715E+03  0.10566000000E+00 0. -1.
        994    1    1    2    0    0  0.16665432357E+02  0.21421638021E+02  0.54045004493E+01  0.17342223570E+03  0.17120000000E+03 0.  0.
        998    1    1    2    0    0 -0.41329970095E+01  0.10961321651E+02  0.13011090649E+04  0.13012002271E+04  0.10000000000E+02 0. -1.
</event>
<event>
 5    1  0.9123258E-009  0.3853059E+03  0.7957747E-01  0.3428376E+00
         13   -1    0    0    0    0  0.00000000000E+00  0.00000000000E+00  0.14999999963E+04  0.15000000000E+04  0.10566000000E+00 0. -1.
        994   -1    0    0    0    0 -0.00000000000E+00 -0.00000000000E+00  0.11368683772E-12  0.17120000000E+03  0.17120000000E+03 0.  0.
         13    1    1    2    0    0 -0.66503860988E+01  0.14810203056E+02  0.87717378418E+02  0.89207171183E+02  0.10566000000E+00 0. -1.
        994    1    1    2    0    0  0.57170994145E+01 -0.11692485048E+02  0.20350873873E+01  0.17170608904E+03  0.17120000000E+03 0.  0.
        998    1    1    2    0    0  0.93328668434E+00 -0.31177180081E+01  0.14102475305E+04  0.14102867398E+04  0.10000000000E+02 0. -1.
</event>
<event>
 5    1  0.9524661E-009  0.3854032E+03  0.7957747E-01  0.3427964E+00
         13   -1    0    0    0    0  0.00000000000E+00  0.00000000000E+00  0.14999999963E+04  0.15000000000E+04  0.10566000000E+00 0. -1.
        994   -1    0    0    0    0 -0.00000000000E+00 -0.00000000000E+00  0.11368683772E-12  0.17120000000E+03  0.17120000000E+03 0.  0.
         13    1    1    2    0    0 -0.39486046328E+01 -0.15757277210E+02  0.86958875431E+02  0.88463215202E+02  0.10566000000E+00 0. -1.
        994    1    1    2    0    0  0.69318480432E+01  0.17557056436E+02  0.26011840430E+01  0.17225709537E+03  0.17120000000E+03 0.  0.
        998    1    1    2    0    0 -0.29832434104E+01 -0.17997792263E+01  0.14104399368E+04  0.14104796894E+04  0.10000000000E+02 0. -1.
</event>
<event>
 5    1  0.9123258E-009  0.3772791E+03  0.7957747E-01  0.3463092E+00
         13   -1    0    0    0    0  0.00000000000E+00  0.00000000000E+00  0.14999999963E+04  0.15000000000E+04  0.10566000000E+00 0.  1.
        994   -1    0    0    0    0 -0.00000000000E+00 -0.00000000000E+00  0.11368683772E-12  0.17120000000E+03  0.17120000000E+03 0.  0.
         13    1    1    2    0    0  0.69956131024E+00 -0.29637064339E+02  0.82283334505E+02  0.87460867078E+02  0.10566000000E+00 0.  1.
        994    1    1    2    0    0  0.50621711580E+01  0.48969598909E+01  0.56803491998E+01  0.17143894587E+03  0.17120000000E+03 0.  0.
        998    1    1    2    0    0 -0.57617324682E+01  0.24740104448E+02  0.14120363126E+04  0.14123001871E+04  0.10000000000E+02 0.  1.
</event>
<event>
 5    1  0.9123258E-009  0.3699213E+03  0.7957747E-01  0.3496252E+00
         13   -1    0    0    0    0  0.00000000000E+00  0.00000000000E+00  0.14999999963E+04  0.15000000000E+04  0.10566000000E+00 0. -1.
        994   -1    0    0    0    0 -0.00000000000E+00 -0.00000000000E+00  0.11368683772E-12  0.17120000000E+03  0.17120000000E+03 0.  0.
         13    1    1    2    0    0 -0.36595119309E+02 -0.56356353418E+01  0.69374740088E+02  0.78637324911E+02  0.10566000000E+00 0. -1.
        994    1    1    2    0    0  0.29353028875E+02 -0.90160669490E+01  0.12578204412E+02  0.17438618349E+03  0.17120000000E+03 0.  0.
        998    1    1    2    0    0  0.72420904332E+01  0.14651702291E+02  0.14180470518E+04  0.14181764916E+04  0.10000000000E+02 0. -1.
</event>
<event>
 5    1  0.9123258E-009  0.3841168E+03  0.7957747E-01  0.3433427E+00
         13   -1    0    0    0    0  0.00000000000E+00  0.00000000000E+00  0.14999999963E+04  0.15000000000E+04  0.10566000000E+00 0. -1.
        994   -1    0    0    0    0 -0.00000000000E+00 -0.00000000000E+00  0.11368683772E-12  0.17120000000E+03  0.17120000000E+03 0.  0.
         13    1    1    2    0    0  0.12033779714E+02  0.41202152547E+01  0.37964369411E+02  0.40038638049E+02  0.10566000000E+00 0. -1.
        994    1    1    2    0    0 -0.11931206036E+02 -0.33715044404E+01  0.25764177501E+01  0.17166769832E+03  0.17120000000E+03 0.  0.
        998    1    1    2    0    0 -0.10257367788E+00 -0.74871081433E+00  0.14594592091E+04  0.14594936636E+04  0.10000000000E+02 0. -1.
</event>
<event>
 5    1  0.9123258E-009  0.3755198E+03  0.7957747E-01  0.3470901E+00
         13   -1    0    0    0    0  0.00000000000E+00  0.00000000000E+00  0.14999999963E+04  0.15000000000E+04  0.10566000000E+00 0.  1.
        994   -1    0    0    0    0 -0.00000000000E+00 -0.00000000000E+00  0.11368683772E-12  0.17120000000E+03  0.17120000000E+03 0.  0.
         13    1    1    2    0    0 -0.36669720051E+02 -0.25461617405E+02  0.17940369475E+03  0.18487471212E+03  0.10566000000E+00 0.  1.
        994    1    1    2    0    0 -0.71106392246E+01  0.91937538705E+01  0.68705737312E+01  0.17173156694E+03  0.17120000000E+03 0.  0.
        998    1    1    2    0    0  0.43780359276E+02  0.16267863534E+02  0.13137257278E+04  0.13145937209E+04  0.10000000000E+02 0.  1.
</event>
<event>
 5    1  0.9123258E-009  0.3855429E+03  0.7957747E-01  0.3427373E+00
         13   -1    0    0    0    0  0.00000000000E+00  0.00000000000E+00  0.14999999963E+04  0.15000000000E+04  0.10566000000E+00 0. -1.
        994   -1    0    0    0    0 -0.00000000000E+00 -0.00000000000E+00  0.11368683772E-12  0.17120000000E+03  0.17120000000E+03 0.  0.
         13    1    1    2    0    0 -0.67936751193E+01  0.79639861523E+01  0.40689961384E+02  0.42015035625E+02  0.10566000000E+00 0. -1.
        994    1    1    2    0    0  0.89055043011E+01 -0.99453962437E-01  0.16212779287E+01  0.17143916250E+03  0.17120000000E+03 0.  0.
        998    1    1    2    0    0 -0.21118291818E+01 -0.78645321899E+01  0.14576887570E+04  0.14577458019E+04  0.10000000000E+02 0. -1.
</event>
<event>
 5    1  0.9123258E-009  0.3685990E+03  0.7957747E-01  0.3502355E+00
         13   -1    0    0    0    0  0.00000000000E+00  0.00000000000E+00  0.14999999963E+04  0.15000000000E+04  0.10566000000E+00 0. -1.
        994   -1    0    0    0    0 -0.00000000000E+00 -0.00000000000E+00  0.11368683772E-12  0.17120000000E+03  0.17120000000E+03 0.  0.
         13    1    1    2    0    0  0.71554102040E+01 -0.13118697630E+02  0.65532801649E+01  0.16317376249E+02  0.10566000000E+00 0. -1.
        994    1    1    2    0    0 -0.91693336125E+01  0.12764460885E+02  0.10861901550E+02  0.17226267456E+03  0.17120000000E+03 0.  0.
        998    1    1    2    0    0  0.20139234085E+01  0.35423674536E+00  0.14825848146E+04  0.14826199492E+04  0.10000000000E+02 0. -1.
</event>
<event>
 5    1  0.9123258E-009  0.3787720E+03  0.7957747E-01  0.3456523E+00
         13   -1    0    0    0    0  0.00000000000E+00  0.00000000000E+00  0.14999999963E+04  0.15000000000E+04  0.10566000000E+00 0.  1.
        994   -1    0    0    0    0 -0.00000000000E+00 -0.00000000000E+00  0.11368683772E-12  0.17120000000E+03  0.17120000000E+03 0.  0.
         13    1    1    2    0    0  0.16021554675E+02 -0.34617883768E+01  0.19364330684E+01  0.16505609048E+02  0.10566000000E+00 0.  1.
        994    1    1    2    0    0  0.26641583125E+02  0.73165188434E+01  0.18412604606E+02  0.17438970557E+03  0.17120000000E+03 0.  0.
        998    1    1    2    0    0 -0.42663137800E+02 -0.38547304666E+01  0.14796509586E+04  0.14803046854E+04  0.10000000000E+02 0.  1.
</event>
<event>
 5    1  0.9123258E-009  0.3777090E+03  0.7957747E-01  0.3461195E+00
         13   -1    0    0    0    0  0.00000000000E+00  0.00000000000E+00  0.14999999963E+04  0.15000000000E+04  0.10566000000E+00 0.  1.
        994   -1    0    0    0    0 -0.00000000000E+00 -0.00000000000E+00  0.11368683772E-12  0.17120000000E+03  0.17120000000E+03 0.  0.
         13    1    1    2    0    0  0.12151462273E+02 -0.42526759822E+00  0.11387457083E+02  0.16659058520E+02  0.10566000000E+00 0.  1.
        994    1    1    2    0    0 -0.17202110245E+02 -0.17867369597E+01  0.63022956174E+01  0.17218671248E+03  0.17120000000E+03 0.  0.
        998    1    1    2    0    0  0.50506479722E+01  0.22120045580E+01  0.14823102436E+04  0.14823542290E+04  0.10000000000E+02 0.  1.
</event>
<event>
 5    1  0.1034530E-008  0.3849873E+03  0.7957747E-01  0.3429726E+00
         13   -1    0    0    0    0  0.00000000000E+00  0.00000000000E+00  0.14999999963E+04  0.15000000000E+04  0.10566000000E+00 0.  1.
        994   -1    0    0    0    0 -0.00000000000E+00 -0.00000000000E+00  0.11368683772E-12  0.17120000000E+03  0.17120000000E+03 0.  0.
         13    1    1    2    0    0  0.12024196979E+02  0.45341493602E+01  0.48171492597E+02  0.49856230167E+02  0.10566000000E+00 0.  1.
        994    1    1    2    0    0 -0.15471709254E+02 -0.68663767733E+01  0.25793122957E+01  0.17205410129E+03  0.17120000000E+03 0.  0.
        998    1    1    2    0    0  0.34475122754E+01  0.23322274131E+01  0.14492491914E+04  0.14492896685E+04  0.10000000000E+02 0.  1.
</event>
<event>
 5    1  0.9123258E-009  0.3828876E+03  0.7957747E-01  0.3438681E+00
         13   -1    0    0    0    0  0.00000000000E+00  0.00000000000E+00  0.14999999963E+04  0.15000000000E+04  0.10566000000E+00 0. -1.
        994   -1    0    0    0    0 -0.00000000000E+00 -0.00000000000E+00  0.11368683772E-12  0.17120000000E+03  0.17120000000E+03 0.  0.
         13    1    1    2    0    0 -0.26141318226E+02  0.59105434974E+01  0.14685171714E+03  0.14927739626E+03  0.10566000000E+00 0. -1.
        994    1    1    2    0    0  0.55067053450E+01  0.83113360895E+01  0.30117782124E+01  0.17151650917E+03  0.17120000000E+03 0.  0.
        998    1    1    2    0    0  0.20634612881E+02 -0.14221879587E+02  0.13501365009E+04  0.13504060946E+04  0.10000000000E+02 0. -1.
</event>
<event>
 5    1  0.9123258E-009  0.3835332E+03  0.7957747E-01  0.3435917E+00
         13   -1    0    0    0    0  0.00000000000E+00  0.00000000000E+00  0.14999999963E+04  0.15000000000E+04  0.10566000000E+00 0. -1.
        994   -1    0    0    0    0 -0.00000000000E+00 -0.00000000000E+00  0.11368683772E-12  0.17120000000E+03  0.17120000000E+03 0.  0.
         13    1    1    2    0    0 -0.15198698743E+02  0.17606685802E+02  0.12209554644E+03  0.12429130884E+03  0.10566000000E+00 0. -1.
        994    1    1    2    0    0  0.14770043988E+02  0.56244480361E+01  0.31859580601E+01  0.17195749168E+03  0.17120000000E+03 0.  0.
        998    1    1    2    0    0  0.42865475539E+00 -0.23231133838E+02  0.13747184918E+04  0.13749511995E+04  0.10000000000E+02 0. -1.
</event>
<event>
 5    1  0.9123258E-009  0.3829123E+03  0.7957747E-01  0.3438575E+00
         13   -1    0    0    0    0  0.00000000000E+00  0.00000000000E+00  0.14999999963E+04  0.15000000000E+04  0.10566000000E+00 0. -1.
        994   -1    0    0    0    0 -0.00000000000E+00 -0.00000000000E+00  0.11368683772E-12  0.17120000000E+03  0.17120000000E+03 0.  0.
         13    1    1    2    0    0 -0.13819413723E+02  0.79619498773E+01  0.49590780636E+02  0.52092470950E+02  0.10566000000E+00 0. -1.
        994    1    1    2    0    0  0.11976897208E+02  0.24514743987E+02  0.51389311924E+01  0.17343663786E+03  0.17120000000E+03 0.  0.
        998    1    1    2    0    0  0.18425165150E+01 -0.32476693865E+02  0.14452702844E+04  0.14456708912E+04  0.10000000000E+02 0. -1.
</event>
<event>
 5    1  0.9123258E-009  0.3808303E+03  0.7957747E-01  0.3447551E+00
         13   -1    0    0    0    0  0.00000000000E+00  0.00000000000E+00  0.14999999963E+04  0.15000000000E+04  0.10566000000E+00 0.  1.
        994   -1    0    0    0    0 -0.00000000000E+00 -0.00000000000E+00  0.11368683772E-12  0.17120000000E+03  0.17120000000E+03 0.  0.
         13    1    1    2    0    0  0.17337727044E+02  0.52677974664E+02  0.33496198965E+03  0.33952188658E+03  0.10566000000E+00 0.  1.
        994    1    1    2    0    0 -0.77461872953E+01 -0.52533861102E+02  0.13172975203E+02  0.17972973392E+03  0.17120000000E+03 0.  0.
        998    1    1    2    0    0 -0.95915397490E+01 -0.14411356192E+00  0.11518650314E+04  0.11519483795E+04  0.10000000000E+02 0.  1.
</event>
<event>
 5    1  0.9123258E-009  0.3758169E+03  0.7957747E-01  0.3469577E+00
         13   -1    0    0    0    0  0.00000000000E+00  0.00000000000E+00  0.14999999963E+04  0.15000000000E+04  0.10566000000E+00 0.  1.
        994   -1    0    0    0    0 -0.00000000000E+00 -0.00000000000E+00  0.11368683772E-12  0.17120000000E+03  0.17120000000E+03 0.  0.
         13    1    1    2    0    0  0.45225128761E+02 -0.30191393821E+02  0.25300000169E+03  0.25877759670E+03  0.10566000000E+00 0.  1.
        994    1    1    2    0    0 -0.14259706192E+01  0.36481033476E+02  0.10791523287E+02  0.17538185816E+03  0.17120000000E+03 0.  0.
        998    1    1    2    0    0 -0.43799158141E+02 -0.62896396551E+01  0.12362084713E+04  0.12370405451E+04  0.10000000000E+02 0.  1.
</event>
<event>
 5    1  0.9123258E-009  0.3688480E+03  0.7957747E-01  0.3501202E+00
         13   -1    0    0    0    0  0.00000000000E+00  0.00000000000E+00  0.14999999963E+04  0.15000000000E+04  0.10566000000E+00 0. -1.
        994   -1    0    0    0    0 -0.00000000000E+00 -0.00000000000E+00  0.11368683772E-12  0.17120000000E+03  0.17120000000E+03 0.  0.
         13    1    1    2    0    0 -0.18388582086E+02 -0.51041507687E+01  0.12943766463E+02  0.23059587171E+02  0.10566000000E+00 0. -1.
        994    1    1    2    0    0  0.18611725482E+02  0.43431768106E+01  0.11603752132E+02  0.17265383452E+03  0.17120000000E+03 0.  0.
        998    1    1    2    0    0 -0.22314339574E+00  0.76097395818E+00  0.14754524777E+04  0.14754865783E+04  0.10000000000E+02 0. -1.
</event>
<event>
 5    1  0.9123258E-009  0.3841181E+03  0.7957747E-01  0.3433421E+00
         13   -1    0    0    0    0  0.00000000000E+00  0.00000000000E+00  0.14999999963E+04  0.15000000000E+04  0.10566000000E+00 0.  1.
        994   -1    0    0    0    0 -0.00000000000E+00 -0.00000000000E+00  0.11368683772E-12  0.17120000000E+03  0.17120000000E+03 0.  0.
         13    1    1    2    0    0  0.87064661140E+01 -0.10339504413E+02  0.42047356863E+02  0.44166721487E+02  0.10566000000E+00 0.  1.
        994    1    1    2    0    0 -0.63832005054E+01  0.17467070244E+02  0.32100581942E+01  0.17223701189E+03  0.17120000000E+03 0.  0.
        998    1    1    2    0    0 -0.23232656086E+01 -0.71275658310E+01  0.14547425812E+04  0.14547962666E+04  0.10000000000E+02 0.  1.
</event>
<event>
 5    1  0.9123258E-009  0.3794180E+03  0.7957747E-01  0.3453697E+00
         13   -1    0    0    0    0  0.00000000000E+00  0.00000000000E+00  0.14999999963E+04  0.15000000000E+04  0.10566000000E+00 0. -1.
        994   -1    0    0    0    0 -0.00000000000E+00 -0.00000000000E+00  0.11368683772E-12  0.17120000000E+03  0.17120000000E+03 0.  0.
         13    1    1    2    0    0 -0.89421561908E+01 -0.21840818947E+02  0.61050573807E+02  0.65453550368E+02  0.10566000000E+00 0. -1.
        994    1    1    2    0    0  0.14651000688E+02  0.11327583314E+02  0.55767976205E+01  0.17228902065E+03  0.17120000000E+03 0.  0.
        998    1    1    2    0    0 -0.57088444971E+01  0.10513235633E+02  0.14333726249E+04  0.14334574290E+04  0.10000000000E+02 0. -1.
</event>
<event>
 5    1  0.9123258E-009  0.3693313E+03  0.7957747E-01  0.3498970E+00
         13   -1    0    0    0    0  0.00000000000E+00  0.00000000000E+00  0.14999999963E+04  0.15000000000E+04  0.10566000000E+00 0.  1.
        994   -1    0    0    0    0 -0.00000000000E+00 -0.00000000000E+00  0.11368683772E-12  0.17120000000E+03  0.17120000000E+03 0.  0.
         13    1    1    2    0    0 -0.69386363260E+01  0.30281538612E+02  0.46843493339E+02  0.56208898646E+02  0.10566000000E+00 0.  1.
        994    1    1    2    0    0  0.26401284049E+01 -0.17631324946E+02  0.10721265110E+02  0.17245932687E+03  0.17120000000E+03 0.  0.
        998    1    1    2    0    0  0.42985079211E+01 -0.12650213666E+02  0.14424352378E+04  0.14425317745E+04  0.10000000000E+02 0.  1.
</event>
<event>
 5    1  0.9123258E-009  0.3818594E+03  0.7957747E-01  0.3443102E+00
         13   -1    0    0    0    0  0.00000000000E+00  0.00000000000E+00  0.14999999963E+04  0.15000000000E+04  0.10566000000E+00 0. -1.
        994   -1    0    0    0    0 -0.00000000000E+00 -0.00000000000E+00  0.11368683772E-12  0.17120000000E+03  0.17120000000E+03 0.  0.
         13    1    1    2    0    0 -0.81413904411E+01 -0.68617114431E+01  0.18563883046E+02  0.21400799985E+02  0.10566000000E+00 0. -1.
        994    1    1    2    0    0 -0.32040919781E+02 -0.18113668038E+02  0.77116474174E+01  0.17528158778E+03  0.17120000000E+03 0.  0.
        998    1    1    2    0    0  0.40182310222E+02  0.24975379481E+02  0.14737244658E+04  0.14745176122E+04  0.10000000000E+02 0. -1.
</event>
<event>
 5    1  0.9123258E-009  0.3843001E+03  0.7957747E-01  0.3432646E+00
         13   -1    0    0    0    0  0.00000000000E+00  0.00000000000E+00  0.14999999963E+04  0.15000000000E+04  0.10566000000E+00 0. -1.
        994   -1    0    0    0    0 -0.00000000000E+00 -0.00000000000E+00  0.11368683772E-12  0.17120000000E+03  0.17120000000E+03 0.  0.
         13    1    1    2    0    0  0.14404393729E+02 -0.48301853438E+01  0.57411693788E+02  0.59387970136E+02  0.10566000000E+00 0. -1.
        994    1    1    2    0    0 -0.11840925836E+02  0.22315817002E+01  0.24567045267E+01  0.17164108738E+03  0.17120000000E+03 0.  0.
        998    1    1    2    0    0 -0.25634678936E+01  0.25986036436E+01  0.14401315980E+04  0.14401709425E+04  0.10000000000E+02 0. -1.
</event>
<event>
 5    1  0.9123258E-009  0.3772602E+03  0.7957747E-01  0.3463176E+00
         13   -1    0    0    0    0  0.00000000000E+00  0.00000000000E+00  0.14999999963E+04  0.15000000000E+04  0.10566000000E+00 0.  1.
        994   -1    0    0    0    0 -0.00000000000E+00 -0.00000000000E+00  0.11368683772E-12  0.17120000000E+03  0.17120000000E+03 0.  0.
         13    1    1    2    0    0 -0.10891795225E+02  0.15016438376E+02  0.29615301792E+02  0.34945699149E+02  0.10566000000E+00 0.  1.
        994    1    1    2    0    0 -0.89568069128E+00 -0.53599775047E+01  0.56222577856E+01  0.17137847410E+03  0.17120000000E+03 0.  0.
        998    1    1    2    0    0  0.11787475917E+02 -0.96564608713E+01  0.14647624367E+04  0.14648758267E+04  0.10000000000E+02 0.  1.
</event>
<event>
 5    1  0.9123258E-009  0.3794986E+03  0.7957747E-01  0.3453345E+00
         13   -1    0    0    0    0  0.00000000000E+00  0.00000000000E+00  0.14999999963E+04  0.15000000000E+04  0.10566000000E+00 0.  1.
        994   -1    0    0    0    0 -0.00000000000E+00 -0.00000000000E+00  0.11368683772E-12  0.17120000000E+03  0.17120000000E+03 0.  0.
         13    1    1    2    0    0  0.64122481404E+01 -0.12011942954E+02  0.19745070331E+02  0.23985050890E+02  0.10566000000E+00 0.  1.
        994    1    1    2    0    0 -0.38152959912E+01 -0.12598550294E+01  0.44405188695E+01  0.17130470492E+03  0.17120000000E+03 0.  0.
        998    1    1    2    0    0 -0.25969521492E+01  0.13271797984E+02  0.14758144071E+04  0.14759102442E+04  0.10000000000E+02 0.  1.
</event>
<event>
 5    1  0.9123258E-009  0.3839240E+03  0.7957747E-01  0.3434248E+00
         13   -1    0    0    0    0  0.00000000000E+00  0.00000000000E+00  0.14999999963E+04  0.15000000000E+04  0.10566000000E+00 0.  1.
        994   -1    0    0    0    0 -0.00000000000E+00 -0.00000000000E+00  0.11368683772E-12  0.17120000000E+03  0.17120000000E+03 0.  0.
         13    1    1    2    0    0  0.26225551804E+02 -0.34119651251E+01  0.15835603129E+03  0.16054925999E+03  0.10566000000E+00 0.  1.
        994    1    1    2    0    0 -0.18471717961E+02 -0.35983952941E+01  0.33349089899E+01  0.17226350290E+03  0.17120000000E+03 0.  0.
        998    1    1    2    0    0 -0.77538338433E+01  0.70103604192E+01  0.13383090560E+04  0.13383872371E+04  0.10000000000E+02 0.  1.
</event>
<event>
 5    1  0.9123258E-009  0.3699680E+03  0.7957747E-01  0.3496038E+00
         13   -1    0    0    0    0  0.00000000000E+00  0.00000000000E+00  0.14999999963E+04  0.15000000000E+04  0.10566000000E+00 0. -1.
        994   -1    0    0    0    0 -0.00000000000E+00 -0.00000000000E+00  0.11368683772E-12  0.17120000000E+03  0.17120000000E+03 0.  0.
         13    1    1    2    0    0 -0.49221275467E+01 -0.37290771835E+02  0.59332037745E+02  0.70250486623E+02  0.10566000000E+00 0. -1.
        994    1    1    2    0    0  0.95724112998E+01  0.31869534364E+02  0.14802394576E+02  0.17503099487E+03  0.17120000000E+03 0.  0.
        998    1    1    2    0    0 -0.46502837531E+01  0.54212374711E+01  0.14258655640E+04  0.14259185185E+04  0.10000000000E+02 0. -1.
</event>
<event>
 5    1  0.9123258E-009  0.3797557E+03  0.7957747E-01  0.3452223E+00
         13   -1    0    0    0    0  0.00000000000E+00  0.00000000000E+00  0.14999999963E+04  0.15000000000E+04  0.10566000000E+00 0.  1.
        994   -1    0    0    0    0 -0.00000000000E+00 -0.00000000000E+00  0.11368683772E-12  0.17120000000E+03  0.17120000000E+03 0.  0.
         13    1    1    2    0    0  0.38991039012E+02 -0.42971537829E+02  0.32235191935E+03  0.32753263236E+03  0.10566000000E+00 0.  1.
        994    1    1    2    0    0 -0.30027670892E+02  0.46596060683E+02  0.14606523151E+02  0.18054263876E+03  0.17120000000E+03 0.  0.
        998    1    1    2    0    0 -0.89633681201E+01 -0.36245228538E+01  0.11630415538E+04  0.11631247289E+04  0.10000000000E+02 0.  1.
</event>
<event>
 5    1  0.9123258E-009  0.3840090E+03  0.7957747E-01  0.3433886E+00
         13   -1    0    0    0    0  0.00000000000E+00  0.00000000000E+00  0.14999999963E+04  0.15000000000E+04  0.10566000000E+00 0. -1.
        994   -1    0    0    0    0 -0.00000000000E+00 -0.00000000000E+00  0.11368683772E-12  0.17120000000E+03  0.17120000000E+03 0.  0.
         13    1    1    2    0    0 -0.41273689659E+01 -0.10288860722E+02  0.28623462212E+02  0.30695432601E+02  0.10566000000E+00 0. -1.
        994    1    1    2    0    0 -0.15976242390E+01  0.60851897595E+01  0.22535524352E+01  0.17133038387E+03  0.17120000000E+03 0.  0.
        998    1    1    2    0    0  0.57249932049E+01  0.42036709626E+01  0.14691229816E+04  0.14691741835E+04  0.10000000000E+02 0. -1.
</event>
<event>
 5    1  0.9123258E-009  0.3833676E+03  0.7957747E-01  0.3436625E+00
         13   -1    0    0    0    0  0.00000000000E+00  0.00000000000E+00  0.14999999963E+04  0.15000000000E+04  0.10566000000E+00 0.  1.
        994   -1    0    0    0    0 -0.00000000000E+00 -0.00000000000E+00  0.11368683772E-12  0.17120000000E+03  0.17120000000E+03 0.  0.
         13    1    1    2    0    0 -0.20687774363E+02 -0.29127013719E+01  0.83922220987E+02  0.86483629530E+02  0.10566000000E+00 0.  1.
        994    1    1    2    0    0  0.22551200145E+02  0.16064756836E+01  0.41344932802E+01  0.17273584291E+03  0.17120000000E+03 0.  0.
        998    1    1    2    0    0 -0.18634257812E+01  0.13062256883E+01  0.14119432820E+04  0.14119805276E+04  0.10000000000E+02 0.  0.
</event>
<event>
 5    1  0.9123258E-009  0.3809968E+03  0.7957747E-01  0.3446830E+00
         13   -1    0    0    0    0  0.00000000000E+00  0.00000000000E+00  0.14999999963E+04  0.15000000000E+04  0.10566000000E+00 0.  1.
        994   -1    0    0    0    0 -0.00000000000E+00 -0.00000000000E+00  0.11368683772E-12  0.17120000000E+03  0.17120000000E+03 0.  0.
         13    1    1    2    0    0  0.63079859810E+01 -0.19020897603E+02  0.51595821362E+02  0.55350927534E+02  0.10566000000E+00 0.  1.
        994    1    1    2    0    0 -0.32620190488E+01  0.24673615885E+02  0.56974598006E+01  0.17309341159E+03  0.17120000000E+03 0.  0.
        998    1    1    2    0    0 -0.30459669322E+01 -0.56527182825E+01  0.14427067151E+04  0.14427556609E+04  0.10000000000E+02 0.  1.
</event>
<event>
 5    1  0.9123258E-009  0.3792019E+03  0.7957747E-01  0.3454641E+00
         13   -1    0    0    0    0  0.00000000000E+00  0.00000000000E+00  0.14999999963E+04  0.15000000000E+04  0.10566000000E+00 0. -1.
        994   -1    0    0    0    0 -0.00000000000E+00 -0.00000000000E+00  0.11368683772E-12  0.17120000000E+03  0.17120000000E+03 0.  0.
         13    1    1    2    0    0  0.11883615485E+02  0.21337958366E+02  0.64337349656E+02  0.68817399755E+02  0.10566000000E+00 0. -1.
        994    1    1    2    0    0 -0.10830692847E+02 -0.10622353894E+02  0.53083003081E+01  0.17195277364E+03  0.17120000000E+03 0.  0.
        998    1    1    2    0    0 -0.10529226378E+01 -0.10715604472E+02  0.14303543463E+04  0.14304298266E+04  0.10000000000E+02 0. -1.
</event>
<event>
 5    1  0.9123258E-009  0.3819582E+03  0.7957747E-01  0.3442676E+00
         13   -1    0    0    0    0  0.00000000000E+00  0.00000000000E+00  0.14999999963E+04  0.15000000000E+04  0.10566000000E+00 0.  1.
        994   -1    0    0    0    0 -0.00000000000E+00 -0.00000000000E+00  0.11368683772E-12  0.17120000000E+03  0.17120000000E+03 0.  0.
         13    1    1    2    0    0  0.18411112293E+01  0.12594538879E+02  0.23910670144E+02  0.27087698516E+02  0.10566000000E+00 0.  1.
        994    1    1    2    0    0 -0.37017437419E+01 -0.16620534248E+02  0.41115132171E+01  0.17209383954E+03  0.17120000000E+03 0.  0.
        998    1    1    2    0    0  0.18606325125E+01  0.40259953689E+01  0.14719778129E+04  0.14720184619E+04  0.10000000000E+02 0.  1.
</event>
<event>
 5    1  0.9123258E-009  0.3819767E+03  0.7957747E-01  0.3442596E+00
         13   -1    0    0    0    0  0.00000000000E+00  0.00000000000E+00  0.14999999963E+04  0.15000000000E+04  0.10566000000E+00 0.  1.
        994   -1    0    0    0    0 -0.00000000000E+00 -0.00000000000E+00  0.11368683772E-12  0.17120000000E+03  0.17120000000E+03 0.  0.
         13    1    1    2    0    0 -0.23070696226E+02  0.14087592157E+02  0.10548467725E+03  0.10889327608E+03  0.10566000000E+00 0.  1.
        994    1    1    2    0    0  0.28852421598E+02 -0.13595406810E+02  0.65246687814E+01  0.17426792195E+03  0.17120000000E+03 0.  0.
        998    1    1    2    0    0 -0.57817253720E+01 -0.49218534787E+00  0.13879906502E+04  0.13880388020E+04  0.10000000000E+02 0.  1.
</event>
<event>
 5    1  0.9123258E-009  0.3843820E+03  0.7957747E-01  0.3432297E+00
         13   -1    0    0    0    0  0.00000000000E+00  0.00000000000E+00  0.14999999963E+04  0.15000000000E+04  0.10566000000E+00 0. -1.
        994   -1    0    0    0    0 -0.00000000000E+00 -0.00000000000E+00  0.11368683772E-12  0.17120000000E+03  0.17120000000E+03 0.  0.
         13    1    1    2    0    0  0.15150759059E+02 -0.91928666986E+01  0.78870307006E+02  0.80836815805E+02  0.10566000000E+00 0. -1.
        994    1    1    2    0    0 -0.10420290606E+02  0.12131853877E+02  0.27805232204E+01  0.17196783317E+03  0.17120000000E+03 0.  0.
        998    1    1    2    0    0 -0.47304684530E+01 -0.29389871785E+01  0.14183491661E+04  0.14183953510E+04  0.10000000000E+02 0. -1.
</event>
<event>
 5    1  0.9123258E-009  0.3830358E+03  0.7957747E-01  0.3438046E+00
         13   -1    0    0    0    0  0.00000000000E+00  0.00000000000E+00  0.14999999963E+04  0.15000000000E+04  0.10566000000E+00 0.  1.
        994   -1    0    0    0    0 -0.00000000000E+00 -0.00000000000E+00  0.11368683772E-12  0.17120000000E+03  0.17120000000E+03 0.  0.
         13    1    1    2    0    0  0.22690726311E+00  0.10635051953E+02  0.20273194780E+02  0.22894746287E+02  0.10566000000E+00 0.  1.
        994    1    1    2    0    0  0.97765087566E+00 -0.14597597760E+02  0.33172366297E+01  0.17185601450E+03  0.17120000000E+03 0.  0.
        998    1    1    2    0    0 -0.12045581388E+01  0.39625458072E+01  0.14764095649E+04  0.14764492392E+04  0.10000000000E+02 0.  1.
</event>
<event>
 5    1  0.9123258E-009  0.3858307E+03  0.7957747E-01  0.3426157E+00
         13   -1    0    0    0    0  0.00000000000E+00  0.00000000000E+00  0.14999999963E+04  0.15000000000E+04  0.10566000000E+00 0.  1.
        994   -1    0    0    0    0 -0.00000000000E+00 -0.00000000000E+00  0.11368683772E-12  0.17120000000E+03  0.17120000000E+03 0.  0.
         13    1    1    2    0    0 -0.55528664548E+01  0.12323919092E+02  0.70608149831E+02  0.71890439519E+02  0.10566000000E+00 0.  1.
        994    1    1    2    0    0  0.98672717154E+01 -0.15494264674E+02  0.23257523613E+01  0.17219838679E+03  0.17120000000E+03 0.  0.
        998    1    1    2    0    0 -0.43144052606E+01  0.31703455819E+01  0.14270660941E+04  0.14271111737E+04  0.10000000000E+02 0.  1.
</event>
<event>
 5    1  0.9123258E-009  0.3730437E+03  0.7957747E-01  0.3482018E+00
         13   -1    0    0    0    0  0.00000000000E+00  0.00000000000E+00  0.14999999963E+04  0.15000000000E+04  0.10566000000E+00 0.  1.
        994   -1    0    0    0    0 -0.00000000000E+00 -0.00000000000E+00  0.11368683772E-12  0.17120000000E+03  0.17120000000E+03 0.  0.
         13    1    1    2    0    0 -0.22987544739E+02  0.92084932004E+02  0.38659821217E+03  0.39807819675E+03  0.10566000000E+00 0.  1.
        994    1    1    2    0    0  0.25140122878E+02 -0.10336686324E+03  0.47460398584E+02  0.20707163888E+03  0.17120000000E+03 0.  0.
        998    1    1    2    0    0 -0.21525781388E+01  0.11281931238E+02  0.10659413855E+04  0.10660501644E+04  0.10000000000E+02 0.  1.
</event>
<event>
 5    1  0.9123258E-009  0.3821873E+03  0.7957747E-01  0.3441690E+00
         13   -1    0    0    0    0  0.00000000000E+00  0.00000000000E+00  0.14999999963E+04  0.15000000000E+04  0.10566000000E+00 0.  1.
        994   -1    0    0    0    0 -0.00000000000E+00 -0.00000000000E+00  0.11368683772E-12  0.17120000000E+03  0.17120000000E+03 0.  0.
         13    1    1    2    0    0  0.25076294607E+02 -0.73103353865E+00  0.98742416385E+02  0.10187949214E+03  0.10566000000E+00 0.  1.
        994    1    1    2    0    0 -0.22232339679E+02  0.32392514667E+01  0.47101714245E+01  0.17273214927E+03  0.17120000000E+03 0.  0.
        998    1    1    2    0    0 -0.28439549284E+01 -0.25082179281E+01  0.13965474085E+04  0.13965883586E+04  0.10000000000E+02 0.  1.
</event>
<event>
 5    1  0.9123258E-009  0.3757306E+03  0.7957747E-01  0.3469962E+00
         13   -1    0    0    0    0  0.00000000000E+00  0.00000000000E+00  0.14999999963E+04  0.15000000000E+04  0.10566000000E+00 0. -1.
        994   -1    0    0    0    0 -0.00000000000E+00 -0.00000000000E+00  0.11368683772E-12  0.17120000000E+03  0.17120000000E+03 0.  0.
         13    1    1    2    0    0 -0.70468497668E+02  0.59311259207E+02  0.33422994443E+03  0.34668905600E+03  0.10566000000E+00 0. -1.
        994    1    1    2    0    0  0.32215942447E+02 -0.17070859550E+02  0.18758938500E+02  0.17604152626E+03  0.17120000000E+03 0.  0.
        998    1    1    2    0    0  0.38252555222E+02 -0.42240399657E+02  0.11470111133E+04  0.11484694177E+04  0.10000000000E+02 0. -1.
</event>
<event>
 5    1  0.9123258E-009  0.3732843E+03  0.7957747E-01  0.3480932E+00
         13   -1    0    0    0    0  0.00000000000E+00  0.00000000000E+00  0.14999999963E+04  0.15000000000E+04  0.10566000000E+00 0.  1.
        994   -1    0    0    0    0 -0.00000000000E+00 -0.00000000000E+00  0.11368683772E-12  0.17120000000E+03  0.17120000000E+03 0.  0.
         13    1    1    2    0    0  0.39512061142E+02  0.33677952304E+02  0.23505170574E+03  0.24071710156E+03  0.10566000000E+00 0.  1.
        994    1    1    2    0    0  0.12527297010E+02  0.80122533875E+01  0.83188083381E+01  0.17204584257E+03  0.17120000000E+03 0.  0.
        998    1    1    2    0    0 -0.52039358152E+02 -0.41690205691E+02  0.12566294822E+04  0.12584370559E+04  0.10000000000E+02 0.  1.
</event>
<event>
 5    1  0.9123258E-009  0.3814121E+03  0.7957747E-01  0.3445033E+00
         13   -1    0    0    0    0  0.00000000000E+00  0.00000000000E+00  0.14999999963E+04  0.15000000000E+04  0.10566000000E+00 0. -1.
        994   -1    0    0    0    0 -0.00000000000E+00 -0.00000000000E+00  0.11368683772E-12  0.17120000000E+03  0.17120000000E+03 0.  0.
         13    1    1    2    0    0  0.40013150426E+02 -0.13367432593E+02  0.25461415527E+03  0.25808548911E+03  0.10566000000E+00 0. -1.
        994    1    1    2    0    0 -0.30068393891E+02 -0.65138874476E+01  0.65779118210E+01  0.17406679168E+03  0.17120000000E+03 0.  0.
        998    1    1    2    0    0 -0.99447565347E+01  0.19881320040E+02  0.12388079292E+04  0.12390477192E+04  0.10000000000E+02 0.  1.
</event>
<event>
 5    1  0.9123258E-009  0.3852903E+03  0.7957747E-01  0.3428442E+00
         13   -1    0    0    0    0  0.00000000000E+00  0.00000000000E+00  0.14999999963E+04  0.15000000000E+04  0.10566000000E+00 0. -1.
        994   -1    0    0    0    0 -0.00000000000E+00 -0.00000000000E+00  0.11368683772E-12  0.17120000000E+03  0.17120000000E+03 0.  0.
         13    1    1    2    0    0  0.29711964075E+01  0.11936840075E+02  0.45020329605E+02  0.46670733880E+02  0.10566000000E+00 0. -1.
        994    1    1    2    0    0 -0.51547380885E+01 -0.30885360246E+02  0.47141171578E+01  0.17410381875E+03  0.17120000000E+03 0.  0.
        998    1    1    2    0    0  0.21835416810E+01  0.18948520171E+02  0.14502655495E+04  0.14504254474E+04  0.10000000000E+02 0. -1.
</event>
<event>
 5    1  0.9123258E-009  0.3722743E+03  0.7957747E-01  0.3485503E+00
         13   -1    0    0    0    0  0.00000000000E+00  0.00000000000E+00  0.14999999963E+04  0.15000000000E+04  0.10566000000E+00 0.  1.
        994   -1    0    0    0    0 -0.00000000000E+00 -0.00000000000E+00  0.11368683772E-12  0.17120000000E+03  0.17120000000E+03 0.  0.
         13    1    1    2    0    0 -0.12883055775E+03 -0.65129152437E+01  0.49453013397E+03  0.51107709325E+03  0.10566000000E+00 0.  1.
        994    1    1    2    0    0  0.15808776016E+03 -0.15539992935E+02  0.10032323903E+03  0.25417990397E+03  0.17120000000E+03 0.  0.
        998    1    1    2    0    0 -0.29257202407E+02  0.22052908178E+02  0.90514662328E+03  0.90594300279E+03  0.10000000000E+02 0.  1.
</event>
<event>
 5    1  0.9123258E-009  0.3697470E+03  0.7957747E-01  0.3497055E+00
         13   -1    0    0    0    0  0.00000000000E+00  0.00000000000E+00  0.14999999963E+04  0.15000000000E+04  0.10566000000E+00 0. -1.
        994   -1    0    0    0    0 -0.00000000000E+00 -0.00000000000E+00  0.11368683772E-12  0.17120000000E+03  0.17120000000E+03 0.  0.
         13    1    1    2    0    0  0.14952163431E+02  0.33323394294E+01  0.82764452655E+01  0.17412133345E+02  0.10566000000E+00 0. -1.
        994    1    1    2    0    0 -0.89743063881E+01 -0.56276859308E+01  0.97898038154E+01  0.17180654610E+03  0.17120000000E+03 0.  0.
        998    1    1    2    0    0 -0.59778570434E+01  0.22953465014E+01  0.14819337472E+04  0.14819813206E+04  0.10000000000E+02 0. -1.
</event>
<event>
 5    1  0.9123258E-009  0.3744224E+03  0.7957747E-01  0.3475810E+00
         13   -1    0    0    0    0  0.00000000000E+00  0.00000000000E+00  0.14999999963E+04  0.15000000000E+04  0.10566000000E+00 0. -1.
        994   -1    0    0    0    0 -0.00000000000E+00 -0.00000000000E+00  0.11368683772E-12  0.17120000000E+03  0.17120000000E+03 0.  0.
         13    1    1    2    0    0  0.17838444173E+02 -0.17281797953E+01  0.20412627584E+02  0.27164006053E+02  0.10566000000E+00 0. -1.
        994    1    1    2    0    0 -0.57714759416E+01 -0.86150087794E+01  0.73419424457E+01  0.17167082580E+03  0.17120000000E+03 0.  0.
        998    1    1    2    0    0 -0.12066968231E+02  0.10343188575E+02  0.14722454262E+04  0.14723651682E+04  0.10000000000E+02 0. -1.
</event>
<event>
 5    1  0.9123258E-009  0.3763185E+03  0.7957747E-01  0.3467347E+00
         13   -1    0    0    0    0  0.00000000000E+00  0.00000000000E+00  0.14999999963E+04  0.15000000000E+04  0.10566000000E+00 0.  1.
        994   -1    0    0    0    0 -0.00000000000E+00 -0.00000000000E+00  0.11368683772E-12  0.17120000000E+03  0.17120000000E+03 0.  0.
         13    1    1    2    0    0 -0.24210261358E+02  0.19872293992E+01  0.50293002567E+02  0.55852333049E+02  0.10566000000E+00 0.  1.
        994    1    1    2    0    0 -0.41828027723E+01  0.21333194764E+02  0.76041708155E+01  0.17274219071E+03  0.17120000000E+03 0.  0.
        998    1    1    2    0    0  0.28393064131E+02 -0.23320424163E+02  0.14421028229E+04  0.14426054762E+04  0.10000000000E+02 0.  1.
</event>
<event>
 5    1  0.9123258E-009  0.3782133E+03  0.7957747E-01  0.3458975E+00
         13   -1    0    0    0    0  0.00000000000E+00  0.00000000000E+00  0.14999999963E+04  0.15000000000E+04  0.10566000000E+00 0. -1.
        994   -1    0    0    0    0 -0.00000000000E+00 -0.00000000000E+00  0.11368683772E-12  0.17120000000E+03  0.17120000000E+03 0.  0.
         13    1    1    2    0    0  0.24708119601E+02 -0.22617919147E+02  0.10614961032E+03  0.11130953408E+03  0.10566000000E+00 0. -1.
        994    1    1    2    0    0 -0.10625718078E+02  0.28307384192E+02  0.81181903312E+01  0.17403895799E+03  0.17120000000E+03 0.  0.
        998    1    1    2    0    0 -0.14082401523E+02 -0.56894650449E+01  0.13857321956E+04  0.13858515079E+04  0.10000000000E+02 0. -1.
</event>
<event>
 5    1  0.9123258E-009  0.3821581E+03  0.7957747E-01  0.3441815E+00
         13   -1    0    0    0    0  0.00000000000E+00  0.00000000000E+00  0.14999999963E+04  0.15000000000E+04  0.10566000000E+00 0. -1.
        994   -1    0    0    0    0 -0.00000000000E+00 -0.00000000000E+00  0.11368683772E-12  0.17120000000E+03  0.17120000000E+03 0.  0.
         13    1    1    2    0    0 -0.79857858707E+01  0.90294136400E+01  0.22819600867E+02  0.25807914182E+02  0.10566000000E+00 0. -1.
        994    1    1    2    0    0  0.86224235703E+00 -0.75475897642E+01  0.32392637390E+01  0.17139907352E+03  0.17120000000E+03 0.  0.
        998    1    1    2    0    0  0.71235435137E+01 -0.14818238759E+01  0.14739411317E+04  0.14739930123E+04  0.10000000000E+02 0. -1.
</event>
<event>
 5    1  0.9123258E-009  0.3807803E+03  0.7957747E-01  0.3447768E+00
         13   -1    0    0    0    0  0.00000000000E+00  0.00000000000E+00  0.14999999963E+04  0.15000000000E+04  0.10566000000E+00 0. -1.
        994   -1    0    0    0    0 -0.00000000000E+00 -0.00000000000E+00  0.11368683772E-12  0.17120000000E+03  0.17120000000E+03 0.  0.
         13    1    1    2    0    0  0.15122109903E+03  0.23240806836E+03  0.11278012100E+04  0.11613857720E+04  0.10566000000E+00 0. -1.
        994    1    1    2    0    0 -0.14741635979E+03 -0.23101178568E+03  0.31377457596E+03  0.45040199020E+03  0.17120000000E+03 0.  0.
        998    1    1    2    0    0 -0.38047392397E+01 -0.13962826793E+01  0.58424210301E+02  0.59412237757E+02  0.10000000000E+02 0.  0.
</event>
<event>
 5    1  0.9123258E-009  0.3779292E+03  0.7957747E-01  0.3460225E+00
         13   -1    0    0    0    0  0.00000000000E+00  0.00000000000E+00  0.14999999963E+04  0.15000000000E+04  0.10566000000E+00 0. -1.
        994   -1    0    0    0    0 -0.00000000000E+00 -0.00000000000E+00  0.11368683772E-12  0.17120000000E+03  0.17120000000E+03 0.  0.
         13    1    1    2    0    0 -0.57708996638E+01  0.18732242962E+02  0.35800988803E+02  0.40815709875E+02  0.10566000000E+00 0. -1.
        994    1    1    2    0    0 -0.13264432762E+02 -0.10036783322E+02  0.61139744142E+01  0.17211479564E+03  0.17120000000E+03 0.  0.
        998    1    1    2    0    0  0.19035332426E+02 -0.86954596403E+01  0.14580850331E+04  0.14582694945E+04  0.10000000000E+02 0. -1.
</event>
<event>
 5    1  0.9123258E-009  0.3797799E+03  0.7957747E-01  0.3452117E+00
         13   -1    0    0    0    0  0.00000000000E+00  0.00000000000E+00  0.14999999963E+04  0.15000000000E+04  0.10566000000E+00 0.  1.
        994   -1    0    0    0    0 -0.00000000000E+00 -0.00000000000E+00  0.11368683772E-12  0.17120000000E+03  0.17120000000E+03 0.  0.
         13    1    1    2    0    0  0.39127192615E+02 -0.44897436491E+02  0.31806879308E+03  0.32359617628E+03  0.10566000000E+00 0.  1.
        994    1    1    2    0    0 -0.41714743225E+02  0.47589702372E+02  0.17760548465E+02  0.18338423230E+03  0.17120000000E+03 0.  0.
        998    1    1    2    0    0  0.25875506102E+01 -0.26922658815E+01  0.11641706547E+04  0.11642195914E+04  0.10000000000E+02 0.  1.
</event>
<event>
 5    1  0.9123258E-009  0.3723190E+03  0.7957747E-01  0.3485301E+00
         13   -1    0    0    0    0  0.00000000000E+00  0.00000000000E+00  0.14999999963E+04  0.15000000000E+04  0.10566000000E+00 0.  1.
        994   -1    0    0    0    0 -0.00000000000E+00 -0.00000000000E+00  0.11368683772E-12  0.17120000000E+03  0.17120000000E+03 0.  0.
         13    1    1    2    0    0  0.21852476222E+02 -0.58656881354E+02  0.20304686286E+03  0.21247635193E+03  0.10566000000E+00 0.  1.
        994    1    1    2    0    0 -0.23611707010E+02  0.62946700501E+02  0.23728795949E+02  0.18545159899E+03  0.17120000000E+03 0.  0.
        998    1    1    2    0    0  0.17592307882E+01 -0.42898191464E+01  0.12732243375E+04  0.12732720491E+04  0.10000000000E+02 0.  1.
</event>
<event>
 5    1  0.9123258E-009  0.3786209E+03  0.7957747E-01  0.3457186E+00
         13   -1    0    0    0    0  0.00000000000E+00  0.00000000000E+00  0.14999999963E+04  0.15000000000E+04  0.10566000000E+00 0. -1.
        994   -1    0    0    0    0 -0.00000000000E+00 -0.00000000000E+00  0.11368683772E-12  0.17120000000E+03  0.17120000000E+03 0.  0.
         13    1    1    2    0    0 -0.48398528015E+02  0.72018715740E+01  0.28072117357E+03  0.28495380840E+03  0.10566000000E+00 0. -1.
        994    1    1    2    0    0  0.98723490339E+01 -0.27104273859E+02  0.76303814079E+01  0.17378080348E+03  0.17120000000E+03 0.  0.
        998    1    1    2    0    0  0.38526178981E+02  0.19902402285E+02  0.12116484413E+04  0.12124653881E+04  0.10000000000E+02 0. -1.
</event>
<event>
 5    1  0.9123258E-009  0.2839380E+03  0.7957747E-01  0.4017809E+00
         13   -1    0    0    0    0  0.00000000000E+00  0.00000000000E+00  0.14999999963E+04  0.15000000000E+04  0.10566000000E+00 0. -1.
        994   -1    0    0    0    0 -0.00000000000E+00 -0.00000000000E+00  0.11368683772E-12  0.17120000000E+03  0.17120000000E+03 0.  0.
         13    1    1    2    0    0  0.14992104984E+03  0.19527245961E+02  0.62686492714E+03  0.64483895862E+03  0.10566000000E+00 0. -1.
        994    1    1    2    0    0 -0.11848606372E+03  0.33749918381E+02  0.72136369821E+02  0.22291500653E+03  0.17120000000E+03 0.  0.
        998    1    1    2    0    0 -0.31434986112E+02 -0.53277164341E+02  0.80099869932E+03  0.80344603484E+03  0.10000000000E+02 0. -1.
</event>
<event>
 5    1  0.9123258E-009  0.3831377E+03  0.7957747E-01  0.3437609E+00
         13   -1    0    0    0    0  0.00000000000E+00  0.00000000000E+00  0.14999999963E+04  0.15000000000E+04  0.10566000000E+00 0. -1.
        994   -1    0    0    0    0 -0.00000000000E+00 -0.00000000000E+00  0.11368683772E-12  0.17120000000E+03  0.17120000000E+03 0.  0.
         13    1    1    2    0    0  0.98096406871E+01 -0.10660352164E+02  0.40743970187E+02  0.43242969709E+02  0.10566000000E+00 0. -1.
        994    1    1    2    0    0 -0.63078579288E+01  0.33684172390E+01  0.27267588390E+01  0.17137097339E+03  0.17120000000E+03 0.  0.
        998    1    1    2    0    0 -0.35017827583E+01  0.72919349252E+01  0.14565292673E+04  0.14565860569E+04  0.10000000000E+02 0. -1.
</event>
<event>
 5    1  0.9123258E-009  0.3748477E+03  0.7957747E-01  0.3473904E+00
         13   -1    0    0    0    0  0.00000000000E+00  0.00000000000E+00  0.14999999963E+04  0.15000000000E+04  0.10566000000E+00 0. -1.
        994   -1    0    0    0    0 -0.00000000000E+00 -0.00000000000E+00  0.11368683772E-12  0.17120000000E+03  0.17120000000E+03 0.  0.
         13    1    1    2    0    0 -0.19809428078E+02 -0.20068976203E+02  0.53837734815E+02  0.60775736117E+02  0.10566000000E+00 0. -1.
        994    1    1    2    0    0  0.22006389570E+02  0.22998317738E+02  0.10210565888E+02  0.17443308017E+03  0.17120000000E+03 0.  0.
        998    1    1    2    0    0 -0.21969614922E+01 -0.29293415348E+01  0.14359516956E+04  0.14359911837E+04  0.10000000000E+02 0. -1.
</event>
<event>
 5    1  0.9123258E-009  0.3772701E+03  0.7957747E-01  0.3463132E+00
         13   -1    0    0    0    0  0.00000000000E+00  0.00000000000E+00  0.14999999963E+04  0.15000000000E+04  0.10566000000E+00 0.  1.
        994   -1    0    0    0    0 -0.00000000000E+00 -0.00000000000E+00  0.11368683772E-12  0.17120000000E+03  0.17120000000E+03 0.  0.
         13    1    1    2    0    0  0.76416314495E+01 -0.32507246782E+02  0.96328178864E+02  0.10195216933E+03  0.10566000000E+00 0.  1.
        994    1    1    2    0    0 -0.15362926007E+01  0.27096416195E+02  0.80063236751E+01  0.17352267052E+03  0.17120000000E+03 0.  0.
        998    1    1    2    0    0 -0.61053388488E+01  0.54108305873E+01  0.13956654937E+04  0.13957251601E+04  0.10000000000E+02 0.  1.
</event>
<event>
 5    1  0.9123258E-009  0.3764371E+03  0.7957747E-01  0.3466820E+00
         13   -1    0    0    0    0  0.00000000000E+00  0.00000000000E+00  0.14999999963E+04  0.15000000000E+04  0.10566000000E+00 0. -1.
        994   -1    0    0    0    0 -0.00000000000E+00 -0.00000000000E+00  0.11368683772E-12  0.17120000000E+03  0.17120000000E+03 0.  0.
         13    1    1    2    0    0 -0.23029732705E+02  0.11971108195E+01  0.12612683096E+02  0.26284835964E+02  0.10566000000E+00 0. -1.
        994    1    1    2    0    0  0.69390812763E+01  0.59593104202E+01  0.14683170757E+02  0.17207178657E+03  0.17120000000E+03 0.  0.
        998    1    1    2    0    0  0.16090651428E+02 -0.71564212397E+01  0.14727041424E+04  0.14728433775E+04  0.10000000000E+02 0. -1.
</event>
<event>
 5    1  0.9123258E-009  0.3817128E+03  0.7957747E-01  0.3443734E+00
         13   -1    0    0    0    0  0.00000000000E+00  0.00000000000E+00  0.14999999963E+04  0.15000000000E+04  0.10566000000E+00 0. -1.
        994   -1    0    0    0    0 -0.00000000000E+00 -0.00000000000E+00  0.11368683772E-12  0.17120000000E+03  0.17120000000E+03 0.  0.
         13    1    1    2    0    0  0.16607632825E+02 -0.18628047056E+02  0.93873916323E+02  0.97134653626E+02  0.10566000000E+00 0. -1.
        994    1    1    2    0    0 -0.47175765013E+01  0.17151911541E+02  0.43236084738E+01  0.17217600642E+03  0.17120000000E+03 0.  0.
        998    1    1    2    0    0 -0.11890056324E+02  0.14761355148E+01  0.14018024715E+04  0.14018893400E+04  0.10000000000E+02 0. -1.
</event>
<event>
 5    1  0.9123258E-009  0.3723011E+03  0.7957747E-01  0.3485382E+00
         13   -1    0    0    0    0  0.00000000000E+00  0.00000000000E+00  0.14999999963E+04  0.15000000000E+04  0.10566000000E+00 0.  1.
        994   -1    0    0    0    0 -0.00000000000E+00 -0.00000000000E+00  0.11368683772E-12  0.17120000000E+03  0.17120000000E+03 0.  0.
         13    1    1    2    0    0  0.21799807647E+02 -0.43852350112E+02  0.16944963886E+03  0.17638438564E+03  0.10566000000E+00 0.  1.
        994    1    1    2    0    0  0.54596915577E+01  0.26808431822E+01  0.81981821517E+01  0.17150406801E+03  0.17120000000E+03 0.  0.
        998    1    1    2    0    0 -0.27259499205E+02  0.41171506930E+02  0.13223521753E+04  0.13233115464E+04  0.10000000000E+02 0.  1.
</event>
<event>
 5    1  0.9123258E-009  0.3863178E+03  0.7957747E-01  0.3424102E+00
         13   -1    0    0    0    0  0.00000000000E+00  0.00000000000E+00  0.14999999963E+04  0.15000000000E+04  0.10566000000E+00 0.  1.
        994   -1    0    0    0    0 -0.00000000000E+00 -0.00000000000E+00  0.11368683772E-12  0.17120000000E+03  0.17120000000E+03 0.  0.
         13    1    1    2    0    0 -0.14318604354E+01  0.10941102734E+02  0.63071479385E+02  0.64029529354E+02  0.10566000000E+00 0.  1.
        994    1    1    2    0    0 -0.19813459644E+01 -0.83623557257E+01  0.12191416080E+01  0.17141989684E+03  0.17120000000E+03 0.  0.
        998    1    1    2    0    0  0.34132063998E+01 -0.25787470083E+01  0.14357093753E+04  0.14357505738E+04  0.10000000000E+02 0.  1.
</event>
<event>
 5    1  0.9123258E-009  0.3759022E+03  0.7957747E-01  0.3469198E+00
         13   -1    0    0    0    0  0.00000000000E+00  0.00000000000E+00  0.14999999963E+04  0.15000000000E+04  0.10566000000E+00 0.  1.
        994   -1    0    0    0    0 -0.00000000000E+00 -0.00000000000E+00  0.11368683772E-12  0.17120000000E+03  0.17120000000E+03 0.  0.
         13    1    1    2    0    0 -0.67229248303E+02 -0.68946981780E+02  0.53759788044E+03  0.54615469451E+03  0.10566000000E+00 0.  1.
        994    1    1    2    0    0 -0.13391392338E+02  0.13547167100E+02  0.15390717142E+02  0.17294267634E+03  0.17120000000E+03 0.  0.
        998    1    1    2    0    0  0.80620640641E+02  0.55399814681E+02  0.94701139870E+03  0.95210262915E+03  0.10000000000E+02 0.  1.
</event>
<event>
 5    1  0.9123258E-009  0.3777697E+03  0.7957747E-01  0.3460927E+00
         13   -1    0    0    0    0  0.00000000000E+00  0.00000000000E+00  0.14999999963E+04  0.15000000000E+04  0.10566000000E+00 0. -1.
        994   -1    0    0    0    0 -0.00000000000E+00 -0.00000000000E+00  0.11368683772E-12  0.17120000000E+03  0.17120000000E+03 0.  0.
         13    1    1    2    0    0 -0.28717770488E+02 -0.28582992854E+02  0.15418268490E+03  0.15941771956E+03  0.10566000000E+00 0. -1.
        994    1    1    2    0    0 -0.13452239696E+01  0.35990791841E+02  0.96441271921E+01  0.17521300156E+03  0.17120000000E+03 0.  0.
        998    1    1    2    0    0  0.30062994458E+02 -0.74077989873E+01  0.13361731842E+04  0.13365692789E+04  0.10000000000E+02 0. -1.
</event>
<event>
 5    1  0.9123258E-009  0.3778266E+03  0.7957747E-01  0.3460677E+00
         13   -1    0    0    0    0  0.00000000000E+00  0.00000000000E+00  0.14999999963E+04  0.15000000000E+04  0.10566000000E+00 0. -1.
        994   -1    0    0    0    0 -0.00000000000E+00 -0.00000000000E+00  0.11368683772E-12  0.17120000000E+03  0.17120000000E+03 0.  0.
         13    1    1    2    0    0 -0.14607007407E+02  0.48717516799E+02  0.21942723294E+03  0.22524449566E+03  0.10566000000E+00 0. -1.
        994    1    1    2    0    0  0.68500877849E+01 -0.45397463405E+02  0.12364745208E+02  0.17767999412E+03  0.17120000000E+03 0.  0.
        998    1    1    2    0    0  0.77569196220E+01 -0.33200533937E+01  0.12682080181E+04  0.12682755102E+04  0.10000000000E+02 0. -1.
</event>
<event>
 5    1  0.9204206E-009  0.3851110E+03  0.7957747E-01  0.3429201E+00
         13   -1    0    0    0    0  0.00000000000E+00  0.00000000000E+00  0.14999999963E+04  0.15000000000E+04  0.10566000000E+00 0. -1.
        994   -1    0    0    0    0 -0.00000000000E+00 -0.00000000000E+00  0.11368683772E-12  0.17120000000E+03  0.17120000000E+03 0.  0.
         13    1    1    2    0    0 -0.78584534375E+01  0.96636662217E+01  0.49725289827E+02  0.51261655725E+02  0.10566000000E+00 0. -1.
        994    1    1    2    0    0  0.57729670859E+01 -0.38575113685E+01  0.17335208107E+01  0.17134950434E+03  0.17120000000E+03 0.  0.
        998    1    1    2    0    0  0.20854863517E+01 -0.58061548532E+01  0.14485411856E+04  0.14485888399E+04  0.10000000000E+02 0. -1.
</event>
<event>
 5    1  0.9123258E-009  0.3855927E+03  0.7957747E-01  0.3427162E+00
         13   -1    0    0    0    0  0.00000000000E+00  0.00000000000E+00  0.14999999963E+04  0.15000000000E+04  0.10566000000E+00 0.  1.
        994   -1    0    0    0    0 -0.00000000000E+00 -0.00000000000E+00  0.11368683772E-12  0.17120000000E+03  0.17120000000E+03 0.  0.
         13    1    1    2    0    0  0.10683256485E+02  0.10990287723E+02  0.82294458065E+02  0.83709661244E+02  0.10566000000E+00 0.  1.
        994    1    1    2    0    0 -0.18119402002E+02 -0.93755587680E+01  0.27034818142E+01  0.17243248721E+03  0.17120000000E+03 0.  0.
        998    1    1    2    0    0  0.74361455167E+01 -0.16147289553E+01  0.14150020564E+04  0.14150578515E+04  0.10000000000E+02 0.  1.
</event>
<event>
 5    1  0.9123258E-009  0.3699522E+03  0.7957747E-01  0.3496111E+00
         13   -1    0    0    0    0  0.00000000000E+00  0.00000000000E+00  0.14999999963E+04  0.15000000000E+04  0.10566000000E+00 0. -1.
        994   -1    0    0    0    0 -0.00000000000E+00 -0.00000000000E+00  0.11368683772E-12  0.17120000000E+03  0.17120000000E+03 0.  0.
         13    1    1    2    0    0  0.63136228419E+02 -0.47144068343E+02  0.43451837392E+03  0.44160499879E+03  0.10566000000E+00 0. -1.
        994    1    1    2    0    0 -0.84069991558E+01  0.12433517203E+02  0.10073471120E+02  0.17215163318E+03  0.17120000000E+03 0.  0.
        998    1    1    2    0    0 -0.54729229264E+02  0.34710551140E+02  0.10554081512E+04  0.10574433680E+04  0.10000000000E+02 0. -1.
</event>
<event>
 5    1  0.9123258E-009  0.3845967E+03  0.7957747E-01  0.3431384E+00
         13   -1    0    0    0    0  0.00000000000E+00  0.00000000000E+00  0.14999999963E+04  0.15000000000E+04  0.10566000000E+00 0. -1.
        994   -1    0    0    0    0 -0.00000000000E+00 -0.00000000000E+00  0.11368683772E-12  0.17120000000E+03  0.17120000000E+03 0.  0.
         13    1    1    2    0    0 -0.52761212770E+01  0.12819309122E+02  0.56858917108E+02  0.58524522730E+02  0.10566000000E+00 0. -1.
        994    1    1    2    0    0  0.21938480196E+01  0.68879530065E+01  0.20025817760E+01  0.17136425298E+03  0.17120000000E+03 0.  0.
        998    1    1    2    0    0  0.30822732574E+01 -0.19707262129E+02  0.14411384974E+04  0.14413112243E+04  0.10000000000E+02 0. -1.
</event>
<event>
 5    1  0.9123258E-009  0.3734195E+03  0.7957747E-01  0.3480322E+00
         13   -1    0    0    0    0  0.00000000000E+00  0.00000000000E+00  0.14999999963E+04  0.15000000000E+04  0.10566000000E+00 0. -1.
        994   -1    0    0    0    0 -0.00000000000E+00 -0.00000000000E+00  0.11368683772E-12  0.17120000000E+03  0.17120000000E+03 0.  0.
         13    1    1    2    0    0  0.97894746978E+00 -0.26929812068E+02  0.44395224260E+02  0.51933806113E+02  0.10566000000E+00 0. -1.
        994    1    1    2    0    0 -0.40404731722E+01  0.26277438437E+02  0.99118937313E+01  0.17353534174E+03  0.17120000000E+03 0.  0.
        998    1    1    2    0    0  0.30615257025E+01  0.65237363126E+00  0.14456928783E+04  0.14457308522E+04  0.10000000000E+02 0. -1.
</event>
<event>
 5    1  0.9123258E-009  0.3843373E+03  0.7957747E-01  0.3432488E+00
         13   -1    0    0    0    0  0.00000000000E+00  0.00000000000E+00  0.14999999963E+04  0.15000000000E+04  0.10566000000E+00 0.  1.
        994   -1    0    0    0    0 -0.00000000000E+00 -0.00000000000E+00  0.11368683772E-12  0.17120000000E+03  0.17120000000E+03 0.  0.
         13    1    1    2    0    0 -0.54900296169E+01 -0.18908125468E+02  0.10579567955E+03  0.10761224191E+03  0.10566000000E+00 0.  1.
        994    1    1    2    0    0 -0.32920319038E+01  0.41956594331E+01  0.20532586215E+01  0.17129534992E+03  0.17120000000E+03 0.  0.
        998    1    1    2    0    0  0.87820615207E+01  0.14712466035E+02  0.13921510581E+04  0.13922924082E+04  0.10000000000E+02 0.  1.
</event>
<event>
 5    1  0.9123258E-009  0.3813118E+03  0.7957747E-01  0.3445467E+00
         13   -1    0    0    0    0  0.00000000000E+00  0.00000000000E+00  0.14999999963E+04  0.15000000000E+04  0.10566000000E+00 0.  1.
        994   -1    0    0    0    0 -0.00000000000E+00 -0.00000000000E+00  0.11368683772E-12  0.17120000000E+03  0.17120000000E+03 0.  0.
         13    1    1    2    0    0 -0.15575191594E+01  0.12991888385E+02  0.23573617601E+02  0.26961855288E+02  0.10566000000E+00 0.  1.
        994    1    1    2    0    0  0.30748782151E+01 -0.45088802871E+01  0.35715902087E+01  0.17132419892E+03  0.17120000000E+03 0.  0.
        998    1    1    2    0    0 -0.15173590557E+01 -0.84830080980E+01  0.14728547885E+04  0.14729139458E+04  0.10000000000E+02 0.  1.
</event>
<event>
 5    1  0.9123258E-009  0.3821856E+03  0.7957747E-01  0.3441697E+00
         13   -1    0    0    0    0  0.00000000000E+00  0.00000000000E+00  0.14999999963E+04  0.15000000000E+04  0.10566000000E+00 0. -1.
        994   -1    0    0    0    0 -0.00000000000E+00 -0.00000000000E+00  0.11368683772E-12  0.17120000000E+03  0.17120000000E+03 0.  0.
         13    1    1    2    0    0  0.19837680659E+02  0.14903101964E+02  0.10288651113E+03  0.10583610612E+03  0.10566000000E+00 0. -1.
        994    1    1    2    0    0 -0.12860072900E+02 -0.18119394323E+01  0.35939264791E+01  0.17172949923E+03  0.17120000000E+03 0.  0.
        998    1    1    2    0    0 -0.69776077593E+01 -0.13091162532E+02  0.13935195587E+04  0.13936343947E+04  0.10000000000E+02 0. -1.
</event>
<event>
 5    1  0.9123258E-009  0.3854463E+03  0.7957747E-01  0.3427781E+00
         13   -1    0    0    0    0  0.00000000000E+00  0.00000000000E+00  0.14999999963E+04  0.15000000000E+04  0.10566000000E+00 0. -1.
        994   -1    0    0    0    0 -0.00000000000E+00 -0.00000000000E+00  0.11368683772E-12  0.17120000000E+03  0.17120000000E+03 0.  0.
         13    1    1    2    0    0 -0.55023574006E+00 -0.15094742022E+02  0.75060234670E+02  0.76565031110E+02  0.10566000000E+00 0. -1.
        994    1    1    2    0    0 -0.21176308409E+01  0.21180077080E+02  0.28979872988E+01  0.17254251174E+03  0.17120000000E+03 0.  0.
        998    1    1    2    0    0  0.26678665810E+01 -0.60853350581E+01  0.14220417743E+04  0.14220924572E+04  0.10000000000E+02 0. -1.
</event>
<event>
 5    1  0.9123258E-009  0.3733949E+03  0.7957747E-01  0.3480433E+00
         13   -1    0    0    0    0  0.00000000000E+00  0.00000000000E+00  0.14999999963E+04  0.15000000000E+04  0.10566000000E+00 0.  1.
        994   -1    0    0    0    0 -0.00000000000E+00 -0.00000000000E+00  0.11368683772E-12  0.17120000000E+03  0.17120000000E+03 0.  0.
         13    1    1    2    0    0 -0.40789220294E+02  0.18538001765E+02  0.73451401202E+02  0.86038000350E+02  0.10566000000E+00 0.  1.
        994    1    1    2    0    0  0.38804740162E+02  0.56319796405E+01  0.18204900150E+02  0.17657402256E+03  0.17120000000E+03 0.  0.
        998    1    1    2    0    0  0.19844801327E+01 -0.24169981406E+02  0.14083436949E+04  0.14085879771E+04  0.10000000000E+02 0.  1.
</event>
<event>
 5    1  0.9123258E-009  0.3830513E+03  0.7957747E-01  0.3437979E+00
         13   -1    0    0    0    0  0.00000000000E+00  0.00000000000E+00  0.14999999963E+04  0.15000000000E+04  0.10566000000E+00 0.  1.
        994   -1    0    0    0    0 -0.00000000000E+00 -0.00000000000E+00  0.11368683772E-12  0.17120000000E+03  0.17120000000E+03 0.  0.
         13    1    1    2    0    0 -0.94614992012E+01 -0.24564484375E+02  0.11279595926E+03  0.11582691159E+03  0.10566000000E+00 0.  1.
        994    1    1    2    0    0  0.19218540750E+02  0.36094570846E+02  0.81546529696E+01  0.17620473523E+03  0.17120000000E+03 0.  0.
        998    1    1    2    0    0 -0.97570415490E+01 -0.11530086471E+02  0.13790493840E+04  0.13791683532E+04  0.10000000000E+02 0.  1.
</event>
<event>
 5    1  0.9123258E-009  0.3851546E+03  0.7957747E-01  0.3429017E+00
         13   -1    0    0    0    0  0.00000000000E+00  0.00000000000E+00  0.14999999963E+04  0.15000000000E+04  0.10566000000E+00 0.  1.
        994   -1    0    0    0    0 -0.00000000000E+00 -0.00000000000E+00  0.11368683772E-12  0.17120000000E+03  0.17120000000E+03 0.  0.
         13    1    1    2    0    0  0.15062744387E+01 -0.11190445093E+02  0.43465896228E+02  0.44908687612E+02  0.10566000000E+00 0.  1.
        994    1    1    2    0    0  0.33333592820E+02  0.22253216915E+01  0.52305650837E+01  0.17450753359E+03  0.17120000000E+03 0.  0.
        998    1    1    2    0    0 -0.34839867259E+02  0.89651234016E+01  0.14513035350E+04  0.14517837788E+04  0.10000000000E+02 0.  1.
</event>
<event>
 5    1  0.9123258E-009  0.3858769E+03  0.7957747E-01  0.3425962E+00
         13   -1    0    0    0    0  0.00000000000E+00  0.00000000000E+00  0.14999999963E+04  0.15000000000E+04  0.10566000000E+00 0.  1.
        994   -1    0    0    0    0 -0.00000000000E+00 -0.00000000000E+00  0.11368683772E-12  0.17120000000E+03  0.17120000000E+03 0.  0.
         13    1    1    2    0    0  0.98229555859E+01 -0.47726964603E+01  0.49486763168E+02  0.50677608278E+02  0.10566000000E+00 0.  1.
        994    1    1    2    0    0 -0.74770874735E+01  0.77805500302E+01  0.15773660817E+01  0.17154699613E+03  0.17120000000E+03 0.  0.
        998    1    1    2    0    0 -0.23458681123E+01 -0.30078535699E+01  0.14489358670E+04  0.14489753956E+04  0.10000000000E+02 0.  1.
</event>
<event>
 5    1  0.9123258E-009  0.3786442E+03  0.7957747E-01  0.3457083E+00
         13   -1    0    0    0    0  0.00000000000E+00  0.00000000000E+00  0.14999999963E+04  0.15000000000E+04  0.10566000000E+00 0.  1.
        994   -1    0    0    0    0 -0.00000000000E+00 -0.00000000000E+00  0.11368683772E-12  0.17120000000E+03  0.17120000000E+03 0.  0.
         13    1    1    2    0    0  0.80540418788E+02  0.12952863283E+03  0.69901774501E+03  0.71546505490E+03  0.10566000000E+00 0.  1.
        994    1    1    2    0    0 -0.83263545489E+02 -0.16401292374E+03  0.12839394725E+03  0.28218345602E+03  0.17120000000E+03 0.  0.
        998    1    1    2    0    0  0.27231267005E+01  0.34484290904E+02  0.67258830402E+03  0.67355148908E+03  0.10000000000E+02 0.  1.
</event>
<event>
 5    1  0.9123258E-009  0.3817518E+03  0.7957747E-01  0.3443566E+00
         13   -1    0    0    0    0  0.00000000000E+00  0.00000000000E+00  0.14999999963E+04  0.15000000000E+04  0.10566000000E+00 0.  1.
        994   -1    0    0    0    0 -0.00000000000E+00 -0.00000000000E+00  0.11368683772E-12  0.17120000000E+03  0.17120000000E+03 0.  0.
         13    1    1    2    0    0  0.21253915439E+01  0.60654295603E+02  0.11010693363E+03  0.12572592756E+03  0.10566000000E+00 0.  1.
        994    1    1    2    0    0  0.31941273935E+02 -0.13929854020E+02  0.21734004385E+02  0.17605707245E+03  0.17120000000E+03 0.  0.
        998    1    1    2    0    0 -0.34066665479E+02 -0.46724441583E+02  0.13681590583E+04  0.13694170000E+04  0.10000000000E+02 0.  1.
</event>
<event>
 5    1  0.9123258E-009  0.3857790E+03  0.7957747E-01  0.3426375E+00
         13   -1    0    0    0    0  0.00000000000E+00  0.00000000000E+00  0.14999999963E+04  0.15000000000E+04  0.10566000000E+00 0.  1.
        994   -1    0    0    0    0 -0.00000000000E+00 -0.00000000000E+00  0.11368683772E-12  0.17120000000E+03  0.17120000000E+03 0.  0.
         13    1    1    2    0    0 -0.48490870468E+01  0.10807563699E+02  0.56390300303E+02  0.57621126426E+02  0.10566000000E+00 0.  1.
        994    1    1    2    0    0  0.18593152019E+01 -0.92721758991E+01  0.15372899351E+01  0.17146787909E+03  0.17120000000E+03 0.  0.
        998    1    1    2    0    0  0.29897718449E+01 -0.15353877995E+01  0.14420724060E+04  0.14421109945E+04  0.10000000000E+02 0.  1.
</event>
<event>
 5    1  0.9123258E-009  0.2628030E+03  0.7957747E-01  0.4203500E+00
         13   -1    0    0    0    0  0.00000000000E+00  0.00000000000E+00  0.14999999963E+04  0.15000000000E+04  0.10566000000E+00 0. -1.
        994   -1    0    0    0    0 -0.00000000000E+00 -0.00000000000E+00  0.11368683772E-12  0.17120000000E+03  0.17120000000E+03 0.  0.
         13    1    1    2    0    0  0.17535536921E+02  0.15495950353E+03  0.64217966640E+03  0.66084391341E+03  0.10566000000E+00 0. -1.
        994    1    1    2    0    0 -0.49397008926E+02  0.88866303871E+00  0.47360891932E+02  0.18437285130E+03  0.17120000000E+03 0.  0.
        998    1    1    2    0    0  0.31861472005E+02 -0.15584816657E+03  0.81045943795E+03  0.82598323529E+03  0.10000000000E+02 0. -1.
</event>
<event>
 5    1  0.9123258E-009  0.3844232E+03  0.7957747E-01  0.3432122E+00
         13   -1    0    0    0    0  0.00000000000E+00  0.00000000000E+00  0.14999999963E+04  0.15000000000E+04  0.10566000000E+00 0. -1.
        994   -1    0    0    0    0 -0.00000000000E+00 -0.00000000000E+00  0.11368683772E-12  0.17120000000E+03  0.17120000000E+03 0.  0.
         13    1    1    2    0    0 -0.15539378263E+02  0.19097252762E+01  0.61604760594E+02  0.63563173452E+02  0.10566000000E+00 0. -1.
        994    1    1    2    0    0  0.16529549097E+02  0.25472803787E+01  0.28389071651E+01  0.17203840857E+03  0.17120000000E+03 0.  0.
        998    1    1    2    0    0 -0.99017083447E+00 -0.44570056549E+01  0.14355563285E+04  0.14355984180E+04  0.10000000000E+02 0.  0.
</event>
<event>
 5    1  0.9123258E-009  0.3843879E+03  0.7957747E-01  0.3432272E+00
         13   -1    0    0    0    0  0.00000000000E+00  0.00000000000E+00  0.14999999963E+04  0.15000000000E+04  0.10566000000E+00 0. -1.
        994   -1    0    0    0    0 -0.00000000000E+00 -0.00000000000E+00  0.11368683772E-12  0.17120000000E+03  0.17120000000E+03 0.  0.
         13    1    1    2    0    0  0.46298079862E+01  0.19369267235E+02  0.10192204844E+03  0.10384950052E+03  0.10566000000E+00 0. -1.
        994    1    1    2    0    0  0.97908127736E+01 -0.15971086039E+02  0.30915871867E+01  0.17224962559E+03  0.17120000000E+03 0.  0.
        998    1    1    2    0    0 -0.14420620760E+02 -0.33981811958E+01  0.13949863607E+04  0.13951008739E+04  0.10000000000E+02 0. -1.
</event>
<event>
 5    1  0.9123258E-009  0.3826718E+03  0.7957747E-01  0.3439607E+00
         13   -1    0    0    0    0  0.00000000000E+00  0.00000000000E+00  0.14999999963E+04  0.15000000000E+04  0.10566000000E+00 0.  1.
        994   -1    0    0    0    0 -0.00000000000E+00 -0.00000000000E+00  0.11368683772E-12  0.17120000000E+03  0.17120000000E+03 0.  0.
         13    1    1    2    0    0 -0.46273473890E+01  0.10724141094E+02  0.23470730498E+02  0.26216519605E+02  0.10566000000E+00 0.  1.
        994    1    1    2    0    0  0.41805685819E+01 -0.61988913304E+01  0.29757595300E+01  0.17138902693E+03  0.17120000000E+03 0.  0.
        998    1    1    2    0    0  0.44677880715E+00 -0.45252497640E+01  0.14735535063E+04  0.14735944535E+04  0.10000000000E+02 0.  1.
</event>
<event>
 5    1  0.9123258E-009  0.3833356E+03  0.7957747E-01  0.3436762E+00
         13   -1    0    0    0    0  0.00000000000E+00  0.00000000000E+00  0.14999999963E+04  0.15000000000E+04  0.10566000000E+00 0. -1.
        994   -1    0    0    0    0 -0.00000000000E+00 -0.00000000000E+00  0.11368683772E-12  0.17120000000E+03  0.17120000000E+03 0.  0.
         13    1    1    2    0    0 -0.10506161975E+02 -0.90364994982E+01  0.39935873731E+02  0.42272011276E+02  0.10566000000E+00 0. -1.
        994    1    1    2    0    0 -0.44414000074E+01  0.44193805174E+01  0.25885671977E+01  0.17133416950E+03  0.17120000000E+03 0.  0.
        998    1    1    2    0    0  0.14947561982E+02  0.46171189808E+01  0.14574755553E+04  0.14575938192E+04  0.10000000000E+02 0. -1.
</event>
<event>
 5    1  0.9123258E-009  0.3845243E+03  0.7957747E-01  0.3431692E+00
         13   -1    0    0    0    0  0.00000000000E+00  0.00000000000E+00  0.14999999963E+04  0.15000000000E+04  0.10566000000E+00 0.  1.
        994   -1    0    0    0    0 -0.00000000000E+00 -0.00000000000E+00  0.11368683772E-12  0.17120000000E+03  0.17120000000E+03 0.  0.
         13    1    1    2    0    0  0.11582609205E+02 -0.42164912705E+01  0.40273715793E+02  0.42117917593E+02  0.10566000000E+00 0.  1.
        994    1    1    2    0    0 -0.77221829028E+01  0.46283678290E+01  0.21335055103E+01  0.17144983448E+03  0.17120000000E+03 0.  0.
        998    1    1    2    0    0 -0.38604263017E+01 -0.41187655847E+00  0.14575927750E+04  0.14576322479E+04  0.10000000000E+02 0.  1.
</event>
<event>
 5    1  0.9123258E-009  0.3846500E+03  0.7957747E-01  0.3431158E+00
         13   -1    0    0    0    0  0.00000000000E+00  0.00000000000E+00  0.14999999963E+04  0.15000000000E+04  0.10566000000E+00 0.  1.
        994   -1    0    0    0    0 -0.00000000000E+00 -0.00000000000E+00  0.11368683772E-12  0.17120000000E+03  0.17120000000E+03 0.  0.
         13    1    1    2    0    0  0.56571536929E+01 -0.15635087464E+02  0.76677113055E+02  0.78459226216E+02  0.10566000000E+00 0.  1.
        994    1    1    2    0    0 -0.76264412277E+01  0.83204468260E+01  0.22235434599E+01  0.17158606175E+03  0.17120000000E+03 0.  0.
        998    1    1    2    0    0  0.19692875348E+01  0.73146406380E+01  0.14210993398E+04  0.14211547120E+04  0.10000000000E+02 0.  1.
</event>
<event>
 5    1  0.9123258E-009  0.3855817E+03  0.7957747E-01  0.3427209E+00
         13   -1    0    0    0    0  0.00000000000E+00  0.00000000000E+00  0.14999999963E+04  0.15000000000E+04  0.10566000000E+00 0.  1.
        994   -1    0    0    0    0 -0.00000000000E+00 -0.00000000000E+00  0.11368683772E-12  0.17120000000E+03  0.17120000000E+03 0.  0.
         13    1    1    2    0    0  0.33314666261E+01 -0.14291465988E+02  0.81470485178E+02  0.82781615044E+02  0.10566000000E+00 0.  1.
        994    1    1    2    0    0  0.42533389330E+01  0.97096021950E+01  0.17105161093E+01  0.17153639011E+03  0.17120000000E+03 0.  0.
        998    1    1    2    0    0 -0.75848055591E+01  0.45818637929E+01  0.14168189950E+04  0.14168819948E+04  0.10000000000E+02 0.  1.
</event>
<event>
 5    1  0.9123258E-009  0.3837017E+03  0.7957747E-01  0.3435197E+00
         13   -1    0    0    0    0  0.00000000000E+00  0.00000000000E+00  0.14999999963E+04  0.15000000000E+04  0.10566000000E+00 0. -1.
        994   -1    0    0    0    0 -0.00000000000E+00 -0.00000000000E+00  0.11368683772E-12  0.17120000000E+03  0.17120000000E+03 0.  0.
         13    1    1    2    0    0  0.14300813634E+02 -0.23380337943E+01  0.50042472687E+02  0.52098367626E+02  0.10566000000E+00 0. -1.
        994    1    1    2    0    0  0.98069702935E+01 -0.27317716595E+00  0.25940431646E+01  0.17150049665E+03  0.17120000000E+03 0.  0.
        998    1    1    2    0    0 -0.24107783928E+02  0.26112109603E+01  0.14473634804E+04  0.14476011357E+04  0.10000000000E+02 0. -1.
</event>
<event>
 5    1  0.9123258E-009  0.3785917E+03  0.7957747E-01  0.3457313E+00
         13   -1    0    0    0    0  0.00000000000E+00  0.00000000000E+00  0.14999999963E+04  0.15000000000E+04  0.10566000000E+00 0.  1.
        994   -1    0    0    0    0 -0.00000000000E+00 -0.00000000000E+00  0.11368683772E-12  0.17120000000E+03  0.17120000000E+03 0.  0.
         13    1    1    2    0    0 -0.13510329762E+02  0.64934250241E+02  0.17405791488E+03  0.18626635435E+03  0.10566000000E+00 0.  1.
        994    1    1    2    0    0 -0.45806631998E+02  0.83719261328E+01  0.23413781413E+02  0.17895804492E+03  0.17120000000E+03 0.  0.
        998    1    1    2    0    0  0.59316961760E+02 -0.73306176374E+02  0.13025283000E+04  0.13059756007E+04  0.10000000000E+02 0.  1.
</event>
<event>
 5    1  0.9886331E-009  0.3842688E+03  0.7957747E-01  0.3432779E+00
         13   -1    0    0    0    0  0.00000000000E+00  0.00000000000E+00  0.14999999963E+04  0.15000000000E+04  0.10566000000E+00 0. -1.
        994   -1    0    0    0    0 -0.00000000000E+00 -0.00000000000E+00  0.11368683772E-12  0.17120000000E+03  0.17120000000E+03 0.  0.
         13    1    1    2    0    0  0.23520234717E+02  0.35871801541E+01  0.12729594245E+03  0.12950033757E+03  0.10566000000E+00 0. -1.
        994    1    1    2    0    0 -0.28172687730E+02 -0.11811186586E+01  0.46190225934E+01  0.17356805796E+03  0.17120000000E+03 0.  0.
        998    1    1    2    0    0  0.46524530130E+01 -0.24060614955E+01  0.13680850312E+04  0.13681316045E+04  0.10000000000E+02 0. -1.
</event>
<event>
 5    1  0.9123258E-009  0.3737885E+03  0.7957747E-01  0.3478659E+00
         13   -1    0    0    0    0  0.00000000000E+00  0.00000000000E+00  0.14999999963E+04  0.15000000000E+04  0.10566000000E+00 0.  1.
        994   -1    0    0    0    0 -0.00000000000E+00 -0.00000000000E+00  0.11368683772E-12  0.17120000000E+03  0.17120000000E+03 0.  0.
         13    1    1    2    0    0  0.75080379067E+02 -0.20214897294E+03  0.10200197047E+04  0.10425648563E+04  0.10566000000E+00 0.  1.
        994    1    1    2    0    0 -0.65196051702E+02  0.19116114973E+03  0.16251032390E+03  0.31066405601E+03  0.17120000000E+03 0.  0.
        998    1    1    2    0    0 -0.98843273655E+01  0.10987823210E+02  0.31746996771E+03  0.31797108765E+03  0.10000000000E+02 0.  0.
</event>
<event>
 5    1  0.9123258E-009  0.3852520E+03  0.7957747E-01  0.3428604E+00
         13   -1    0    0    0    0  0.00000000000E+00  0.00000000000E+00  0.14999999963E+04  0.15000000000E+04  0.10566000000E+00 0.  1.
        994   -1    0    0    0    0 -0.00000000000E+00 -0.00000000000E+00  0.11368683772E-12  0.17120000000E+03  0.17120000000E+03 0.  0.
         13    1    1    2    0    0 -0.18862167633E+01  0.10818680324E+02  0.38527717037E+02  0.40062423813E+02  0.10566000000E+00 0.  1.
        994    1    1    2    0    0  0.65816346537E+00 -0.15152088602E+02  0.22612651116E+01  0.17188534634E+03  0.17120000000E+03 0.  0.
        998    1    1    2    0    0  0.12280532980E+01  0.43334082776E+01  0.14592110141E+04  0.14592522298E+04  0.10000000000E+02 0.  1.
</event>
<event>
 5    1  0.9123258E-009  0.3805179E+03  0.7957747E-01  0.3448907E+00
         13   -1    0    0    0    0  0.00000000000E+00  0.00000000000E+00  0.14999999963E+04  0.15000000000E+04  0.10566000000E+00 0.  1.
        994   -1    0    0    0    0 -0.00000000000E+00 -0.00000000000E+00  0.11368683772E-12  0.17120000000E+03  0.17120000000E+03 0.  0.
         13    1    1    2    0    0 -0.20698767037E+01  0.12941922797E+02  0.20058917890E+02  0.23961408686E+02  0.10566000000E+00 0.  1.
        994    1    1    2    0    0  0.83049862237E+01 -0.17505449957E+02  0.51257891704E+01  0.17236915991E+03  0.17120000000E+03 0.  0.
        998    1    1    2    0    0 -0.62351095201E+01  0.45635271597E+01  0.14748152892E+04  0.14748694314E+04  0.10000000000E+02 0.  1.
</event>
<event>
 5    1  0.9123258E-009  0.3791880E+03  0.7957747E-01  0.3454702E+00
         13   -1    0    0    0    0  0.00000000000E+00  0.00000000000E+00  0.14999999963E+04  0.15000000000E+04  0.10566000000E+00 0. -1.
        994   -1    0    0    0    0 -0.00000000000E+00 -0.00000000000E+00  0.11368683772E-12  0.17120000000E+03  0.17120000000E+03 0.  0.
         13    1    1    2    0    0 -0.22626280636E+01 -0.15578890446E+02  0.25080975754E+02  0.29612291740E+02  0.10566000000E+00 0. -1.
        994    1    1    2    0    0  0.35851553619E+01  0.15094434261E+02  0.53507954798E+01  0.17198478507E+03  0.17120000000E+03 0.  0.
        998    1    1    2    0    0 -0.13225272982E+01  0.48445618495E+00  0.14695682250E+04  0.14696029232E+04  0.10000000000E+02 0. -1.
</event>
<event>
 5    1  0.9123258E-009  0.3790899E+03  0.7957747E-01  0.3455131E+00
         13   -1    0    0    0    0  0.00000000000E+00  0.00000000000E+00  0.14999999963E+04  0.15000000000E+04  0.10566000000E+00 0. -1.
        994   -1    0    0    0    0 -0.00000000000E+00 -0.00000000000E+00  0.11368683772E-12  0.17120000000E+03  0.17120000000E+03 0.  0.
         13    1    1    2    0    0 -0.31661788099E+02 -0.19421710986E+02  0.18406968516E+03  0.18778000916E+03  0.10566000000E+00 0. -1.
        994    1    1    2    0    0 -0.18949220328E+02  0.15084891895E+02  0.65627158976E+01  0.17302929276E+03  0.17120000000E+03 0.  0.
        998    1    1    2    0    0  0.50611008427E+02  0.43368190908E+01  0.13093675952E+04  0.13103906981E+04  0.10000000000E+02 0. -1.
</event>
<event>
 5    1  0.9123258E-009  0.3774715E+03  0.7957747E-01  0.3462243E+00
         13   -1    0    0    0    0  0.00000000000E+00  0.00000000000E+00  0.14999999963E+04  0.15000000000E+04  0.10566000000E+00 0.  1.
        994   -1    0    0    0    0 -0.00000000000E+00 -0.00000000000E+00  0.11368683772E-12  0.17120000000E+03  0.17120000000E+03 0.  0.
         13    1    1    2    0    0 -0.90113527125E+02  0.38487519903E+02  0.50930413905E+03  0.51864482469E+03  0.10566000000E+00 0.  1.
        994    1    1    2    0    0  0.98713024246E+02 -0.43091624415E+02  0.45579611677E+02  0.20733569459E+03  0.17120000000E+03 0.  0.
        998    1    1    2    0    0 -0.85994971211E+01  0.46041045113E+01  0.94511624555E+03  0.94521948072E+03  0.10000000000E+02 0.  1.
</event>
<event>
 5    1  0.1740177E-008  0.3863578E+03  0.7957747E-01  0.3423934E+00
         13   -1    0    0    0    0  0.00000000000E+00  0.00000000000E+00  0.14999999963E+04  0.15000000000E+04  0.10566000000E+00 0.  1.
        994   -1    0    0    0    0 -0.00000000000E+00 -0.00000000000E+00  0.11368683772E-12  0.17120000000E+03  0.17120000000E+03 0.  0.
         13    1    1    2    0    0  0.78508842706E+01  0.81241679877E+01  0.64827229567E+02  0.65804402183E+02  0.10566000000E+00 0.  1.
        994    1    1    2    0    0 -0.71211751333E+01 -0.11494055274E+02  0.15563636603E+01  0.17174017209E+03  0.17120000000E+03 0.  0.
        998    1    1    2    0    0 -0.72970913728E+00  0.33698872862E+01  0.14336164031E+04  0.14336554257E+04  0.10000000000E+02 0.  1.
</event>
<event>
 5    1  0.9123258E-009  0.3782738E+03  0.7957747E-01  0.3458709E+00
         13   -1    0    0    0    0  0.00000000000E+00  0.00000000000E+00  0.14999999963E+04  0.15000000000E+04  0.10566000000E+00 0. -1.
        994   -1    0    0    0    0 -0.00000000000E+00 -0.00000000000E+00  0.11368683772E-12  0.17120000000E+03  0.17120000000E+03 0.  0.
         13    1    1    2    0    0  0.44161237321E+01 -0.21541536394E+02  0.52731713535E+02  0.57133043989E+02  0.10566000000E+00 0. -1.
        994    1    1    2    0    0 -0.61084169025E+02 -0.33527419120E+02  0.21508798079E+02  0.18608447526E+03  0.17120000000E+03 0.  0.
        998    1    1    2    0    0  0.56668045293E+02  0.55068955514E+02  0.14257594847E+04  0.14279824808E+04  0.10000000000E+02 0. -1.
</event>
<event>
 5    1  0.9137541E-009  0.3825662E+03  0.7957747E-01  0.3440060E+00
         13   -1    0    0    0    0  0.00000000000E+00  0.00000000000E+00  0.14999999963E+04  0.15000000000E+04  0.10566000000E+00 0. -1.
        994   -1    0    0    0    0 -0.00000000000E+00 -0.00000000000E+00  0.11368683772E-12  0.17120000000E+03  0.17120000000E+03 0.  0.
         13    1    1    2    0    0 -0.73170110500E+01  0.10098880996E+02  0.25858931581E+02  0.28709259040E+02  0.10566000000E+00 0. -1.
        994    1    1    2    0    0  0.75493066337E+01 -0.11649707059E+02  0.34823476016E+01  0.17179718988E+03  0.17120000000E+03 0.  0.
        998    1    1    2    0    0 -0.23229558377E+00  0.15508260627E+01  0.14706587171E+04  0.14706935511E+04  0.10000000000E+02 0. -1.
</event>
<event>
 5    1  0.9123258E-009  0.3856646E+03  0.7957747E-01  0.3426858E+00
         13   -1    0    0    0    0  0.00000000000E+00  0.00000000000E+00  0.14999999963E+04  0.15000000000E+04  0.10566000000E+00 0.  1.
        994   -1    0    0    0    0 -0.00000000000E+00 -0.00000000000E+00  0.11368683772E-12  0.17120000000E+03  0.17120000000E+03 0.  0.
         13    1    1    2    0    0 -0.38803097578E+01  0.15569240520E+02  0.93876870591E+02  0.95238311882E+02  0.10566000000E+00 0.  1.
        994    1    1    2    0    0  0.84821024581E-01 -0.17971392325E+02  0.23611269308E+01  0.17215688501E+03  0.17120000000E+03 0.  0.
        998    1    1    2    0    0  0.37954887332E+01  0.24021518050E+01  0.14037619988E+04  0.14038048031E+04  0.10000000000E+02 0.  1.
</event>
<event>
 5    1  0.9123258E-009  0.3697935E+03  0.7957747E-01  0.3496841E+00
         13   -1    0    0    0    0  0.00000000000E+00  0.00000000000E+00  0.14999999963E+04  0.15000000000E+04  0.10566000000E+00 0.  1.
        994   -1    0    0    0    0 -0.00000000000E+00 -0.00000000000E+00  0.11368683772E-12  0.17120000000E+03  0.17120000000E+03 0.  0.
         13    1    1    2    0    0 -0.13864015871E+02  0.20709526252E+03  0.84719373181E+03  0.87224875412E+03  0.10566000000E+00 0.  1.
        994    1    1    2    0    0 -0.99763336427E+01 -0.20424000731E+03  0.17178459240E+03  0.31722688096E+03  0.17120000000E+03 0.  0.
        998    1    1    2    0    0  0.23840349514E+02 -0.28552552096E+01  0.48102167207E+03  0.48172436491E+03  0.10000000000E+02 0. -1.
</event>
<event>
 5    1  0.9123258E-009  0.3748117E+03  0.7957747E-01  0.3474066E+00
         13   -1    0    0    0    0  0.00000000000E+00  0.00000000000E+00  0.14999999963E+04  0.15000000000E+04  0.10566000000E+00 0.  1.
        994   -1    0    0    0    0 -0.00000000000E+00 -0.00000000000E+00  0.11368683772E-12  0.17120000000E+03  0.17120000000E+03 0.  0.
         13    1    1    2    0    0 -0.12802392317E+01 -0.10382482320E+02  0.49440329159E+01  0.11571066378E+02  0.10566000000E+00 0.  1.
        994    1    1    2    0    0  0.13527979540E+01  0.77395203292E+01  0.69854761148E+01  0.17152249740E+03  0.17120000000E+03 0.  0.
        998    1    1    2    0    0 -0.72558722256E-01  0.26429619903E+01  0.14880704872E+04  0.14881064362E+04  0.10000000000E+02 0.  1.
</event>
<event>
 5    1  0.1111405E-008  0.3859944E+03  0.7957747E-01  0.3425466E+00
         13   -1    0    0    0    0  0.00000000000E+00  0.00000000000E+00  0.14999999963E+04  0.15000000000E+04  0.10566000000E+00 0.  1.
        994   -1    0    0    0    0 -0.00000000000E+00 -0.00000000000E+00  0.11368683772E-12  0.17120000000E+03  0.17120000000E+03 0.  0.
         13    1    1    2    0    0 -0.10127722650E+02  0.42525925516E+01  0.52945091869E+02  0.54072629181E+02  0.10566000000E+00 0.  1.
        994    1    1    2    0    0  0.11454380899E+02  0.28824552880E+01  0.15947198013E+01  0.17161437737E+03  0.17120000000E+03 0.  0.
        998    1    1    2    0    0 -0.13266582490E+01 -0.71350478396E+01  0.14454601846E+04  0.14455129934E+04  0.10000000000E+02 0.  1.
</event>
<event>
 5    1  0.9123258E-009  0.3821243E+03  0.7957747E-01  0.3441961E+00
         13   -1    0    0    0    0  0.00000000000E+00  0.00000000000E+00  0.14999999963E+04  0.15000000000E+04  0.10566000000E+00 0.  1.
        994   -1    0    0    0    0 -0.00000000000E+00 -0.00000000000E+00  0.11368683772E-12  0.17120000000E+03  0.17120000000E+03 0.  0.
         13    1    1    2    0    0  0.19790783106E+02 -0.11482929676E+02  0.91403798719E+02  0.94224191979E+02  0.10566000000E+00 0.  1.
        994    1    1    2    0    0  0.32758193391E+01  0.63560727873E+01  0.32343874902E+01  0.17137978853E+03  0.17120000000E+03 0.  0.
        998    1    1    2    0    0 -0.23066602445E+02  0.51268568889E+01  0.14053618101E+04  0.14055960195E+04  0.10000000000E+02 0.  1.
</event>
<event>
 5    1  0.9123258E-009  0.3850721E+03  0.7957747E-01  0.3429367E+00
         13   -1    0    0    0    0  0.00000000000E+00  0.00000000000E+00  0.14999999963E+04  0.15000000000E+04  0.10566000000E+00 0.  1.
        994   -1    0    0    0    0 -0.00000000000E+00 -0.00000000000E+00  0.11368683772E-12  0.17120000000E+03  0.17120000000E+03 0.  0.
         13    1    1    2    0    0  0.93219158152E+01 -0.13477853047E+02  0.87512796444E+02  0.89033989817E+02  0.10566000000E+00 0.  1.
        994    1    1    2    0    0 -0.44604244996E+01  0.37667934858E+01  0.17064432106E+01  0.17130801519E+03  0.17120000000E+03 0.  0.
        998    1    1    2    0    0 -0.48614913156E+01  0.97110595612E+01  0.14107807566E+04  0.14108579950E+04  0.10000000000E+02 0.  1.
</event>
<event>
 5    1  0.9123258E-009  0.3839101E+03  0.7957747E-01  0.3434308E+00
         13   -1    0    0    0    0  0.00000000000E+00  0.00000000000E+00  0.14999999963E+04  0.15000000000E+04  0.10566000000E+00 0.  1.
        994   -1    0    0    0    0 -0.00000000000E+00 -0.00000000000E+00  0.11368683772E-12  0.17120000000E+03  0.17120000000E+03 0.  0.
         13    1    1    2    0    0  0.14509862326E+00 -0.19807023506E+02  0.89841011049E+02  0.91998682947E+02  0.10566000000E+00 0.  1.
        994    1    1    2    0    0  0.53961407214E+01  0.12642254895E+02  0.27960369450E+01  0.17177369637E+03  0.17120000000E+03 0.  0.
        998    1    1    2    0    0 -0.55412393446E+01  0.71647686110E+01  0.14073629483E+04  0.14074276207E+04  0.10000000000E+02 0.  1.
</event>
<event>
 5    1  0.9123258E-009  0.3843628E+03  0.7957747E-01  0.3432379E+00
         13   -1    0    0    0    0  0.00000000000E+00  0.00000000000E+00  0.14999999963E+04  0.15000000000E+04  0.10566000000E+00 0. -1.
        994   -1    0    0    0    0 -0.00000000000E+00 -0.00000000000E+00  0.11368683772E-12  0.17120000000E+03  0.17120000000E+03 0.  0.
         13    1    1    2    0    0  0.36940322740E+02 -0.10268804126E+03  0.28616670805E+03  0.30626919078E+03  0.10566000000E+00 0. -1.
        994    1    1    2    0    0 -0.91078105456E+02  0.58267924330E+02  0.63189885743E+02  0.21211500173E+03  0.17120000000E+03 0.  0.
        998    1    1    2    0    0  0.54137782716E+02  0.44420116932E+02  0.11506434025E+04  0.11528158075E+04  0.10000000000E+02 0. -1.
</event>
<event>
 5    1  0.9123258E-009  0.3900465E+03  0.7957747E-01  0.3408547E+00
         13   -1    0    0    0    0  0.00000000000E+00  0.00000000000E+00  0.14999999963E+04  0.15000000000E+04  0.10566000000E+00 0. -1.
        994   -1    0    0    0    0 -0.00000000000E+00 -0.00000000000E+00  0.11368683772E-12  0.17120000000E+03  0.17120000000E+03 0.  0.
         13    1    1    2    0    0 -0.68717068519E+02 -0.12773486038E+02  0.11727749262E+03  0.13652552468E+03  0.10566000000E+00 0. -1.
        994    1    1    2    0    0  0.42715993819E+01  0.31098978440E+02  0.25675461508E+02  0.17593766608E+03  0.17120000000E+03 0.  0.
        998    1    1    2    0    0  0.64445469137E+02 -0.18325492402E+02  0.13570470422E+04  0.13587368092E+04  0.10000000000E+02 0. -1.
</event>
<event>
 5    1  0.9828888E-009  0.3857625E+03  0.7957747E-01  0.3426445E+00
         13   -1    0    0    0    0  0.00000000000E+00  0.00000000000E+00  0.14999999963E+04  0.15000000000E+04  0.10566000000E+00 0.  1.
        994   -1    0    0    0    0 -0.00000000000E+00 -0.00000000000E+00  0.11368683772E-12  0.17120000000E+03  0.17120000000E+03 0.  0.
         13    1    1    2    0    0  0.82924204601E+01 -0.70870381147E+01  0.47407336697E+02  0.48646244285E+02  0.10566000000E+00 0.  1.
        994    1    1    2    0    0 -0.59901357360E+01  0.68344627856E+01  0.15230180954E+01  0.17144780894E+03  0.17120000000E+03 0.  0.
        998    1    1    2    0    0 -0.23022847241E+01  0.25257532912E+00  0.14510696415E+04  0.14511059468E+04  0.10000000000E+02 0.  1.
</event>
<event>
 5    1  0.9123258E-009  0.3699188E+03  0.7957747E-01  0.3496264E+00
         13   -1    0    0    0    0  0.00000000000E+00  0.00000000000E+00  0.14999999963E+04  0.15000000000E+04  0.10566000000E+00 0.  1.
        994   -1    0    0    0    0 -0.00000000000E+00 -0.00000000000E+00  0.11368683772E-12  0.17120000000E+03  0.17120000000E+03 0.  0.
         13    1    1    2    0    0 -0.31070418322E+02  0.12417968709E+02  0.55107230954E+02  0.64470108647E+02  0.10566000000E+00 0.  1.
        994    1    1    2    0    0  0.28545481229E+02 -0.12127122131E+02  0.12645627740E+02  0.17444558891E+03  0.17120000000E+03 0.  0.
        998    1    1    2    0    0  0.25249370930E+01 -0.29084657706E+00  0.14322471376E+04  0.14322843024E+04  0.10000000000E+02 0.  1.
</event>
<event>
 5    1  0.9123258E-009  0.3847055E+03  0.7957747E-01  0.3430922E+00
         13   -1    0    0    0    0  0.00000000000E+00  0.00000000000E+00  0.14999999963E+04  0.15000000000E+04  0.10566000000E+00 0. -1.
        994   -1    0    0    0    0 -0.00000000000E+00 -0.00000000000E+00  0.11368683772E-12  0.17120000000E+03  0.17120000000E+03 0.  0.
         13    1    1    2    0    0 -0.15899275959E+02  0.43304412891E+01  0.75042687810E+02  0.76830696050E+02  0.10566000000E+00 0. -1.
        994    1    1    2    0    0  0.13030173722E+02 -0.27143072194E+01  0.23597821642E+01  0.17173281999E+03  0.17120000000E+03 0.  0.
        998    1    1    2    0    0  0.28691022368E+01 -0.16161340697E+01  0.14225975263E+04  0.14226364840E+04  0.10000000000E+02 0. -1.
</event>
<event>
 5    1  0.9123258E-009  0.3706016E+03  0.7957747E-01  0.3493130E+00
         13   -1    0    0    0    0  0.00000000000E+00  0.00000000000E+00  0.14999999963E+04  0.15000000000E+04  0.10566000000E+00 0. -1.
        994   -1    0    0    0    0 -0.00000000000E+00 -0.00000000000E+00  0.11368683772E-12  0.17120000000E+03  0.17120000000E+03 0.  0.
         13    1    1    2    0    0 -0.73289926546E+02  0.40579137926E+02  0.26664860053E+03  0.27949877835E+03  0.10566000000E+00 0. -1.
        994    1    1    2    0    0  0.49058864477E+02 -0.67880271818E+02  0.36254323365E+02  0.19400597787E+03  0.17120000000E+03 0.  0.
        998    1    1    2    0    0  0.24231062069E+02  0.27301133892E+02  0.11970970724E+04  0.11976952438E+04  0.10000000000E+02 0. -1.
</event>
<event>
 5    1  0.9123258E-009  0.3859558E+03  0.7957747E-01  0.3425629E+00
         13   -1    0    0    0    0  0.00000000000E+00  0.00000000000E+00  0.14999999963E+04  0.15000000000E+04  0.10566000000E+00 0.  1.
        994   -1    0    0    0    0 -0.00000000000E+00 -0.00000000000E+00  0.11368683772E-12  0.17120000000E+03  0.17120000000E+03 0.  0.
         13    1    1    2    0    0 -0.16332790458E+03 -0.21212265753E+03  0.11072435212E+04  0.11391489159E+04  0.10566000000E+00 0.  1.
        994    1    1    2    0    0  0.16792317353E+03  0.21813768764E+03  0.31065400607E+03  0.44899620763E+03  0.17120000000E+03 0.  0.
        998    1    1    2    0    0 -0.45952689567E+01 -0.60150301101E+01  0.82102469002E+02  0.83054876439E+02  0.10000000000E+02 0.  1.
</event>
<event>
 5    1  0.9123258E-009  0.2618799E+03  0.7957747E-01  0.4212386E+00
         13   -1    0    0    0    0  0.00000000000E+00  0.00000000000E+00  0.14999999963E+04  0.15000000000E+04  0.10566000000E+00 0.  1.
        994   -1    0    0    0    0 -0.00000000000E+00 -0.00000000000E+00  0.11368683772E-12  0.17120000000E+03  0.17120000000E+03 0.  0.
         13    1    1    2    0    0  0.54817063603E+02  0.16311255215E+03  0.37893853855E+03  0.41617909882E+03  0.10566000000E+00 0.  1.
        994    1    1    2    0    0 -0.61850570508E+02 -0.16137491179E+03  0.15406556443E+03  0.28794616401E+03  0.17120000000E+03 0.  0.
        998    1    1    2    0    0  0.70335069045E+01 -0.17376403666E+01  0.96699589330E+03  0.96707473717E+03  0.10000000000E+02 0. -1.
</event>
<event>
 5    1  0.9123258E-009  0.4087719E+03  0.7957747E-01  0.3334712E+00
         13   -1    0    0    0    0  0.00000000000E+00  0.00000000000E+00  0.14999999963E+04  0.15000000000E+04  0.10566000000E+00 0. -1.
        994   -1    0    0    0    0 -0.00000000000E+00 -0.00000000000E+00  0.11368683772E-12  0.17120000000E+03  0.17120000000E+03 0.  0.
         13    1    1    2    0    0 -0.87721921236E+02 -0.10679701488E+02  0.11131767954E+03  0.14212961841E+03  0.10566000000E+00 0. -1.
        994    1    1    2    0    0  0.52755746212E+02  0.24295561085E+02  0.46956553854E+02  0.18678276419E+03  0.17120000000E+03 0.  0.
        998    1    1    2    0    0  0.34966175024E+02 -0.13615859597E+02  0.13417257629E+04  0.13422876174E+04  0.10000000000E+02 0. -1.
</event>
<event>
 5    1  0.9123258E-009  0.3751920E+03  0.7957747E-01  0.3472364E+00
         13   -1    0    0    0    0  0.00000000000E+00  0.00000000000E+00  0.14999999963E+04  0.15000000000E+04  0.10566000000E+00 0. -1.
        994   -1    0    0    0    0 -0.00000000000E+00 -0.00000000000E+00  0.11368683772E-12  0.17120000000E+03  0.17120000000E+03 0.  0.
         13    1    1    2    0    0  0.14279882915E+02  0.20873982293E+02  0.44321475272E+02  0.51029819980E+02  0.10566000000E+00 0. -1.
        994    1    1    2    0    0 -0.16281764787E+02 -0.24046535805E+02  0.94502784385E+01  0.17390250001E+03  0.17120000000E+03 0.  0.
        998    1    1    2    0    0  0.20018818719E+01  0.31725535119E+01  0.14462282426E+04  0.14462676800E+04  0.10000000000E+02 0. -1.
</event>
<event>
 5    1  0.9123258E-009  0.3847725E+03  0.7957747E-01  0.3430638E+00
         13   -1    0    0    0    0  0.00000000000E+00  0.00000000000E+00  0.14999999963E+04  0.15000000000E+04  0.10566000000E+00 0.  1.
        994   -1    0    0    0    0 -0.00000000000E+00 -0.00000000000E+00  0.11368683772E-12  0.17120000000E+03  0.17120000000E+03 0.  0.
         13    1    1    2    0    0  0.12554949066E+02 -0.15242823953E+01  0.51197770330E+02  0.52736828059E+02  0.10566000000E+00 0.  1.
        994    1    1    2    0    0  0.89512162814E+01 -0.21729919899E+02  0.35629602467E+01  0.17284226444E+03  0.17120000000E+03 0.  0.
        998    1    1    2    0    0 -0.21506165348E+02  0.23254202295E+02  0.14452392657E+04  0.14456209075E+04  0.10000000000E+02 0.  1.
</event>
<event>
 5    1  0.9123258E-009  0.3826425E+03  0.7957747E-01  0.3439733E+00
         13   -1    0    0    0    0  0.00000000000E+00  0.00000000000E+00  0.14999999963E+04  0.15000000000E+04  0.10566000000E+00 0. -1.
        994   -1    0    0    0    0 -0.00000000000E+00 -0.00000000000E+00  0.11368683772E-12  0.17120000000E+03  0.17120000000E+03 0.  0.
         13    1    1    2    0    0  0.11141093183E+02 -0.23094793762E+02  0.11603843447E+03  0.11883780078E+03  0.10566000000E+00 0. -1.
        994    1    1    2    0    0 -0.59536376251E+01  0.14902681021E+02  0.36590740800E+01  0.17198943144E+03  0.17120000000E+03 0.  0.
        998    1    1    2    0    0 -0.51874555583E+01  0.81921127411E+01  0.13803024877E+04  0.13803727678E+04  0.10000000000E+02 0. -1.
</event>
<event>
 5    1  0.9123258E-009  0.3709553E+03  0.7957747E-01  0.3491512E+00
         13   -1    0    0    0    0  0.00000000000E+00  0.00000000000E+00  0.14999999963E+04  0.15000000000E+04  0.10566000000E+00 0. -1.
        994   -1    0    0    0    0 -0.00000000000E+00 -0.00000000000E+00  0.11368683772E-12  0.17120000000E+03  0.17120000000E+03 0.  0.
         13    1    1    2    0    0 -0.25094750052E+02 -0.34250991094E+02  0.10087030315E+03  0.10944270690E+03  0.10566000000E+00 0. -1.
        994    1    1    2    0    0  0.74437528326E+00  0.28516255632E+02  0.11580094069E+02  0.17394616842E+03  0.17120000000E+03 0.  0.
        998    1    1    2    0    0  0.24350374769E+02  0.57347354618E+01  0.13875495991E+04  0.13878111247E+04  0.10000000000E+02 0. -1.
</event>
<event>
 5    1  0.9123258E-009  0.3871121E+03  0.7957747E-01  0.3420764E+00
         13   -1    0    0    0    0  0.00000000000E+00  0.00000000000E+00  0.14999999963E+04  0.15000000000E+04  0.10566000000E+00 0. -1.
        994   -1    0    0    0    0 -0.00000000000E+00 -0.00000000000E+00  0.11368683772E-12  0.17120000000E+03  0.17120000000E+03 0.  0.
         13    1    1    2    0    0 -0.84453459833E+01  0.12100579714E+03  0.44750679419E+03  0.46365511840E+03  0.10566000000E+00 0. -1.
        994    1    1    2    0    0 -0.36628096784E+02 -0.41603022682E+02  0.31812765128E+02  0.18274003665E+03  0.17120000000E+03 0.  0.
        998    1    1    2    0    0  0.45073442768E+02 -0.79402774453E+02  0.10206804370E+04  0.10248048450E+04  0.10000000000E+02 0. -1.
</event>
<event>
 5    1  0.9192661E-009  0.3852914E+03  0.7957747E-01  0.3428437E+00
         13   -1    0    0    0    0  0.00000000000E+00  0.00000000000E+00  0.14999999963E+04  0.15000000000E+04  0.10566000000E+00 0. -1.
        994   -1    0    0    0    0 -0.00000000000E+00 -0.00000000000E+00  0.11368683772E-12  0.17120000000E+03  0.17120000000E+03 0.  0.
         13    1    1    2    0    0  0.15294875808E+02  0.62356054975E+01  0.92828755303E+02  0.94286822923E+02  0.10566000000E+00 0. -1.
        994    1    1    2    0    0 -0.87132284620E+01 -0.41816613455E+01  0.17925045279E+01  0.17148195157E+03  0.17120000000E+03 0.  0.
        998    1    1    2    0    0 -0.65816473458E+01 -0.20539441520E+01  0.14053787364E+04  0.14054312255E+04  0.10000000000E+02 0. -1.
</event>
<event>
 5    1  0.9123258E-009  0.3840323E+03  0.7957747E-01  0.3433787E+00
         13   -1    0    0    0    0  0.00000000000E+00  0.00000000000E+00  0.14999999963E+04  0.15000000000E+04  0.10566000000E+00 0.  1.
        994   -1    0    0    0    0 -0.00000000000E+00 -0.00000000000E+00  0.11368683772E-12  0.17120000000E+03  0.17120000000E+03 0.  0.
         13    1    1    2    0    0 -0.13323152984E+01  0.10607293265E+02  0.26350256377E+02  0.28436541802E+02  0.10566000000E+00 0.  1.
        994    1    1    2    0    0  0.27432369647E+01 -0.81046930978E+01  0.23529025063E+01  0.17142983273E+03  0.17120000000E+03 0.  0.
        998    1    1    2    0    0 -0.14109216663E+01 -0.25026001673E+01  0.14712968374E+04  0.14713336255E+04  0.10000000000E+02 0.  1.
</event>
<event>
 5    1  0.9123258E-009  0.3840372E+03  0.7957747E-01  0.3433766E+00
         13   -1    0    0    0    0  0.00000000000E+00  0.00000000000E+00  0.14999999963E+04  0.15000000000E+04  0.10566000000E+00 0.  1.
        994   -1    0    0    0    0 -0.00000000000E+00 -0.00000000000E+00  0.11368683772E-12  0.17120000000E+03  0.17120000000E+03 0.  0.
         13    1    1    2    0    0  0.12895818074E+02  0.59286665251E+01  0.45166806979E+02  0.47344512114E+02  0.10566000000E+00 0.  1.
        994    1    1    2    0    0 -0.18801409007E+02 -0.51369815285E+01  0.33630912692E+01  0.17233871284E+03  0.17120000000E+03 0.  0.
        998    1    1    2    0    0  0.59055909335E+01 -0.79168499658E+00  0.14514700980E+04  0.14515167750E+04  0.10000000000E+02 0.  1.
</event>
<event>
 5    1  0.9123258E-009  0.3824825E+03  0.7957747E-01  0.3440420E+00
         13   -1    0    0    0    0  0.00000000000E+00  0.00000000000E+00  0.14999999963E+04  0.15000000000E+04  0.10566000000E+00 0. -1.
        994   -1    0    0    0    0 -0.00000000000E+00 -0.00000000000E+00  0.11368683772E-12  0.17120000000E+03  0.17120000000E+03 0.  0.
         13    1    1    2    0    0  0.23411363004E+01  0.23517901200E+02  0.89659377902E+02  0.92722099878E+02  0.10566000000E+00 0. -1.
        994    1    1    2    0    0 -0.11303410808E+02 -0.25666704035E+02  0.54975745074E+01  0.17356903560E+03  0.17120000000E+03 0.  0.
        998    1    1    2    0    0  0.89622745079E+01  0.21488028357E+01  0.14048430439E+04  0.14049088645E+04  0.10000000000E+02 0. -1.
</event>
<event>
 5    1  0.9123258E-009  0.3814023E+03  0.7957747E-01  0.3445075E+00
         13   -1    0    0    0    0  0.00000000000E+00  0.00000000000E+00  0.14999999963E+04  0.15000000000E+04  0.10566000000E+00 0.  1.
        994   -1    0    0    0    0 -0.00000000000E+00 -0.00000000000E+00  0.11368683772E-12  0.17120000000E+03  0.17120000000E+03 0.  0.
         13    1    1    2    0    0  0.13762516062E+02  0.82796592435E+01  0.35652583701E+02  0.39103420492E+02  0.10566000000E+00 0.  1.
        994    1    1    2    0    0 -0.14243285018E+02 -0.82642548014E+01  0.43297923236E+01  0.17204463426E+03  0.17120000000E+03 0.  0.
        998    1    1    2    0    0  0.48076895601E+00 -0.15404442155E-01  0.14600176203E+04  0.14600519452E+04  0.10000000000E+02 0.  0.
</event>
<event>
 5    1  0.9123258E-009  0.3836188E+03  0.7957747E-01  0.3435551E+00
         13   -1    0    0    0    0  0.00000000000E+00  0.00000000000E+00  0.14999999963E+04  0.15000000000E+04  0.10566000000E+00 0. -1.
        994   -1    0    0    0    0 -0.00000000000E+00 -0.00000000000E+00  0.11368683772E-12  0.17120000000E+03  0.17120000000E+03 0.  0.
         13    1    1    2    0    0  0.21503739877E+02  0.70680936426E+00  0.98698071493E+02  0.10101599323E+03  0.10566000000E+00 0. -1.
        994    1    1    2    0    0 -0.14363211331E+02 -0.96355690275E+00  0.30023238924E+01  0.17183039379E+03  0.17120000000E+03 0.  0.
        998    1    1    2    0    0 -0.71405285460E+01  0.25674753850E+00  0.13982996009E+04  0.13983536130E+04  0.10000000000E+02 0. -1.
</event>
<event>
 5    1  0.9123258E-009  0.3723378E+03  0.7957747E-01  0.3485215E+00
         13   -1    0    0    0    0  0.00000000000E+00  0.00000000000E+00  0.14999999963E+04  0.15000000000E+04  0.10566000000E+00 0.  1.
        994   -1    0    0    0    0 -0.00000000000E+00 -0.00000000000E+00  0.11368683772E-12  0.17120000000E+03  0.17120000000E+03 0.  0.
         13    1    1    2    0    0 -0.13375699839E+02  0.88793508038E+01  0.12392098551E+02  0.20281210206E+02  0.10566000000E+00 0.  1.
        994    1    1    2    0    0  0.18263661774E+02  0.37934886578E+01  0.92465991968E+01  0.17246127535E+03  0.17120000000E+03 0.  0.
        998    1    1    2    0    0 -0.48879619353E+01 -0.12672839462E+02  0.14783612985E+04  0.14784575144E+04  0.10000000000E+02 0.  1.
</event>
<event>
 5    1  0.9123258E-009  0.3770370E+03  0.7957747E-01  0.3464162E+00
         13   -1    0    0    0    0  0.00000000000E+00  0.00000000000E+00  0.14999999963E+04  0.15000000000E+04  0.10566000000E+00 0.  1.
        994   -1    0    0    0    0 -0.00000000000E+00 -0.00000000000E+00  0.11368683772E-12  0.17120000000E+03  0.17120000000E+03 0.  0.
         13    1    1    2    0    0  0.71934008583E+01  0.84845136954E+01  0.83875256722E+01  0.13931752922E+02  0.10566000000E+00 0.  1.
        994    1    1    2    0    0 -0.71678918827E+01 -0.70492233804E+01  0.59776471749E+01  0.17159907485E+03  0.17120000000E+03 0.  0.
        998    1    1    2    0    0 -0.25508975585E-01 -0.14352903150E+01  0.14856348234E+04  0.14856691722E+04  0.10000000000E+02 0.  1.
</event>
<event>
 5    1  0.9123258E-009  0.3698458E+03  0.7957747E-01  0.3496600E+00
         13   -1    0    0    0    0  0.00000000000E+00  0.00000000000E+00  0.14999999963E+04  0.15000000000E+04  0.10566000000E+00 0. -1.
        994   -1    0    0    0    0 -0.00000000000E+00 -0.00000000000E+00  0.11368683772E-12  0.17120000000E+03  0.17120000000E+03 0.  0.
         13    1    1    2    0    0 -0.46341623641E+02 -0.40899480988E+02  0.17369964047E+03  0.18436889622E+03  0.10566000000E+00 0. -1.
        994    1    1    2    0    0  0.60071394360E+02 -0.12460161797E+02  0.24126736235E+02  0.18345399274E+03  0.17120000000E+03 0.  0.
        998    1    1    2    0    0 -0.13729770719E+02  0.53359642785E+02  0.13021736196E+04  0.13033771110E+04  0.10000000000E+02 0. -1.
</event>
<event>
 5    1  0.9123258E-009  0.3804459E+03  0.7957747E-01  0.3449219E+00
         13   -1    0    0    0    0  0.00000000000E+00  0.00000000000E+00  0.14999999963E+04  0.15000000000E+04  0.10566000000E+00 0. -1.
        994   -1    0    0    0    0 -0.00000000000E+00 -0.00000000000E+00  0.11368683772E-12  0.17120000000E+03  0.17120000000E+03 0.  0.
         13    1    1    2    0    0 -0.16246548443E+02 -0.24302021711E+02  0.11372739251E+03  0.11742431420E+03  0.10566000000E+00 0. -1.
        994    1    1    2    0    0 -0.94228596880E+01  0.16881990425E+02  0.51569522035E+01  0.17236538528E+03  0.17120000000E+03 0.  0.
        998    1    1    2    0    0  0.25669408131E+02  0.74200312858E+01  0.13811156516E+04  0.13814103005E+04  0.10000000000E+02 0. -1.
</event>
<event>
 5    1  0.9123258E-009  0.3777897E+03  0.7957747E-01  0.3460839E+00
         13   -1    0    0    0    0  0.00000000000E+00  0.00000000000E+00  0.14999999963E+04  0.15000000000E+04  0.10566000000E+00 0. -1.
        994   -1    0    0    0    0 -0.00000000000E+00 -0.00000000000E+00  0.11368683772E-12  0.17120000000E+03  0.17120000000E+03 0.  0.
         13    1    1    2    0    0  0.23584427838E+02  0.37037904309E+02  0.16156510870E+03  0.16742558677E+03  0.10566000000E+00 0. -1.
        994    1    1    2    0    0 -0.23930912089E+02 -0.39061249973E+02  0.12352502313E+02  0.17765273462E+03  0.17120000000E+03 0.  0.
        998    1    1    2    0    0  0.34648425105E+00  0.20233456637E+01  0.13260823853E+04  0.13261216786E+04  0.10000000000E+02 0. -1.
</event>
<event>
 5    1  0.9123258E-009  0.3788643E+03  0.7957747E-01  0.3456118E+00
         13   -1    0    0    0    0  0.00000000000E+00  0.00000000000E+00  0.14999999963E+04  0.15000000000E+04  0.10566000000E+00 0. -1.
        994   -1    0    0    0    0 -0.00000000000E+00 -0.00000000000E+00  0.11368683772E-12  0.17120000000E+03  0.17120000000E+03 0.  0.
         13    1    1    2    0    0 -0.31915159211E+02 -0.32100162722E+02  0.20956547175E+03  0.21439845137E+03  0.10566000000E+00 0. -1.
        994    1    1    2    0    0  0.33346182701E+02  0.10115311452E+02  0.87928620566E+01  0.17493153475E+03  0.17120000000E+03 0.  0.
        998    1    1    2    0    0 -0.14310234902E+01  0.21984851271E+02  0.12816416625E+04  0.12818700139E+04  0.10000000000E+02 0. -1.
</event>
<event>
 5    1  0.9123258E-009  0.3838646E+03  0.7957747E-01  0.3434502E+00
         13   -1    0    0    0    0  0.00000000000E+00  0.00000000000E+00  0.14999999963E+04  0.15000000000E+04  0.10566000000E+00 0.  1.
        994   -1    0    0    0    0 -0.00000000000E+00 -0.00000000000E+00  0.11368683772E-12  0.17120000000E+03  0.17120000000E+03 0.  0.
         13    1    1    2    0    0 -0.80079327712E+01 -0.10164523796E+02  0.38692040052E+02  0.40798647755E+02  0.10566000000E+00 0.  1.
        994    1    1    2    0    0 -0.28698850418E+01  0.47800882141E+01  0.22975279730E+01  0.17130617070E+03  0.17120000000E+03 0.  0.
        998    1    1    2    0    0  0.10877817813E+02  0.53844355819E+01  0.14590104283E+04  0.14590951815E+04  0.10000000000E+02 0.  1.
</event>
<event>
 5    1  0.9123258E-009  0.3835100E+03  0.7957747E-01  0.3436016E+00
         13   -1    0    0    0    0  0.00000000000E+00  0.00000000000E+00  0.14999999963E+04  0.15000000000E+04  0.10566000000E+00 0. -1.
        994   -1    0    0    0    0 -0.00000000000E+00 -0.00000000000E+00  0.11368683772E-12  0.17120000000E+03  0.17120000000E+03 0.  0.
         13    1    1    2    0    0 -0.19531351909E+01 -0.18646458874E+02  0.70120072217E+02  0.72583337326E+02  0.10566000000E+00 0. -1.
        994    1    1    2    0    0 -0.60476429948E+00  0.20819458730E+02  0.38066075228E+01  0.17250433578E+03  0.17120000000E+03 0.  0.
        998    1    1    2    0    0  0.25578994903E+01 -0.21729998561E+01  0.14260733165E+04  0.14261123269E+04  0.10000000000E+02 0. -1.
</event>
<event>
 5    1  0.9123258E-009  0.3816046E+03  0.7957747E-01  0.3444201E+00
         13   -1    0    0    0    0  0.00000000000E+00  0.00000000000E+00  0.14999999963E+04  0.15000000000E+04  0.10566000000E+00 0.  1.
        994   -1    0    0    0    0 -0.00000000000E+00 -0.00000000000E+00  0.11368683772E-12  0.17120000000E+03  0.17120000000E+03 0.  0.
         13    1    1    2    0    0 -0.27278826226E+02 -0.23792828274E+01  0.10809133272E+03  0.11150579680E+03  0.10566000000E+00 0.  1.
        994    1    1    2    0    0  0.22145967763E+02  0.10270026850E+01  0.49614327476E+01  0.17270076560E+03  0.17120000000E+03 0.  0.
        998    1    1    2    0    0  0.51328584632E+01  0.13522801424E+01  0.13869472308E+04  0.13869934376E+04  0.10000000000E+02 0.  1.
</event>
<event>
 5    1  0.9123258E-009  0.3865718E+03  0.7957747E-01  0.3423033E+00
         13   -1    0    0    0    0  0.00000000000E+00  0.00000000000E+00  0.14999999963E+04  0.15000000000E+04  0.10566000000E+00 0.  1.
        994   -1    0    0    0    0 -0.00000000000E+00 -0.00000000000E+00  0.11368683772E-12  0.17120000000E+03  0.17120000000E+03 0.  0.
         13    1    1    2    0    0  0.32492881040E+01 -0.10083959285E+02 -0.64708251974E+01  0.12414783559E+02  0.10566000000E+00 0.  1.
        994    1    1    2    0    0 -0.25689237103E+01  0.17017909300E+02  0.21085700350E+02  0.17335009479E+03  0.17120000000E+03 0.  0.
        998    1    1    2    0    0 -0.68036439370E+00 -0.69339500146E+01  0.14853851211E+04  0.14854351216E+04  0.10000000000E+02 0.  1.
</event>
<event>
 5    1  0.9123258E-009  0.3697351E+03  0.7957747E-01  0.3497109E+00
         13   -1    0    0    0    0  0.00000000000E+00  0.00000000000E+00  0.14999999963E+04  0.15000000000E+04  0.10566000000E+00 0.  1.
        994   -1    0    0    0    0 -0.00000000000E+00 -0.00000000000E+00  0.11368683772E-12  0.17120000000E+03  0.17120000000E+03 0.  0.
         13    1    1    2    0    0 -0.55506010093E+01 -0.10394833912E+02  0.14139834704E+01  0.11868961913E+02  0.10566000000E+00 0.  1.
        994    1    1    2    0    0  0.98383126128E+01  0.53258838474E+01  0.11236090728E+02  0.17193268208E+03  0.17120000000E+03 0.  0.
        998    1    1    2    0    0 -0.42877116035E+01  0.50689500642E+01  0.14873499221E+04  0.14873983560E+04  0.10000000000E+02 0.  1.
</event>
<event>
 5    1  0.9123258E-009  0.3807652E+03  0.7957747E-01  0.3447833E+00
         13   -1    0    0    0    0  0.00000000000E+00  0.00000000000E+00  0.14999999963E+04  0.15000000000E+04  0.10566000000E+00 0. -1.
        994   -1    0    0    0    0 -0.00000000000E+00 -0.00000000000E+00  0.11368683772E-12  0.17120000000E+03  0.17120000000E+03 0.  0.
         13    1    1    2    0    0  0.13945773783E+02 -0.75828454294E+01  0.32193173629E+02  0.35894229948E+02  0.10566000000E+00 0. -1.
        994    1    1    2    0    0 -0.68564924652E+01  0.95721472275E+01  0.42097861289E+01  0.17165605084E+03  0.17120000000E+03 0.  0.
        998    1    1    2    0    0 -0.70892813176E+01 -0.19893017981E+01  0.14635970365E+04  0.14636497192E+04  0.10000000000E+02 0. -1.
</event>
<event>
 5    1  0.9123258E-009  0.3846963E+03  0.7957747E-01  0.3430961E+00
         13   -1    0    0    0    0  0.00000000000E+00  0.00000000000E+00  0.14999999963E+04  0.15000000000E+04  0.10566000000E+00 0. -1.
        994   -1    0    0    0    0 -0.00000000000E+00 -0.00000000000E+00  0.11368683772E-12  0.17120000000E+03  0.17120000000E+03 0.  0.
         13    1    1    2    0    0 -0.81507002001E+01  0.84116083836E+01  0.37993419343E+02  0.39758019905E+02  0.10566000000E+00 0. -1.
        994    1    1    2    0    0  0.94205645395E+01 -0.38267819623E+01  0.21214119762E+01  0.17151481477E+03  0.17120000000E+03 0.  0.
        998    1    1    2    0    0 -0.12698643394E+01 -0.45848264213E+01  0.14598851650E+04  0.14599271653E+04  0.10000000000E+02 0. -1.
</event>
<event>
 5    1  0.9123258E-009  0.3706249E+03  0.7957747E-01  0.3493024E+00
         13   -1    0    0    0    0  0.00000000000E+00  0.00000000000E+00  0.14999999963E+04  0.15000000000E+04  0.10566000000E+00 0. -1.
        994   -1    0    0    0    0 -0.00000000000E+00 -0.00000000000E+00  0.11368683772E-12  0.17120000000E+03  0.17120000000E+03 0.  0.
         13    1    1    2    0    0  0.22484830178E+02 -0.21831399848E+00  0.18213602028E+02  0.28937202906E+02  0.10566000000E+00 0. -1.
        994    1    1    2    0    0 -0.19999818424E+01 -0.34783861294E+01  0.11326071525E+02  0.17162114961E+03  0.17120000000E+03 0.  0.
        998    1    1    2    0    0 -0.20484848336E+02  0.36967001279E+01  0.14704603227E+04  0.14706416475E+04  0.10000000000E+02 0. -1.
</event>
<event>
 5    1  0.9123258E-009  0.3851412E+03  0.7957747E-01  0.3429073E+00
         13   -1    0    0    0    0  0.00000000000E+00  0.00000000000E+00  0.14999999963E+04  0.15000000000E+04  0.10566000000E+00 0. -1.
        994   -1    0    0    0    0 -0.00000000000E+00 -0.00000000000E+00  0.11368683772E-12  0.17120000000E+03  0.17120000000E+03 0.  0.
         13    1    1    2    0    0 -0.99149061606E+01  0.26708232829E+01  0.34152595621E+02  0.35663000615E+02  0.10566000000E+00 0. -1.
        994    1    1    2    0    0  0.24505300702E+01 -0.61616312111E+01  0.17045890961E+01  0.17133685074E+03  0.17120000000E+03 0.  0.
        998    1    1    2    0    0  0.74643760903E+01  0.34908079283E+01  0.14641428116E+04  0.14642001486E+04  0.10000000000E+02 0. -1.
</event>
<event>
 5    1  0.9123258E-009  0.3813852E+03  0.7957747E-01  0.3445149E+00
         13   -1    0    0    0    0  0.00000000000E+00  0.00000000000E+00  0.14999999963E+04  0.15000000000E+04  0.10566000000E+00 0.  1.
        994   -1    0    0    0    0 -0.00000000000E+00 -0.00000000000E+00  0.11368683772E-12  0.17120000000E+03  0.17120000000E+03 0.  0.
         13    1    1    2    0    0 -0.27162540225E+02 -0.19380660339E+01  0.10063451835E+03  0.10425390707E+03  0.10566000000E+00 0.  1.
        994    1    1    2    0    0  0.27240533299E+02  0.16098900956E+01  0.59173895979E+01  0.17346208202E+03  0.17120000000E+03 0.  0.
        998    1    1    2    0    0 -0.77993074628E-01  0.32817593834E+00  0.13934480883E+04  0.13934840109E+04  0.10000000000E+02 0.  0.
</event>
<event>
 5    1  0.9123258E-009  0.3822503E+03  0.7957747E-01  0.3441418E+00
         13   -1    0    0    0    0  0.00000000000E+00  0.00000000000E+00  0.14999999963E+04  0.15000000000E+04  0.10566000000E+00 0. -1.
        994   -1    0    0    0    0 -0.00000000000E+00 -0.00000000000E+00  0.11368683772E-12  0.17120000000E+03  0.17120000000E+03 0.  0.
         13    1    1    2    0    0 -0.66978806750E+01 -0.29877271478E+02  0.16679661396E+03  0.16958370956E+03  0.10566000000E+00 0. -1.
        994    1    1    2    0    0 -0.44489830706E+01  0.10185150887E+02  0.34115108993E+01  0.17159431563E+03  0.17120000000E+03 0.  0.
        998    1    1    2    0    0  0.11146863746E+02  0.19692120590E+02  0.13297918714E+04  0.13300219748E+04  0.10000000000E+02 0. -1.
</event>
<event>
 5    1  0.1048127E-008  0.3853166E+03  0.7957747E-01  0.3428331E+00
         13   -1    0    0    0    0  0.00000000000E+00  0.00000000000E+00  0.14999999963E+04  0.15000000000E+04  0.10566000000E+00 0. -1.
        994   -1    0    0    0    0 -0.00000000000E+00 -0.00000000000E+00  0.11368683772E-12  0.17120000000E+03  0.17120000000E+03 0.  0.
         13    1    1    2    0    0  0.16770373669E+02 -0.81308303872E+00  0.90613730533E+02  0.92156203602E+02  0.10566000000E+00 0. -1.
        994    1    1    2    0    0 -0.18160721682E+02  0.21142643975E+01  0.25720318671E+01  0.17219273293E+03  0.17120000000E+03 0.  0.
        998    1    1    2    0    0  0.13903480126E+01 -0.13011813588E+01  0.14068142339E+04  0.14068510635E+04  0.10000000000E+02 0. -1.
</event>
<event>
 5    1  0.9123258E-009  0.3740458E+03  0.7957747E-01  0.3477502E+00
         13   -1    0    0    0    0  0.00000000000E+00  0.00000000000E+00  0.14999999963E+04  0.15000000000E+04  0.10566000000E+00 0.  1.
        994   -1    0    0    0    0 -0.00000000000E+00 -0.00000000000E+00  0.11368683772E-12  0.17120000000E+03  0.17120000000E+03 0.  0.
         13    1    1    2    0    0  0.28675649793E+02 -0.10197333267E+02  0.63960167045E+02  0.70832144040E+02  0.10566000000E+00 0.  1.
        994    1    1    2    0    0 -0.79853785289E+01  0.72043443896E+01  0.75641172894E+01  0.17170417793E+03  0.17120000000E+03 0.  0.
        998    1    1    2    0    0 -0.20690271264E+02  0.29929888771E+01  0.14284757119E+04  0.14286636780E+04  0.10000000000E+02 0.  1.
</event>
<event>
 5    1  0.9123258E-009  0.3799780E+03  0.7957747E-01  0.3451254E+00
         13   -1    0    0    0    0  0.00000000000E+00  0.00000000000E+00  0.14999999963E+04  0.15000000000E+04  0.10566000000E+00 0.  1.
        994   -1    0    0    0    0 -0.00000000000E+00 -0.00000000000E+00  0.11368683772E-12  0.17120000000E+03  0.17120000000E+03 0.  0.
         13    1    1    2    0    0  0.62703009095E+01 -0.15550017874E+02  0.32001010375E+02  0.36127490342E+02  0.10566000000E+00 0.  1.
        994    1    1    2    0    0  0.76442432326E+01  0.18349654894E+02  0.54663761298E+01  0.17243684513E+03  0.17120000000E+03 0.  0.
        998    1    1    2    0    0 -0.13914544142E+02 -0.27996370200E+01  0.14625326098E+04  0.14626356645E+04  0.10000000000E+02 0.  1.
</event>
<event>
 5    1  0.9123258E-009  0.3831525E+03  0.7957747E-01  0.3437546E+00
         13   -1    0    0    0    0  0.00000000000E+00  0.00000000000E+00  0.14999999963E+04  0.15000000000E+04  0.10566000000E+00 0. -1.
        994   -1    0    0    0    0 -0.00000000000E+00 -0.00000000000E+00  0.11368683772E-12  0.17120000000E+03  0.17120000000E+03 0.  0.
         13    1    1    2    0    0 -0.72757314051E-01 -0.14310237624E+02  0.40053386578E+02  0.42533200384E+02  0.10566000000E+00 0. -1.
        994    1    1    2    0    0 -0.16462406236E+01  0.54381390410E+01  0.26570054087E+01  0.17131486550E+03  0.17120000000E+03 0.  0.
        998    1    1    2    0    0  0.17189979377E+01  0.88720985834E+01  0.14572896043E+04  0.14573519341E+04  0.10000000000E+02 0. -1.
</event>
<event>
 5    1  0.9123258E-009  0.3776692E+03  0.7957747E-01  0.3461371E+00
         13   -1    0    0    0    0  0.00000000000E+00  0.00000000000E+00  0.14999999963E+04  0.15000000000E+04  0.10566000000E+00 0.  1.
        994   -1    0    0    0    0 -0.00000000000E+00 -0.00000000000E+00  0.11368683772E-12  0.17120000000E+03  0.17120000000E+03 0.  0.
         13    1    1    2    0    0  0.24063469189E+02 -0.36725273158E+02  0.16699039253E+03  0.17266614781E+03  0.10566000000E+00 0.  1.
        994    1    1    2    0    0 -0.66558807053E+01  0.41217452445E+02  0.11209531420E+02  0.17657370339E+03  0.17120000000E+03 0.  0.
        998    1    1    2    0    0 -0.17407588484E+02 -0.44921792873E+01  0.13218000723E+04  0.13219601488E+04  0.10000000000E+02 0.  1.
</event>
<event>
 5    1  0.9123258E-009  0.3749465E+03  0.7957747E-01  0.3473462E+00
         13   -1    0    0    0    0  0.00000000000E+00  0.00000000000E+00  0.14999999963E+04  0.15000000000E+04  0.10566000000E+00 0.  1.
        994   -1    0    0    0    0 -0.00000000000E+00 -0.00000000000E+00  0.11368683772E-12  0.17120000000E+03  0.17120000000E+03 0.  0.
         13    1    1    2    0    0  0.14762440403E+02  0.72437559878E+02  0.33834047627E+03  0.34632270900E+03  0.10566000000E+00 0.  1.
        994    1    1    2    0    0 -0.28354672152E+02 -0.60951153990E+02  0.22228609310E+02  0.18526354654E+03  0.17120000000E+03 0.  0.
        998    1    1    2    0    0  0.13592231749E+02 -0.11486405888E+02  0.11394309107E+04  0.11396137445E+04  0.10000000000E+02 0.  1.
</event>
<event>
 5    1  0.9123258E-009  0.3833964E+03  0.7957747E-01  0.3436502E+00
         13   -1    0    0    0    0  0.00000000000E+00  0.00000000000E+00  0.14999999963E+04  0.15000000000E+04  0.10566000000E+00 0.  1.
        994   -1    0    0    0    0 -0.00000000000E+00 -0.00000000000E+00  0.11368683772E-12  0.17120000000E+03  0.17120000000E+03 0.  0.
         13    1    1    2    0    0 -0.12178890424E+02 -0.83221844072E+01  0.44299910616E+02  0.46691298653E+02  0.10566000000E+00 0.  1.
        994    1    1    2    0    0  0.78201762366E+01  0.42593528920E+01  0.26905610730E+01  0.17145254843E+03  0.17120000000E+03 0.  0.
        998    1    1    2    0    0  0.43587141872E+01  0.40628315152E+01  0.14530095246E+04  0.14530561529E+04  0.10000000000E+02 0.  1.
</event>
<event>
 5    1  0.9123258E-009  0.3805792E+03  0.7957747E-01  0.3448640E+00
         13   -1    0    0    0    0  0.00000000000E+00  0.00000000000E+00  0.14999999963E+04  0.15000000000E+04  0.10566000000E+00 0. -1.
        994   -1    0    0    0    0 -0.00000000000E+00 -0.00000000000E+00  0.11368683772E-12  0.17120000000E+03  0.17120000000E+03 0.  0.
         13    1    1    2    0    0 -0.31265630465E+02 -0.25741355190E+02  0.17697794832E+03  0.18155264352E+03  0.10566000000E+00 0. -1.
        994    1    1    2    0    0  0.42386072520E+02  0.26698247527E+02  0.12259431323E+02  0.17879907500E+03  0.17120000000E+03 0.  0.
        998    1    1    2    0    0 -0.11120442055E+02 -0.95689233629E+00  0.13107626166E+04  0.13108482815E+04  0.10000000000E+02 0. -1.
</event>
<event>
 5    1  0.9123258E-009  0.3849021E+03  0.7957747E-01  0.3430087E+00
         13   -1    0    0    0    0  0.00000000000E+00  0.00000000000E+00  0.14999999963E+04  0.15000000000E+04  0.10566000000E+00 0.  1.
        994   -1    0    0    0    0 -0.00000000000E+00 -0.00000000000E+00  0.11368683772E-12  0.17120000000E+03  0.17120000000E+03 0.  0.
         13    1    1    2    0    0  0.21415268340E+01 -0.11270669243E+02  0.40404332405E+02  0.42001611439E+02  0.10566000000E+00 0.  1.
        994    1    1    2    0    0  0.11458804703E+02  0.30889093221E+01  0.21422233178E+01  0.17162422523E+03  0.17120000000E+03 0.  0.
        998    1    1    2    0    0 -0.13600331537E+02  0.81817599206E+01  0.14574534406E+04  0.14575741633E+04  0.10000000000E+02 0.  1.
</event>
<event>
 5    1  0.9123258E-009  0.3794869E+03  0.7957747E-01  0.3453396E+00
         13   -1    0    0    0    0  0.00000000000E+00  0.00000000000E+00  0.14999999963E+04  0.15000000000E+04  0.10566000000E+00 0.  1.
        994   -1    0    0    0    0 -0.00000000000E+00 -0.00000000000E+00  0.11368683772E-12  0.17120000000E+03  0.17120000000E+03 0.  0.
         13    1    1    2    0    0  0.26516615301E+02  0.19191461860E+02  0.13382430374E+03  0.13776936718E+03  0.10566000000E+00 0.  1.
        994    1    1    2    0    0 -0.50068492257E+01  0.40722832270E+01  0.45318779817E+01  0.17138153328E+03  0.17120000000E+03 0.  0.
        998    1    1    2    0    0 -0.21509766075E+02 -0.23263745087E+02  0.13616438146E+04  0.13620490995E+04  0.10000000000E+02 0.  1.
</event>
<event>
 5    1  0.9123258E-009  0.3822803E+03  0.7957747E-01  0.3441289E+00
         13   -1    0    0    0    0  0.00000000000E+00  0.00000000000E+00  0.14999999963E+04  0.15000000000E+04  0.10566000000E+00 0. -1.
        994   -1    0    0    0    0 -0.00000000000E+00 -0.00000000000E+00  0.11368683772E-12  0.17120000000E+03  0.17120000000E+03 0.  0.
         13    1    1    2    0    0  0.28010126477E+01  0.99686434575E+01  0.16692655304E+02  0.19643712209E+02  0.10566000000E+00 0. -1.
        994    1    1    2    0    0 -0.30522858760E+01 -0.81228248848E+01  0.32363222411E+01  0.17145031500E+03  0.17120000000E+03 0.  0.
        998    1    1    2    0    0  0.25127322839E+00 -0.18458185727E+01  0.14800710187E+04  0.14801059728E+04  0.10000000000E+02 0. -1.
</event>
<event>
 5    1  0.9123258E-009  0.3789948E+03  0.7957747E-01  0.3455547E+00
         13   -1    0    0    0    0  0.00000000000E+00  0.00000000000E+00  0.14999999963E+04  0.15000000000E+04  0.10566000000E+00 0.  1.
        994   -1    0    0    0    0 -0.00000000000E+00 -0.00000000000E+00  0.11368683772E-12  0.17120000000E+03  0.17120000000E+03 0.  0.
         13    1    1    2    0    0  0.24543834877E+01 -0.38655049524E+02  0.16777322031E+03  0.17218624065E+03  0.10566000000E+00 0.  1.
        994    1    1    2    0    0 -0.54712648379E+01  0.14957850143E+02  0.54927210304E+01  0.17202698045E+03  0.17120000000E+03 0.  0.
        998    1    1    2    0    0  0.30168813502E+01  0.23697199380E+02  0.13267340549E+04  0.13269867789E+04  0.10000000000E+02 0.  1.
</event>
<event>
 5    1  0.9123258E-009  0.3599228E+03  0.7957747E-01  0.3543526E+00
         13   -1    0    0    0    0  0.00000000000E+00  0.00000000000E+00  0.14999999963E+04  0.15000000000E+04  0.10566000000E+00 0.  1.
        994   -1    0    0    0    0 -0.00000000000E+00 -0.00000000000E+00  0.11368683772E-12  0.17120000000E+03  0.17120000000E+03 0.  0.
         13    1    1    2    0    0  0.16093328053E+03 -0.29679686575E+03  0.59275826151E+03  0.68216586551E+03  0.10566000000E+00 0.  1.
        994    1    1    2    0    0 -0.11808873050E+03  0.26599442080E+03  0.74028803431E+03  0.81365459128E+03  0.17120000000E+03 0.  0.
        998    1    1    2    0    0 -0.42844550031E+02  0.30802444950E+02  0.16695370045E+03  0.17537954321E+03  0.10000000000E+02 0.  1.
</event>
<event>
 5    1  0.9123258E-009  0.3738807E+03  0.7957747E-01  0.3478244E+00
         13   -1    0    0    0    0  0.00000000000E+00  0.00000000000E+00  0.14999999963E+04  0.15000000000E+04  0.10566000000E+00 0. -1.
        994   -1    0    0    0    0 -0.00000000000E+00 -0.00000000000E+00  0.11368683772E-12  0.17120000000E+03  0.17120000000E+03 0.  0.
         13    1    1    2    0    0  0.61003907618E+02  0.10192886831E+03  0.56942709873E+03  0.58168565641E+03  0.10566000000E+00 0. -1.
        994    1    1    2    0    0 -0.71904579460E+02 -0.97268011718E+02  0.58947808805E+02  0.21775127741E+03  0.17120000000E+03 0.  0.
        998    1    1    2    0    0  0.10900671842E+02 -0.46608565883E+01  0.87162508875E+03  0.87176306618E+03  0.10000000000E+02 0. -1.
</event>
<event>
 5    1  0.9123258E-009  0.3836221E+03  0.7957747E-01  0.3435537E+00
         13   -1    0    0    0    0  0.00000000000E+00  0.00000000000E+00  0.14999999963E+04  0.15000000000E+04  0.10566000000E+00 0. -1.
        994   -1    0    0    0    0 -0.00000000000E+00 -0.00000000000E+00  0.11368683772E-12  0.17120000000E+03  0.17120000000E+03 0.  0.
         13    1    1    2    0    0 -0.38445996655E+01  0.16094020115E+02  0.59978027037E+02  0.62218753775E+02  0.10566000000E+00 0. -1.
        994    1    1    2    0    0  0.47059728142E+01 -0.52244961247E+01  0.24791239133E+01  0.17136227005E+03  0.17120000000E+03 0.  0.
        998    1    1    2    0    0 -0.86137314874E+00 -0.10869523990E+02  0.14375428453E+04  0.14376189762E+04  0.10000000000E+02 0. -1.
</event>
<event>
 5    1  0.9123258E-009  0.3846309E+03  0.7957747E-01  0.3431239E+00
         13   -1    0    0    0    0  0.00000000000E+00  0.00000000000E+00  0.14999999963E+04  0.15000000000E+04  0.10566000000E+00 0. -1.
        994   -1    0    0    0    0 -0.00000000000E+00 -0.00000000000E+00  0.11368683772E-12  0.17120000000E+03  0.17120000000E+03 0.  0.
         13    1    1    2    0    0 -0.71378421354E+00 -0.17239073176E+02  0.82744691905E+02  0.84524495470E+02  0.10566000000E+00 0. -1.
        994    1    1    2    0    0  0.38800774731E+01  0.95349936741E+01  0.21624939153E+01  0.17152284829E+03  0.17120000000E+03 0.  0.
        998    1    1    2    0    0 -0.31662932595E+01  0.77040795019E+01  0.14150928105E+04  0.14151526562E+04  0.10000000000E+02 0. -1.
</event>
<event>
 5    1  0.9123258E-009  0.3844931E+03  0.7957747E-01  0.3431825E+00
         13   -1    0    0    0    0  0.00000000000E+00  0.00000000000E+00  0.14999999963E+04  0.15000000000E+04  0.10566000000E+00 0.  1.
        994   -1    0    0    0    0 -0.00000000000E+00 -0.00000000000E+00  0.11368683772E-12  0.17120000000E+03  0.17120000000E+03 0.  0.
         13    1    1    2    0    0  0.18585261654E+01  0.20131088512E+02  0.10971162277E+03  0.11155880144E+03  0.10566000000E+00 0.  1.
        994    1    1    2    0    0 -0.45458905111E+00 -0.11097157675E+02  0.22884511067E+01  0.17157514554E+03  0.17120000000E+03 0.  0.
        998    1    1    2    0    0 -0.14039371143E+01 -0.90339308370E+01  0.13879999224E+04  0.13880660530E+04  0.10000000000E+02 0.  1.
</event>
<event>
 5    1  0.9123258E-009  0.3790042E+03  0.7957747E-01  0.3455506E+00
         13   -1    0    0    0    0  0.00000000000E+00  0.00000000000E+00  0.14999999963E+04  0.15000000000E+04  0.10566000000E+00 0. -1.
        994   -1    0    0    0    0 -0.00000000000E+00 -0.00000000000E+00  0.11368683772E-12  0.17120000000E+03  0.17120000000E+03 0.  0.
         13    1    1    2    0    0 -0.75765219552E+01 -0.30896597618E+02  0.98260091036E+02  0.10328146050E+03  0.10566000000E+00 0. -1.
        994    1    1    2    0    0  0.16816906693E+02  0.35017204637E+02  0.97144822931E+01  0.17582043151E+03  0.17120000000E+03 0.  0.
        998    1    1    2    0    0 -0.92403847376E+01 -0.41206070182E+01  0.13920254229E+04  0.13920981080E+04  0.10000000000E+02 0. -1.
</event>
<event>
 5    1  0.9123258E-009  0.3834668E+03  0.7957747E-01  0.3436201E+00
         13   -1    0    0    0    0  0.00000000000E+00  0.00000000000E+00  0.14999999963E+04  0.15000000000E+04  0.10566000000E+00 0.  1.
        994   -1    0    0    0    0 -0.00000000000E+00 -0.00000000000E+00  0.11368683772E-12  0.17120000000E+03  0.17120000000E+03 0.  0.
         13    1    1    2    0    0 -0.19792311674E+02  0.21517950479E+02  0.15875031680E+03  0.16142004845E+03  0.10566000000E+00 0.  1.
        994    1    1    2    0    0  0.14752915598E+02 -0.29132474065E+02  0.59256095798E+01  0.17438721975E+03  0.17120000000E+03 0.  0.
        998    1    1    2    0    0  0.50393960757E+01  0.76145235857E+01  0.13353240699E+04  0.13353927318E+04  0.10000000000E+02 0.  1.
</event>
<event>
 5    1  0.9123258E-009  0.3754263E+03  0.7957747E-01  0.3471318E+00
         13   -1    0    0    0    0  0.00000000000E+00  0.00000000000E+00  0.14999999963E+04  0.15000000000E+04  0.10566000000E+00 0. -1.
        994   -1    0    0    0    0 -0.00000000000E+00 -0.00000000000E+00  0.11368683772E-12  0.17120000000E+03  0.17120000000E+03 0.  0.
         13    1    1    2    0    0  0.39710504924E+02  0.19082099373E+02  0.17124398402E+03  0.17682071130E+03  0.10566000000E+00 0. -1.
        994    1    1    2    0    0  0.48404783547E+00 -0.17166850659E+01  0.64707865350E+01  0.17133152771E+03  0.17120000000E+03 0.  0.
        998    1    1    2    0    0 -0.40194552759E+02 -0.17365414307E+02  0.13222852257E+04  0.13230477610E+04  0.10000000000E+02 0. -1.
</event>
<event>
 5    1  0.9123258E-009  0.3855596E+03  0.7957747E-01  0.3427302E+00
         13   -1    0    0    0    0  0.00000000000E+00  0.00000000000E+00  0.14999999963E+04  0.15000000000E+04  0.10566000000E+00 0. -1.
        994   -1    0    0    0    0 -0.00000000000E+00 -0.00000000000E+00  0.11368683772E-12  0.17120000000E+03  0.17120000000E+03 0.  0.
         13    1    1    2    0    0 -0.36685668151E+01 -0.13722750007E+02  0.74380256931E+02  0.75724540510E+02  0.10566000000E+00 0. -1.
        994    1    1    2    0    0  0.79987375030E+01  0.87672264808E+01  0.18150534478E+01  0.17162044890E+03  0.17120000000E+03 0.  0.
        998    1    1    2    0    0 -0.43301706879E+01  0.49555235260E+01  0.14238046859E+04  0.14238550106E+04  0.10000000000E+02 0. -1.
</event>
<event>
 5    1  0.9123258E-009  0.3837430E+03  0.7957747E-01  0.3435021E+00
         13   -1    0    0    0    0  0.00000000000E+00  0.00000000000E+00  0.14999999963E+04  0.15000000000E+04  0.10566000000E+00 0.  1.
        994   -1    0    0    0    0 -0.00000000000E+00 -0.00000000000E+00  0.11368683772E-12  0.17120000000E+03  0.17120000000E+03 0.  0.
         13    1    1    2    0    0  0.18944314446E+02 -0.64505776875E+01  0.85696449434E+02  0.88002213676E+02  0.10566000000E+00 0.  1.
        994    1    1    2    0    0 -0.16099706016E+02  0.68107648447E+01  0.32652542982E+01  0.17212114611E+03  0.17120000000E+03 0.  0.
        998    1    1    2    0    0 -0.28446084303E+01 -0.36018715722E+00  0.14110382925E+04  0.14110766402E+04  0.10000000000E+02 0.  1.
</event>
<event>
 5    1  0.9123258E-009  0.3835593E+03  0.7957747E-01  0.3435805E+00
         13   -1    0    0    0    0  0.00000000000E+00  0.00000000000E+00  0.14999999963E+04  0.15000000000E+04  0.10566000000E+00 0.  1.
        994   -1    0    0    0    0 -0.00000000000E+00 -0.00000000000E+00  0.11368683772E-12  0.17120000000E+03  0.17120000000E+03 0.  0.
         13    1    1    2    0    0 -0.21618837909E+02  0.31919616059E+02  0.33737630154E+02  0.51229629067E+02  0.10566000000E+00 0.  1.
        994    1    1    2    0    0  0.18679491753E+02 -0.18922442742E+02  0.20896087775E+02  0.17450807642E+03  0.17120000000E+03 0.  0.
        998    1    1    2    0    0  0.29393461562E+01 -0.12997173318E+02  0.14453662783E+04  0.14454622945E+04  0.10000000000E+02 0.  1.
</event>
<event>
 5    1  0.9123258E-009  0.3739419E+03  0.7957747E-01  0.3477969E+00
         13   -1    0    0    0    0  0.00000000000E+00  0.00000000000E+00  0.14999999963E+04  0.15000000000E+04  0.10566000000E+00 0.  1.
        994   -1    0    0    0    0 -0.00000000000E+00 -0.00000000000E+00  0.11368683772E-12  0.17120000000E+03  0.17120000000E+03 0.  0.
         13    1    1    2    0    0 -0.68982143216E+01 -0.21695053428E+02  0.32294695402E+02  0.39512266693E+02  0.10566000000E+00 0.  1.
        994    1    1    2    0    0  0.54123445158E+01  0.22148881921E+02  0.89985604872E+01  0.17294588904E+03  0.17120000000E+03 0.  0.
        998    1    1    2    0    0  0.14858698059E+01 -0.45382849306E+00  0.14587067404E+04  0.14587418443E+04  0.10000000000E+02 0.  1.
</event>
<event>
 5    1  0.9123258E-009  0.3772864E+03  0.7957747E-01  0.3463060E+00
         13   -1    0    0    0    0  0.00000000000E+00  0.00000000000E+00  0.14999999963E+04  0.15000000000E+04  0.10566000000E+00 0. -1.
        994   -1    0    0    0    0 -0.00000000000E+00 -0.00000000000E+00  0.11368683772E-12  0.17120000000E+03  0.17120000000E+03 0.  0.
         13    1    1    2    0    0 -0.20327607906E+02 -0.60339203787E+02  0.38349040295E+03  0.38874018505E+03  0.10566000000E+00 0. -1.
        994    1    1    2    0    0  0.15708445364E+02  0.27977755046E+02  0.89898643283E+01  0.17441263628E+03  0.17120000000E+03 0.  0.
        998    1    1    2    0    0  0.46191625415E+01  0.32361448741E+02  0.11075197290E+04  0.11080471787E+04  0.10000000000E+02 0. -1.
</event>
<event>
 5    1  0.9123258E-009  0.3860963E+03  0.7957747E-01  0.3425036E+00
         13   -1    0    0    0    0  0.00000000000E+00  0.00000000000E+00  0.14999999963E+04  0.15000000000E+04  0.10566000000E+00 0.  1.
        994   -1    0    0    0    0 -0.00000000000E+00 -0.00000000000E+00  0.11368683772E-12  0.17120000000E+03  0.17120000000E+03 0.  0.
         13    1    1    2    0    0 -0.12374543719E+02 -0.14792578540E+01  0.69855108644E+02  0.70958191237E+02  0.10566000000E+00 0.  1.
        994    1    1    2    0    0  0.12806036690E+02  0.46940722906E+00  0.16251231400E+01  0.17168662133E+03  0.17120000000E+03 0.  0.
        998    1    1    2    0    0 -0.43149297146E+00  0.10098506249E+01  0.14285197645E+04  0.14285551874E+04  0.10000000000E+02 0.  1.
</event>
<event>
 5    1  0.9123258E-009  0.3788369E+03  0.7957747E-01  0.3456239E+00
         13   -1    0    0    0    0  0.00000000000E+00  0.00000000000E+00  0.14999999963E+04  0.15000000000E+04  0.10566000000E+00 0.  1.
        994   -1    0    0    0    0 -0.00000000000E+00 -0.00000000000E+00  0.11368683772E-12  0.17120000000E+03  0.17120000000E+03 0.  0.
         13    1    1    2    0    0 -0.40108826505E+01 -0.59432693803E+02  0.34389585200E+03  0.34901676243E+03  0.10566000000E+00 0.  1.
        994    1    1    2    0    0  0.20295188372E+02  0.42120659827E+02  0.12092651038E+02  0.17788118749E+03  0.17120000000E+03 0.  0.
        998    1    1    2    0    0 -0.16284305722E+02  0.17312033977E+02  0.11440114932E+04  0.11443020501E+04  0.10000000000E+02 0.  1.
</event>
<event>
 5    1  0.9123258E-009  0.3791588E+03  0.7957747E-01  0.3454829E+00
         13   -1    0    0    0    0  0.00000000000E+00  0.00000000000E+00  0.14999999963E+04  0.15000000000E+04  0.10566000000E+00 0.  1.
        994   -1    0    0    0    0 -0.00000000000E+00 -0.00000000000E+00  0.11368683772E-12  0.17120000000E+03  0.17120000000E+03 0.  0.
         13    1    1    2    0    0 -0.58180548619E+02  0.22646824799E+02  0.28701191885E+03  0.29372386290E+03  0.10566000000E+00 0.  1.
        994    1    1    2    0    0  0.81146326274E+02 -0.22821010738E+02  0.28758780987E+02  0.19298194807E+03  0.17120000000E+03 0.  0.
        998    1    1    2    0    0 -0.22965777654E+02  0.17418593917E+00  0.11842292964E+04  0.11844941890E+04  0.10000000000E+02 0.  1.
</event>
<event>
 5    1  0.9123258E-009  0.3813904E+03  0.7957747E-01  0.3445127E+00
         13   -1    0    0    0    0  0.00000000000E+00  0.00000000000E+00  0.14999999963E+04  0.15000000000E+04  0.10566000000E+00 0. -1.
        994   -1    0    0    0    0 -0.00000000000E+00 -0.00000000000E+00  0.11368683772E-12  0.17120000000E+03  0.17120000000E+03 0.  0.
         13    1    1    2    0    0 -0.31473133242E+01  0.21822417809E+02  0.78994824283E+02  0.82014126391E+02  0.10566000000E+00 0. -1.
        994    1    1    2    0    0 -0.16621429009E+02  0.85242327178E+01  0.45949127090E+01  0.17227735681E+03  0.17120000000E+03 0.  0.
        998    1    1    2    0    0  0.19768742334E+02 -0.30346650527E+02  0.14164102593E+04  0.14169085168E+04  0.10000000000E+02 0. -1.
</event>
<event>
 5    1  0.9123258E-009  0.4303881E+03  0.7957747E-01  0.3257380E+00
         13   -1    0    0    0    0  0.00000000000E+00  0.00000000000E+00  0.14999999963E+04  0.15000000000E+04  0.10566000000E+00 0.  1.
        994   -1    0    0    0    0 -0.00000000000E+00 -0.00000000000E+00  0.11368683772E-12  0.17120000000E+03  0.17120000000E+03 0.  0.
         13    1    1    2    0    0 -0.15558346755E+02 -0.11419250890E+03  0.11987666709E+03  0.16629016122E+03  0.10566000000E+00 0.  1.
        994    1    1    2    0    0  0.59849579770E+01  0.10747601082E+03  0.10163999840E+03  0.22633391681E+03  0.17120000000E+03 0.  0.
        998    1    1    2    0    0  0.95733887782E+01  0.67164980817E+01  0.12784833308E+04  0.12785759220E+04  0.10000000000E+02 0.  1.
</event>
<event>
 5    1  0.9123258E-009  0.3846436E+03  0.7957747E-01  0.3431185E+00
         13   -1    0    0    0    0  0.00000000000E+00  0.00000000000E+00  0.14999999963E+04  0.15000000000E+04  0.10566000000E+00 0.  1.
        994   -1    0    0    0    0 -0.00000000000E+00 -0.00000000000E+00  0.11368683772E-12  0.17120000000E+03  0.17120000000E+03 0.  0.
         13    1    1    2    0    0  0.14185442555E+02  0.40763721774E+01  0.64786438990E+02  0.66446500522E+02  0.10566000000E+00 0.  1.
        994    1    1    2    0    0  0.42232550339E+01 -0.55051562613E+01  0.19656895917E+01  0.17135182101E+03  0.17120000000E+03 0.  0.
        998    1    1    2    0    0 -0.18408697589E+02  0.14287840839E+01  0.14332478677E+04  0.14334016785E+04  0.10000000000E+02 0.  1.
</event>
<event>
 5    1  0.9123258E-009  0.3817248E+03  0.7957747E-01  0.3443683E+00
         13   -1    0    0    0    0  0.00000000000E+00  0.00000000000E+00  0.14999999963E+04  0.15000000000E+04  0.10566000000E+00 0. -1.
        994   -1    0    0    0    0 -0.00000000000E+00 -0.00000000000E+00  0.11368683772E-12  0.17120000000E+03  0.17120000000E+03 0.  0.
         13    1    1    2    0    0 -0.22421996472E+02  0.12881474178E+02  0.95254659278E+02  0.98702277486E+02  0.10566000000E+00 0. -1.
        994    1    1    2    0    0  0.23666334308E+02 -0.13154873081E+02  0.57057947297E+01  0.17342186183E+03  0.17120000000E+03 0.  0.
        998    1    1    2    0    0 -0.12443378360E+01  0.27339890279E+00  0.13990395423E+04  0.13990758607E+04  0.10000000000E+02 0. -1.
</event>
<event>
 5    1  0.9123258E-009  0.3852389E+03  0.7957747E-01  0.3428659E+00
         13   -1    0    0    0    0  0.00000000000E+00  0.00000000000E+00  0.14999999963E+04  0.15000000000E+04  0.10566000000E+00 0.  1.
        994   -1    0    0    0    0 -0.00000000000E+00 -0.00000000000E+00  0.11368683772E-12  0.17120000000E+03  0.17120000000E+03 0.  0.
         13    1    1    2    0    0 -0.41902478423E+01  0.93665719919E+01  0.33792696628E+02  0.35316403516E+02  0.10566000000E+00 0.  1.
        994    1    1    2    0    0  0.71343922599E+01 -0.10833950574E+02  0.20647133635E+01  0.17170316561E+03  0.17120000000E+03 0.  0.
        998    1    1    2    0    0 -0.29441444175E+01  0.14673785818E+01  0.14641425863E+04  0.14641804309E+04  0.10000000000E+02 0.  1.
</event>
<event>
 5    1  0.9123258E-009  0.3821721E+03  0.7957747E-01  0.3441755E+00
         13   -1    0    0    0    0  0.00000000000E+00  0.00000000000E+00  0.14999999963E+04  0.15000000000E+04  0.10566000000E+00 0. -1.
        994   -1    0    0    0    0 -0.00000000000E+00 -0.00000000000E+00  0.11368683772E-12  0.17120000000E+03  0.17120000000E+03 0.  0.
         13    1    1    2    0    0 -0.11915774624E+02  0.54695149180E+01  0.27316256063E+02  0.30300004747E+02  0.10566000000E+00 0. -1.
        994    1    1    2    0    0  0.52939264433E+01 -0.52842306859E+01  0.32263962036E+01  0.17139369412E+03  0.17120000000E+03 0.  0.
        998    1    1    2    0    0  0.66218481805E+01 -0.18528423209E+00  0.14694573440E+04  0.14695063011E+04  0.10000000000E+02 0. -1.
</event>
<event>
 5    1  0.9123258E-009  0.3798691E+03  0.7957747E-01  0.3451729E+00
         13   -1    0    0    0    0  0.00000000000E+00  0.00000000000E+00  0.14999999963E+04  0.15000000000E+04  0.10566000000E+00 0.  1.
        994   -1    0    0    0    0 -0.00000000000E+00 -0.00000000000E+00  0.11368683772E-12  0.17120000000E+03  0.17120000000E+03 0.  0.
         13    1    1    2    0    0 -0.14811818942E+02  0.11359437034E+02  0.41669886997E+02  0.45659801100E+02  0.10566000000E+00 0.  1.
        994    1    1    2    0    0 -0.57546988539E+01 -0.70498023112E+01  0.44762726117E+01  0.17150012620E+03  0.17120000000E+03 0.  0.
        998    1    1    2    0    0  0.20566517796E+02 -0.43096347227E+01  0.14538538367E+04  0.14540400727E+04  0.10000000000E+02 0.  1.
</event>
<event>
 5    1  0.9123258E-009  0.2735278E+03  0.7957747E-01  0.4105238E+00
         13   -1    0    0    0    0  0.00000000000E+00  0.00000000000E+00  0.14999999963E+04  0.15000000000E+04  0.10566000000E+00 0.  1.
        994   -1    0    0    0    0 -0.00000000000E+00 -0.00000000000E+00  0.11368683772E-12  0.17120000000E+03  0.17120000000E+03 0.  0.
         13    1    1    2    0    0 -0.41731580393E+02  0.18950666296E+03  0.52643109418E+03  0.56105615422E+03  0.10566000000E+00 0.  1.
        994    1    1    2    0    0 -0.39343231953E+02 -0.14385571021E+03  0.13046872940E+03  0.26186615782E+03  0.17120000000E+03 0.  0.
        998    1    1    2    0    0  0.81074812346E+02 -0.45650952748E+02  0.84310017270E+03  0.84827768796E+03  0.10000000000E+02 0.  1.
</event>
<event>
 5    1  0.9123258E-009  0.3790164E+03  0.7957747E-01  0.3455453E+00
         13   -1    0    0    0    0  0.00000000000E+00  0.00000000000E+00  0.14999999963E+04  0.15000000000E+04  0.10566000000E+00 0.  1.
        994   -1    0    0    0    0 -0.00000000000E+00 -0.00000000000E+00  0.11368683772E-12  0.17120000000E+03  0.17120000000E+03 0.  0.
         13    1    1    2    0    0  0.23926284919E+02 -0.66107933882E+02  0.15686555402E+03  0.17189979417E+03  0.10566000000E+00 0.  1.
        994    1    1    2    0    0  0.65948968596E+01  0.40208090790E+02  0.21805990338E+02  0.17732773174E+03  0.17120000000E+03 0.  0.
        998    1    1    2    0    0 -0.30521181778E+02  0.25899843092E+02  0.13213284519E+04  0.13219724741E+04  0.10000000000E+02 0.  1.
</event>
<event>
 5    1  0.9123258E-009  0.3720719E+03  0.7957747E-01  0.3486422E+00
         13   -1    0    0    0    0  0.00000000000E+00  0.00000000000E+00  0.14999999963E+04  0.15000000000E+04  0.10566000000E+00 0.  1.
        994   -1    0    0    0    0 -0.00000000000E+00 -0.00000000000E+00  0.11368683772E-12  0.17120000000E+03  0.17120000000E+03 0.  0.
         13    1    1    2    0    0 -0.18447463605E+02 -0.16333049396E+02  0.32665390363E+02  0.40915966414E+02  0.10566000000E+00 0.  1.
        994    1    1    2    0    0  0.23987096290E+02  0.16714330496E+02  0.11130175954E+02  0.17403468174E+03  0.17120000000E+03 0.  0.
        998    1    1    2    0    0 -0.55396326852E+01 -0.38128109977E+00  0.14562044300E+04  0.14562493518E+04  0.10000000000E+02 0.  1.
</event>
<event>
 5    1  0.9123258E-009  0.3692247E+03  0.7957747E-01  0.3499462E+00
         13   -1    0    0    0    0  0.00000000000E+00  0.00000000000E+00  0.14999999963E+04  0.15000000000E+04  0.10566000000E+00 0.  1.
        994   -1    0    0    0    0 -0.00000000000E+00 -0.00000000000E+00  0.11368683772E-12  0.17120000000E+03  0.17120000000E+03 0.  0.
         13    1    1    2    0    0 -0.61065843477E+01  0.12621583454E+03  0.50144297926E+03  0.51711971522E+03  0.10566000000E+00 0.  1.
        994    1    1    2    0    0 -0.15586809637E+02 -0.13246543689E+03  0.74147519799E+02  0.22934108942E+03  0.17120000000E+03 0.  0.
        998    1    1    2    0    0  0.21693393985E+02  0.62496023471E+01  0.92440949722E+03  0.92473919536E+03  0.10000000000E+02 0.  1.
</event>
<event>
 5    1  0.9123258E-009  0.3814292E+03  0.7957747E-01  0.3444959E+00
         13   -1    0    0    0    0  0.00000000000E+00  0.00000000000E+00  0.14999999963E+04  0.15000000000E+04  0.10566000000E+00 0.  1.
        994   -1    0    0    0    0 -0.00000000000E+00 -0.00000000000E+00  0.11368683772E-12  0.17120000000E+03  0.17120000000E+03 0.  0.
         13    1    1    2    0    0 -0.15202360723E+02 -0.78189447564E+01  0.44282457776E+02  0.47467830153E+02  0.10566000000E+00 0.  1.
        994    1    1    2    0    0 -0.32285506705E+01 -0.46620602963E+01  0.35204464682E+01  0.17133006709E+03  0.17120000000E+03 0.  0.
        998    1    1    2    0    0  0.18430911394E+02  0.12481005053E+02  0.14521970920E+04  0.14524021028E+04  0.10000000000E+02 0.  1.
</event>
<event>
 5    1  0.9123258E-009  0.3387703E+03  0.7957747E-01  0.3653003E+00
         13   -1    0    0    0    0  0.00000000000E+00  0.00000000000E+00  0.14999999963E+04  0.15000000000E+04  0.10566000000E+00 0. -1.
        994   -1    0    0    0    0 -0.00000000000E+00 -0.00000000000E+00  0.11368683772E-12  0.17120000000E+03  0.17120000000E+03 0.  0.
         13    1    1    2    0    0 -0.17298146271E+03 -0.10077720633E+03  0.95197848415E+03  0.97280094429E+03  0.10566000000E+00 0. -1.
        994    1    1    2    0    0  0.13973273053E+03  0.14114619991E+03  0.16092691051E+03  0.30765954602E+03  0.17120000000E+03 0.  0.
        998    1    1    2    0    0  0.33248732178E+02 -0.40368993582E+02  0.38709460161E+03  0.39073950969E+03  0.10000000000E+02 0. -1.
</event>
<event>
 5    1  0.9123258E-009  0.3784024E+03  0.7957747E-01  0.3458144E+00
         13   -1    0    0    0    0  0.00000000000E+00  0.00000000000E+00  0.14999999963E+04  0.15000000000E+04  0.10566000000E+00 0. -1.
        994   -1    0    0    0    0 -0.00000000000E+00 -0.00000000000E+00  0.11368683772E-12  0.17120000000E+03  0.17120000000E+03 0.  0.
         13    1    1    2    0    0 -0.31442841640E+02 -0.29773160610E+02  0.15898123093E+03  0.16477298424E+03  0.10566000000E+00 0. -1.
        994    1    1    2    0    0  0.62260939934E+02  0.13884029557E+02  0.18740967422E+02  0.18365689418E+03  0.17120000000E+03 0.  0.
        998    1    1    2    0    0 -0.30818098293E+02  0.15889131053E+02  0.13222777979E+04  0.13227701216E+04  0.10000000000E+02 0. -1.
</event>
<event>
 5    1  0.9123258E-009  0.3702979E+03  0.7957747E-01  0.3494523E+00
         13   -1    0    0    0    0  0.00000000000E+00  0.00000000000E+00  0.14999999963E+04  0.15000000000E+04  0.10566000000E+00 0.  1.
        994   -1    0    0    0    0 -0.00000000000E+00 -0.00000000000E+00  0.11368683772E-12  0.17120000000E+03  0.17120000000E+03 0.  0.
         13    1    1    2    0    0 -0.23039847925E+02  0.15661308251E+02  0.39411273496E+02  0.48263555724E+02  0.10566000000E+00 0.  1.
        994    1    1    2    0    0  0.11828723640E+02 -0.86436416019E+01  0.98551234874E+01  0.17210809017E+03  0.17120000000E+03 0.  0.
        998    1    1    2    0    0  0.11211124284E+02 -0.70176666487E+01  0.14507335993E+04  0.14508283541E+04  0.10000000000E+02 0.  1.
</event>
<event>
 5    1  0.9123258E-009  0.3840456E+03  0.7957747E-01  0.3433730E+00
         13   -1    0    0    0    0  0.00000000000E+00  0.00000000000E+00  0.14999999963E+04  0.15000000000E+04  0.10566000000E+00 0.  1.
        994   -1    0    0    0    0 -0.00000000000E+00 -0.00000000000E+00  0.11368683772E-12  0.17120000000E+03  0.17120000000E+03 0.  0.
         13    1    1    2    0    0 -0.70235280815E+01  0.83806520583E+01  0.28290911639E+02  0.30330712505E+02  0.10566000000E+00 0.  1.
        994    1    1    2    0    0  0.10422366099E+02  0.47007558757E+01  0.25360970323E+01  0.17160010084E+03  0.17120000000E+03 0.  0.
        998    1    1    2    0    0 -0.33988380173E+01 -0.13081407934E+02  0.14691729876E+04  0.14692691867E+04  0.10000000000E+02 0.  1.
</event>
<event>
 5    1  0.9123258E-009  0.3814920E+03  0.7957747E-01  0.3444688E+00
         13   -1    0    0    0    0  0.00000000000E+00  0.00000000000E+00  0.14999999963E+04  0.15000000000E+04  0.10566000000E+00 0.  1.
        994   -1    0    0    0    0 -0.00000000000E+00 -0.00000000000E+00  0.11368683772E-12  0.17120000000E+03  0.17120000000E+03 0.  0.
         13    1    1    2    0    0 -0.13321394040E+02 -0.39683890640E+02  0.23793916325E+03  0.24159330969E+03  0.10566000000E+00 0.  1.
        994    1    1    2    0    0  0.12311738542E+02  0.30854414811E+02  0.70616339047E+01  0.17453618677E+03  0.17120000000E+03 0.  0.
        998    1    1    2    0    0  0.10096554983E+01  0.88294758293E+01  0.12549991991E+04  0.12550705035E+04  0.10000000000E+02 0.  1.
</event>
<event>
 5    1  0.9123258E-009  0.3743458E+03  0.7957747E-01  0.3476154E+00
         13   -1    0    0    0    0  0.00000000000E+00  0.00000000000E+00  0.14999999963E+04  0.15000000000E+04  0.10566000000E+00 0.  1.
        994   -1    0    0    0    0 -0.00000000000E+00 -0.00000000000E+00  0.11368683772E-12  0.17120000000E+03  0.17120000000E+03 0.  0.
         13    1    1    2    0    0  0.34185057650E+01  0.17522507492E+02  0.19968972588E+02  0.26786106113E+02  0.10566000000E+00 0.  1.
        994    1    1    2    0    0 -0.13345913737E+02 -0.46225832134E+01  0.76949350746E+01  0.17195387089E+03  0.17120000000E+03 0.  0.
        998    1    1    2    0    0  0.99274079716E+01 -0.12899924278E+02  0.14723360886E+04  0.14724600230E+04  0.10000000000E+02 0.  1.
</event>
<event>
 5    1  0.9123258E-009  0.3823008E+03  0.7957747E-01  0.3441201E+00
         13   -1    0    0    0    0  0.00000000000E+00  0.00000000000E+00  0.14999999963E+04  0.15000000000E+04  0.10566000000E+00 0.  1.
        994   -1    0    0    0    0 -0.00000000000E+00 -0.00000000000E+00  0.11368683772E-12  0.17120000000E+03  0.17120000000E+03 0.  0.
         13    1    1    2    0    0 -0.21529300061E+02  0.72709447279E+01  0.89093331195E+02  0.91945691720E+02  0.10566000000E+00 0.  1.
        994    1    1    2    0    0  0.62903750352E+01 -0.49839914128E+01  0.31899007107E+01  0.17141769003E+03  0.17120000000E+03 0.  0.
        998    1    1    2    0    0  0.15238925026E+02 -0.22869533151E+01  0.14077167644E+04  0.14078366183E+04  0.10000000000E+02 0.  1.
</event>
<event>
 5    1  0.1010650E-008  0.3855423E+03  0.7957747E-01  0.3427375E+00
         13   -1    0    0    0    0  0.00000000000E+00  0.00000000000E+00  0.14999999963E+04  0.15000000000E+04  0.10566000000E+00 0.  1.
        994   -1    0    0    0    0 -0.00000000000E+00 -0.00000000000E+00  0.11368683772E-12  0.17120000000E+03  0.17120000000E+03 0.  0.
         13    1    1    2    0    0  0.15767297762E+01  0.14328829892E+02  0.80904518863E+02  0.82178791542E+02  0.10566000000E+00 0.  1.
        994    1    1    2    0    0 -0.27550444292E+02 -0.89737189654E+00  0.38595249162E+01  0.17344788321E+03  0.17120000000E+03 0.  0.
        998    1    1    2    0    0  0.25973714516E+02 -0.13431457995E+02  0.14152359525E+04  0.14155733252E+04  0.10000000000E+02 0.  1.
</event>
<event>
 5    1  0.9123258E-009  0.3690733E+03  0.7957747E-01  0.3500161E+00
         13   -1    0    0    0    0  0.00000000000E+00  0.00000000000E+00  0.14999999963E+04  0.15000000000E+04  0.10566000000E+00 0.  1.
        994   -1    0    0    0    0 -0.00000000000E+00 -0.00000000000E+00  0.11368683772E-12  0.17120000000E+03  0.17120000000E+03 0.  0.
         13    1    1    2    0    0 -0.29891175237E+02 -0.92281348262E+01  0.46565193474E+02  0.56097854119E+02  0.10566000000E+00 0.  1.
        994    1    1    2    0    0  0.18880239625E+02  0.55022362501E+01  0.11096873131E+02  0.17268271090E+03  0.17120000000E+03 0.  0.
        998    1    1    2    0    0  0.11010935612E+02  0.37258985762E+01  0.14423379297E+04  0.14424194350E+04  0.10000000000E+02 0.  1.
</event>
<event>
 5    1  0.9123258E-009  0.3848332E+03  0.7957747E-01  0.3430380E+00
         13   -1    0    0    0    0  0.00000000000E+00  0.00000000000E+00  0.14999999963E+04  0.15000000000E+04  0.10566000000E+00 0. -1.
        994   -1    0    0    0    0 -0.00000000000E+00 -0.00000000000E+00  0.11368683772E-12  0.17120000000E+03  0.17120000000E+03 0.  0.
         13    1    1    2    0    0  0.13317132065E+02  0.13925414011E+02  0.10967780573E+03  0.11135751163E+03  0.10566000000E+00 0. -1.
        994    1    1    2    0    0 -0.11248917384E+02 -0.40269721495E+01  0.21828508325E+01  0.17163029885E+03  0.17120000000E+03 0.  0.
        998    1    1    2    0    0 -0.20682146819E+01 -0.98984418611E+01  0.13881393397E+04  0.13882121895E+04  0.10000000000E+02 0. -1.
</event>
<event>
 5    1  0.9123258E-009  0.3813615E+03  0.7957747E-01  0.3445251E+00
         13   -1    0    0    0    0  0.00000000000E+00  0.00000000000E+00  0.14999999963E+04  0.15000000000E+04  0.10566000000E+00 0.  1.
        994   -1    0    0    0    0 -0.00000000000E+00 -0.00000000000E+00  0.11368683772E-12  0.17120000000E+03  0.17120000000E+03 0.  0.
         13    1    1    2    0    0 -0.39256986303E+02  0.28237615591E+01  0.42227056308E+02  0.57725384810E+02  0.10566000000E+00 0.  1.
        994    1    1    2    0    0 -0.72184491199E+01 -0.16184543281E+02  0.18221645501E+02  0.17307661256E+03  0.17120000000E+03 0.  0.
        998    1    1    2    0    0  0.46475435423E+02  0.13360781722E+02  0.14395512945E+04  0.14403980026E+04  0.10000000000E+02 0.  1.
</event>
<event>
 5    1  0.9123258E-009  0.3710755E+03  0.7957747E-01  0.3490963E+00
         13   -1    0    0    0    0  0.00000000000E+00  0.00000000000E+00  0.14999999963E+04  0.15000000000E+04  0.10566000000E+00 0. -1.
        994   -1    0    0    0    0 -0.00000000000E+00 -0.00000000000E+00  0.11368683772E-12  0.17120000000E+03  0.17120000000E+03 0.  0.
         13    1    1    2    0    0 -0.43774795947E+01  0.18899937434E+02  0.17738761730E+02  0.26287730872E+02  0.10566000000E+00 0. -1.
        994    1    1    2    0    0  0.74054156063E+01 -0.15427842135E+02  0.97175139744E+01  0.17232738776E+03  0.17120000000E+03 0.  0.
        998    1    1    2    0    0 -0.30279360116E+01 -0.34720952987E+01  0.14725437206E+04  0.14725848814E+04  0.10000000000E+02 0. -1.
</event>
<event>
 5    1  0.9123258E-009  0.3783375E+03  0.7957747E-01  0.3458430E+00
         13   -1    0    0    0    0  0.00000000000E+00  0.00000000000E+00  0.14999999963E+04  0.15000000000E+04  0.10566000000E+00 0. -1.
        994   -1    0    0    0    0 -0.00000000000E+00 -0.00000000000E+00  0.11368683772E-12  0.17120000000E+03  0.17120000000E+03 0.  0.
         13    1    1    2    0    0  0.18631209616E+02  0.73869011129E+02  0.43430587583E+03  0.44093690900E+03  0.10566000000E+00 0. -1.
        994    1    1    2    0    0  0.45269090914E+01 -0.76277567761E+02  0.24858882238E+02  0.18911944447E+03  0.17120000000E+03 0.  0.
        998    1    1    2    0    0 -0.23158118707E+02  0.24085566320E+01  0.10408352382E+04  0.10411436465E+04  0.10000000000E+02 0. -1.
</event>
<event>
 5    1  0.9123258E-009  0.3766361E+03  0.7957747E-01  0.3465938E+00
         13   -1    0    0    0    0  0.00000000000E+00  0.00000000000E+00  0.14999999963E+04  0.15000000000E+04  0.10566000000E+00 0. -1.
        994   -1    0    0    0    0 -0.00000000000E+00 -0.00000000000E+00  0.11368683772E-12  0.17120000000E+03  0.17120000000E+03 0.  0.
         13    1    1    2    0    0  0.99686924745E+02  0.26467948019E+02  0.60974445646E+03  0.61840629733E+03  0.10566000000E+00 0. -1.
        994    1    1    2    0    0 -0.93044778011E+02 -0.12687652844E+02  0.36258558450E+02  0.19860118406E+03  0.17120000000E+03 0.  0.
        998    1    1    2    0    0 -0.66421467337E+01 -0.13780295176E+02  0.85399698137E+03  0.85419251861E+03  0.10000000000E+02 0. -1.
</event>
<event>
 5    1  0.9123258E-009  0.3819950E+03  0.7957747E-01  0.3442518E+00
         13   -1    0    0    0    0  0.00000000000E+00  0.00000000000E+00  0.14999999963E+04  0.15000000000E+04  0.10566000000E+00 0.  1.
        994   -1    0    0    0    0 -0.00000000000E+00 -0.00000000000E+00  0.11368683772E-12  0.17120000000E+03  0.17120000000E+03 0.  0.
         13    1    1    2    0    0  0.13660280239E+01  0.14634818575E+02  0.32483846860E+02  0.35654668953E+02  0.10566000000E+00 0.  1.
        994    1    1    2    0    0 -0.38912835778E+01 -0.17467210216E+02  0.41937416272E+01  0.17218383487E+03  0.17120000000E+03 0.  0.
        998    1    1    2    0    0  0.25252555539E+01  0.28323916404E+01  0.14633224078E+04  0.14633614962E+04  0.10000000000E+02 0.  1.
</event>
<event>
 5    1  0.9123258E-009  0.3815119E+03  0.7957747E-01  0.3444602E+00
         13   -1    0    0    0    0  0.00000000000E+00  0.00000000000E+00  0.14999999963E+04  0.15000000000E+04  0.10566000000E+00 0. -1.
        994   -1    0    0    0    0 -0.00000000000E+00 -0.00000000000E+00  0.11368683772E-12  0.17120000000E+03  0.17120000000E+03 0.  0.
         13    1    1    2    0    0  0.26232863744E+01  0.12821090928E+02  0.24326794998E+02  0.27623651513E+02  0.10566000000E+00 0. -1.
        994    1    1    2    0    0 -0.35032061729E+01 -0.50521913590E+01  0.34976317957E+01  0.17134605487E+03  0.17120000000E+03 0.  0.
        998    1    1    2    0    0  0.87991979852E+00 -0.77688995687E+01  0.14721755695E+04  0.14722302936E+04  0.10000000000E+02 0. -1.
</event>
<event>
 5    1  0.9123258E-009  0.3826387E+03  0.7957747E-01  0.3439749E+00
         13   -1    0    0    0    0  0.00000000000E+00  0.00000000000E+00  0.14999999963E+04  0.15000000000E+04  0.10566000000E+00 0.  1.
        994   -1    0    0    0    0 -0.00000000000E+00 -0.00000000000E+00  0.11368683772E-12  0.17120000000E+03  0.17120000000E+03 0.  0.
         13    1    1    2    0    0  0.89545021332E+01 -0.13377371279E+02  0.46151218029E+02  0.48878249358E+02  0.10566000000E+00 0.  1.
        994    1    1    2    0    0 -0.66168057068E+01  0.28404979743E+01  0.29788901759E+01  0.17137725734E+03  0.17120000000E+03 0.  0.
        998    1    1    2    0    0 -0.23376964264E+01  0.10536873304E+02  0.14508698881E+04  0.14509444933E+04  0.10000000000E+02 0.  1.
</event>
<event>
 5    1  0.9123258E-009  0.3857075E+03  0.7957747E-01  0.3426677E+00
         13   -1    0    0    0    0  0.00000000000E+00  0.00000000000E+00  0.14999999963E+04  0.15000000000E+04  0.10566000000E+00 0. -1.
        994   -1    0    0    0    0 -0.00000000000E+00 -0.00000000000E+00  0.11368683772E-12  0.17120000000E+03  0.17120000000E+03 0.  0.
         13    1    1    2    0    0  0.94213205386E+01  0.34248714335E+01  0.40248828789E+02  0.41478553590E+02  0.10566000000E+00 0. -1.
        994    1    1    2    0    0 -0.39583173379E+00 -0.93579712875E+01  0.15671973789E+01  0.17146318677E+03  0.17120000000E+03 0.  0.
        998    1    1    2    0    0 -0.90254888048E+01  0.59330998541E+01  0.14581839701E+04  0.14582582596E+04  0.10000000000E+02 0. -1.
</event>
<event>
 5    1  0.9123258E-009  0.3839278E+03  0.7957747E-01  0.3434232E+00
         13   -1    0    0    0    0  0.00000000000E+00  0.00000000000E+00  0.14999999963E+04  0.15000000000E+04  0.10566000000E+00 0. -1.
        994   -1    0    0    0    0 -0.00000000000E+00 -0.00000000000E+00  0.11368683772E-12  0.17120000000E+03  0.17120000000E+03 0.  0.
         13    1    1    2    0    0 -0.89012502051E+01 -0.89016245710E+01  0.37482650471E+02  0.39540250702E+02  0.10566000000E+00 0. -1.
        994    1    1    2    0    0  0.86334061681E+01 -0.91113656957E+01  0.26834953597E+01  0.17168049928E+03  0.17120000000E+03 0.  0.
        998    1    1    2    0    0  0.26784403700E+00  0.18012990267E+02  0.14598338504E+04  0.14599792500E+04  0.10000000000E+02 0. -1.
</event>
<event>
 5    1  0.9123258E-009  0.3841587E+03  0.7957747E-01  0.3433248E+00
         13   -1    0    0    0    0  0.00000000000E+00  0.00000000000E+00  0.14999999963E+04  0.15000000000E+04  0.10566000000E+00 0. -1.
        994   -1    0    0    0    0 -0.00000000000E+00 -0.00000000000E+00  0.11368683772E-12  0.17120000000E+03  0.17120000000E+03 0.  0.
         13    1    1    2    0    0 -0.98398650058E+01 -0.11596425383E+02  0.63125632872E+02  0.64931939094E+02  0.10566000000E+00 0. -1.
        994    1    1    2    0    0 -0.69043310854E+01 -0.81399845862E+01  0.24241791939E+01  0.17154954323E+03  0.17120000000E+03 0.  0.
        998    1    1    2    0    0  0.16744196091E+02  0.19736409969E+02  0.14344501842E+04  0.14347185177E+04  0.10000000000E+02 0. -1.
</event>
<event>
 5    1  0.9123258E-009  0.3742602E+03  0.7957747E-01  0.3476538E+00
         13   -1    0    0    0    0  0.00000000000E+00  0.00000000000E+00  0.14999999963E+04  0.15000000000E+04  0.10566000000E+00 0.  1.
        994   -1    0    0    0    0 -0.00000000000E+00 -0.00000000000E+00  0.11368683772E-12  0.17120000000E+03  0.17120000000E+03 0.  0.
         13    1    1    2    0    0  0.34314396131E+01  0.37378764495E+02  0.10661702575E+03  0.11303162459E+03  0.10566000000E+00 0.  1.
        994    1    1    2    0    0 -0.17049616159E+02 -0.24394704509E+00  0.80505079752E+01  0.17223530300E+03  0.17120000000E+03 0.  0.
        998    1    1    2    0    0  0.13618176546E+02 -0.37134817450E+02  0.13853324626E+04  0.13859330724E+04  0.10000000000E+02 0.  1.
</event>
<event>
 5    1  0.9123258E-009  0.3843182E+03  0.7957747E-01  0.3432569E+00
         13   -1    0    0    0    0  0.00000000000E+00  0.00000000000E+00  0.14999999963E+04  0.15000000000E+04  0.10566000000E+00 0.  1.
        994   -1    0    0    0    0 -0.00000000000E+00 -0.00000000000E+00  0.11368683772E-12  0.17120000000E+03  0.17120000000E+03 0.  0.
         13    1    1    2    0    0 -0.73087193157E+01 -0.13205353057E+02  0.58691413824E+02  0.60601088671E+02  0.10566000000E+00 0.  1.
        994    1    1    2    0    0  0.63366368972E+01  0.37296008012E+01  0.21472091061E+01  0.17137127354E+03  0.17120000000E+03 0.  0.
        998    1    1    2    0    0  0.97208241848E+00  0.94757522557E+01  0.14391613733E+04  0.14392276378E+04  0.10000000000E+02 0.  1.
</event>
<event>
 5    1  0.9123258E-009  0.3756489E+03  0.7957747E-01  0.3470326E+00
         13   -1    0    0    0    0  0.00000000000E+00  0.00000000000E+00  0.14999999963E+04  0.15000000000E+04  0.10566000000E+00 0. -1.
        994   -1    0    0    0    0 -0.00000000000E+00 -0.00000000000E+00  0.11368683772E-12  0.17120000000E+03  0.17120000000E+03 0.  0.
         13    1    1    2    0    0 -0.95304332234E+01 -0.15063099107E+02  0.22395911761E+02  0.28623663982E+02  0.10566000000E+00 0. -1.
        994    1    1    2    0    0  0.13283496631E+02  0.52525432686E+01  0.70382544967E+01  0.17193899360E+03  0.17120000000E+03 0.  0.
        998    1    1    2    0    0 -0.37530634080E+01  0.98105558381E+01  0.14705658300E+04  0.14706373424E+04  0.10000000000E+02 0. -1.
</event>
<event>
 5    1  0.9123258E-009  0.3813289E+03  0.7957747E-01  0.3445392E+00
         13   -1    0    0    0    0  0.00000000000E+00  0.00000000000E+00  0.14999999963E+04  0.15000000000E+04  0.10566000000E+00 0. -1.
        994   -1    0    0    0    0 -0.00000000000E+00 -0.00000000000E+00  0.11368683772E-12  0.17120000000E+03  0.17120000000E+03 0.  0.
         13    1    1    2    0    0 -0.14041125720E+02  0.49598101117E+01  0.29977397285E+02  0.33472502743E+02  0.10566000000E+00 0. -1.
        994    1    1    2    0    0  0.15610792202E+02 -0.78374946656E+01  0.44800121157E+01  0.17214712796E+03  0.17120000000E+03 0.  0.
        998    1    1    2    0    0 -0.15696664816E+01  0.28776845539E+01  0.14655425869E+04  0.14655803693E+04  0.10000000000E+02 0. -1.
</event>
<event>
 5    1  0.9123258E-009  0.3702806E+03  0.7957747E-01  0.3494602E+00
         13   -1    0    0    0    0  0.00000000000E+00  0.00000000000E+00  0.14999999963E+04  0.15000000000E+04  0.10566000000E+00 0. -1.
        994   -1    0    0    0    0 -0.00000000000E+00 -0.00000000000E+00  0.11368683772E-12  0.17120000000E+03  0.17120000000E+03 0.  0.
         13    1    1    2    0    0  0.11049352407E+03  0.75698308806E+02  0.50352188800E+03  0.52103105059E+03  0.10566000000E+00 0. -1.
        994    1    1    2    0    0 -0.11154371601E+03 -0.75910709461E+02  0.77813639339E+02  0.23144943046E+03  0.17120000000E+03 0.  0.
        998    1    1    2    0    0  0.10501919338E+01  0.21240065464E+00  0.91866446894E+03  0.91871951895E+03  0.10000000000E+02 0.  0.
</event>
<event>
 5    1  0.9123258E-009  0.3833369E+03  0.7957747E-01  0.3436756E+00
         13   -1    0    0    0    0  0.00000000000E+00  0.00000000000E+00  0.14999999963E+04  0.15000000000E+04  0.10566000000E+00 0.  1.
        994   -1    0    0    0    0 -0.00000000000E+00 -0.00000000000E+00  0.11368683772E-12  0.17120000000E+03  0.17120000000E+03 0.  0.
         13    1    1    2    0    0  0.13500878042E+02  0.97175788310E+01  0.56663637610E+02  0.59054923906E+02  0.10566000000E+00 0.  1.
        994    1    1    2    0    0 -0.69991387441E+01 -0.24393484129E+01  0.26397484102E+01  0.17138070672E+03  0.17120000000E+03 0.  0.
        998    1    1    2    0    0 -0.65017392982E+01 -0.72782304181E+01  0.14406966103E+04  0.14407643694E+04  0.10000000000E+02 0.  1.
</event>
<event>
 5    1  0.9123258E-009  0.3747087E+03  0.7957747E-01  0.3474527E+00
         13   -1    0    0    0    0  0.00000000000E+00  0.00000000000E+00  0.14999999963E+04  0.15000000000E+04  0.10566000000E+00 0. -1.
        994   -1    0    0    0    0 -0.00000000000E+00 -0.00000000000E+00  0.11368683772E-12  0.17120000000E+03  0.17120000000E+03 0.  0.
         13    1    1    2    0    0 -0.12271037445E+02  0.87773262281E+01  0.13714644094E+02  0.20389272728E+02  0.10566000000E+00 0. -1.
        994    1    1    2    0    0  0.68522890283E+01 -0.59578682714E+01  0.71089989990E+01  0.17158795974E+03  0.17120000000E+03 0.  0.
        998    1    1    2    0    0  0.54187484170E+01 -0.28194579567E+01  0.14791763532E+04  0.14792227675E+04  0.10000000000E+02 0. -1.
</event>
<event>
 5    1  0.9123258E-009  0.2641907E+03  0.7957747E-01  0.4190274E+00
         13   -1    0    0    0    0  0.00000000000E+00  0.00000000000E+00  0.14999999963E+04  0.15000000000E+04  0.10566000000E+00 0. -1.
        994   -1    0    0    0    0 -0.00000000000E+00 -0.00000000000E+00  0.11368683772E-12  0.17120000000E+03  0.17120000000E+03 0.  0.
         13    1    1    2    0    0  0.17418434418E+03  0.42994000172E+02  0.38922643802E+03  0.42858593191E+03  0.10566000000E+00 0. -1.
        994    1    1    2    0    0 -0.16162684637E+03 -0.65305813723E+02  0.16136437209E+03  0.29280708214E+03  0.17120000000E+03 0.  0.
        998    1    1    2    0    0 -0.12557497812E+02  0.22311813551E+02  0.94940918617E+03  0.94980698595E+03  0.10000000000E+02 0. -1.
</event>
<event>
 5    1  0.9123258E-009  0.3702822E+03  0.7957747E-01  0.3494595E+00
         13   -1    0    0    0    0  0.00000000000E+00  0.00000000000E+00  0.14999999963E+04  0.15000000000E+04  0.10566000000E+00 0.  1.
        994   -1    0    0    0    0 -0.00000000000E+00 -0.00000000000E+00  0.11368683772E-12  0.17120000000E+03  0.17120000000E+03 0.  0.
         13    1    1    2    0    0  0.85639866891E+01  0.60628086638E+01  0.16954195104E+01  0.10629446282E+02  0.10566000000E+00 0.  1.
        994    1    1    2    0    0 -0.14150242716E+02 -0.95884743387E+01  0.10131507488E+02  0.17234922586E+03  0.17120000000E+03 0.  0.
        998    1    1    2    0    0  0.55862560264E+01  0.35256656749E+01  0.14881730693E+04  0.14882213279E+04  0.10000000000E+02 0.  1.
</event>
<event>
 5    1  0.9123258E-009  0.3843423E+03  0.7957747E-01  0.3432466E+00
         13   -1    0    0    0    0  0.00000000000E+00  0.00000000000E+00  0.14999999963E+04  0.15000000000E+04  0.10566000000E+00 0. -1.
        994   -1    0    0    0    0 -0.00000000000E+00 -0.00000000000E+00  0.11368683772E-12  0.17120000000E+03  0.17120000000E+03 0.  0.
         13    1    1    2    0    0 -0.17867452585E+02  0.12096920832E+02  0.99397709253E+02  0.10171281691E+03  0.10566000000E+00 0. -1.
        994    1    1    2    0    0  0.35610442501E+02 -0.16910077462E+02  0.70955699670E+01  0.17582332453E+03  0.17120000000E+03 0.  0.
        998    1    1    2    0    0 -0.17742989916E+02  0.48131566294E+01  0.13935067171E+04  0.13936638586E+04  0.10000000000E+02 0. -1.
</event>
<event>
 5    1  0.9123258E-009  0.3851490E+03  0.7957747E-01  0.3429041E+00
         13   -1    0    0    0    0  0.00000000000E+00  0.00000000000E+00  0.14999999963E+04  0.15000000000E+04  0.10566000000E+00 0. -1.
        994   -1    0    0    0    0 -0.00000000000E+00 -0.00000000000E+00  0.11368683772E-12  0.17120000000E+03  0.17120000000E+03 0.  0.
         13    1    1    2    0    0  0.18629290258E+02 -0.36410326431E+01  0.10979020928E+03  0.11141906835E+03  0.10566000000E+00 0. -1.
        994    1    1    2    0    0 -0.20460663001E+02 -0.69374132617E+01  0.30919794510E+01  0.17258553465E+03  0.17120000000E+03 0.  0.
        998    1    1    2    0    0  0.18313727432E+01  0.10578445905E+02  0.13871178076E+04  0.13871953970E+04  0.10000000000E+02 0. -1.
</event>
<event>
 5    1  0.9123258E-009  0.3721864E+03  0.7957747E-01  0.3485902E+00
         13   -1    0    0    0    0  0.00000000000E+00  0.00000000000E+00  0.14999999963E+04  0.15000000000E+04  0.10566000000E+00 0. -1.
        994   -1    0    0    0    0 -0.00000000000E+00 -0.00000000000E+00  0.11368683772E-12  0.17120000000E+03  0.17120000000E+03 0.  0.
         13    1    1    2    0    0  0.12272923488E+02 -0.10739669831E+02  0.12640086322E+02  0.20633664369E+02  0.10566000000E+00 0. -1.
        994    1    1    2    0    0 -0.13313949815E+02  0.90254288258E+01  0.90190670152E+01  0.17219031098E+03  0.17120000000E+03 0.  0.
        998    1    1    2    0    0  0.10410263263E+01  0.17142410049E+01  0.14783408429E+04  0.14783760247E+04  0.10000000000E+02 0. -1.
</event>
<event>
 5    1  0.9123258E-009  0.3847134E+03  0.7957747E-01  0.3430889E+00
         13   -1    0    0    0    0  0.00000000000E+00  0.00000000000E+00  0.14999999963E+04  0.15000000000E+04  0.10566000000E+00 0.  1.
        994   -1    0    0    0    0 -0.00000000000E+00 -0.00000000000E+00  0.11368683772E-12  0.17120000000E+03  0.17120000000E+03 0.  0.
         13    1    1    2    0    0  0.16958996139E+02  0.41998765117E+01  0.85204949833E+02  0.86977819890E+02  0.10566000000E+00 0.  1.
        994    1    1    2    0    0 -0.38394461404E+01 -0.50202607232E+02  0.10162127220E+02  0.17873934080E+03  0.17120000000E+03 0.  0.
        998    1    1    2    0    0 -0.13119549999E+02  0.46002730721E+02  0.14046329192E+04  0.14054828393E+04  0.10000000000E+02 0.  1.
</event>
<event>
 5    1  0.9123258E-009  0.3701859E+03  0.7957747E-01  0.3495037E+00
         13   -1    0    0    0    0  0.00000000000E+00  0.00000000000E+00  0.14999999963E+04  0.15000000000E+04  0.10566000000E+00 0. -1.
        994   -1    0    0    0    0 -0.00000000000E+00 -0.00000000000E+00  0.11368683772E-12  0.17120000000E+03  0.17120000000E+03 0.  0.
         13    1    1    2    0    0 -0.50357974769E+02 -0.14679503265E+02  0.17724849249E+03  0.18484710626E+03  0.10566000000E+00 0. -1.
        994    1    1    2    0    0 -0.95810606696E+01  0.11721821478E+02  0.99643040989E+01  0.17215668787E+03  0.17120000000E+03 0.  0.
        998    1    1    2    0    0  0.59939035439E+02  0.29576817872E+01  0.13127871997E+04  0.13141962059E+04  0.10000000000E+02 0. -1.
</event>
<event>
 5    1  0.9123258E-009  0.3850961E+03  0.7957747E-01  0.3429265E+00
         13   -1    0    0    0    0  0.00000000000E+00  0.00000000000E+00  0.14999999963E+04  0.15000000000E+04  0.10566000000E+00 0. -1.
        994   -1    0    0    0    0 -0.00000000000E+00 -0.00000000000E+00  0.11368683772E-12  0.17120000000E+03  0.17120000000E+03 0.  0.
         13    1    1    2    0    0 -0.32862194907E+01 -0.15361341308E+02  0.86680210606E+02  0.88092225083E+02  0.10566000000E+00 0. -1.
        994    1    1    2    0    0  0.38778057322E+01 -0.44769859630E+01  0.16977818565E+01  0.17131083808E+03  0.17120000000E+03 0.  0.
        998    1    1    2    0    0 -0.59158624147E+00  0.19838327271E+02  0.14116220038E+04  0.14117969368E+04  0.10000000000E+02 0. -1.
</event>
<event>
 5    1  0.9123258E-009  0.3846998E+03  0.7957747E-01  0.3430946E+00
         13   -1    0    0    0    0  0.00000000000E+00  0.00000000000E+00  0.14999999963E+04  0.15000000000E+04  0.10566000000E+00 0. -1.
        994   -1    0    0    0    0 -0.00000000000E+00 -0.00000000000E+00  0.11368683772E-12  0.17120000000E+03  0.17120000000E+03 0.  0.
         13    1    1    2    0    0 -0.52231947239E+01  0.21362568143E+02  0.10369364266E+03  0.10600011213E+03  0.10566000000E+00 0. -1.
        994    1    1    2    0    0  0.35561025453E+02 -0.44256478441E+02  0.12462575642E+02  0.18079816981E+03  0.17120000000E+03 0.  0.
        998    1    1    2    0    0 -0.30337830729E+02  0.22893910299E+02  0.13838437780E+04  0.13844017181E+04  0.10000000000E+02 0. -1.
</event>
<event>
 5    1  0.9123258E-009  0.3757248E+03  0.7957747E-01  0.3469988E+00
         13   -1    0    0    0    0  0.00000000000E+00  0.00000000000E+00  0.14999999963E+04  0.15000000000E+04  0.10566000000E+00 0. -1.
        994   -1    0    0    0    0 -0.00000000000E+00 -0.00000000000E+00  0.11368683772E-12  0.17120000000E+03  0.17120000000E+03 0.  0.
         13    1    1    2    0    0 -0.54727793032E+01 -0.55827348405E+02  0.28550437666E+03  0.29096289179E+03  0.10566000000E+00 0. -1.
        994    1    1    2    0    0 -0.51803846898E+01  0.14063236149E+02  0.70690068772E+01  0.17200006353E+03  0.17120000000E+03 0.  0.
        998    1    1    2    0    0  0.10653163993E+02  0.41764112256E+02  0.12074266127E+04  0.12082370447E+04  0.10000000000E+02 0. -1.
</event>
<event>
 5    1  0.9123258E-009  0.3811636E+03  0.7957747E-01  0.3446107E+00
         13   -1    0    0    0    0  0.00000000000E+00  0.00000000000E+00  0.14999999963E+04  0.15000000000E+04  0.10566000000E+00 0. -1.
        994   -1    0    0    0    0 -0.00000000000E+00 -0.00000000000E+00  0.11368683772E-12  0.17120000000E+03  0.17120000000E+03 0.  0.
         13    1    1    2    0    0  0.12449415158E+02 -0.24845171924E+02  0.12738807791E+03  0.13038406368E+03  0.10566000000E+00 0. -1.
        994    1    1    2    0    0  0.75390944019E+01 -0.68631268363E+01  0.38931169510E+01  0.17154747685E+03  0.17120000000E+03 0.  0.
        998    1    1    2    0    0 -0.19988509560E+02  0.31708298760E+02  0.13687188014E+04  0.13692684595E+04  0.10000000000E+02 0. -1.
</event>
<event>
 5    1  0.9123258E-009  0.3730365E+03  0.7957747E-01  0.3482051E+00
         13   -1    0    0    0    0  0.00000000000E+00  0.00000000000E+00  0.14999999963E+04  0.15000000000E+04  0.10566000000E+00 0. -1.
        994   -1    0    0    0    0 -0.00000000000E+00 -0.00000000000E+00  0.11368683772E-12  0.17120000000E+03  0.17120000000E+03 0.  0.
         13    1    1    2    0    0  0.15430694447E+02 -0.21593685060E+02  0.44477187873E+02  0.51794063083E+02  0.10566000000E+00 0. -1.
        994    1    1    2    0    0 -0.67607102584E+01  0.30144908483E+00  0.78472526441E+01  0.17151331566E+03  0.17120000000E+03 0.  0.
        998    1    1    2    0    0 -0.86699841883E+01  0.21292235975E+02  0.14476755558E+04  0.14478926213E+04  0.10000000000E+02 0. -1.
</event>
<event>
 5    1  0.9123258E-009  0.3755096E+03  0.7957747E-01  0.3470947E+00
         13   -1    0    0    0    0  0.00000000000E+00  0.00000000000E+00  0.14999999963E+04  0.15000000000E+04  0.10566000000E+00 0.  1.
        994   -1    0    0    0    0 -0.00000000000E+00 -0.00000000000E+00  0.11368683772E-12  0.17120000000E+03  0.17120000000E+03 0.  0.
         13    1    1    2    0    0 -0.37242151572E+01 -0.36029787191E+02  0.11097555688E+03  0.11673731508E+03  0.10566000000E+00 0.  1.
        994    1    1    2    0    0 -0.36773259353E+01 -0.56255194899E+00  0.64642535650E+01  0.17136238142E+03  0.17120000000E+03 0.  0.
        998    1    1    2    0    0  0.74015410925E+01  0.36592339140E+02  0.13825601858E+04  0.13831003035E+04  0.10000000000E+02 0.  1.
</event>
<event>
 5    1  0.9123258E-009  0.3860727E+03  0.7957747E-01  0.3425135E+00
         13   -1    0    0    0    0  0.00000000000E+00  0.00000000000E+00  0.14999999963E+04  0.15000000000E+04  0.10566000000E+00 0. -1.
        994   -1    0    0    0    0 -0.00000000000E+00 -0.00000000000E+00  0.11368683772E-12  0.17120000000E+03  0.17120000000E+03 0.  0.
         13    1    1    2    0    0 -0.14029306576E+02  0.15101515205E+02  0.11573546233E+03  0.11755673358E+03  0.10566000000E+00 0. -1.
        994    1    1    2    0    0  0.40378725223E+02 -0.57418046716E+02  0.17416025605E+02  0.18584948611E+03  0.17120000000E+03 0.  0.
        998    1    1    2    0    0 -0.26349418647E+02  0.42316531510E+02  0.13668485083E+04  0.13677937803E+04  0.10000000000E+02 0. -1.
</event>
<event>
 5    1  0.9123258E-009  0.3891255E+03  0.7957747E-01  0.3412362E+00
         13   -1    0    0    0    0  0.00000000000E+00  0.00000000000E+00  0.14999999963E+04  0.15000000000E+04  0.10566000000E+00 0.  1.
        994   -1    0    0    0    0 -0.00000000000E+00 -0.00000000000E+00  0.11368683772E-12  0.17120000000E+03  0.17120000000E+03 0.  0.
         13    1    1    2    0    0  0.21433440842E+02  0.95605311200E+02  0.34708823021E+03  0.36065221285E+03  0.10566000000E+00 0.  1.
        994    1    1    2    0    0  0.55772096077E+01  0.24963382018E+02  0.23889833251E+02  0.17474106513E+03  0.17120000000E+03 0.  0.
        998    1    1    2    0    0 -0.27010650450E+02 -0.12056869322E+03  0.11290219328E+04  0.11358067220E+04  0.10000000000E+02 0.  1.
</event>
<event>
 5    1  0.9123258E-009  0.3793429E+03  0.7957747E-01  0.3454025E+00
         13   -1    0    0    0    0  0.00000000000E+00  0.00000000000E+00  0.14999999963E+04  0.15000000000E+04  0.10566000000E+00 0.  1.
        994   -1    0    0    0    0 -0.00000000000E+00 -0.00000000000E+00  0.11368683772E-12  0.17120000000E+03  0.17120000000E+03 0.  0.
         13    1    1    2    0    0  0.10109130207E+02 -0.11831952364E+02  0.25495449194E+02  0.29870030196E+02  0.10566000000E+00 0.  1.
        994    1    1    2    0    0  0.57818752492E+01  0.15272922048E+02  0.53591864098E+01  0.17206060882E+03  0.17120000000E+03 0.  0.
        998    1    1    2    0    0 -0.15891005457E+02 -0.34409696841E+01  0.14691453607E+04  0.14692693610E+04  0.10000000000E+02 0.  1.
</event>
<event>
 5    1  0.9123258E-009  0.3753824E+03  0.7957747E-01  0.3471514E+00
         13   -1    0    0    0    0  0.00000000000E+00  0.00000000000E+00  0.14999999963E+04  0.15000000000E+04  0.10566000000E+00 0. -1.
        994   -1    0    0    0    0 -0.00000000000E+00 -0.00000000000E+00  0.11368683772E-12  0.17120000000E+03  0.17120000000E+03 0.  0.
         13    1    1    2    0    0 -0.32865150393E+01  0.34175626594E+02  0.93811760792E+02  0.99897108372E+02  0.10566000000E+00 0. -1.
        994    1    1    2    0    0 -0.22247568768E+02 -0.98508143190E+01  0.84947777280E+01  0.17312883673E+03  0.17120000000E+03 0.  0.
        998    1    1    2    0    0  0.25534083808E+02 -0.24324812275E+02  0.13976934578E+04  0.13981740549E+04  0.10000000000E+02 0. -1.
</event>
<event>
 5    1  0.9123258E-009  0.3816463E+03  0.7957747E-01  0.3444021E+00
         13   -1    0    0    0    0  0.00000000000E+00  0.00000000000E+00  0.14999999963E+04  0.15000000000E+04  0.10566000000E+00 0. -1.
        994   -1    0    0    0    0 -0.00000000000E+00 -0.00000000000E+00  0.11368683772E-12  0.17120000000E+03  0.17120000000E+03 0.  0.
         13    1    1    2    0    0  0.26963496486E+02 -0.83605824070E+01  0.11278891885E+03  0.11626814207E+03  0.10566000000E+00 0. -1.
        994    1    1    2    0    0 -0.27426260308E+02  0.19365731260E+01  0.58218819407E+01  0.17349145333E+03  0.17120000000E+03 0.  0.
        998    1    1    2    0    0  0.46276382187E+00  0.64240092810E+01  0.13813891955E+04  0.13814404046E+04  0.10000000000E+02 0. -1.
</event>
<event>
 5    1  0.9123258E-009  0.3835897E+03  0.7957747E-01  0.3435675E+00
         13   -1    0    0    0    0  0.00000000000E+00  0.00000000000E+00  0.14999999963E+04  0.15000000000E+04  0.10566000000E+00 0. -1.
        994   -1    0    0    0    0 -0.00000000000E+00 -0.00000000000E+00  0.11368683772E-12  0.17120000000E+03  0.17120000000E+03 0.  0.
         13    1    1    2    0    0 -0.10899644054E+02  0.18973113833E+02  0.12056350520E+03  0.12253306182E+03  0.10566000000E+00 0. -1.
        994    1    1    2    0    0  0.66880061344E+01  0.13332458315E+02  0.30673121668E+01  0.17187592116E+03  0.17120000000E+03 0.  0.
        998    1    1    2    0    0  0.42116379193E+01 -0.32305572148E+02  0.13763691789E+04  0.13767910170E+04  0.10000000000E+02 0. -1.
</event>
<event>
 5    1  0.9123258E-009  0.3717767E+03  0.7957747E-01  0.3487765E+00
         13   -1    0    0    0    0  0.00000000000E+00  0.00000000000E+00  0.14999999963E+04  0.15000000000E+04  0.10566000000E+00 0.  1.
        994   -1    0    0    0    0 -0.00000000000E+00 -0.00000000000E+00  0.11368683772E-12  0.17120000000E+03  0.17120000000E+03 0.  0.
         13    1    1    2    0    0 -0.74959377718E+02  0.13479040680E+03  0.58401619138E+03  0.60403831421E+03  0.10566000000E+00 0.  1.
        994    1    1    2    0    0  0.74921216037E+02 -0.13018772086E+03  0.96089653530E+02  0.24719363421E+03  0.17120000000E+03 0.  0.
        998    1    1    2    0    0  0.38161681527E-01 -0.46026859355E+01  0.81989415137E+03  0.81996805158E+03  0.10000000000E+02 0.  1.
</event>
<event>
 5    1  0.9123258E-009  0.3799378E+03  0.7957747E-01  0.3451429E+00
         13   -1    0    0    0    0  0.00000000000E+00  0.00000000000E+00  0.14999999963E+04  0.15000000000E+04  0.10566000000E+00 0. -1.
        994   -1    0    0    0    0 -0.00000000000E+00 -0.00000000000E+00  0.11368683772E-12  0.17120000000E+03  0.17120000000E+03 0.  0.
         13    1    1    2    0    0 -0.20544300579E+02 -0.34116418149E+01  0.51112501326E+02  0.55192450045E+02  0.10566000000E+00 0. -1.
        994    1    1    2    0    0  0.64210343143E+01  0.26304295626E+02  0.66197549780E+01  0.17345433637E+03  0.17120000000E+03 0.  0.
        998    1    1    2    0    0  0.14123266265E+02 -0.22892653811E+02  0.14422677400E+04  0.14425532136E+04  0.10000000000E+02 0. -1.
</event>
<event>
 5    1  0.9123258E-009  0.3794818E+03  0.7957747E-01  0.3453418E+00
         13   -1    0    0    0    0  0.00000000000E+00  0.00000000000E+00  0.14999999963E+04  0.15000000000E+04  0.10566000000E+00 0. -1.
        994   -1    0    0    0    0 -0.00000000000E+00 -0.00000000000E+00  0.11368683772E-12  0.17120000000E+03  0.17120000000E+03 0.  0.
         13    1    1    2    0    0  0.27289096088E+02 -0.18703854782E+02  0.13853281777E+03  0.14242851439E+03  0.10566000000E+00 0. -1.
        994    1    1    2    0    0 -0.16269811058E+02 -0.22468234343E+02  0.69761331922E+01  0.17357313946E+03  0.17120000000E+03 0.  0.
        998    1    1    2    0    0 -0.11019285029E+02  0.41172089126E+02  0.13544910453E+04  0.13551983462E+04  0.10000000000E+02 0. -1.
</event>
<event>
 5    1  0.9123258E-009  0.3826013E+03  0.7957747E-01  0.3439909E+00
         13   -1    0    0    0    0  0.00000000000E+00  0.00000000000E+00  0.14999999963E+04  0.15000000000E+04  0.10566000000E+00 0.  1.
        994   -1    0    0    0    0 -0.00000000000E+00 -0.00000000000E+00  0.11368683772E-12  0.17120000000E+03  0.17120000000E+03 0.  0.
         13    1    1    2    0    0 -0.10336616448E+02  0.30020043339E+02  0.17804955349E+03  0.18085824090E+03  0.10566000000E+00 0.  1.
        994    1    1    2    0    0  0.57193550761E+01 -0.17340281188E+02  0.39315277377E+01  0.17221583343E+03  0.17120000000E+03 0.  0.
        998    1    1    2    0    0  0.46172613721E+01 -0.12679762151E+02  0.13180189151E+04  0.13181259257E+04  0.10000000000E+02 0.  1.
</event>
<event>
 5    1  0.9123258E-009  0.3713358E+03  0.7957747E-01  0.3489774E+00
         13   -1    0    0    0    0  0.00000000000E+00  0.00000000000E+00  0.14999999963E+04  0.15000000000E+04  0.10566000000E+00 0. -1.
        994   -1    0    0    0    0 -0.00000000000E+00 -0.00000000000E+00  0.11368683772E-12  0.17120000000E+03  0.17120000000E+03 0.  0.
         13    1    1    2    0    0  0.25499694053E+03 -0.10878508258E+02  0.11497150422E+04  0.11777038979E+04  0.10566000000E+00 0. -1.
        994    1    1    2    0    0 -0.23462015517E+03 -0.62681681148E+01  0.23182792779E+03  0.37167127310E+03  0.17120000000E+03 0.  0.
        998    1    1    2    0    0 -0.20376785362E+02  0.17146676372E+02  0.11845702628E+03  0.12182482903E+03  0.10000000000E+02 0.  1.
</event>
<event>
 5    1  0.9123258E-009  0.3218820E+03  0.7957747E-01  0.3751210E+00
         13   -1    0    0    0    0  0.00000000000E+00  0.00000000000E+00  0.14999999963E+04  0.15000000000E+04  0.10566000000E+00 0.  1.
        994   -1    0    0    0    0 -0.00000000000E+00 -0.00000000000E+00  0.11368683772E-12  0.17120000000E+03  0.17120000000E+03 0.  0.
         13    1    1    2    0    0  0.17601669624E+03 -0.18716834835E+03  0.10789144680E+04  0.11090853476E+04  0.10566000000E+00 0.  1.
        994    1    1    2    0    0 -0.12090084179E+03  0.71373835841E+02  0.16700588806E+03  0.27732948749E+03  0.17120000000E+03 0.  0.
        998    1    1    2    0    0 -0.55115854444E+02  0.11579451251E+03  0.25407964024E+03  0.28478516486E+03  0.10000000000E+02 0. -1.
</event>
<event>
 5    1  0.9123258E-009  0.3840167E+03  0.7957747E-01  0.3433853E+00
         13   -1    0    0    0    0  0.00000000000E+00  0.00000000000E+00  0.14999999963E+04  0.15000000000E+04  0.10566000000E+00 0. -1.
        994   -1    0    0    0    0 -0.00000000000E+00 -0.00000000000E+00  0.11368683772E-12  0.17120000000E+03  0.17120000000E+03 0.  0.
         13    1    1    2    0    0 -0.11659694773E+02  0.11634771517E+02  0.61029951659E+02  0.63213784525E+02  0.10566000000E+00 0. -1.
        994    1    1    2    0    0  0.14144371432E+02 -0.11807861421E+02  0.32399367035E+01  0.17221912212E+03  0.17120000000E+03 0.  0.
        998    1    1    2    0    0 -0.24846766582E+01  0.17308990390E+00  0.14357301079E+04  0.14357670934E+04  0.10000000000E+02 0. -1.
</event>
<event>
 5    1  0.9123258E-009  0.3744989E+03  0.7957747E-01  0.3475467E+00
         13   -1    0    0    0    0  0.00000000000E+00  0.00000000000E+00  0.14999999963E+04  0.15000000000E+04  0.10566000000E+00 0. -1.
        994   -1    0    0    0    0 -0.00000000000E+00 -0.00000000000E+00  0.11368683772E-12  0.17120000000E+03  0.17120000000E+03 0.  0.
         13    1    1    2    0    0  0.79475044659E+00 -0.21463788036E+02  0.30371664848E+02  0.37199126532E+02  0.10566000000E+00 0. -1.
        994    1    1    2    0    0 -0.26483576205E+00  0.15112393706E+02  0.77145257625E+01  0.17203897375E+03  0.17120000000E+03 0.  0.
        998    1    1    2    0    0 -0.52991468455E+00  0.63513943302E+01  0.14619138057E+04  0.14619618997E+04  0.10000000000E+02 0. -1.
</event>
<event>
 5    1  0.9123258E-009  0.3854508E+03  0.7957747E-01  0.3427763E+00
         13   -1    0    0    0    0  0.00000000000E+00  0.00000000000E+00  0.14999999963E+04  0.15000000000E+04  0.10566000000E+00 0. -1.
        994   -1    0    0    0    0 -0.00000000000E+00 -0.00000000000E+00  0.11368683772E-12  0.17120000000E+03  0.17120000000E+03 0.  0.
         13    1    1    2    0    0  0.48265803014E+01  0.16697428812E+02  0.10242054292E+03  0.10388493049E+03  0.10566000000E+00 0. -1.
        994    1    1    2    0    0 -0.95739450447E+01 -0.15178290466E+02  0.24647421513E+01  0.17215561530E+03  0.17120000000E+03 0.  0.
        998    1    1    2    0    0  0.47473647433E+01 -0.15191383467E+01  0.13951147112E+04  0.13951594542E+04  0.10000000000E+02 0. -1.
</event>
<event>
 5    1  0.9123258E-009  0.4057491E+03  0.7957747E-01  0.3346173E+00
         13   -1    0    0    0    0  0.00000000000E+00  0.00000000000E+00  0.14999999963E+04  0.15000000000E+04  0.10566000000E+00 0. -1.
        994   -1    0    0    0    0 -0.00000000000E+00 -0.00000000000E+00  0.11368683772E-12  0.17120000000E+03  0.17120000000E+03 0.  0.
         13    1    1    2    0    0 -0.46738709175E+02  0.28229300662E+02  0.34426485968E+02  0.64549163057E+02  0.10566000000E+00 0. -1.
        994    1    1    2    0    0  0.40410023820E+02 -0.56940319481E+02  0.51080765833E+02  0.19181724283E+03  0.17120000000E+03 0.  0.
        998    1    1    2    0    0  0.63286853548E+01  0.28711018819E+02  0.14144927445E+04  0.14148335941E+04  0.10000000000E+02 0. -1.
</event>
<event>
 5    1  0.9123258E-009  0.3827123E+03  0.7957747E-01  0.3439433E+00
         13   -1    0    0    0    0  0.00000000000E+00  0.00000000000E+00  0.14999999963E+04  0.15000000000E+04  0.10566000000E+00 0. -1.
        994   -1    0    0    0    0 -0.00000000000E+00 -0.00000000000E+00  0.11368683772E-12  0.17120000000E+03  0.17120000000E+03 0.  0.
         13    1    1    2    0    0 -0.28352600917E+01  0.10190333158E+02  0.18850741197E+02  0.21615808968E+02  0.10566000000E+00 0. -1.
        994    1    1    2    0    0 -0.43793460784E+01 -0.14082816204E+02  0.34911616473E+01  0.17186952200E+03  0.17120000000E+03 0.  0.
        998    1    1    2    0    0  0.72146061701E+01  0.38924830461E+01  0.14776580934E+04  0.14777146690E+04  0.10000000000E+02 0. -1.
</event>
<event>
 5    1  0.9123258E-009  0.3791090E+03  0.7957747E-01  0.3455047E+00
         13   -1    0    0    0    0  0.00000000000E+00  0.00000000000E+00  0.14999999963E+04  0.15000000000E+04  0.10566000000E+00 0.  1.
        994   -1    0    0    0    0 -0.00000000000E+00 -0.00000000000E+00  0.11368683772E-12  0.17120000000E+03  0.17120000000E+03 0.  0.
         13    1    1    2    0    0 -0.43123402687E+02  0.64953828861E+02  0.43053308191E+03  0.43753556829E+03  0.10566000000E+00 0.  1.
        994    1    1    2    0    0  0.10532583676E+03 -0.44555037019E+02  0.49762799323E+02  0.21181232119E+03  0.17120000000E+03 0.  0.
        998    1    1    2    0    0 -0.62202434069E+02 -0.20398791843E+02  0.10197041150E+04  0.10218521105E+04  0.10000000000E+02 0.  1.
</event>
<event>
 5    1  0.9123258E-009  0.3796963E+03  0.7957747E-01  0.3452482E+00
         13   -1    0    0    0    0  0.00000000000E+00  0.00000000000E+00  0.14999999963E+04  0.15000000000E+04  0.10566000000E+00 0.  1.
        994   -1    0    0    0    0 -0.00000000000E+00 -0.00000000000E+00  0.11368683772E-12  0.17120000000E+03  0.17120000000E+03 0.  0.
         13    1    1    2    0    0 -0.18301633454E+02  0.60399242978E+00  0.36160416729E+02  0.40532721301E+02  0.10566000000E+00 0.  1.
        994    1    1    2    0    0  0.22966436323E+02 -0.75875789420E+00  0.60554468731E+01  0.17284137626E+03  0.17120000000E+03 0.  0.
        998    1    1    2    0    0 -0.46648028690E+01  0.15476546442E+00  0.14577841327E+04  0.14578259024E+04  0.10000000000E+02 0.  1.
</event>
<event>
 5    1  0.9123258E-009  0.3856268E+03  0.7957747E-01  0.3427018E+00
         13   -1    0    0    0    0  0.00000000000E+00  0.00000000000E+00  0.14999999963E+04  0.15000000000E+04  0.10566000000E+00 0.  1.
        994   -1    0    0    0    0 -0.00000000000E+00 -0.00000000000E+00  0.11368683772E-12  0.17120000000E+03  0.17120000000E+03 0.  0.
         13    1    1    2    0    0  0.29742413436E+01  0.13928939734E+02  0.74026829360E+02  0.75384641027E+02  0.10566000000E+00 0.  1.
        994    1    1    2    0    0 -0.11421491665E+02 -0.13357076020E+02  0.23336107352E+01  0.17211550683E+03  0.17120000000E+03 0.  0.
        998    1    1    2    0    0  0.84472503217E+01 -0.57186371427E+00  0.14236395562E+04  0.14236998521E+04  0.10000000000E+02 0.  1.
</event>
<event>
 5    1  0.9123258E-009  0.3788231E+03  0.7957747E-01  0.3456299E+00
         13   -1    0    0    0    0  0.00000000000E+00  0.00000000000E+00  0.14999999963E+04  0.15000000000E+04  0.10566000000E+00 0.  1.
        994   -1    0    0    0    0 -0.00000000000E+00 -0.00000000000E+00  0.11368683772E-12  0.17120000000E+03  0.17120000000E+03 0.  0.
         13    1    1    2    0    0  0.43571505632E+02 -0.21534491063E+02  0.22349255781E+03  0.22871629800E+03  0.10566000000E+00 0.  1.
        994    1    1    2    0    0 -0.37236528829E+02  0.20019448143E+02  0.10750150340E+02  0.17667015344E+03  0.17120000000E+03 0.  0.
        998    1    1    2    0    0 -0.63349768035E+01  0.15150429200E+01  0.12657572881E+04  0.12658135486E+04  0.10000000000E+02 0.  1.
</event>
<event>
 5    1  0.9123258E-009  0.3803020E+03  0.7957747E-01  0.3449845E+00
         13   -1    0    0    0    0  0.00000000000E+00  0.00000000000E+00  0.14999999963E+04  0.15000000000E+04  0.10566000000E+00 0.  1.
        994   -1    0    0    0    0 -0.00000000000E+00 -0.00000000000E+00  0.11368683772E-12  0.17120000000E+03  0.17120000000E+03 0.  0.
         13    1    1    2    0    0  0.21559690989E+01  0.12190452969E+02  0.17698401784E+02  0.21598609587E+02  0.10566000000E+00 0.  1.
        994    1    1    2    0    0  0.81954085261E+00 -0.63534527071E+01  0.41178409471E+01  0.17136929311E+03  0.17120000000E+03 0.  0.
        998    1    1    2    0    0 -0.29755099516E+01 -0.58370002620E+01  0.14781837535E+04  0.14782320973E+04  0.10000000000E+02 0.  1.
</event>
<event>
 5    1  0.9123258E-009  0.3779580E+03  0.7957747E-01  0.3460098E+00
         13   -1    0    0    0    0  0.00000000000E+00  0.00000000000E+00  0.14999999963E+04  0.15000000000E+04  0.10566000000E+00 0.  1.
        994   -1    0    0    0    0 -0.00000000000E+00 -0.00000000000E+00  0.11368683772E-12  0.17120000000E+03  0.17120000000E+03 0.  0.
         13    1    1    2    0    0  0.81022355806E+01  0.20452105456E+02  0.45627712791E+02  0.50654063781E+02  0.10566000000E+00 0.  1.
        994    1    1    2    0    0 -0.38110782543E+01 -0.82911192116E+01  0.54477879872E+01  0.17152954664E+03  0.17120000000E+03 0.  0.
        998    1    1    2    0    0 -0.42911573263E+01 -0.12160986244E+02  0.14489244955E+04  0.14490163896E+04  0.10000000000E+02 0.  1.
</event>
<event>
 5    1  0.9123258E-009  0.3838987E+03  0.7957747E-01  0.3434357E+00
         13   -1    0    0    0    0  0.00000000000E+00  0.00000000000E+00  0.14999999963E+04  0.15000000000E+04  0.10566000000E+00 0. -1.
        994   -1    0    0    0    0 -0.00000000000E+00 -0.00000000000E+00  0.11368683772E-12  0.17120000000E+03  0.17120000000E+03 0.  0.
         13    1    1    2    0    0 -0.18850873715E+02 -0.12496223509E+02  0.10732493175E+03  0.10968210055E+03  0.10566000000E+00 0. -1.
        994    1    1    2    0    0  0.23740796075E+02  0.11789395127E+02  0.45002958667E+01  0.17329832053E+03  0.17120000000E+03 0.  0.
        998    1    1    2    0    0 -0.48899223595E+01  0.70682838145E+00  0.13881747687E+04  0.13882195789E+04  0.10000000000E+02 0. -1.
</event>
<event>
 5    1  0.9123258E-009  0.3816807E+03  0.7957747E-01  0.3443873E+00
         13   -1    0    0    0    0  0.00000000000E+00  0.00000000000E+00  0.14999999963E+04  0.15000000000E+04  0.10566000000E+00 0. -1.
        994   -1    0    0    0    0 -0.00000000000E+00 -0.00000000000E+00  0.11368683772E-12  0.17120000000E+03  0.17120000000E+03 0.  0.
         13    1    1    2    0    0  0.17055916005E+02  0.15077589386E+02  0.74966581995E+02  0.78346905188E+02  0.10566000000E+00 0. -1.
        994    1    1    2    0    0 -0.20199477722E+02 -0.99329111336E+01  0.49733884231E+01  0.17274506134E+03  0.17120000000E+03 0.  0.
        998    1    1    2    0    0  0.31435617173E+01 -0.51446782520E+01  0.14200600259E+04  0.14201080335E+04  0.10000000000E+02 0. -1.
</event>
<event>
 5    1  0.9123258E-009  0.3847809E+03  0.7957747E-01  0.3430602E+00
         13   -1    0    0    0    0  0.00000000000E+00  0.00000000000E+00  0.14999999963E+04  0.15000000000E+04  0.10566000000E+00 0. -1.
        994   -1    0    0    0    0 -0.00000000000E+00 -0.00000000000E+00  0.11368683772E-12  0.17120000000E+03  0.17120000000E+03 0.  0.
         13    1    1    2    0    0 -0.56935933701E+00  0.10937798449E+02  0.34333018349E+02  0.36037853958E+02  0.10566000000E+00 0. -1.
        994    1    1    2    0    0 -0.40604130502E+01 -0.69182677901E+01  0.19507667183E+01  0.17139893487E+03  0.17120000000E+03 0.  0.
        998    1    1    2    0    0  0.46297723872E+01 -0.40195306589E+01  0.14637162112E+04  0.14637632112E+04  0.10000000000E+02 0. -1.
</event>
<event>
 5    1  0.9123258E-009  0.3857038E+03  0.7957747E-01  0.3426693E+00
         13   -1    0    0    0    0  0.00000000000E+00  0.00000000000E+00  0.14999999963E+04  0.15000000000E+04  0.10566000000E+00 0.  1.
        994   -1    0    0    0    0 -0.00000000000E+00 -0.00000000000E+00  0.11368683772E-12  0.17120000000E+03  0.17120000000E+03 0.  0.
         13    1    1    2    0    0  0.12592556732E+02 -0.46781684686E+01  0.69889246614E+02  0.71168642684E+02  0.10566000000E+00 0.  1.
        994    1    1    2    0    0 -0.92372284707E+01  0.65976890465E+01  0.17040065976E+01  0.17158438020E+03  0.17120000000E+03 0.  0.
        998    1    1    2    0    0 -0.33553282611E+01 -0.19195205779E+01  0.14284067431E+04  0.14284469771E+04  0.10000000000E+02 0.  1.
</event>
<event>
 5    1  0.9123258E-009  0.3857955E+03  0.7957747E-01  0.3426306E+00
         13   -1    0    0    0    0  0.00000000000E+00  0.00000000000E+00  0.14999999963E+04  0.15000000000E+04  0.10566000000E+00 0. -1.
        994   -1    0    0    0    0 -0.00000000000E+00 -0.00000000000E+00  0.11368683772E-12  0.17120000000E+03  0.17120000000E+03 0.  0.
         13    1    1    2    0    0  0.99441402838E+01 -0.42106765610E+01  0.45183854860E+02  0.46456513290E+02  0.10566000000E+00 0. -1.
        994    1    1    2    0    0 -0.17515776392E+02 -0.52098936374E+00  0.22436312574E+01  0.17210911578E+03  0.17120000000E+03 0.  0.
        998    1    1    2    0    0  0.75716361083E+01  0.47316659247E+01  0.14525725102E+04  0.14526343709E+04  0.10000000000E+02 0. -1.
</event>
<event>
 5    1  0.1323401E-008  0.3856271E+03  0.7957747E-01  0.3427017E+00
         13   -1    0    0    0    0  0.00000000000E+00  0.00000000000E+00  0.14999999963E+04  0.15000000000E+04  0.10566000000E+00 0.  1.
        994   -1    0    0    0    0 -0.00000000000E+00 -0.00000000000E+00  0.11368683772E-12  0.17120000000E+03  0.17120000000E+03 0.  0.
         13    1    1    2    0    0  0.90512830385E+01  0.63274487437E+01  0.43858578311E+02  0.45227739140E+02  0.10566000000E+00 0.  1.
        994    1    1    2    0    0 -0.13740972378E+02 -0.11087127590E+02  0.23428942864E+01  0.17212398983E+03  0.17120000000E+03 0.  0.
        998    1    1    2    0    0  0.46896893395E+01  0.47596788466E+01  0.14537985237E+04  0.14538482710E+04  0.10000000000E+02 0.  1.
</event>
<event>
 5    1  0.9123258E-009  0.3756151E+03  0.7957747E-01  0.3470476E+00
         13   -1    0    0    0    0  0.00000000000E+00  0.00000000000E+00  0.14999999963E+04  0.15000000000E+04  0.10566000000E+00 0. -1.
        994   -1    0    0    0    0 -0.00000000000E+00 -0.00000000000E+00  0.11368683772E-12  0.17120000000E+03  0.17120000000E+03 0.  0.
         13    1    1    2    0    0 -0.34187921536E+02 -0.20980251859E+01  0.85488715306E+02  0.92095316370E+02  0.10566000000E+00 0. -1.
        994    1    1    2    0    0  0.33600187599E+02  0.38096777375E+01  0.10251915763E+02  0.17480854678E+03  0.17120000000E+03 0.  0.
        998    1    1    2    0    0  0.58773393743E+00 -0.17116525516E+01  0.14042593652E+04  0.14042961368E+04  0.10000000000E+02 0. -1.
</event>
<event>
 5    1  0.9123258E-009  0.3854284E+03  0.7957747E-01  0.3427857E+00
         13   -1    0    0    0    0  0.00000000000E+00  0.00000000000E+00  0.14999999963E+04  0.15000000000E+04  0.10566000000E+00 0. -1.
        994   -1    0    0    0    0 -0.00000000000E+00 -0.00000000000E+00  0.11368683772E-12  0.17120000000E+03  0.17120000000E+03 0.  0.
         13    1    1    2    0    0  0.10627679792E+02 -0.89844965647E+01  0.71489418055E+02  0.72831427380E+02  0.10566000000E+00 0. -1.
        994    1    1    2    0    0 -0.91238961950E+01 -0.52723293107E+01  0.17823322371E+01  0.17153326105E+03  0.17120000000E+03 0.  0.
        998    1    1    2    0    0 -0.15037835968E+01  0.14256825875E+02  0.14267282460E+04  0.14268353116E+04  0.10000000000E+02 0. -1.
</event>
<event>
 5    1  0.9123258E-009  0.3856335E+03  0.7957747E-01  0.3426990E+00
         13   -1    0    0    0    0  0.00000000000E+00  0.00000000000E+00  0.14999999963E+04  0.15000000000E+04  0.10566000000E+00 0.  1.
        994   -1    0    0    0    0 -0.00000000000E+00 -0.00000000000E+00  0.11368683772E-12  0.17120000000E+03  0.17120000000E+03 0.  0.
         13    1    1    2    0    0 -0.24108619352E+01  0.10650552346E+02  0.47858964516E+02  0.49089084012E+02  0.10566000000E+00 0.  1.
        994    1    1    2    0    0 -0.15037073840E+02 -0.29692148377E+01  0.20873367251E+01  0.17189743105E+03  0.17120000000E+03 0.  0.
        998    1    1    2    0    0  0.17447935775E+02 -0.76813375087E+01  0.14500536950E+04  0.14502134849E+04  0.10000000000E+02 0.  1.
</event>
<event>
 5    1  0.9123258E-009  0.3785447E+03  0.7957747E-01  0.3457520E+00
         13   -1    0    0    0    0  0.00000000000E+00  0.00000000000E+00  0.14999999963E+04  0.15000000000E+04  0.10566000000E+00 0.  1.
        994   -1    0    0    0    0 -0.00000000000E+00 -0.00000000000E+00  0.11368683772E-12  0.17120000000E+03  0.17120000000E+03 0.  0.
         13    1    1    2    0    0  0.21332173476E+02 -0.11362312536E+02  0.56463645861E+02  0.61419200901E+02  0.10566000000E+00 0.  1.
        994    1    1    2    0    0 -0.19746777148E+02  0.12903254685E+02  0.67409142361E+01  0.17294886271E+03  0.17120000000E+03 0.  0.
        998    1    1    2    0    0 -0.15853963283E+01 -0.15409421486E+01  0.14367954362E+04  0.14368319364E+04  0.10000000000E+02 0.  0.
</event>
<event>
 5    1  0.9123258E-009  0.3773156E+03  0.7957747E-01  0.3462931E+00
         13   -1    0    0    0    0  0.00000000000E+00  0.00000000000E+00  0.14999999963E+04  0.15000000000E+04  0.10566000000E+00 0. -1.
        994   -1    0    0    0    0 -0.00000000000E+00 -0.00000000000E+00  0.11368683772E-12  0.17120000000E+03  0.17120000000E+03 0.  0.
         13    1    1    2    0    0  0.12850884720E+01  0.25615159545E+02  0.57679272654E+02  0.63124460463E+02  0.10566000000E+00 0. -1.
        994    1    1    2    0    0 -0.14556328540E+02 -0.16310288491E+02  0.71079718924E+01  0.17273643355E+03  0.17120000000E+03 0.  0.
        998    1    1    2    0    0  0.13271240068E+02 -0.93048710534E+01  0.14352127517E+04  0.14353391060E+04  0.10000000000E+02 0. -1.
</event>
<event>
 5    1  0.9123258E-009  0.3847310E+03  0.7957747E-01  0.3430814E+00
         13   -1    0    0    0    0  0.00000000000E+00  0.00000000000E+00  0.14999999963E+04  0.15000000000E+04  0.10566000000E+00 0. -1.
        994   -1    0    0    0    0 -0.00000000000E+00 -0.00000000000E+00  0.11368683772E-12  0.17120000000E+03  0.17120000000E+03 0.  0.
         13    1    1    2    0    0  0.11136916567E+02 -0.12280796055E+02  0.76187765802E+02  0.77970736077E+02  0.10566000000E+00 0. -1.
        994    1    1    2    0    0 -0.57340200396E+01  0.13703321270E+02  0.24904127962E+01  0.17186128754E+03  0.17120000000E+03 0.  0.
        998    1    1    2    0    0 -0.54028965277E+01 -0.14225252158E+01  0.14213218177E+04  0.14213679764E+04  0.10000000000E+02 0. -1.
</event>
<event>
 5    1  0.9123258E-009  0.3811054E+03  0.7957747E-01  0.3446359E+00
         13   -1    0    0    0    0  0.00000000000E+00  0.00000000000E+00  0.14999999963E+04  0.15000000000E+04  0.10566000000E+00 0.  1.
        994   -1    0    0    0    0 -0.00000000000E+00 -0.00000000000E+00  0.11368683772E-12  0.17120000000E+03  0.17120000000E+03 0.  0.
         13    1    1    2    0    0  0.96237504016E+02 -0.36380965866E+01  0.23701503005E+03  0.25583398633E+03  0.10566000000E+00 0.  1.
        994    1    1    2    0    0 -0.86390597475E+02 -0.97782891965E+01  0.44984143104E+02  0.19721045460E+03  0.17120000000E+03 0.  0.
        998    1    1    2    0    0 -0.98469065409E+01  0.13416385783E+02  0.12180008231E+04  0.12181555591E+04  0.10000000000E+02 0.  1.
</event>
<event>
 5    1  0.9123258E-009  0.3843477E+03  0.7957747E-01  0.3432443E+00
         13   -1    0    0    0    0  0.00000000000E+00  0.00000000000E+00  0.14999999963E+04  0.15000000000E+04  0.10566000000E+00 0.  1.
        994   -1    0    0    0    0 -0.00000000000E+00 -0.00000000000E+00  0.11368683772E-12  0.17120000000E+03  0.17120000000E+03 0.  0.
         13    1    1    2    0    0  0.68168317265E+01  0.90089257866E+01  0.31643076158E+02  0.33599484689E+02  0.10566000000E+00 0.  1.
        994    1    1    2    0    0 -0.96342235204E+01 -0.75789534831E+01  0.24496771406E+01  0.17165575935E+03  0.17120000000E+03 0.  0.
        998    1    1    2    0    0  0.28173917939E+01 -0.14299723035E+01  0.14659072430E+04  0.14659447560E+04  0.10000000000E+02 0.  1.
</event>
<event>
 5    1  0.9123258E-009  0.3836616E+03  0.7957747E-01  0.3435368E+00
         13   -1    0    0    0    0  0.00000000000E+00  0.00000000000E+00  0.14999999963E+04  0.15000000000E+04  0.10566000000E+00 0. -1.
        994   -1    0    0    0    0 -0.00000000000E+00 -0.00000000000E+00  0.11368683772E-12  0.17120000000E+03  0.17120000000E+03 0.  0.
         13    1    1    2    0    0 -0.75476234696E+00 -0.14539605084E+02  0.46301863585E+02  0.48537032436E+02  0.10566000000E+00 0. -1.
        994    1    1    2    0    0 -0.75268712188E+01  0.66389223339E+01  0.26288423119E+01  0.17151408074E+03  0.17120000000E+03 0.  0.
        998    1    1    2    0    0  0.82816335657E+01  0.79006827504E+01  0.14510692904E+04  0.14511488868E+04  0.10000000000E+02 0. -1.
</event>
<event>
 5    1  0.9123258E-009  0.3802466E+03  0.7957747E-01  0.3450085E+00
         13   -1    0    0    0    0  0.00000000000E+00  0.00000000000E+00  0.14999999963E+04  0.15000000000E+04  0.10566000000E+00 0.  1.
        994   -1    0    0    0    0 -0.00000000000E+00 -0.00000000000E+00  0.11368683772E-12  0.17120000000E+03  0.17120000000E+03 0.  0.
         13    1    1    2    0    0  0.17925404638E+02 -0.20847863597E+02  0.10499335632E+03  0.10853372555E+03  0.10566000000E+00 0.  1.
        994    1    1    2    0    0  0.63591511379E+01 -0.20707772648E+01  0.41581101509E+01  0.17138102813E+03  0.17120000000E+03 0.  0.
        998    1    1    2    0    0 -0.24284555776E+02  0.22918640862E+02  0.13908485298E+04  0.13912852463E+04  0.10000000000E+02 0.  1.
</event>
<event>
 5    1  0.9123258E-009  0.3833975E+03  0.7957747E-01  0.3436497E+00
         13   -1    0    0    0    0  0.00000000000E+00  0.00000000000E+00  0.14999999963E+04  0.15000000000E+04  0.10566000000E+00 0.  1.
        994   -1    0    0    0    0 -0.00000000000E+00 -0.00000000000E+00  0.11368683772E-12  0.17120000000E+03  0.17120000000E+03 0.  0.
         13    1    1    2    0    0 -0.13546203728E+02 -0.14165349961E+02  0.79423407744E+02  0.81806146692E+02  0.10566000000E+00 0.  1.
        994    1    1    2    0    0  0.90990055567E+01  0.57568373996E+01  0.28111991073E+01  0.17156128911E+03  0.17120000000E+03 0.  0.
        998    1    1    2    0    0  0.44471981714E+01  0.84085125612E+01  0.14177653894E+04  0.14178325642E+04  0.10000000000E+02 0.  0.
</event>
<event>
 5    1  0.9123258E-009  0.3784169E+03  0.7957747E-01  0.3458081E+00
         13   -1    0    0    0    0  0.00000000000E+00  0.00000000000E+00  0.14999999963E+04  0.15000000000E+04  0.10566000000E+00 0.  1.
        994   -1    0    0    0    0 -0.00000000000E+00 -0.00000000000E+00  0.11368683772E-12  0.17120000000E+03  0.17120000000E+03 0.  0.
         13    1    1    2    0    0  0.86953966036E+01  0.98003280573E+01  0.15229788688E+02  0.20090146332E+02  0.10566000000E+00 0.  1.
        994    1    1    2    0    0 -0.52314242226E+01 -0.86722799267E+01  0.52791866823E+01  0.17158055266E+03  0.17120000000E+03 0.  0.
        998    1    1    2    0    0 -0.34639723810E+01 -0.11280481306E+01  0.14794910209E+04  0.14795293010E+04  0.10000000000E+02 0.  1.
</event>
<event>
 5    1  0.1650502E-008  0.3863785E+03  0.7957747E-01  0.3423847E+00
         13   -1    0    0    0    0  0.00000000000E+00  0.00000000000E+00  0.14999999963E+04  0.15000000000E+04  0.10566000000E+00 0. -1.
        994   -1    0    0    0    0 -0.00000000000E+00 -0.00000000000E+00  0.11368683772E-12  0.17120000000E+03  0.17120000000E+03 0.  0.
         13    1    1    2    0    0 -0.52054021147E+01  0.90537498599E+01  0.53827778832E+02  0.54831628972E+02  0.10566000000E+00 0. -1.
        994    1    1    2    0    0 -0.16441548391E+02 -0.32687739049E+02  0.53428766271E+01  0.17514793498E+03  0.17120000000E+03 0.  0.
        998    1    1    2    0    0  0.21646950506E+02  0.23633989190E+02  0.14408293408E+04  0.14412204360E+04  0.10000000000E+02 0. -1.
</event>
<event>
 5    1  0.9123258E-009  0.3777361E+03  0.7957747E-01  0.3461076E+00
         13   -1    0    0    0    0  0.00000000000E+00  0.00000000000E+00  0.14999999963E+04  0.15000000000E+04  0.10566000000E+00 0. -1.
        994   -1    0    0    0    0 -0.00000000000E+00 -0.00000000000E+00  0.11368683772E-12  0.17120000000E+03  0.17120000000E+03 0.  0.
         13    1    1    2    0    0  0.11778051723E+02 -0.44613249166E+01  0.12673008878E+02  0.17867351243E+02  0.10566000000E+00 0. -1.
        994    1    1    2    0    0 -0.93642841573E+01  0.25001560441E+01  0.55967997208E+01  0.17156545330E+03  0.17120000000E+03 0.  0.
        998    1    1    2    0    0 -0.24137675657E+01  0.19611688725E+01  0.14817301877E+04  0.14817671955E+04  0.10000000000E+02 0. -1.
</event>
<event>
 5    1  0.9123258E-009  0.3826888E+03  0.7957747E-01  0.3439534E+00
         13   -1    0    0    0    0  0.00000000000E+00  0.00000000000E+00  0.14999999963E+04  0.15000000000E+04  0.10566000000E+00 0.  1.
        994   -1    0    0    0    0 -0.00000000000E+00 -0.00000000000E+00  0.11368683772E-12  0.17120000000E+03  0.17120000000E+03 0.  0.
         13    1    1    2    0    0  0.22422031881E+02  0.17151689807E+02  0.14977445344E+03  0.15241169917E+03  0.10566000000E+00 0.  1.
        994    1    1    2    0    0 -0.15884793108E+02  0.35491181209E+01  0.36602736925E+01  0.17201093132E+03  0.17120000000E+03 0.  0.
        998    1    1    2    0    0 -0.65372387728E+01 -0.20700807928E+02  0.13465652691E+04  0.13467773695E+04  0.10000000000E+02 0.  1.
</event>
<event>
 5    1  0.9123258E-009  0.3856384E+03  0.7957747E-01  0.3426969E+00
         13   -1    0    0    0    0  0.00000000000E+00  0.00000000000E+00  0.14999999963E+04  0.15000000000E+04  0.10566000000E+00 0. -1.
        994   -1    0    0    0    0 -0.00000000000E+00 -0.00000000000E+00  0.11368683772E-12  0.17120000000E+03  0.17120000000E+03 0.  0.
         13    1    1    2    0    0  0.37623857577E+01 -0.10033566481E+02  0.43719034701E+02  0.45013255405E+02  0.10566000000E+00 0. -1.
        994    1    1    2    0    0 -0.38103522902E+01  0.72851504186E+01  0.15353538889E+01  0.17140417006E+03  0.17120000000E+03 0.  0.
        998    1    1    2    0    0  0.47966532498E-01  0.27484160621E+01  0.14547456077E+04  0.14547825745E+04  0.10000000000E+02 0. -1.
</event>
<event>
 5    1  0.9123258E-009  0.3819938E+03  0.7957747E-01  0.3442523E+00
         13   -1    0    0    0    0  0.00000000000E+00  0.00000000000E+00  0.14999999963E+04  0.15000000000E+04  0.10566000000E+00 0.  1.
        994   -1    0    0    0    0 -0.00000000000E+00 -0.00000000000E+00  0.11368683772E-12  0.17120000000E+03  0.17120000000E+03 0.  0.
         13    1    1    2    0    0  0.91867281011E+02 -0.25974229547E+02  0.46717553276E+03  0.47683041796E+03  0.10566000000E+00 0.  1.
        994    1    1    2    0    0  0.15056081998E+02 -0.32465409741E+02  0.22115777558E+02  0.17629304028E+03  0.17120000000E+03 0.  0.
        998    1    1    2    0    0 -0.10692336301E+03  0.58439639287E+02  0.10107086860E+04  0.10180765418E+04  0.10000000000E+02 0.  1.
</event>
<event>
 5    1  0.9123258E-009  0.3827272E+03  0.7957747E-01  0.3439369E+00
         13   -1    0    0    0    0  0.00000000000E+00  0.00000000000E+00  0.14999999963E+04  0.15000000000E+04  0.10566000000E+00 0.  1.
        994   -1    0    0    0    0 -0.00000000000E+00 -0.00000000000E+00  0.11368683772E-12  0.17120000000E+03  0.17120000000E+03 0.  0.
         13    1    1    2    0    0 -0.13564460574E+03 -0.20930538336E+03  0.11495147531E+04  0.11762620377E+04  0.10566000000E+00 0.  1.
        994    1    1    2    0    0  0.14013094969E+03  0.20443769480E+03  0.24366016657E+03  0.38744182904E+03  0.17120000000E+03 0.  0.
        998    1    1    2    0    0 -0.44863439481E+01  0.48676885573E+01  0.10682507664E+03  0.10749613330E+03  0.10000000000E+02 0.  1.
</event>
<event>
 5    1  0.9123258E-009  0.3854425E+03  0.7957747E-01  0.3427798E+00
         13   -1    0    0    0    0  0.00000000000E+00  0.00000000000E+00  0.14999999963E+04  0.15000000000E+04  0.10566000000E+00 0. -1.
        994   -1    0    0    0    0 -0.00000000000E+00 -0.00000000000E+00  0.11368683772E-12  0.17120000000E+03  0.17120000000E+03 0.  0.
         13    1    1    2    0    0 -0.22523487801E+01 -0.13428413414E+02  0.65223098153E+02  0.66629265781E+02  0.10566000000E+00 0. -1.
        994    1    1    2    0    0  0.27210062727E+01  0.10473592943E+02  0.17952290914E+01  0.17155105034E+03  0.17120000000E+03 0.  0.
        998    1    1    2    0    0 -0.46865749263E+00  0.29548204712E+01  0.14329816690E+04  0.14330196839E+04  0.10000000000E+02 0. -1.
</event>
<event>
 5    1  0.9123258E-009  0.3776260E+03  0.7957747E-01  0.3461561E+00
         13   -1    0    0    0    0  0.00000000000E+00  0.00000000000E+00  0.14999999963E+04  0.15000000000E+04  0.10566000000E+00 0. -1.
        994   -1    0    0    0    0 -0.00000000000E+00 -0.00000000000E+00  0.11368683772E-12  0.17120000000E+03  0.17120000000E+03 0.  0.
         13    1    1    2    0    0 -0.90018859849E+01  0.23606294610E+02  0.14510559580E+02  0.29135178048E+02  0.10566000000E+00 0. -1.
        994    1    1    2    0    0  0.57424262575E+01 -0.27809305538E+02  0.17931216790E+02  0.17446289425E+03  0.17120000000E+03 0.  0.
        998    1    1    2    0    0  0.32594597274E+01  0.42030109282E+01  0.14675582199E+04  0.14676019277E+04  0.10000000000E+02 0. -1.
</event>
<event>
 5    1  0.9123258E-009  0.3824611E+03  0.7957747E-01  0.3440512E+00
         13   -1    0    0    0    0  0.00000000000E+00  0.00000000000E+00  0.14999999963E+04  0.15000000000E+04  0.10566000000E+00 0.  1.
        994   -1    0    0    0    0 -0.00000000000E+00 -0.00000000000E+00  0.11368683772E-12  0.17120000000E+03  0.17120000000E+03 0.  0.
         13    1    1    2    0    0 -0.16684976401E+02 -0.58759325540E+01  0.50920934021E+02  0.53906100828E+02  0.10566000000E+00 0.  1.
        994    1    1    2    0    0  0.25232850542E+02 -0.75267638692E+01  0.51984139636E+01  0.17329112045E+03  0.17120000000E+03 0.  0.
        998    1    1    2    0    0 -0.85478741402E+01  0.13402696423E+02  0.14438806483E+04  0.14440027787E+04  0.10000000000E+02 0.  1.
</event>
<event>
 5    1  0.9123258E-009  0.3801424E+03  0.7957747E-01  0.3450539E+00
         13   -1    0    0    0    0  0.00000000000E+00  0.00000000000E+00  0.14999999963E+04  0.15000000000E+04  0.10566000000E+00 0.  1.
        994   -1    0    0    0    0 -0.00000000000E+00 -0.00000000000E+00  0.11368683772E-12  0.17120000000E+03  0.17120000000E+03 0.  0.
         13    1    1    2    0    0  0.12208577457E+02 -0.43078621100E+01  0.18849012406E+02  0.22867082722E+02  0.10566000000E+00 0.  1.
        994    1    1    2    0    0 -0.94138889758E+01  0.59173349000E+01  0.44744944949E+01  0.17161904690E+03  0.17120000000E+03 0.  0.
        998    1    1    2    0    0 -0.27946884811E+01 -0.16094727900E+01  0.14766764894E+04  0.14767138704E+04  0.10000000000E+02 0.  1.
</event>
<event>
 5    1  0.9123258E-009  0.3829455E+03  0.7957747E-01  0.3438433E+00
         13   -1    0    0    0    0  0.00000000000E+00  0.00000000000E+00  0.14999999963E+04  0.15000000000E+04  0.10566000000E+00 0.  1.
        994   -1    0    0    0    0 -0.00000000000E+00 -0.00000000000E+00  0.11368683772E-12  0.17120000000E+03  0.17120000000E+03 0.  0.
         13    1    1    2    0    0 -0.11455112520E+02  0.24015506784E+02  0.14509900681E+03  0.14751846363E+03  0.10566000000E+00 0.  1.
        994    1    1    2    0    0  0.11782403179E+02  0.58225287477E+00  0.31144675573E+01  0.17163421556E+03  0.17120000000E+03 0.  0.
        998    1    1    2    0    0 -0.32729065911E+00 -0.24597759659E+02  0.13517865219E+04  0.13520473208E+04  0.10000000000E+02 0.  1.
</event>
<event>
 5    1  0.9123258E-009  0.3858742E+03  0.7957747E-01  0.3425973E+00
         13   -1    0    0    0    0  0.00000000000E+00  0.00000000000E+00  0.14999999963E+04  0.15000000000E+04  0.10566000000E+00 0.  1.
        994   -1    0    0    0    0 -0.00000000000E+00 -0.00000000000E+00  0.11368683772E-12  0.17120000000E+03  0.17120000000E+03 0.  0.
         13    1    1    2    0    0  0.69620197592E+01 -0.99150346366E+01  0.61140024422E+02  0.62328896840E+02  0.10566000000E+00 0.  1.
        994    1    1    2    0    0 -0.81747432374E+01  0.63552281425E+01  0.15484076726E+01  0.17151983243E+03  0.17120000000E+03 0.  0.
        998    1    1    2    0    0  0.12127234782E+01  0.35598064941E+01  0.14373115642E+04  0.14373512707E+04  0.10000000000E+02 0.  1.
</event>
<event>
 5    1  0.9123258E-009  0.3717011E+03  0.7957747E-01  0.3488109E+00
         13   -1    0    0    0    0  0.00000000000E+00  0.00000000000E+00  0.14999999963E+04  0.15000000000E+04  0.10566000000E+00 0. -1.
        994   -1    0    0    0    0 -0.00000000000E+00 -0.00000000000E+00  0.11368683772E-12  0.17120000000E+03  0.17120000000E+03 0.  0.
         13    1    1    2    0    0 -0.21714597372E+02  0.11919983032E+02  0.32401779644E+02  0.40785980712E+02  0.10566000000E+00 0. -1.
        994    1    1    2    0    0  0.22881512815E+02 -0.12713126790E+02  0.10741557336E+02  0.17352235670E+03  0.17120000000E+03 0.  0.
        998    1    1    2    0    0 -0.11669154433E+01  0.79314375793E+00  0.14568566593E+04  0.14568916626E+04  0.10000000000E+02 0. -1.
</event>
<event>
 5    1  0.9123258E-009  0.3845817E+03  0.7957747E-01  0.3431448E+00
         13   -1    0    0    0    0  0.00000000000E+00  0.00000000000E+00  0.14999999963E+04  0.15000000000E+04  0.10566000000E+00 0. -1.
        994   -1    0    0    0    0 -0.00000000000E+00 -0.00000000000E+00  0.11368683772E-12  0.17120000000E+03  0.17120000000E+03 0.  0.
         13    1    1    2    0    0 -0.16085678750E+02  0.22879195608E+01  0.62059332161E+02  0.64151036696E+02  0.10566000000E+00 0. -1.
        994    1    1    2    0    0  0.34340824376E+02 -0.12143545386E+02  0.62193665544E+01  0.17514245183E+03  0.17120000000E+03 0.  0.
        998    1    1    2    0    0 -0.18255145626E+02  0.98556258252E+01  0.14317212976E+04  0.14319065115E+04  0.10000000000E+02 0. -1.
</event>
<event>
 5    1  0.9123258E-009  0.3816187E+03  0.7957747E-01  0.3444141E+00
         13   -1    0    0    0    0  0.00000000000E+00  0.00000000000E+00  0.14999999963E+04  0.15000000000E+04  0.10566000000E+00 0. -1.
        994   -1    0    0    0    0 -0.00000000000E+00 -0.00000000000E+00  0.11368683772E-12  0.17120000000E+03  0.17120000000E+03 0.  0.
         13    1    1    2    0    0  0.21612635402E+01 -0.98237939687E+01  0.13941671601E+02  0.17191839899E+02  0.10566000000E+00 0. -1.
        994    1    1    2    0    0 -0.36890527713E+01  0.39840386902E+01  0.34163227560E+01  0.17132014749E+03  0.17120000000E+03 0.  0.
        998    1    1    2    0    0  0.15277892312E+01  0.58397552785E+01  0.14826420019E+04  0.14826880126E+04  0.10000000000E+02 0. -1.
</event>
<event>
 5    1  0.9123258E-009  0.3746746E+03  0.7957747E-01  0.3474680E+00
         13   -1    0    0    0    0  0.00000000000E+00  0.00000000000E+00  0.14999999963E+04  0.15000000000E+04  0.10566000000E+00 0. -1.
        994   -1    0    0    0    0 -0.00000000000E+00 -0.00000000000E+00  0.11368683772E-12  0.17120000000E+03  0.17120000000E+03 0.  0.
         13    1    1    2    0    0 -0.36950653978E+02  0.75033768986E+01  0.10610062069E+03  0.11260108511E+03  0.10566000000E+00 0. -1.
        994    1    1    2    0    0  0.16418943176E+02  0.16775192932E+02  0.87231748924E+01  0.17302174017E+03  0.17120000000E+03 0.  0.
        998    1    1    2    0    0  0.20531710802E+02 -0.24278569830E+02  0.13851762007E+04  0.13855771747E+04  0.10000000000E+02 0. -1.
</event>
<event>
 5    1  0.9123258E-009  0.3830288E+03  0.7957747E-01  0.3438075E+00
         13   -1    0    0    0    0  0.00000000000E+00  0.00000000000E+00  0.14999999963E+04  0.15000000000E+04  0.10566000000E+00 0.  1.
        994   -1    0    0    0    0 -0.00000000000E+00 -0.00000000000E+00  0.11368683772E-12  0.17120000000E+03  0.17120000000E+03 0.  0.
         13    1    1    2    0    0  0.16551600750E+02 -0.51679534643E+01  0.56311596599E+02  0.58920881748E+02  0.10566000000E+00 0.  1.
        994    1    1    2    0    0 -0.11931546412E+02  0.57415080313E+01  0.31924778827E+01  0.17174096375E+03  0.17120000000E+03 0.  0.
        998    1    1    2    0    0 -0.46200543381E+01 -0.57355456704E+00  0.14404959218E+04  0.14405381545E+04  0.10000000000E+02 0.  1.
</event>
<event>
 5    1  0.9123258E-009  0.3849102E+03  0.7957747E-01  0.3430053E+00
         13   -1    0    0    0    0  0.00000000000E+00  0.00000000000E+00  0.14999999963E+04  0.15000000000E+04  0.10566000000E+00 0. -1.
        994   -1    0    0    0    0 -0.00000000000E+00 -0.00000000000E+00  0.11368683772E-12  0.17120000000E+03  0.17120000000E+03 0.  0.
         13    1    1    2    0    0  0.74005383721E+01  0.12773154350E+02  0.64687754601E+02  0.66350871882E+02  0.10566000000E+00 0. -1.
        994    1    1    2    0    0 -0.36854388640E+01 -0.10079208109E+02  0.20536779403E+01  0.17154833281E+03  0.17120000000E+03 0.  0.
        998    1    1    2    0    0 -0.37150995080E+01 -0.26939462419E+01  0.14332585637E+04  0.14333007953E+04  0.10000000000E+02 0. -1.
</event>
<event>
 5    1  0.9123258E-009  0.3749016E+03  0.7957747E-01  0.3473663E+00
         13   -1    0    0    0    0  0.00000000000E+00  0.00000000000E+00  0.14999999963E+04  0.15000000000E+04  0.10566000000E+00 0. -1.
        994   -1    0    0    0    0 -0.00000000000E+00 -0.00000000000E+00  0.11368683772E-12  0.17120000000E+03  0.17120000000E+03 0.  0.
         13    1    1    2    0    0 -0.14135325275E+02 -0.45254902772E+02  0.91537728346E+02  0.10308724713E+03  0.10566000000E+00 0. -1.
        994    1    1    2    0    0 -0.10385279355E+02 -0.16156984482E+02  0.14867724941E+02  0.17291440489E+03  0.17120000000E+03 0.  0.
        998    1    1    2    0    0  0.24520604630E+02  0.61411887255E+02  0.13935945430E+04  0.13951983480E+04  0.10000000000E+02 0. -1.
</event>
<event>
 5    1  0.9123258E-009  0.3831510E+03  0.7957747E-01  0.3437552E+00
         13   -1    0    0    0    0  0.00000000000E+00  0.00000000000E+00  0.14999999963E+04  0.15000000000E+04  0.10566000000E+00 0. -1.
        994   -1    0    0    0    0 -0.00000000000E+00 -0.00000000000E+00  0.11368683772E-12  0.17120000000E+03  0.17120000000E+03 0.  0.
         13    1    1    2    0    0 -0.10735234521E+02 -0.24089558800E+02  0.14917013235E+03  0.15148363494E+03  0.10566000000E+00 0. -1.
        994    1    1    2    0    0  0.58914142465E+01  0.17284793617E+01  0.26756673011E+01  0.17133095342E+03  0.17120000000E+03 0.  0.
        998    1    1    2    0    0  0.48438202746E+01  0.22361079438E+02  0.13481541966E+04  0.13483854116E+04  0.10000000000E+02 0. -1.
</event>
<event>
 5    1  0.9123258E-009  0.3779624E+03  0.7957747E-01  0.3460079E+00
         13   -1    0    0    0    0  0.00000000000E+00  0.00000000000E+00  0.14999999963E+04  0.15000000000E+04  0.10566000000E+00 0.  1.
        994   -1    0    0    0    0 -0.00000000000E+00 -0.00000000000E+00  0.11368683772E-12  0.17120000000E+03  0.17120000000E+03 0.  0.
         13    1    1    2    0    0  0.20141275488E+01 -0.13122541324E+02  0.14777993814E+02  0.19866002763E+02  0.10566000000E+00 0.  1.
        994    1    1    2    0    0 -0.66414703315E+01  0.94766490006E+01  0.56160700053E+01  0.17168254497E+03  0.17120000000E+03 0.  0.
        998    1    1    2    0    0  0.46273427827E+01  0.36458923232E+01  0.14796059325E+04  0.14796514523E+04  0.10000000000E+02 0.  1.
</event>
<event>
 5    1  0.9123258E-009  0.3749976E+03  0.7957747E-01  0.3473234E+00
         13   -1    0    0    0    0  0.00000000000E+00  0.00000000000E+00  0.14999999963E+04  0.15000000000E+04  0.10566000000E+00 0. -1.
        994   -1    0    0    0    0 -0.00000000000E+00 -0.00000000000E+00  0.11368683772E-12  0.17120000000E+03  0.17120000000E+03 0.  0.
         13    1    1    2    0    0 -0.24367507959E+02  0.47649440237E+01  0.42778252639E+02  0.49461805451E+02  0.10566000000E+00 0. -1.
        994    1    1    2    0    0  0.21640575934E+02 -0.46867565252E+01  0.83483291629E+01  0.17282770268E+03  0.17120000000E+03 0.  0.
        998    1    1    2    0    0  0.27269320249E+01 -0.78187498457E-01  0.14488734145E+04  0.14489104919E+04  0.10000000000E+02 0. -1.
</event>
<event>
 5    1  0.9123258E-009  0.3807122E+03  0.7957747E-01  0.3448063E+00
         13   -1    0    0    0    0  0.00000000000E+00  0.00000000000E+00  0.14999999963E+04  0.15000000000E+04  0.10566000000E+00 0.  1.
        994   -1    0    0    0    0 -0.00000000000E+00 -0.00000000000E+00  0.11368683772E-12  0.17120000000E+03  0.17120000000E+03 0.  0.
         13    1    1    2    0    0  0.40747829360E+02  0.21509355510E+01  0.21964900572E+03  0.22340704778E+03  0.10566000000E+00 0.  1.
        994    1    1    2    0    0 -0.25116572693E+02  0.19867281296E+02  0.72018888327E+01  0.17431826724E+03  0.17120000000E+03 0.  0.
        998    1    1    2    0    0 -0.15631256667E+02 -0.22018216847E+02  0.12731491017E+04  0.12734746850E+04  0.10000000000E+02 0.  1.
</event>
<event>
 5    1  0.9123258E-009  0.3739353E+03  0.7957747E-01  0.3477998E+00
         13   -1    0    0    0    0  0.00000000000E+00  0.00000000000E+00  0.14999999963E+04  0.15000000000E+04  0.10566000000E+00 0.  1.
        994   -1    0    0    0    0 -0.00000000000E+00 -0.00000000000E+00  0.11368683772E-12  0.17120000000E+03  0.17120000000E+03 0.  0.
         13    1    1    2    0    0 -0.42485326319E+02 -0.65426668442E+01  0.11415753650E+03  0.12198263706E+03  0.10566000000E+00 0.  1.
        994    1    1    2    0    0  0.48791922390E+02 -0.39055259910E+01  0.15444415307E+02  0.17872849462E+03  0.17120000000E+03 0.  0.
        998    1    1    2    0    0 -0.63065960714E+01  0.10448192835E+02  0.13703980445E+04  0.13704888683E+04  0.10000000000E+02 0.  1.
</event>
<event>
 5    1  0.9123258E-009  0.3762817E+03  0.7957747E-01  0.3467510E+00
         13   -1    0    0    0    0  0.00000000000E+00  0.00000000000E+00  0.14999999963E+04  0.15000000000E+04  0.10566000000E+00 0. -1.
        994   -1    0    0    0    0 -0.00000000000E+00 -0.00000000000E+00  0.11368683772E-12  0.17120000000E+03  0.17120000000E+03 0.  0.
         13    1    1    2    0    0 -0.42597250761E+02  0.74734801880E+01  0.14821041833E+03  0.15439144388E+03  0.10566000000E+00 0. -1.
        994    1    1    2    0    0  0.31873825426E+02 -0.23066871082E+01  0.94863321844E+01  0.17441528617E+03  0.17120000000E+03 0.  0.
        998    1    1    2    0    0  0.10723425334E+02 -0.51667930797E+01  0.13423032458E+04  0.13423932699E+04  0.10000000000E+02 0. -1.
</event>
<event>
 5    1  0.9123258E-009  0.3694054E+03  0.7957747E-01  0.3498628E+00
         13   -1    0    0    0    0  0.00000000000E+00  0.00000000000E+00  0.14999999963E+04  0.15000000000E+04  0.10566000000E+00 0.  1.
        994   -1    0    0    0    0 -0.00000000000E+00 -0.00000000000E+00  0.11368683772E-12  0.17120000000E+03  0.17120000000E+03 0.  0.
         13    1    1    2    0    0  0.18869907244E+02  0.43515537563E+02  0.13589070428E+03  0.14393043487E+03  0.10566000000E+00 0.  1.
        994    1    1    2    0    0 -0.37668905736E+01  0.14153301587E+02  0.10323721590E+02  0.17213519291E+03  0.17120000000E+03 0.  0.
        998    1    1    2    0    0 -0.15103016670E+02 -0.57668839150E+02  0.13537855704E+04  0.13551343722E+04  0.10000000000E+02 0.  1.
</event>
<event>
 5    1  0.9123258E-009  0.3710972E+03  0.7957747E-01  0.3490863E+00
         13   -1    0    0    0    0  0.00000000000E+00  0.00000000000E+00  0.14999999963E+04  0.15000000000E+04  0.10566000000E+00 0. -1.
        994   -1    0    0    0    0 -0.00000000000E+00 -0.00000000000E+00  0.11368683772E-12  0.17120000000E+03  0.17120000000E+03 0.  0.
         13    1    1    2    0    0 -0.51212113021E+02  0.48000828030E+02  0.17126012409E+03  0.18508592944E+03  0.10566000000E+00 0. -1.
        994    1    1    2    0    0  0.58214226740E+02 -0.67090123528E+02  0.39750021096E+02  0.19692507470E+03  0.17120000000E+03 0.  0.
        998    1    1    2    0    0 -0.70021137193E+01  0.19089295498E+02  0.12889898511E+04  0.12891889959E+04  0.10000000000E+02 0. -1.
</event>
<event>
 5    1  0.9123258E-009  0.3927940E+03  0.7957747E-01  0.3397275E+00
         13   -1    0    0    0    0  0.00000000000E+00  0.00000000000E+00  0.14999999963E+04  0.15000000000E+04  0.10566000000E+00 0.  1.
        994   -1    0    0    0    0 -0.00000000000E+00 -0.00000000000E+00  0.11368683772E-12  0.17120000000E+03  0.17120000000E+03 0.  0.
         13    1    1    2    0    0  0.19935841119E+02 -0.35832563212E+02  0.26157628163E+02  0.48637876419E+02  0.10566000000E+00 0.  1.
        994    1    1    2    0    0 -0.11779498764E+02  0.37648244180E+02  0.29481522325E+02  0.17814249083E+03  0.17120000000E+03 0.  0.
        998    1    1    2    0    0 -0.81563423544E+01 -0.18156809689E+01  0.14443608458E+04  0.14444196327E+04  0.10000000000E+02 0.  1.
</event>
<event>
 5    1  0.9123258E-009  0.3689467E+03  0.7957747E-01  0.3500746E+00
         13   -1    0    0    0    0  0.00000000000E+00  0.00000000000E+00  0.14999999963E+04  0.15000000000E+04  0.10566000000E+00 0. -1.
        994   -1    0    0    0    0 -0.00000000000E+00 -0.00000000000E+00  0.11368683772E-12  0.17120000000E+03  0.17120000000E+03 0.  0.
         13    1    1    2    0    0  0.24729900386E+02  0.87251970020E+01  0.30628727577E+02  0.40321547005E+02  0.10566000000E+00 0. -1.
        994    1    1    2    0    0 -0.22185793876E+02 -0.67541776122E+01  0.11689289441E+02  0.17315862050E+03  0.17120000000E+03 0.  0.
        998    1    1    2    0    0 -0.25441065104E+01 -0.19710193898E+01  0.14576819793E+04  0.14577198325E+04  0.10000000000E+02 0. -1.
</event>
<event>
 5    1  0.9123258E-009  0.3820379E+03  0.7957747E-01  0.3442333E+00
         13   -1    0    0    0    0  0.00000000000E+00  0.00000000000E+00  0.14999999963E+04  0.15000000000E+04  0.10566000000E+00 0. -1.
        994   -1    0    0    0    0 -0.00000000000E+00 -0.00000000000E+00  0.11368683772E-12  0.17120000000E+03  0.17120000000E+03 0.  0.
         13    1    1    2    0    0  0.11916735612E+02  0.17106643480E+02  0.71262974323E+02  0.74250040486E+02  0.10566000000E+00 0. -1.
        994    1    1    2    0    0 -0.34418504401E+01 -0.55434121127E+01  0.32493365815E+01  0.17135511063E+03  0.17120000000E+03 0.  0.
        998    1    1    2    0    0 -0.84748851717E+01 -0.11563231367E+02  0.14254876854E+04  0.14255948489E+04  0.10000000000E+02 0. -1.
</event>
<event>
 5    1  0.9123258E-009  0.3768813E+03  0.7957747E-01  0.3464851E+00
         13   -1    0    0    0    0  0.00000000000E+00  0.00000000000E+00  0.14999999963E+04  0.15000000000E+04  0.10566000000E+00 0. -1.
        994   -1    0    0    0    0 -0.00000000000E+00 -0.00000000000E+00  0.11368683772E-12  0.17120000000E+03  0.17120000000E+03 0.  0.
         13    1    1    2    0    0 -0.17748402801E+02 -0.19366256107E+02  0.62310573470E+02  0.67621567623E+02  0.10566000000E+00 0. -1.
        994    1    1    2    0    0  0.10930215324E+02 -0.12422350091E+02  0.66410924053E+01  0.17212590885E+03  0.17120000000E+03 0.  0.
        998    1    1    2    0    0  0.68181874768E+01  0.31788606198E+02  0.14310483304E+04  0.14314525235E+04  0.10000000000E+02 0. -1.
</event>
<event>
 5    1  0.9123258E-009  0.3783940E+03  0.7957747E-01  0.3458181E+00
         13   -1    0    0    0    0  0.00000000000E+00  0.00000000000E+00  0.14999999963E+04  0.15000000000E+04  0.10566000000E+00 0. -1.
        994   -1    0    0    0    0 -0.00000000000E+00 -0.00000000000E+00  0.11368683772E-12  0.17120000000E+03  0.17120000000E+03 0.  0.
         13    1    1    2    0    0  0.53028231132E+02 -0.51429750442E+02  0.37960327920E+03  0.38672428586E+03  0.10566000000E+00 0. -1.
        994    1    1    2    0    0 -0.62565986039E+02  0.52585639198E+02  0.27733665473E+02  0.19172466784E+03  0.17120000000E+03 0.  0.
        998    1    1    2    0    0  0.95377549076E+01 -0.11558887561E+01  0.10926630516E+04  0.10927510463E+04  0.10000000000E+02 0.  0.
</event>
<event>
 5    1  0.9123258E-009  0.3551881E+03  0.7957747E-01  0.3566862E+00
         13   -1    0    0    0    0  0.00000000000E+00  0.00000000000E+00  0.14999999963E+04  0.15000000000E+04  0.10566000000E+00 0. -1.
        994   -1    0    0    0    0 -0.00000000000E+00 -0.00000000000E+00  0.11368683772E-12  0.17120000000E+03  0.17120000000E+03 0.  0.
         13    1    1    2    0    0  0.24637708875E+03 -0.65232072425E+02  0.93916607968E+03  0.97313402444E+03  0.10566000000E+00 0. -1.
        994    1    1    2    0    0 -0.27009143663E+03  0.22032693189E+02  0.32329310695E+03  0.45526113025E+03  0.17120000000E+03 0.  0.
        998    1    1    2    0    0  0.23714347884E+02  0.43199379236E+02  0.23754080964E+03  0.24280484531E+03  0.10000000000E+02 0.  1.
</event>
<event>
 5    1  0.9123258E-009  0.3836030E+03  0.7957747E-01  0.3435619E+00
         13   -1    0    0    0    0  0.00000000000E+00  0.00000000000E+00  0.14999999963E+04  0.15000000000E+04  0.10566000000E+00 0. -1.
        994   -1    0    0    0    0 -0.00000000000E+00 -0.00000000000E+00  0.11368683772E-12  0.17120000000E+03  0.17120000000E+03 0.  0.
         13    1    1    2    0    0 -0.11769516723E+02  0.49611877093E+01  0.34047139548E+02  0.36364182692E+02  0.10566000000E+00 0. -1.
        994    1    1    2    0    0  0.77345011807E+01 -0.10551524611E+02  0.28909412011E+01  0.17172348331E+03  0.17120000000E+03 0.  0.
        998    1    1    2    0    0  0.40350155422E+01  0.55903369018E+01  0.14630619155E+04  0.14631123340E+04  0.10000000000E+02 0. -1.
</event>
<event>
 5    1  0.9123258E-009  0.3751082E+03  0.7957747E-01  0.3472739E+00
         13   -1    0    0    0    0  0.00000000000E+00  0.00000000000E+00  0.14999999963E+04  0.15000000000E+04  0.10566000000E+00 0.  1.
        994   -1    0    0    0    0 -0.00000000000E+00 -0.00000000000E+00  0.11368683772E-12  0.17120000000E+03  0.17120000000E+03 0.  0.
         13    1    1    2    0    0  0.22033127357E+02 -0.12481093987E+02  0.47619196645E+02  0.53933620881E+02  0.10566000000E+00 0.  1.
        994    1    1    2    0    0 -0.36613455093E+01  0.22950683050E+01  0.66866279262E+01  0.17138501621E+03  0.17120000000E+03 0.  0.
        998    1    1    2    0    0 -0.18371781847E+02  0.10186025682E+02  0.14456941717E+04  0.14458813629E+04  0.10000000000E+02 0.  1.
</event>
<event>
 5    1  0.9123258E-009  0.3774041E+03  0.7957747E-01  0.3462540E+00
         13   -1    0    0    0    0  0.00000000000E+00  0.00000000000E+00  0.14999999963E+04  0.15000000000E+04  0.10566000000E+00 0.  1.
        994   -1    0    0    0    0 -0.00000000000E+00 -0.00000000000E+00  0.11368683772E-12  0.17120000000E+03  0.17120000000E+03 0.  0.
         13    1    1    2    0    0 -0.12411464137E+02  0.17540792155E+02  0.41225123348E+02  0.46489200795E+02  0.10566000000E+00 0.  1.
        994    1    1    2    0    0  0.56496148026E+01 -0.38457159800E+01  0.56068145276E+01  0.17142807252E+03  0.17120000000E+03 0.  0.
        998    1    1    2    0    0  0.67618493340E+01 -0.13695076176E+02  0.14531680584E+04  0.14532827267E+04  0.10000000000E+02 0.  1.
</event>
<event>
 5    1  0.9123258E-009  0.3709139E+03  0.7957747E-01  0.3491701E+00
         13   -1    0    0    0    0  0.00000000000E+00  0.00000000000E+00  0.14999999963E+04  0.15000000000E+04  0.10566000000E+00 0.  1.
        994   -1    0    0    0    0 -0.00000000000E+00 -0.00000000000E+00  0.11368683772E-12  0.17120000000E+03  0.17120000000E+03 0.  0.
         13    1    1    2    0    0  0.15284385862E+03  0.65380183967E+02  0.64958659642E+03  0.67052111897E+03  0.10566000000E+00 0.  1.
        994    1    1    2    0    0 -0.15959019021E+03 -0.88674223370E+02  0.13421204567E+03  0.28399728855E+03  0.17120000000E+03 0.  0.
        998    1    1    2    0    0  0.67463315899E+01  0.23294039403E+02  0.71620135418E+03  0.71668159248E+03  0.10000000000E+02 0.  1.
</event>
<event>
 5    1  0.9123258E-009  0.3813975E+03  0.7957747E-01  0.3445096E+00
         13   -1    0    0    0    0  0.00000000000E+00  0.00000000000E+00  0.14999999963E+04  0.15000000000E+04  0.10566000000E+00 0.  1.
        994   -1    0    0    0    0 -0.00000000000E+00 -0.00000000000E+00  0.11368683772E-12  0.17120000000E+03  0.17120000000E+03 0.  0.
         13    1    1    2    0    0 -0.24205638725E+02 -0.26142053678E+02  0.16306827083E+03  0.16691492454E+03  0.10566000000E+00 0.  1.
        994    1    1    2    0    0  0.30513031669E+02  0.23478220285E+02  0.83774622556E+01  0.17567553559E+03  0.17120000000E+03 0.  0.
        998    1    1    2    0    0 -0.63073929446E+01  0.26638333936E+01  0.13285542632E+04  0.13286095399E+04  0.10000000000E+02 0.  1.
</event>
<event>
 5    1  0.9123258E-009  0.3809525E+03  0.7957747E-01  0.3447021E+00
         13   -1    0    0    0    0  0.00000000000E+00  0.00000000000E+00  0.14999999963E+04  0.15000000000E+04  0.10566000000E+00 0.  1.
        994   -1    0    0    0    0 -0.00000000000E+00 -0.00000000000E+00  0.11368683772E-12  0.17120000000E+03  0.17120000000E+03 0.  0.
         13    1    1    2    0    0  0.26260695702E+01  0.15723632379E+02  0.35056198181E+02  0.38510739431E+02  0.10566000000E+00 0.  1.
        994    1    1    2    0    0 -0.27715773265E+02  0.81136594469E+01  0.64372931263E+01  0.17373794721E+03  0.17120000000E+03 0.  0.
        998    1    1    2    0    0  0.25089703695E+02 -0.23837291826E+02  0.14585065050E+04  0.14589513134E+04  0.10000000000E+02 0.  1.
</event>
<event>
 5    1  0.9123258E-009  0.3811125E+03  0.7957747E-01  0.3446329E+00
         13   -1    0    0    0    0  0.00000000000E+00  0.00000000000E+00  0.14999999963E+04  0.15000000000E+04  0.10566000000E+00 0.  1.
        994   -1    0    0    0    0 -0.00000000000E+00 -0.00000000000E+00  0.11368683772E-12  0.17120000000E+03  0.17120000000E+03 0.  0.
         13    1    1    2    0    0  0.13856491076E+02 -0.11495365710E+02  0.47266043863E+02  0.50579005963E+02  0.10566000000E+00 0.  1.
        994    1    1    2    0    0  0.14367012878E+02  0.78757907872E+01  0.44671913250E+01  0.17204021314E+03  0.17120000000E+03 0.  0.
        998    1    1    2    0    0 -0.28223503953E+02  0.36195749231E+01  0.14482667611E+04  0.14485807809E+04  0.10000000000E+02 0.  1.
</event>
<event>
 5    1  0.9123258E-009  0.3796694E+03  0.7957747E-01  0.3452599E+00
         13   -1    0    0    0    0  0.00000000000E+00  0.00000000000E+00  0.14999999963E+04  0.15000000000E+04  0.10566000000E+00 0.  1.
        994   -1    0    0    0    0 -0.00000000000E+00 -0.00000000000E+00  0.11368683772E-12  0.17120000000E+03  0.17120000000E+03 0.  0.
         13    1    1    2    0    0 -0.36437831263E+01 -0.14838444886E+02  0.24816416690E+02  0.29143134757E+02  0.10566000000E+00 0.  1.
        994    1    1    2    0    0  0.33679884781E+01  0.18292937888E+02  0.54587931021E+01  0.17229397362E+03  0.17120000000E+03 0.  0.
        998    1    1    2    0    0  0.27579464827E+00 -0.34544930023E+01  0.14697247865E+04  0.14697628916E+04  0.10000000000E+02 0.  1.
</event>
<event>
 5    1  0.9123258E-009  0.3771837E+03  0.7957747E-01  0.3463514E+00
         13   -1    0    0    0    0  0.00000000000E+00  0.00000000000E+00  0.14999999963E+04  0.15000000000E+04  0.10566000000E+00 0.  1.
        994   -1    0    0    0    0 -0.00000000000E+00 -0.00000000000E+00  0.11368683772E-12  0.17120000000E+03  0.17120000000E+03 0.  0.
         13    1    1    2    0    0  0.61678239933E+02 -0.81308689874E+02  0.57297229227E+03  0.58199017792E+03  0.10566000000E+00 0.  1.
        994    1    1    2    0    0 -0.56976087321E+02  0.83540049379E+02  0.40882225103E+02  0.20299263707E+03  0.17120000000E+03 0.  0.
        998    1    1    2    0    0 -0.47021526129E+01 -0.22313595048E+01  0.88614547891E+03  0.88621718500E+03  0.10000000000E+02 0.  1.
</event>
<event>
 5    1  0.9123258E-009  0.3687382E+03  0.7957747E-01  0.3501710E+00
         13   -1    0    0    0    0  0.00000000000E+00  0.00000000000E+00  0.14999999963E+04  0.15000000000E+04  0.10566000000E+00 0. -1.
        994   -1    0    0    0    0 -0.00000000000E+00 -0.00000000000E+00  0.11368683772E-12  0.17120000000E+03  0.17120000000E+03 0.  0.
         13    1    1    2    0    0 -0.13683236544E+02  0.12675936281E+02  0.13009291949E+02  0.22741221690E+02  0.10566000000E+00 0. -1.
        994    1    1    2    0    0  0.12026394390E+02 -0.14406486831E+02  0.11154058271E+02  0.17258630896E+03  0.17120000000E+03 0.  0.
        998    1    1    2    0    0  0.16568421539E+01  0.17305505500E+01  0.14758366461E+04  0.14758724693E+04  0.10000000000E+02 0. -1.
</event>
<event>
 5    1  0.9123258E-009  0.3854526E+03  0.7957747E-01  0.3427755E+00
         13   -1    0    0    0    0  0.00000000000E+00  0.00000000000E+00  0.14999999963E+04  0.15000000000E+04  0.10566000000E+00 0. -1.
        994   -1    0    0    0    0 -0.00000000000E+00 -0.00000000000E+00  0.11368683772E-12  0.17120000000E+03  0.17120000000E+03 0.  0.
         13    1    1    2    0    0 -0.10273644193E+02  0.11498329347E+02  0.85949211508E+02  0.87321460510E+02  0.10566000000E+00 0. -1.
        994    1    1    2    0    0  0.37839599796E+01 -0.80884600359E+01  0.16675126140E+01  0.17144084151E+03  0.17120000000E+03 0.  0.
        998    1    1    2    0    0  0.64896842132E+01 -0.34098693112E+01  0.14123832722E+04  0.14124376980E+04  0.10000000000E+02 0. -1.
</event>
<event>
 5    1  0.9123258E-009  0.3928126E+03  0.7957747E-01  0.3397199E+00
         13   -1    0    0    0    0  0.00000000000E+00  0.00000000000E+00  0.14999999963E+04  0.15000000000E+04  0.10566000000E+00 0. -1.
        994   -1    0    0    0    0 -0.00000000000E+00 -0.00000000000E+00  0.11368683772E-12  0.17120000000E+03  0.17120000000E+03 0.  0.
         13    1    1    2    0    0 -0.20325315077E+02 -0.13831269674E+02  0.26538761825E+01  0.24728054444E+02  0.10566000000E+00 0. -1.
        994    1    1    2    0    0  0.16862636429E+02  0.12613154166E+02  0.25239784041E+02  0.17432706865E+03  0.17120000000E+03 0.  0.
        998    1    1    2    0    0  0.34626786479E+01  0.12181155081E+01  0.14721063361E+04  0.14721448769E+04  0.10000000000E+02 0. -1.
</event>
<event>
 5    1  0.9123258E-009  0.2158689E+03  0.7957747E-01  0.4771429E+00
         13   -1    0    0    0    0  0.00000000000E+00  0.00000000000E+00  0.14999999963E+04  0.15000000000E+04  0.10566000000E+00 0.  1.
        994   -1    0    0    0    0 -0.00000000000E+00 -0.00000000000E+00  0.11368683772E-12  0.17120000000E+03  0.17120000000E+03 0.  0.
         13    1    1    2    0    0  0.79325560063E+01  0.91226052437E+02  0.21022941701E+02  0.93952612150E+02  0.10566000000E+00 0.  1.
        994    1    1    2    0    0  0.42733546394E+01 -0.11778892459E+03  0.17167859731E+03  0.26958388878E+03  0.17120000000E+03 0.  0.
        998    1    1    2    0    0 -0.12205910646E+02  0.26562872150E+02  0.13072984573E+04  0.13076634991E+04  0.10000000000E+02 0.  1.
</event>
<event>
 5    1  0.9123258E-009  0.3850918E+03  0.7957747E-01  0.3429283E+00
         13   -1    0    0    0    0  0.00000000000E+00  0.00000000000E+00  0.14999999963E+04  0.15000000000E+04  0.10566000000E+00 0.  1.
        994   -1    0    0    0    0 -0.00000000000E+00 -0.00000000000E+00  0.11368683772E-12  0.17120000000E+03  0.17120000000E+03 0.  0.
         13    1    1    2    0    0  0.28206428553E+01  0.17811275405E+02  0.98710298487E+02  0.10034406684E+03  0.10566000000E+00 0.  1.
        994    1    1    2    0    0 -0.11057347679E+02 -0.15192734202E+02  0.27462309466E+01  0.17225000985E+03  0.17120000000E+03 0.  0.
        998    1    1    2    0    0  0.82367048238E+01 -0.26185412031E+01  0.13985434668E+04  0.13986059233E+04  0.10000000000E+02 0.  1.
</event>
<event>
 5    1  0.9123258E-009  0.3745436E+03  0.7957747E-01  0.3475266E+00
         13   -1    0    0    0    0  0.00000000000E+00  0.00000000000E+00  0.14999999963E+04  0.15000000000E+04  0.10566000000E+00 0.  1.
        994   -1    0    0    0    0 -0.00000000000E+00 -0.00000000000E+00  0.11368683772E-12  0.17120000000E+03  0.17120000000E+03 0.  0.
         13    1    1    2    0    0 -0.76788093154E+02  0.64553501360E+02  0.49386366949E+03  0.50394930399E+03  0.10566000000E+00 0.  1.
        994    1    1    2    0    0  0.86304641657E+02 -0.49410549259E+02  0.41366755209E+02  0.20226354587E+03  0.17120000000E+03 0.  0.
        998    1    1    2    0    0 -0.95165485027E+01 -0.15142952101E+02  0.96476957158E+03  0.96498715014E+03  0.10000000000E+02 0.  1.
</event>
<event>
 5    1  0.9123258E-009  0.3803543E+03  0.7957747E-01  0.3449617E+00
         13   -1    0    0    0    0  0.00000000000E+00  0.00000000000E+00  0.14999999963E+04  0.15000000000E+04  0.10566000000E+00 0.  1.
        994   -1    0    0    0    0 -0.00000000000E+00 -0.00000000000E+00  0.11368683772E-12  0.17120000000E+03  0.17120000000E+03 0.  0.
         13    1    1    2    0    0 -0.21197097277E+01 -0.18676817761E+02  0.41389836888E+02  0.45458183561E+02  0.10566000000E+00 0.  1.
        994    1    1    2    0    0  0.62552139786E+01  0.23921706495E+02  0.59984378992E+01  0.17308031951E+03  0.17120000000E+03 0.  0.
        998    1    1    2    0    0 -0.41355042509E+01 -0.52448887337E+01  0.14526117215E+04  0.14526614969E+04  0.10000000000E+02 0.  1.
</event>
<event>
 5    1  0.9123258E-009  0.3805479E+03  0.7957747E-01  0.3448776E+00
         13   -1    0    0    0    0  0.00000000000E+00  0.00000000000E+00  0.14999999963E+04  0.15000000000E+04  0.10566000000E+00 0. -1.
        994   -1    0    0    0    0 -0.00000000000E+00 -0.00000000000E+00  0.11368683772E-12  0.17120000000E+03  0.17120000000E+03 0.  0.
         13    1    1    2    0    0  0.22230195879E+02 -0.21094337941E+02  0.11642349775E+03  0.12038934627E+03  0.10566000000E+00 0. -1.
        994    1    1    2    0    0 -0.17372877179E+02  0.17080253025E+02  0.58399450459E+01  0.17302339976E+03  0.17120000000E+03 0.  0.
        998    1    1    2    0    0 -0.48573187000E+01  0.40140849159E+01  0.13777365535E+04  0.13777872540E+04  0.10000000000E+02 0. -1.
</event>
<event>
 5    1  0.9123258E-009  0.3724695E+03  0.7957747E-01  0.3484618E+00
         13   -1    0    0    0    0  0.00000000000E+00  0.00000000000E+00  0.14999999963E+04  0.15000000000E+04  0.10566000000E+00 0.  1.
        994   -1    0    0    0    0 -0.00000000000E+00 -0.00000000000E+00  0.11368683772E-12  0.17120000000E+03  0.17120000000E+03 0.  0.
         13    1    1    2    0    0 -0.20562990905E+02  0.31034318485E+02  0.92620627956E+02  0.99822629728E+02  0.10566000000E+00 0.  1.
        994    1    1    2    0    0 -0.65908357072E+01 -0.14460222113E+01  0.81400925033E+01  0.17152618226E+03  0.17120000000E+03 0.  0.
        998    1    1    2    0    0  0.27153826613E+02 -0.29588296274E+02  0.13992392758E+04  0.13998511880E+04  0.10000000000E+02 0.  1.
</event>
<event>
 5    1  0.9123258E-009  0.3862836E+03  0.7957747E-01  0.3424246E+00
         13   -1    0    0    0    0  0.00000000000E+00  0.00000000000E+00  0.14999999963E+04  0.15000000000E+04  0.10566000000E+00 0. -1.
        994   -1    0    0    0    0 -0.00000000000E+00 -0.00000000000E+00  0.11368683772E-12  0.17120000000E+03  0.17120000000E+03 0.  0.
         13    1    1    2    0    0  0.44420304741E+01  0.90520935283E+01  0.52697701256E+02  0.53653806143E+02  0.10566000000E+00 0. -1.
        994    1    1    2    0    0 -0.15079820846E+02  0.15040767229E+01  0.17466823742E+01  0.17187831202E+03  0.17120000000E+03 0.  0.
        998    1    1    2    0    0  0.10637790371E+02 -0.10556170251E+02  0.14455556126E+04  0.14456678818E+04  0.10000000000E+02 0. -1.
</event>
<event>
 5    1  0.9123258E-009  0.3806158E+03  0.7957747E-01  0.3448482E+00
         13   -1    0    0    0    0  0.00000000000E+00  0.00000000000E+00  0.14999999963E+04  0.15000000000E+04  0.10566000000E+00 0.  1.
        994   -1    0    0    0    0 -0.00000000000E+00 -0.00000000000E+00  0.11368683772E-12  0.17120000000E+03  0.17120000000E+03 0.  0.
         13    1    1    2    0    0  0.15667364846E+02 -0.95265713069E+01  0.38593993412E+02  0.42728554546E+02  0.10566000000E+00 0.  1.
        994    1    1    2    0    0 -0.30594019431E+02  0.26967396880E+02  0.93913949756E+01  0.17624095103E+03  0.17120000000E+03 0.  0.
        998    1    1    2    0    0  0.14926654585E+02 -0.17440825573E+02  0.14520146079E+04  0.14522304944E+04  0.10000000000E+02 0.  1.
</event>
<event>
 5    1  0.9123258E-009  0.3764953E+03  0.7957747E-01  0.3466562E+00
         13   -1    0    0    0    0  0.00000000000E+00  0.00000000000E+00  0.14999999963E+04  0.15000000000E+04  0.10566000000E+00 0. -1.
        994   -1    0    0    0    0 -0.00000000000E+00 -0.00000000000E+00  0.11368683772E-12  0.17120000000E+03  0.17120000000E+03 0.  0.
         13    1    1    2    0    0 -0.28631961155E+02 -0.56689438163E+02  0.26863891624E+03  0.27604412706E+03  0.10566000000E+00 0. -1.
        994    1    1    2    0    0  0.38928311781E+02  0.57277339890E+02  0.22310138016E+02  0.18601959408E+03  0.17120000000E+03 0.  0.
        998    1    1    2    0    0 -0.10296350626E+02 -0.58790172736E+00  0.12090509420E+04  0.12091362789E+04  0.10000000000E+02 0. -1.
</event>
<event>
 5    1  0.9123258E-009  0.3799589E+03  0.7957747E-01  0.3451338E+00
         13   -1    0    0    0    0  0.00000000000E+00  0.00000000000E+00  0.14999999963E+04  0.15000000000E+04  0.10566000000E+00 0. -1.
        994   -1    0    0    0    0 -0.00000000000E+00 -0.00000000000E+00  0.11368683772E-12  0.17120000000E+03  0.17120000000E+03 0.  0.
         13    1    1    2    0    0  0.16352909958E+02 -0.12433352488E+02  0.47651457908E+02  0.51891025457E+02  0.10566000000E+00 0. -1.
        994    1    1    2    0    0 -0.17311821434E+02  0.14213069866E+02  0.58331050435E+01  0.17275756317E+03  0.17120000000E+03 0.  0.
        998    1    1    2    0    0  0.95891147537E+00 -0.17797173784E+01  0.14465154333E+04  0.14465514114E+04  0.10000000000E+02 0. -1.
</event>
<event>
 5    1  0.9123258E-009  0.3840286E+03  0.7957747E-01  0.3433803E+00
         13   -1    0    0    0    0  0.00000000000E+00  0.00000000000E+00  0.14999999963E+04  0.15000000000E+04  0.10566000000E+00 0.  1.
        994   -1    0    0    0    0 -0.00000000000E+00 -0.00000000000E+00  0.11368683772E-12  0.17120000000E+03  0.17120000000E+03 0.  0.
         13    1    1    2    0    0 -0.13974457021E+02 -0.32818041366E+00  0.45636367619E+02  0.47729261097E+02  0.10566000000E+00 0.  1.
        994    1    1    2    0    0  0.98747569485E+01  0.99667704516E-01  0.24349979429E+01  0.17150186580E+03  0.17120000000E+03 0.  0.
        998    1    1    2    0    0  0.40997000727E+01  0.22851270914E+00  0.14519286307E+04  0.14519688731E+04  0.10000000000E+02 0.  1.
</event>
<event>
 5    1  0.9123258E-009  0.3858540E+03  0.7957747E-01  0.3426058E+00
         13   -1    0    0    0    0  0.00000000000E+00  0.00000000000E+00  0.14999999963E+04  0.15000000000E+04  0.10566000000E+00 0. -1.
        994   -1    0    0    0    0 -0.00000000000E+00 -0.00000000000E+00  0.11368683772E-12  0.17120000000E+03  0.17120000000E+03 0.  0.
         13    1    1    2    0    0  0.36104937034E+00 -0.11419840240E+02  0.54888238528E+02  0.56064899897E+02  0.10566000000E+00 0. -1.
        994    1    1    2    0    0 -0.49718707064E+00  0.68745395794E+01  0.13625575565E+01  0.17134410714E+03  0.17120000000E+03 0.  0.
        998    1    1    2    0    0  0.13613770031E+00  0.45453006604E+01  0.14437492002E+04  0.14437909930E+04  0.10000000000E+02 0. -1.
</event>
<event>
 5    1  0.9123258E-009  0.3752171E+03  0.7957747E-01  0.3472252E+00
         13   -1    0    0    0    0  0.00000000000E+00  0.00000000000E+00  0.14999999963E+04  0.15000000000E+04  0.10566000000E+00 0.  1.
        994   -1    0    0    0    0 -0.00000000000E+00 -0.00000000000E+00  0.11368683772E-12  0.17120000000E+03  0.17120000000E+03 0.  0.
         13    1    1    2    0    0 -0.54163257624E+02 -0.17690830896E+02  0.24362882640E+03  0.25020319781E+03  0.10566000000E+00 0.  1.
        994    1    1    2    0    0  0.37923051171E+02 -0.66816154237E+01  0.11620562417E+02  0.17586153435E+03  0.17120000000E+03 0.  0.
        998    1    1    2    0    0  0.16240206453E+02  0.24372446320E+02  0.12447506075E+04  0.12451352678E+04  0.10000000000E+02 0.  1.
</event>
<event>
 5    1  0.9123258E-009  0.3772132E+03  0.7957747E-01  0.3463383E+00
         13   -1    0    0    0    0  0.00000000000E+00  0.00000000000E+00  0.14999999963E+04  0.15000000000E+04  0.10566000000E+00 0. -1.
        994   -1    0    0    0    0 -0.00000000000E+00 -0.00000000000E+00  0.11368683772E-12  0.17120000000E+03  0.17120000000E+03 0.  0.
         13    1    1    2    0    0 -0.68057216771E+02  0.10906021691E+02  0.17342000409E+03  0.18661520583E+03  0.10566000000E+00 0. -1.
        994    1    1    2    0    0  0.12510429874E+02 -0.29504793867E+02  0.18497521207E+02  0.17515319582E+03  0.17120000000E+03 0.  0.
        998    1    1    2    0    0  0.55546786897E+02  0.18598772176E+02  0.13080824710E+04  0.13094315983E+04  0.10000000000E+02 0. -1.
</event>
<event>
 5    1  0.9123258E-009  0.3824658E+03  0.7957747E-01  0.3440492E+00
         13   -1    0    0    0    0  0.00000000000E+00  0.00000000000E+00  0.14999999963E+04  0.15000000000E+04  0.10566000000E+00 0. -1.
        994   -1    0    0    0    0 -0.00000000000E+00 -0.00000000000E+00  0.11368683772E-12  0.17120000000E+03  0.17120000000E+03 0.  0.
         13    1    1    2    0    0  0.13833668050E+02 -0.25896730836E+02  0.16313624429E+03  0.16575722128E+03  0.10566000000E+00 0. -1.
        994    1    1    2    0    0 -0.90744617160E+01  0.10961337917E+01  0.31706627898E+01  0.17147314795E+03  0.17120000000E+03 0.  0.
        998    1    1    2    0    0 -0.47592063336E+01  0.24800597044E+02  0.13336930892E+04  0.13339696308E+04  0.10000000000E+02 0. -1.
</event>
<event>
 5    1  0.9123258E-009  0.3842889E+03  0.7957747E-01  0.3432694E+00
         13   -1    0    0    0    0  0.00000000000E+00  0.00000000000E+00  0.14999999963E+04  0.15000000000E+04  0.10566000000E+00 0.  1.
        994   -1    0    0    0    0 -0.00000000000E+00 -0.00000000000E+00  0.11368683772E-12  0.17120000000E+03  0.17120000000E+03 0.  0.
         13    1    1    2    0    0 -0.18368516056E+01  0.10792647851E+02  0.29973325901E+02  0.31910291460E+02  0.10566000000E+00 0.  1.
        994    1    1    2    0    0  0.32608111160E+01 -0.48627502745E+01  0.20966060275E+01  0.17131291541E+03  0.17120000000E+03 0.  0.
        998    1    1    2    0    0 -0.14239595104E+01 -0.59298975766E+01  0.14679300643E+04  0.14679767931E+04  0.10000000000E+02 0.  1.
</event>
<event>
 5    1  0.9123258E-009  0.3855082E+03  0.7957747E-01  0.3427520E+00
         13   -1    0    0    0    0  0.00000000000E+00  0.00000000000E+00  0.14999999963E+04  0.15000000000E+04  0.10566000000E+00 0.  1.
        994   -1    0    0    0    0 -0.00000000000E+00 -0.00000000000E+00  0.11368683772E-12  0.17120000000E+03  0.17120000000E+03 0.  0.
         13    1    1    2    0    0 -0.12611259121E+02 -0.10998639764E+02  0.91382496580E+02  0.92902022467E+02  0.10566000000E+00 0.  1.
        994    1    1    2    0    0  0.20235431789E+02  0.14358969308E+02  0.34019580800E+01  0.17302215470E+03  0.17120000000E+03 0.  0.
        998    1    1    2    0    0 -0.76241726681E+01 -0.33603295445E+01  0.14052155416E+04  0.14052758228E+04  0.10000000000E+02 0.  1.
</event>
<event>
 5    1  0.9123258E-009  0.3807780E+03  0.7957747E-01  0.3447778E+00
         13   -1    0    0    0    0  0.00000000000E+00  0.00000000000E+00  0.14999999963E+04  0.15000000000E+04  0.10566000000E+00 0.  1.
        994   -1    0    0    0    0 -0.00000000000E+00 -0.00000000000E+00  0.11368683772E-12  0.17120000000E+03  0.17120000000E+03 0.  0.
         13    1    1    2    0    0  0.14163894325E+02 -0.97899920988E+01  0.33033285755E+02  0.37251429229E+02  0.10566000000E+00 0.  1.
        994    1    1    2    0    0 -0.48788772534E+02  0.26652389589E+02  0.14115926750E+02  0.18055302153E+03  0.17120000000E+03 0.  0.
        998    1    1    2    0    0  0.34624878209E+02 -0.16862397490E+02  0.14528507838E+04  0.14533955492E+04  0.10000000000E+02 0.  1.
</event>
<event>
 5    1  0.9123258E-009  0.3793805E+03  0.7957747E-01  0.3453860E+00
         13   -1    0    0    0    0  0.00000000000E+00  0.00000000000E+00  0.14999999963E+04  0.15000000000E+04  0.10566000000E+00 0.  1.
        994   -1    0    0    0    0 -0.00000000000E+00 -0.00000000000E+00  0.11368683772E-12  0.17120000000E+03  0.17120000000E+03 0.  0.
         13    1    1    2    0    0 -0.49404775637E+02  0.75995217321E+02  0.54389376284E+03  0.55139508643E+03  0.10566000000E+00 0.  1.
        994    1    1    2    0    0  0.34627655001E+02 -0.92761050400E+02  0.38019393620E+02  0.20139166133E+03  0.17120000000E+03 0.  0.
        998    1    1    2    0    0  0.14777120636E+02  0.16765833078E+02  0.91808683982E+03  0.91841325224E+03  0.10000000000E+02 0.  1.
</event>
<event>
 5    1  0.9123258E-009  0.3731793E+03  0.7957747E-01  0.3481406E+00
         13   -1    0    0    0    0  0.00000000000E+00  0.00000000000E+00  0.14999999963E+04  0.15000000000E+04  0.10566000000E+00 0.  1.
        994   -1    0    0    0    0 -0.00000000000E+00 -0.00000000000E+00  0.11368683772E-12  0.17120000000E+03  0.17120000000E+03 0.  0.
         13    1    1    2    0    0 -0.23126221629E+02 -0.41753481397E+02  0.83765387683E+02  0.96409681429E+02  0.10566000000E+00 0.  1.
        994    1    1    2    0    0  0.21973815484E+02  0.32072240544E+02  0.17992499206E+02  0.17647846103E+03  0.17120000000E+03 0.  0.
        998    1    1    2    0    0  0.11524061454E+01  0.96812408530E+01  0.13982421094E+04  0.13983118575E+04  0.10000000000E+02 0.  1.
</event>
<event>
 5    1  0.9123258E-009  0.3828486E+03  0.7957747E-01  0.3438848E+00
         13   -1    0    0    0    0  0.00000000000E+00  0.00000000000E+00  0.14999999963E+04  0.15000000000E+04  0.10566000000E+00 0.  1.
        994   -1    0    0    0    0 -0.00000000000E+00 -0.00000000000E+00  0.11368683772E-12  0.17120000000E+03  0.17120000000E+03 0.  0.
         13    1    1    2    0    0  0.11079574195E+02 -0.47492202177E+01  0.26871327617E+02  0.29451510470E+02  0.10566000000E+00 0.  1.
        994    1    1    2    0    0  0.75508784079E+01  0.12377394917E+02  0.33985250369E+01  0.17184645950E+03  0.17120000000E+03 0.  0.
        998    1    1    2    0    0 -0.18630452602E+02 -0.76281746989E+01  0.14697301436E+04  0.14699020300E+04  0.10000000000E+02 0.  1.
</event>
<event>
 5    1  0.1666843E-008  0.3860769E+03  0.7957747E-01  0.3425118E+00
         13   -1    0    0    0    0  0.00000000000E+00  0.00000000000E+00  0.14999999963E+04  0.15000000000E+04  0.10566000000E+00 0. -1.
        994   -1    0    0    0    0 -0.00000000000E+00 -0.00000000000E+00  0.11368683772E-12  0.17120000000E+03  0.17120000000E+03 0.  0.
         13    1    1    2    0    0  0.12829488149E+02  0.35630668469E+01  0.76658374145E+02  0.77806225343E+02  0.10566000000E+00 0. -1.
        994    1    1    2    0    0 -0.16090810045E+02 -0.46585538983E+01  0.20166140853E+01  0.17202942488E+03  0.17120000000E+03 0.  0.
        998    1    1    2    0    0  0.32613218957E+01  0.10954870513E+01  0.14213250080E+04  0.14213643498E+04  0.10000000000E+02 0. -1.
</event>
<event>
 5    1  0.9123258E-009  0.2572300E+03  0.7957747E-01  0.4258262E+00
         13   -1    0    0    0    0  0.00000000000E+00  0.00000000000E+00  0.14999999963E+04  0.15000000000E+04  0.10566000000E+00 0.  1.
        994   -1    0    0    0    0 -0.00000000000E+00 -0.00000000000E+00  0.11368683772E-12  0.17120000000E+03  0.17120000000E+03 0.  0.
         13    1    1    2    0    0 -0.50494165249E+02 -0.15639198248E+03  0.55946164224E+03  0.58309986556E+03  0.10566000000E+00 0.  1.
        994    1    1    2    0    0  0.10291670507E+03  0.86614743604E+01  0.83315406595E+02  0.21660509296E+03  0.17120000000E+03 0.  0.
        998    1    1    2    0    0 -0.52422539819E+02  0.14773050812E+03  0.85722294744E+03  0.87149504148E+03  0.10000000000E+02 0.  1.
</event>
<event>
 5    1  0.9123258E-009  0.3836166E+03  0.7957747E-01  0.3435560E+00
         13   -1    0    0    0    0  0.00000000000E+00  0.00000000000E+00  0.14999999963E+04  0.15000000000E+04  0.10566000000E+00 0. -1.
        994   -1    0    0    0    0 -0.00000000000E+00 -0.00000000000E+00  0.11368683772E-12  0.17120000000E+03  0.17120000000E+03 0.  0.
         13    1    1    2    0    0 -0.67725257616E+01 -0.20470595273E+02  0.11548031456E+03  0.11747606816E+03  0.10566000000E+00 0. -1.
        994    1    1    2    0    0  0.47983673960E+01 -0.83737778464E+01  0.26262653650E+01  0.17149192912E+03  0.17120000000E+03 0.  0.
        998    1    1    2    0    0  0.19741583656E+01  0.28844373120E+02  0.13818934164E+04  0.13822320027E+04  0.10000000000E+02 0. -1.
</event>
<event>
 5    1  0.9123258E-009  0.3853055E+03  0.7957747E-01  0.3428378E+00
         13   -1    0    0    0    0  0.00000000000E+00  0.00000000000E+00  0.14999999963E+04  0.15000000000E+04  0.10566000000E+00 0.  1.
        994   -1    0    0    0    0 -0.00000000000E+00 -0.00000000000E+00  0.11368683772E-12  0.17120000000E+03  0.17120000000E+03 0.  0.
         13    1    1    2    0    0 -0.69785635740E+01 -0.10932412722E+02  0.56803931284E+02  0.58265905733E+02  0.10566000000E+00 0.  1.
        994    1    1    2    0    0  0.77406313932E+01  0.61154867178E+01  0.17983212424E+01  0.17149341244E+03  0.17120000000E+03 0.  0.
        998    1    1    2    0    0 -0.76206781922E+00  0.48169260045E+01  0.14413977438E+04  0.14414406818E+04  0.10000000000E+02 0.  1.
</event>
<event>
 5    1  0.9123258E-009  0.3735669E+03  0.7957747E-01  0.3479657E+00
         13   -1    0    0    0    0  0.00000000000E+00  0.00000000000E+00  0.14999999963E+04  0.15000000000E+04  0.10566000000E+00 0. -1.
        994   -1    0    0    0    0 -0.00000000000E+00 -0.00000000000E+00  0.11368683772E-12  0.17120000000E+03  0.17120000000E+03 0.  0.
         13    1    1    2    0    0  0.18503536466E+02  0.17121006740E+02  0.43312821708E+02  0.50115081781E+02  0.10566000000E+00 0. -1.
        994    1    1    2    0    0  0.76753167814E+01  0.86780323565E+01  0.78750592540E+01  0.17177216099E+03  0.17120000000E+03 0.  0.
        998    1    1    2    0    0 -0.26178853248E+02 -0.25799039097E+02  0.14488121153E+04  0.14493127572E+04  0.10000000000E+02 0. -1.
</event>
<event>
 5    1  0.9123258E-009  0.3810056E+03  0.7957747E-01  0.3446792E+00
         13   -1    0    0    0    0  0.00000000000E+00  0.00000000000E+00  0.14999999963E+04  0.15000000000E+04  0.10566000000E+00 0.  1.
        994   -1    0    0    0    0 -0.00000000000E+00 -0.00000000000E+00  0.11368683772E-12  0.17120000000E+03  0.17120000000E+03 0.  0.
         13    1    1    2    0    0 -0.63089104698E+01 -0.79037671115E+01  0.12483495396E+02  0.16066135416E+02  0.10566000000E+00 0.  1.
        994    1    1    2    0    0  0.51705531464E+01  0.75922290691E+01  0.39075814916E+01  0.17149077455E+03  0.17120000000E+03 0.  0.
        998    1    1    2    0    0  0.11383573234E+01  0.31153804245E+00  0.14836089194E+04  0.14836430900E+04  0.10000000000E+02 0.  1.
</event>
<event>
 5    1  0.1010015E-008  0.3856059E+03  0.7957747E-01  0.3427106E+00
         13   -1    0    0    0    0  0.00000000000E+00  0.00000000000E+00  0.14999999963E+04  0.15000000000E+04  0.10566000000E+00 0.  1.
        994   -1    0    0    0    0 -0.00000000000E+00 -0.00000000000E+00  0.11368683772E-12  0.17120000000E+03  0.17120000000E+03 0.  0.
         13    1    1    2    0    0 -0.65958457425E+01  0.11819198693E+02  0.66350178176E+02  0.67716733137E+02  0.10566000000E+00 0.  1.
        994    1    1    2    0    0  0.82615406893E+01 -0.12834298629E+02  0.20946325494E+01  0.17189182575E+03  0.17120000000E+03 0.  0.
        998    1    1    2    0    0 -0.16656949468E+01  0.10150999361E+01  0.14315551856E+04  0.14315914411E+04  0.10000000000E+02 0.  1.
</event>
<event>
 5    1  0.9123258E-009  0.3827246E+03  0.7957747E-01  0.3439380E+00
         13   -1    0    0    0    0  0.00000000000E+00  0.00000000000E+00  0.14999999963E+04  0.15000000000E+04  0.10566000000E+00 0.  1.
        994   -1    0    0    0    0 -0.00000000000E+00 -0.00000000000E+00  0.11368683772E-12  0.17120000000E+03  0.17120000000E+03 0.  0.
         13    1    1    2    0    0 -0.20048859445E+02  0.83537848234E+01  0.80770165731E+02  0.83639544010E+02  0.10566000000E+00 0.  1.
        994    1    1    2    0    0  0.23685866241E+02 -0.28518219246E+00  0.46252460186E+01  0.17289284106E+03  0.17120000000E+03 0.  0.
        998    1    1    2    0    0 -0.36370067960E+01 -0.80686026309E+01  0.14146045845E+04  0.14146676149E+04  0.10000000000E+02 0.  1.
</event>
<event>
 5    1  0.9123258E-009  0.3812614E+03  0.7957747E-01  0.3445684E+00
         13   -1    0    0    0    0  0.00000000000E+00  0.00000000000E+00  0.14999999963E+04  0.15000000000E+04  0.10566000000E+00 0. -1.
        994   -1    0    0    0    0 -0.00000000000E+00 -0.00000000000E+00  0.11368683772E-12  0.17120000000E+03  0.17120000000E+03 0.  0.
         13    1    1    2    0    0 -0.56833878102E+01  0.14504331625E+02  0.33447666384E+02  0.36897616230E+02  0.10566000000E+00 0. -1.
        994    1    1    2    0    0  0.13108149778E+02 -0.54728510109E+01  0.41697571406E+01  0.17183888548E+03  0.17120000000E+03 0.  0.
        998    1    1    2    0    0 -0.74247619674E+01 -0.90314806141E+01  0.14623825728E+04  0.14624634983E+04  0.10000000000E+02 0. -1.
</event>
<event>
 5    1  0.9123258E-009  0.3825404E+03  0.7957747E-01  0.3440171E+00
         13   -1    0    0    0    0  0.00000000000E+00  0.00000000000E+00  0.14999999963E+04  0.15000000000E+04  0.10566000000E+00 0.  1.
        994   -1    0    0    0    0 -0.00000000000E+00 -0.00000000000E+00  0.11368683772E-12  0.17120000000E+03  0.17120000000E+03 0.  0.
         13    1    1    2    0    0  0.19357437191E+02 -0.29425356768E+01  0.72051525184E+02  0.74664598949E+02  0.10566000000E+00 0.  1.
        994    1    1    2    0    0  0.27219807026E+01 -0.59539421708E+01  0.29983306707E+01  0.17135136006E+03  0.17120000000E+03 0.  0.
        998    1    1    2    0    0 -0.22079417893E+02  0.88964778476E+01  0.14249501404E+04  0.14251840410E+04  0.10000000000E+02 0.  1.
</event>
<event>
 5    1  0.9123258E-009  0.3851026E+03  0.7957747E-01  0.3429237E+00
         13   -1    0    0    0    0  0.00000000000E+00  0.00000000000E+00  0.14999999963E+04  0.15000000000E+04  0.10566000000E+00 0. -1.
        994   -1    0    0    0    0 -0.00000000000E+00 -0.00000000000E+00  0.11368683772E-12  0.17120000000E+03  0.17120000000E+03 0.  0.
         13    1    1    2    0    0 -0.82895618135E+01 -0.72988287602E+01  0.37554051062E+02  0.39144701449E+02  0.10566000000E+00 0. -1.
        994    1    1    2    0    0  0.12492351834E+02  0.49604141136E+01  0.21733905412E+01  0.17174058399E+03  0.17120000000E+03 0.  0.
        998    1    1    2    0    0 -0.42027900206E+01  0.23384146466E+01  0.14602725547E+04  0.14603147146E+04  0.10000000000E+02 0. -1.
</event>
<event>
 5    1  0.9123258E-009  0.3852267E+03  0.7957747E-01  0.3428711E+00
         13   -1    0    0    0    0  0.00000000000E+00  0.00000000000E+00  0.14999999963E+04  0.15000000000E+04  0.10566000000E+00 0. -1.
        994   -1    0    0    0    0 -0.00000000000E+00 -0.00000000000E+00  0.11368683772E-12  0.17120000000E+03  0.17120000000E+03 0.  0.
         13    1    1    2    0    0 -0.60262253026E+01  0.16748437314E+02  0.93563145894E+02  0.95241267198E+02  0.10566000000E+00 0. -1.
        994    1    1    2    0    0  0.98662448380E+01 -0.23986149597E+02  0.37313425101E+01  0.17319365195E+03  0.17120000000E+03 0.  0.
        998    1    1    2    0    0 -0.38400195354E+01  0.72377122830E+01  0.14027055079E+04  0.14027650808E+04  0.10000000000E+02 0. -1.
</event>
<event>
 5    1  0.9123258E-009  0.3845451E+03  0.7957747E-01  0.3431604E+00
         13   -1    0    0    0    0  0.00000000000E+00  0.00000000000E+00  0.14999999963E+04  0.15000000000E+04  0.10566000000E+00 0.  1.
        994   -1    0    0    0    0 -0.00000000000E+00 -0.00000000000E+00  0.11368683772E-12  0.17120000000E+03  0.17120000000E+03 0.  0.
         13    1    1    2    0    0  0.23705448673E+02 -0.12052576240E+01  0.14000913209E+03  0.14200693354E+03  0.10566000000E+00 0.  1.
        994    1    1    2    0    0 -0.24039509147E+02 -0.56927072148E+01  0.38687595054E+01  0.17301650851E+03  0.17120000000E+03 0.  0.
        998    1    1    2    0    0  0.33406047331E+00  0.68979648388E+01  0.13561221047E+04  0.13561765580E+04  0.10000000000E+02 0.  1.
</event>
<event>
 5    1  0.9123258E-009  0.3695070E+03  0.7957747E-01  0.3498160E+00
         13   -1    0    0    0    0  0.00000000000E+00  0.00000000000E+00  0.14999999963E+04  0.15000000000E+04  0.10566000000E+00 0.  1.
        994   -1    0    0    0    0 -0.00000000000E+00 -0.00000000000E+00  0.11368683772E-12  0.17120000000E+03  0.17120000000E+03 0.  0.
         13    1    1    2    0    0  0.19041645037E+02  0.20463817293E+02  0.36974543810E+02  0.46351700270E+02  0.10566000000E+00 0.  1.
        994    1    1    2    0    0 -0.26515259923E+02 -0.44649208282E+01  0.12035143576E+02  0.17371608794E+03  0.17120000000E+03 0.  0.
        998    1    1    2    0    0  0.74736148860E+01 -0.15998896465E+02  0.14509903089E+04  0.14511322118E+04  0.10000000000E+02 0.  1.
</event>
<event>
 5    1  0.9123258E-009  0.3851081E+03  0.7957747E-01  0.3429214E+00
         13   -1    0    0    0    0  0.00000000000E+00  0.00000000000E+00  0.14999999963E+04  0.15000000000E+04  0.10566000000E+00 0.  1.
        994   -1    0    0    0    0 -0.00000000000E+00 -0.00000000000E+00  0.11368683772E-12  0.17120000000E+03  0.17120000000E+03 0.  0.
         13    1    1    2    0    0 -0.17075533769E+02  0.55680360291E+00  0.94222672867E+02  0.95759109906E+02  0.10566000000E+00 0.  1.
        994    1    1    2    0    0  0.10628495774E+02  0.23720911333E+02  0.38008347344E+01  0.17320373235E+03  0.17120000000E+03 0.  0.
        998    1    1    2    0    0  0.64470379958E+01 -0.24277714936E+02  0.14019764887E+04  0.14022371577E+04  0.10000000000E+02 0.  1.
</event>
<event>
 5    1  0.9123258E-009  0.3805707E+03  0.7957747E-01  0.3448677E+00
         13   -1    0    0    0    0  0.00000000000E+00  0.00000000000E+00  0.14999999963E+04  0.15000000000E+04  0.10566000000E+00 0.  1.
        994   -1    0    0    0    0 -0.00000000000E+00 -0.00000000000E+00  0.11368683772E-12  0.17120000000E+03  0.17120000000E+03 0.  0.
         13    1    1    2    0    0 -0.35337637187E+01 -0.33726808130E+02  0.14929323638E+03  0.15309626601E+03  0.10566000000E+00 0.  1.
        994    1    1    2    0    0  0.10367811151E+02  0.17986501797E+02  0.52847513380E+01  0.17253513947E+03  0.17120000000E+03 0.  0.
        998    1    1    2    0    0 -0.68340474322E+01  0.15740306333E+02  0.13454220086E+04  0.13455685945E+04  0.10000000000E+02 0.  1.
</event>
<event>
 5    1  0.9123258E-009  0.3711926E+03  0.7957747E-01  0.3490428E+00
         13   -1    0    0    0    0  0.00000000000E+00  0.00000000000E+00  0.14999999963E+04  0.15000000000E+04  0.10566000000E+00 0.  1.
        994   -1    0    0    0    0 -0.00000000000E+00 -0.00000000000E+00  0.11368683772E-12  0.17120000000E+03  0.17120000000E+03 0.  0.
         13    1    1    2    0    0 -0.82754009712E+00  0.43317286465E+02  0.99245703991E+02  0.10829031838E+03  0.10566000000E+00 0.  1.
        994    1    1    2    0    0 -0.10560603933E+02 -0.43131358259E+02  0.15467749601E+02  0.17754022558E+03  0.17120000000E+03 0.  0.
        998    1    1    2    0    0  0.11388144030E+02 -0.18592820655E+00  0.13852865427E+04  0.13853694560E+04  0.10000000000E+02 0.  1.
</event>
<event>
 5    1  0.9123258E-009  0.3696533E+03  0.7957747E-01  0.3497486E+00
         13   -1    0    0    0    0  0.00000000000E+00  0.00000000000E+00  0.14999999963E+04  0.15000000000E+04  0.10566000000E+00 0. -1.
        994   -1    0    0    0    0 -0.00000000000E+00 -0.00000000000E+00  0.11368683772E-12  0.17120000000E+03  0.17120000000E+03 0.  0.
         13    1    1    2    0    0 -0.62096021025E+01 -0.63529480526E+02  0.29804044322E+03  0.30479939470E+03  0.10566000000E+00 0. -1.
        994    1    1    2    0    0  0.21580884827E+02 -0.14044844328E+02  0.11748945698E+02  0.17352368705E+03  0.17120000000E+03 0.  0.
        998    1    1    2    0    0 -0.15371282724E+02  0.77574324854E+02  0.11902106074E+04  0.11928769182E+04  0.10000000000E+02 0. -1.
</event>
<event>
 5    1  0.9123258E-009  0.3812637E+03  0.7957747E-01  0.3445674E+00
         13   -1    0    0    0    0  0.00000000000E+00  0.00000000000E+00  0.14999999963E+04  0.15000000000E+04  0.10566000000E+00 0. -1.
        994   -1    0    0    0    0 -0.00000000000E+00 -0.00000000000E+00  0.11368683772E-12  0.17120000000E+03  0.17120000000E+03 0.  0.
         13    1    1    2    0    0  0.59719115528E+00 -0.32129968390E+02  0.16755039076E+03  0.17060432619E+03  0.10566000000E+00 0. -1.
        994    1    1    2    0    0  0.57286063412E+01  0.94895084500E+00  0.36088337003E+01  0.17133645590E+03  0.17120000000E+03 0.  0.
        998    1    1    2    0    0 -0.63257974965E+01  0.31181017545E+02  0.13288407718E+04  0.13292592179E+04  0.10000000000E+02 0. -1.
</event>
<event>
 5    1  0.9123258E-009  0.3846571E+03  0.7957747E-01  0.3431128E+00
         13   -1    0    0    0    0  0.00000000000E+00  0.00000000000E+00  0.14999999963E+04  0.15000000000E+04  0.10566000000E+00 0.  1.
        994   -1    0    0    0    0 -0.00000000000E+00 -0.00000000000E+00  0.11368683772E-12  0.17120000000E+03  0.17120000000E+03 0.  0.
         13    1    1    2    0    0  0.47912896396E+01 -0.19219492067E+02  0.10790991450E+03  0.10971283491E+03  0.10566000000E+00 0.  1.
        994    1    1    2    0    0 -0.14461815303E+02  0.10584496086E+02  0.28585905800E+01  0.17215919145E+03  0.17120000000E+03 0.  0.
        998    1    1    2    0    0  0.96705256639E+01  0.86349959802E+01  0.13892314912E+04  0.13893279736E+04  0.10000000000E+02 0.  1.
</event>
<event>
 5    1  0.9123258E-009  0.3724809E+03  0.7957747E-01  0.3484566E+00
         13   -1    0    0    0    0  0.00000000000E+00  0.00000000000E+00  0.14999999963E+04  0.15000000000E+04  0.10566000000E+00 0.  1.
        994   -1    0    0    0    0 -0.00000000000E+00 -0.00000000000E+00  0.11368683772E-12  0.17120000000E+03  0.17120000000E+03 0.  0.
         13    1    1    2    0    0  0.67905154288E+01 -0.10166285700E+03  0.33407911443E+03  0.34927111741E+03  0.10566000000E+00 0.  1.
        994    1    1    2    0    0 -0.30561980697E+02  0.95030369366E+02  0.48283552419E+02  0.20397437878E+03  0.17120000000E+03 0.  0.
        998    1    1    2    0    0  0.23771465268E+02  0.66324876295E+01  0.11176373294E+04  0.11179545038E+04  0.10000000000E+02 0.  1.
</event>
<event>
 5    1  0.9123258E-009  0.3709364E+03  0.7957747E-01  0.3491598E+00
         13   -1    0    0    0    0  0.00000000000E+00  0.00000000000E+00  0.14999999963E+04  0.15000000000E+04  0.10566000000E+00 0. -1.
        994   -1    0    0    0    0 -0.00000000000E+00 -0.00000000000E+00  0.11368683772E-12  0.17120000000E+03  0.17120000000E+03 0.  0.
         13    1    1    2    0    0  0.72762371026E+02  0.30648498381E+02  0.23352713465E+03  0.24651293450E+03  0.10566000000E+00 0. -1.
        994    1    1    2    0    0 -0.67988605524E+02 -0.28736089326E+02  0.30797669406E+02  0.18896070954E+03  0.17120000000E+03 0.  0.
        998    1    1    2    0    0 -0.47737655015E+01 -0.19124090549E+01  0.12356751922E+04  0.12357263560E+04  0.10000000000E+02 0. -1.
</event>
<event>
 5    1  0.9123258E-009  0.3719899E+03  0.7957747E-01  0.3486796E+00
         13   -1    0    0    0    0  0.00000000000E+00  0.00000000000E+00  0.14999999963E+04  0.15000000000E+04  0.10566000000E+00 0. -1.
        994   -1    0    0    0    0 -0.00000000000E+00 -0.00000000000E+00  0.11368683772E-12  0.17120000000E+03  0.17120000000E+03 0.  0.
         13    1    1    2    0    0 -0.11545673073E+02 -0.38031712268E+01  0.51490457833E+01  0.13201913293E+02  0.10566000000E+00 0. -1.
        994    1    1    2    0    0  0.13207424539E+02 -0.15543829644E+01  0.88402328879E+01  0.17194313562E+03  0.17120000000E+03 0.  0.
        998    1    1    2    0    0 -0.16617514657E+01  0.53575541912E+01  0.14860107176E+04  0.14860549511E+04  0.10000000000E+02 0. -1.
</event>
<event>
 5    1  0.9123258E-009  0.3810038E+03  0.7957747E-01  0.3446799E+00
         13   -1    0    0    0    0  0.00000000000E+00  0.00000000000E+00  0.14999999963E+04  0.15000000000E+04  0.10566000000E+00 0.  1.
        994   -1    0    0    0    0 -0.00000000000E+00 -0.00000000000E+00  0.11368683772E-12  0.17120000000E+03  0.17120000000E+03 0.  0.
         13    1    1    2    0    0 -0.18221349093E+02 -0.43867409216E+02  0.26273247511E+03  0.26699200699E+03  0.10566000000E+00 0.  1.
        994    1    1    2    0    0  0.15022755833E+02  0.43150377867E+02  0.10614516888E+02  0.17750984838E+03  0.17120000000E+03 0.  0.
        998    1    1    2    0    0  0.31985932602E+01  0.71703134885E+00  0.12266530043E+04  0.12266981446E+04  0.10000000000E+02 0.  1.
</event>
<event>
 5    1  0.9123258E-009  0.3823282E+03  0.7957747E-01  0.3441083E+00
         13   -1    0    0    0    0  0.00000000000E+00  0.00000000000E+00  0.14999999963E+04  0.15000000000E+04  0.10566000000E+00 0.  1.
        994   -1    0    0    0    0 -0.00000000000E+00 -0.00000000000E+00  0.11368683772E-12  0.17120000000E+03  0.17120000000E+03 0.  0.
         13    1    1    2    0    0  0.24415701991E+02  0.13260386380E+02  0.14303579216E+02  0.31250086289E+02  0.10566000000E+00 0.  1.
        994    1    1    2    0    0 -0.24235359813E+02 -0.11809135697E+02  0.20272701142E+02  0.17449134868E+03  0.17120000000E+03 0.  0.
        998    1    1    2    0    0 -0.18034217777E+00 -0.14512506825E+01  0.14654237159E+04  0.14654585650E+04  0.10000000000E+02 0.  1.
</event>
<event>
 5    1  0.9123258E-009  0.3813039E+03  0.7957747E-01  0.3445501E+00
         13   -1    0    0    0    0  0.00000000000E+00  0.00000000000E+00  0.14999999963E+04  0.15000000000E+04  0.10566000000E+00 0.  1.
        994   -1    0    0    0    0 -0.00000000000E+00 -0.00000000000E+00  0.11368683772E-12  0.17120000000E+03  0.17120000000E+03 0.  0.
         13    1    1    2    0    0  0.96382743682E+01 -0.24891812149E+02  0.10314778865E+03  0.10654565271E+03  0.10566000000E+00 0.  1.
        994    1    1    2    0    0 -0.71361401847E+01  0.11315268309E+02  0.40723217219E+01  0.17177014757E+03  0.17120000000E+03 0.  0.
        998    1    1    2    0    0 -0.25021341835E+01  0.13576543840E+02  0.13927798859E+04  0.13928841997E+04  0.10000000000E+02 0.  1.
</event>
<event>
 5    1  0.9123258E-009  0.3830633E+03  0.7957747E-01  0.3437928E+00
         13   -1    0    0    0    0  0.00000000000E+00  0.00000000000E+00  0.14999999963E+04  0.15000000000E+04  0.10566000000E+00 0. -1.
        994   -1    0    0    0    0 -0.00000000000E+00 -0.00000000000E+00  0.11368683772E-12  0.17120000000E+03  0.17120000000E+03 0.  0.
         13    1    1    2    0    0 -0.13669341804E+02  0.14045673046E+02  0.83253569498E+02  0.85529526100E+02  0.10566000000E+00 0. -1.
        994    1    1    2    0    0 -0.72845403560E+01  0.56667711282E+01  0.28766822368E+01  0.17147271539E+03  0.17120000000E+03 0.  0.
        998    1    1    2    0    0  0.20953882160E+02 -0.19712444174E+02  0.14138697445E+04  0.14141977585E+04  0.10000000000E+02 0. -1.
</event>
<event>
 5    1  0.9123258E-009  0.3703559E+03  0.7957747E-01  0.3494257E+00
         13   -1    0    0    0    0  0.00000000000E+00  0.00000000000E+00  0.14999999963E+04  0.15000000000E+04  0.10566000000E+00 0.  1.
        994   -1    0    0    0    0 -0.00000000000E+00 -0.00000000000E+00  0.11368683772E-12  0.17120000000E+03  0.17120000000E+03 0.  0.
         13    1    1    2    0    0 -0.31743020229E+02 -0.68739127257E+02  0.24349100515E+03  0.25499130907E+03  0.10566000000E+00 0.  1.
        994    1    1    2    0    0  0.41291936728E+02  0.77283821586E+02  0.36085316276E+02  0.19567678239E+03  0.17120000000E+03 0.  0.
        998    1    1    2    0    0 -0.95489164986E+01 -0.85446943286E+01  0.12204236749E+04  0.12205319085E+04  0.10000000000E+02 0.  1.
</event>
<event>
 5    1  0.1101542E-008  0.3862856E+03  0.7957747E-01  0.3424238E+00
         13   -1    0    0    0    0  0.00000000000E+00  0.00000000000E+00  0.14999999963E+04  0.15000000000E+04  0.10566000000E+00 0. -1.
        994   -1    0    0    0    0 -0.00000000000E+00 -0.00000000000E+00  0.11368683772E-12  0.17120000000E+03  0.17120000000E+03 0.  0.
         13    1    1    2    0    0 -0.10325251751E+02  0.12767694710E+01  0.53164177304E+02  0.54172704164E+02  0.10566000000E+00 0. -1.
        994    1    1    2    0    0  0.13743975578E+02  0.62930953546E+01  0.17418713805E+01  0.17187487900E+03  0.17120000000E+03 0.  0.
        998    1    1    2    0    0 -0.34187238264E+01 -0.75698648256E+01  0.14450939476E+04  0.14451524168E+04  0.10000000000E+02 0. -1.
</event>
<event>
 5    1  0.9123258E-009  0.4418071E+03  0.7957747E-01  0.3219516E+00
         13   -1    0    0    0    0  0.00000000000E+00  0.00000000000E+00  0.14999999963E+04  0.15000000000E+04  0.10566000000E+00 0.  1.
        994   -1    0    0    0    0 -0.00000000000E+00 -0.00000000000E+00  0.11368683772E-12  0.17120000000E+03  0.17120000000E+03 0.  0.
         13    1    1    2    0    0  0.10170995111E+03  0.14522834904E+02  0.79596168118E+02  0.12996687282E+03  0.10566000000E+00 0.  1.
        994    1    1    2    0    0 -0.83001858517E+02 -0.24579777351E+02  0.92244024727E+02  0.21286585933E+03  0.17120000000E+03 0.  0.
        998    1    1    2    0    0 -0.18708092593E+02  0.10056942447E+02  0.13281598034E+04  0.13283672678E+04  0.10000000000E+02 0.  1.
</event>
<event>
 5    1  0.9123258E-009  0.3843853E+03  0.7957747E-01  0.3432283E+00
         13   -1    0    0    0    0  0.00000000000E+00  0.00000000000E+00  0.14999999963E+04  0.15000000000E+04  0.10566000000E+00 0.  1.
        994   -1    0    0    0    0 -0.00000000000E+00 -0.00000000000E+00  0.11368683772E-12  0.17120000000E+03  0.17120000000E+03 0.  0.
         13    1    1    2    0    0 -0.98007945545E+01  0.51297228654E+01  0.30914503060E+02  0.32834239660E+02  0.10566000000E+00 0.  1.
        994    1    1    2    0    0  0.73107652000E+01 -0.63753376533E+01  0.22457487991E+01  0.17148928715E+03  0.17120000000E+03 0.  0.
        998    1    1    2    0    0  0.24900293544E+01  0.12456147879E+01  0.14668397444E+04  0.14668764732E+04  0.10000000000E+02 0.  1.
</event>
<event>
 5    1  0.9123258E-009  0.3852210E+03  0.7957747E-01  0.3428736E+00
         13   -1    0    0    0    0  0.00000000000E+00  0.00000000000E+00  0.14999999963E+04  0.15000000000E+04  0.10566000000E+00 0. -1.
        994   -1    0    0    0    0 -0.00000000000E+00 -0.00000000000E+00  0.11368683772E-12  0.17120000000E+03  0.17120000000E+03 0.  0.
         13    1    1    2    0    0 -0.84396797908E+01 -0.83934877827E+01  0.51728128789E+02  0.53080027356E+02  0.10566000000E+00 0. -1.
        994    1    1    2    0    0 -0.13604664519E+01 -0.11900938799E+02  0.19921435807E+01  0.17163010182E+03  0.17120000000E+03 0.  0.
        998    1    1    2    0    0  0.98001462427E+01  0.20294426582E+02  0.14462797239E+04  0.14464898708E+04  0.10000000000E+02 0. -1.
</event>
<event>
 5    1  0.9123258E-009  0.3755702E+03  0.7957747E-01  0.3470676E+00
         13   -1    0    0    0    0  0.00000000000E+00  0.00000000000E+00  0.14999999963E+04  0.15000000000E+04  0.10566000000E+00 0. -1.
        994   -1    0    0    0    0 -0.00000000000E+00 -0.00000000000E+00  0.11368683772E-12  0.17120000000E+03  0.17120000000E+03 0.  0.
         13    1    1    2    0    0 -0.43978322391E+02  0.75950995724E+01  0.14660818578E+03  0.15325061069E+03  0.10566000000E+00 0. -1.
        994    1    1    2    0    0  0.30047591415E+02 -0.40672663737E+02  0.15111523169E+02  0.17915055528E+03  0.17120000000E+03 0.  0.
        998    1    1    2    0    0  0.13930730976E+02  0.33077564165E+02  0.13382802873E+04  0.13387988340E+04  0.10000000000E+02 0. -1.
</event>
<event>
 5    1  0.9123258E-009  0.3692067E+03  0.7957747E-01  0.3499545E+00
         13   -1    0    0    0    0  0.00000000000E+00  0.00000000000E+00  0.14999999963E+04  0.15000000000E+04  0.10566000000E+00 0. -1.
        994   -1    0    0    0    0 -0.00000000000E+00 -0.00000000000E+00  0.11368683772E-12  0.17120000000E+03  0.17120000000E+03 0.  0.
         13    1    1    2    0    0 -0.11223647577E+03  0.10813242375E+03  0.54533068646E+03  0.56716418815E+03  0.10566000000E+00 0. -1.
        994    1    1    2    0    0  0.13370526204E+03 -0.12415534696E+03  0.13582420051E+03  0.28469158877E+03  0.17120000000E+03 0.  0.
        998    1    1    2    0    0 -0.21468786273E+02  0.16022923204E+02  0.81884510931E+03  0.81934422308E+03  0.10000000000E+02 0. -1.
</event>
<event>
 5    1  0.9123258E-009  0.3841750E+03  0.7957747E-01  0.3433179E+00
         13   -1    0    0    0    0  0.00000000000E+00  0.00000000000E+00  0.14999999963E+04  0.15000000000E+04  0.10566000000E+00 0.  1.
        994   -1    0    0    0    0 -0.00000000000E+00 -0.00000000000E+00  0.11368683772E-12  0.17120000000E+03  0.17120000000E+03 0.  0.
         13    1    1    2    0    0  0.14355212305E+02  0.16168112688E+02  0.11203570653E+03  0.11410298282E+03  0.10566000000E+00 0.  1.
        994    1    1    2    0    0  0.23664158597E+01 -0.24164837119E+02  0.39866770462E+01  0.17295916533E+03  0.17120000000E+03 0.  0.
        998    1    1    2    0    0 -0.16721628165E+02  0.79967244306E+01  0.13839776127E+04  0.13841378518E+04  0.10000000000E+02 0.  1.
</event>
<event>
 5    1  0.9123258E-009  0.3843027E+03  0.7957747E-01  0.3432635E+00
         13   -1    0    0    0    0  0.00000000000E+00  0.00000000000E+00  0.14999999963E+04  0.15000000000E+04  0.10566000000E+00 0. -1.
        994   -1    0    0    0    0 -0.00000000000E+00 -0.00000000000E+00  0.11368683772E-12  0.17120000000E+03  0.17120000000E+03 0.  0.
         13    1    1    2    0    0 -0.16055794733E+01  0.10027468500E+02  0.25150728813E+02  0.27123759581E+02  0.10566000000E+00 0. -1.
        994    1    1    2    0    0 -0.68797863425E+00 -0.11403501209E+02  0.24070441915E+01  0.17159763115E+03  0.17120000000E+03 0.  0.
        998    1    1    2    0    0  0.22935581076E+01  0.13760327094E+01  0.14724422233E+04  0.14724786093E+04  0.10000000000E+02 0. -1.
</event>
<event>
 5    1  0.9123258E-009  0.3761143E+03  0.7957747E-01  0.3468254E+00
         13   -1    0    0    0    0  0.00000000000E+00  0.00000000000E+00  0.14999999963E+04  0.15000000000E+04  0.10566000000E+00 0. -1.
        994   -1    0    0    0    0 -0.00000000000E+00 -0.00000000000E+00  0.11368683772E-12  0.17120000000E+03  0.17120000000E+03 0.  0.
         13    1    1    2    0    0  0.11600482514E+02 -0.35795326535E+02  0.10224368388E+03  0.10894796306E+03  0.10566000000E+00 0. -1.
        994    1    1    2    0    0  0.30196055251E+02  0.60321765964E+02  0.21676787593E+02  0.18528313556E+03  0.17120000000E+03 0.  0.
        998    1    1    2    0    0 -0.41796537765E+02 -0.24526439429E+02  0.13760795248E+04  0.13769689014E+04  0.10000000000E+02 0. -1.
</event>
<event>
 5    1  0.9123258E-009  0.3780390E+03  0.7957747E-01  0.3459742E+00
         13   -1    0    0    0    0  0.00000000000E+00  0.00000000000E+00  0.14999999963E+04  0.15000000000E+04  0.10566000000E+00 0. -1.
        994   -1    0    0    0    0 -0.00000000000E+00 -0.00000000000E+00  0.11368683772E-12  0.17120000000E+03  0.17120000000E+03 0.  0.
         13    1    1    2    0    0 -0.12650607092E+02 -0.20789108801E+02  0.55236167645E+02  0.60359508652E+02  0.10566000000E+00 0. -1.
        994    1    1    2    0    0  0.23236955549E+01  0.20414517574E+02  0.65480248535E+01  0.17255279980E+03  0.17120000000E+03 0.  0.
        998    1    1    2    0    0  0.10326911538E+02  0.37459122711E+00  0.14382158038E+04  0.14382876916E+04  0.10000000000E+02 0. -1.
</event>
<event>
 5    1  0.9123258E-009  0.3794443E+03  0.7957747E-01  0.3453582E+00
         13   -1    0    0    0    0  0.00000000000E+00  0.00000000000E+00  0.14999999963E+04  0.15000000000E+04  0.10566000000E+00 0. -1.
        994   -1    0    0    0    0 -0.00000000000E+00 -0.00000000000E+00  0.11368683772E-12  0.17120000000E+03  0.17120000000E+03 0.  0.
         13    1    1    2    0    0  0.20312209939E+02 -0.24220331188E+02  0.12767126924E+03  0.13152632614E+03  0.10566000000E+00 0. -1.
        994    1    1    2    0    0 -0.57486727914E+01 -0.10299176912E+02  0.48799596401E+01  0.17167519999E+03  0.17120000000E+03 0.  0.
        998    1    1    2    0    0 -0.14563537147E+02  0.34519508100E+02  0.13674487674E+04  0.13679984739E+04  0.10000000000E+02 0. -1.
</event>
<event>
 5    1  0.9123258E-009  0.3835658E+03  0.7957747E-01  0.3435778E+00
         13   -1    0    0    0    0  0.00000000000E+00  0.00000000000E+00  0.14999999963E+04  0.15000000000E+04  0.10566000000E+00 0. -1.
        994   -1    0    0    0    0 -0.00000000000E+00 -0.00000000000E+00  0.11368683772E-12  0.17120000000E+03  0.17120000000E+03 0.  0.
         13    1    1    2    0    0 -0.39743133432E+01 -0.10370963638E+02  0.25953633623E+02  0.28230379303E+02  0.10566000000E+00 0. -1.
        994    1    1    2    0    0  0.56212987902E+01  0.13720928045E+01  0.24544947552E+01  0.17131534135E+03  0.17120000000E+03 0.  0.
        998    1    1    2    0    0 -0.16469854469E+01  0.89988708331E+01  0.14715918679E+04  0.14716542793E+04  0.10000000000E+02 0. -1.
</event>
<event>
 5    1  0.9123258E-009  0.3841069E+03  0.7957747E-01  0.3433469E+00
         13   -1    0    0    0    0  0.00000000000E+00  0.00000000000E+00  0.14999999963E+04  0.15000000000E+04  0.10566000000E+00 0. -1.
        994   -1    0    0    0    0 -0.00000000000E+00 -0.00000000000E+00  0.11368683772E-12  0.17120000000E+03  0.17120000000E+03 0.  0.
         13    1    1    2    0    0 -0.86914340530E+01  0.11965076127E+02  0.53561845117E+02  0.55566055187E+02  0.10566000000E+00 0. -1.
        994    1    1    2    0    0 -0.43925573426E+01 -0.96938862680E+01  0.24478389563E+01  0.17154794638E+03  0.17120000000E+03 0.  0.
        998    1    1    2    0    0  0.13083991396E+02 -0.22711898589E+01  0.14439903122E+04  0.14440859984E+04  0.10000000000E+02 0. -1.
</event>
<event>
 5    1  0.9123258E-009  0.3862592E+03  0.7957747E-01  0.3424349E+00
         13   -1    0    0    0    0  0.00000000000E+00  0.00000000000E+00  0.14999999963E+04  0.15000000000E+04  0.10566000000E+00 0. -1.
        994   -1    0    0    0    0 -0.00000000000E+00 -0.00000000000E+00  0.11368683772E-12  0.17120000000E+03  0.17120000000E+03 0.  0.
         13    1    1    2    0    0  0.82575859496E+01 -0.67695997894E+01  0.59509874681E+02  0.60460330429E+02  0.10566000000E+00 0. -1.
        994    1    1    2    0    0  0.84227995775E+00  0.56808520248E+01  0.11142863727E+01  0.17129992163E+03  0.17120000000E+03 0.  0.
        998    1    1    2    0    0 -0.90998659073E+01  0.10887477646E+01  0.14393758352E+04  0.14394397479E+04  0.10000000000E+02 0. -1.
</event>
<event>
 5    1  0.9123258E-009  0.3772331E+03  0.7957747E-01  0.3463295E+00
         13   -1    0    0    0    0  0.00000000000E+00  0.00000000000E+00  0.14999999963E+04  0.15000000000E+04  0.10566000000E+00 0.  1.
        994   -1    0    0    0    0 -0.00000000000E+00 -0.00000000000E+00  0.11368683772E-12  0.17120000000E+03  0.17120000000E+03 0.  0.
         13    1    1    2    0    0  0.87213267774E+02 -0.41108163587E+02  0.36947165598E+03  0.38184466859E+03  0.10566000000E+00 0.  1.
        994    1    1    2    0    0 -0.57151759457E+02 -0.43701562932E+02  0.33625542374E+02  0.18872272601E+03  0.17120000000E+03 0.  0.
        998    1    1    2    0    0 -0.30061508317E+02  0.84809726519E+02  0.10969027979E+04  0.11006326054E+04  0.10000000000E+02 0.  1.
</event>
<event>
 5    1  0.9123258E-009  0.3750346E+03  0.7957747E-01  0.3473068E+00
         13   -1    0    0    0    0  0.00000000000E+00  0.00000000000E+00  0.14999999963E+04  0.15000000000E+04  0.10566000000E+00 0.  1.
        994   -1    0    0    0    0 -0.00000000000E+00 -0.00000000000E+00  0.11368683772E-12  0.17120000000E+03  0.17120000000E+03 0.  0.
         13    1    1    2    0    0 -0.17641059861E+02 -0.49927562297E+02  0.17587637703E+03  0.18367492924E+03  0.10566000000E+00 0.  1.
        994    1    1    2    0    0  0.19224821271E+02  0.58584020764E+02  0.19693791380E+02  0.18302722929E+03  0.17120000000E+03 0.  0.
        998    1    1    2    0    0 -0.15837614099E+01 -0.86564584667E+01  0.13044298279E+04  0.13044978415E+04  0.10000000000E+02 0. -1.
</event>
<event>
 5    1  0.9123258E-009  0.3769376E+03  0.7957747E-01  0.3464602E+00
         13   -1    0    0    0    0  0.00000000000E+00  0.00000000000E+00  0.14999999963E+04  0.15000000000E+04  0.10566000000E+00 0.  1.
        994   -1    0    0    0    0 -0.00000000000E+00 -0.00000000000E+00  0.11368683772E-12  0.17120000000E+03  0.17120000000E+03 0.  0.
         13    1    1    2    0    0  0.20912824402E+02 -0.53706481512E+02  0.33582799749E+03  0.34073771063E+03  0.10566000000E+00 0.  1.
        994    1    1    2    0    0  0.36463179748E+01  0.19266159560E+02  0.69865651027E+01  0.17246081477E+03  0.17120000000E+03 0.  0.
        998    1    1    2    0    0 -0.24559142377E+02  0.34440321952E+02  0.11571854337E+04  0.11580014746E+04  0.10000000000E+02 0.  1.
</event>
<event>
 5    1  0.9123258E-009  0.3835264E+03  0.7957747E-01  0.3435946E+00
         13   -1    0    0    0    0  0.00000000000E+00  0.00000000000E+00  0.14999999963E+04  0.15000000000E+04  0.10566000000E+00 0. -1.
        994   -1    0    0    0    0 -0.00000000000E+00 -0.00000000000E+00  0.11368683772E-12  0.17120000000E+03  0.17120000000E+03 0.  0.
         13    1    1    2    0    0 -0.36109097649E+02  0.20248589203E+02  0.23516889210E+03  0.23878503151E+03  0.10566000000E+00 0. -1.
        994    1    1    2    0    0  0.63389073363E+02 -0.27172168076E+02  0.18242900170E+02  0.18546898594E+03  0.17120000000E+03 0.  0.
        998    1    1    2    0    0 -0.27279975713E+02  0.69235788731E+01  0.12465882040E+04  0.12469459825E+04  0.10000000000E+02 0. -1.
</event>
<event>
 5    1  0.9123258E-009  0.3800363E+03  0.7957747E-01  0.3451000E+00
         13   -1    0    0    0    0  0.00000000000E+00  0.00000000000E+00  0.14999999963E+04  0.15000000000E+04  0.10566000000E+00 0.  1.
        994   -1    0    0    0    0 -0.00000000000E+00 -0.00000000000E+00  0.11368683772E-12  0.17120000000E+03  0.17120000000E+03 0.  0.
         13    1    1    2    0    0  0.11832695908E+02  0.85444033677E+01  0.23541749563E+02  0.27699181538E+02  0.10566000000E+00 0.  1.
        994    1    1    2    0    0 -0.17900852793E+02 -0.91781679870E+01  0.54686333044E+01  0.17246456230E+03  0.17120000000E+03 0.  0.
        998    1    1    2    0    0  0.60681568847E+01  0.63376461931E+00  0.14709896134E+04  0.14710362562E+04  0.10000000000E+02 0.  1.
</event>
<event>
 5    1  0.1167075E-008  0.3862281E+03  0.7957747E-01  0.3424480E+00
         13   -1    0    0    0    0  0.00000000000E+00  0.00000000000E+00  0.14999999963E+04  0.15000000000E+04  0.10566000000E+00 0. -1.
        994   -1    0    0    0    0 -0.00000000000E+00 -0.00000000000E+00  0.11368683772E-12  0.17120000000E+03  0.17120000000E+03 0.  0.
         13    1    1    2    0    0 -0.86080096149E+01 -0.55908138631E+01  0.52533028952E+02  0.53526491797E+02  0.10566000000E+00 0. -1.
        994    1    1    2    0    0  0.21793004160E+01  0.87203822318E+01  0.12863354396E+01  0.17144062843E+03  0.17120000000E+03 0.  0.
        998    1    1    2    0    0  0.64287091988E+01 -0.31295683687E+01  0.14461806319E+04  0.14462328798E+04  0.10000000000E+02 0. -1.
</event>
<event>
 5    1  0.9123258E-009  0.3729235E+03  0.7957747E-01  0.3482562E+00
         13   -1    0    0    0    0  0.00000000000E+00  0.00000000000E+00  0.14999999963E+04  0.15000000000E+04  0.10566000000E+00 0. -1.
        994   -1    0    0    0    0 -0.00000000000E+00 -0.00000000000E+00  0.11368683772E-12  0.17120000000E+03  0.17120000000E+03 0.  0.
         13    1    1    2    0    0 -0.57187495135E+02  0.18011928161E+02  0.28851735538E+03  0.29468137823E+03  0.10566000000E+00 0. -1.
        994    1    1    2    0    0 -0.25813440458E+01 -0.18013150399E+02  0.88832904160E+01  0.17239341569E+03  0.17120000000E+03 0.  0.
        998    1    1    2    0    0  0.59768839181E+02  0.12222380804E-02  0.12025993505E+04  0.12041252061E+04  0.10000000000E+02 0. -1.
</event>
<event>
 5    1  0.9123258E-009  0.3701738E+03  0.7957747E-01  0.3495092E+00
         13   -1    0    0    0    0  0.00000000000E+00  0.00000000000E+00  0.14999999963E+04  0.15000000000E+04  0.10566000000E+00 0. -1.
        994   -1    0    0    0    0 -0.00000000000E+00 -0.00000000000E+00  0.11368683772E-12  0.17120000000E+03  0.17120000000E+03 0.  0.
         13    1    1    2    0    0 -0.11260550610E+02 -0.10703996410E+02  0.58423239936E+01  0.16598778656E+02  0.10566000000E+00 0. -1.
        994    1    1    2    0    0  0.10634781146E+02  0.14937009108E+02  0.12207726834E+02  0.17261135943E+03  0.17120000000E+03 0.  0.
        998    1    1    2    0    0  0.62576946407E+00 -0.42330126975E+01  0.14819499455E+04  0.14819898619E+04  0.10000000000E+02 0. -1.
</event>
<event>
 5    1  0.9123258E-009  0.3808076E+03  0.7957747E-01  0.3447650E+00
         13   -1    0    0    0    0  0.00000000000E+00  0.00000000000E+00  0.14999999963E+04  0.15000000000E+04  0.10566000000E+00 0. -1.
        994   -1    0    0    0    0 -0.00000000000E+00 -0.00000000000E+00  0.11368683772E-12  0.17120000000E+03  0.17120000000E+03 0.  0.
         13    1    1    2    0    0  0.10175836913E+02 -0.20988491419E+02  0.71741244625E+02  0.75437933252E+02  0.10566000000E+00 0. -1.
        994    1    1    2    0    0 -0.95932438722E+01  0.11596624119E+02  0.44815888794E+01  0.17191869200E+03  0.17120000000E+03 0.  0.
        998    1    1    2    0    0 -0.58259304093E+00  0.93918672998E+01  0.14237771628E+04  0.14238433748E+04  0.10000000000E+02 0. -1.
</event>
<event>
 5    1  0.9123258E-009  0.3698869E+03  0.7957747E-01  0.3496411E+00
         13   -1    0    0    0    0  0.00000000000E+00  0.00000000000E+00  0.14999999963E+04  0.15000000000E+04  0.10566000000E+00 0. -1.
        994   -1    0    0    0    0 -0.00000000000E+00 -0.00000000000E+00  0.11368683772E-12  0.17120000000E+03  0.17120000000E+03 0.  0.
         13    1    1    2    0    0  0.43592017335E+02  0.43248783967E+02  0.19469536509E+03  0.20414949826E+03  0.10566000000E+00 0. -1.
        994    1    1    2    0    0 -0.58877437140E+02  0.11046328668E-01  0.21416318140E+02  0.18230373394E+03  0.17120000000E+03 0.  0.
        998    1    1    2    0    0  0.15285419806E+02 -0.43259830296E+02  0.12838883131E+04  0.12847467678E+04  0.10000000000E+02 0. -1.
</event>
<event>
 5    1  0.9123258E-009  0.3832342E+03  0.7957747E-01  0.3437196E+00
         13   -1    0    0    0    0  0.00000000000E+00  0.00000000000E+00  0.14999999963E+04  0.15000000000E+04  0.10566000000E+00 0.  1.
        994   -1    0    0    0    0 -0.00000000000E+00 -0.00000000000E+00  0.11368683772E-12  0.17120000000E+03  0.17120000000E+03 0.  0.
         13    1    1    2    0    0  0.19410990424E+01 -0.12415680214E+02  0.33986784874E+02  0.36235751555E+02  0.10566000000E+00 0.  1.
        994    1    1    2    0    0 -0.26619374788E+02 -0.21841612468E+02  0.64408951630E+01  0.17474716673E+03  0.17120000000E+03 0.  0.
        998    1    1    2    0    0  0.24678275746E+02  0.34257292682E+02  0.14595723162E+04  0.14602170817E+04  0.10000000000E+02 0.  1.
</event>
<event>
 5    1  0.9123258E-009  0.3803010E+03  0.7957747E-01  0.3449849E+00
         13   -1    0    0    0    0  0.00000000000E+00  0.00000000000E+00  0.14999999963E+04  0.15000000000E+04  0.10566000000E+00 0. -1.
        994   -1    0    0    0    0 -0.00000000000E+00 -0.00000000000E+00  0.11368683772E-12  0.17120000000E+03  0.17120000000E+03 0.  0.
         13    1    1    2    0    0 -0.16260946745E+02  0.11790934782E+02  0.49267971031E+02  0.53205156382E+02  0.10566000000E+00 0. -1.
        994    1    1    2    0    0  0.14590787596E+02 -0.15884008882E+01  0.47009865712E+01  0.17189227259E+03  0.17120000000E+03 0.  0.
        998    1    1    2    0    0  0.16701591487E+01 -0.10202533894E+02  0.14460310387E+04  0.14461025710E+04  0.10000000000E+02 0. -1.
</event>
<event>
 5    1  0.9123258E-009  0.3817883E+03  0.7957747E-01  0.3443409E+00
         13   -1    0    0    0    0  0.00000000000E+00  0.00000000000E+00  0.14999999963E+04  0.15000000000E+04  0.10566000000E+00 0.  1.
        994   -1    0    0    0    0 -0.00000000000E+00 -0.00000000000E+00  0.11368683772E-12  0.17120000000E+03  0.17120000000E+03 0.  0.
         13    1    1    2    0    0  0.51333776006E+01  0.28069829699E+02  0.12675284270E+03  0.12992521388E+03  0.10566000000E+00 0.  1.
        994    1    1    2    0    0  0.38618373393E+00 -0.15155502859E+02  0.39973309478E+01  0.17191642464E+03  0.17120000000E+03 0.  0.
        998    1    1    2    0    0 -0.55195613346E+01 -0.12914326840E+02  0.13692498226E+04  0.13693583615E+04  0.10000000000E+02 0.  1.
</event>
<event>
 5    1  0.9123258E-009  0.3719456E+03  0.7957747E-01  0.3486997E+00
         13   -1    0    0    0    0  0.00000000000E+00  0.00000000000E+00  0.14999999963E+04  0.15000000000E+04  0.10566000000E+00 0.  1.
        994   -1    0    0    0    0 -0.00000000000E+00 -0.00000000000E+00  0.11368683772E-12  0.17120000000E+03  0.17120000000E+03 0.  0.
         13    1    1    2    0    0 -0.15064985353E+03  0.77014013933E+02  0.56279697478E+03  0.58767931961E+03  0.10566000000E+00 0.  1.
        994    1    1    2    0    0  0.19260999220E+03 -0.92418227036E+02  0.18612276944E+03  0.33104510733E+03  0.17120000000E+03 0.  0.
        998    1    1    2    0    0 -0.41960138663E+02  0.15404213103E+02  0.75108025207E+03  0.75247557307E+03  0.10000000000E+02 0.  1.
</event>
<event>
 5    1  0.9123258E-009  0.3810449E+03  0.7957747E-01  0.3446621E+00
         13   -1    0    0    0    0  0.00000000000E+00  0.00000000000E+00  0.14999999963E+04  0.15000000000E+04  0.10566000000E+00 0.  1.
        994   -1    0    0    0    0 -0.00000000000E+00 -0.00000000000E+00  0.11368683772E-12  0.17120000000E+03  0.17120000000E+03 0.  0.
         13    1    1    2    0    0 -0.14201348331E+02  0.28781307103E+02  0.12174529082E+03  0.12590460252E+03  0.10566000000E+00 0.  1.
        994    1    1    2    0    0  0.22454001439E+02 -0.38798561192E+02  0.10330283655E+02  0.17727285548E+03  0.17120000000E+03 0.  0.
        998    1    1    2    0    0 -0.82526531075E+01  0.10017254088E+02  0.13679244218E+04  0.13680225420E+04  0.10000000000E+02 0.  1.
</event>
<event>
 5    1  0.9123258E-009  0.3792610E+03  0.7957747E-01  0.3454383E+00
         13   -1    0    0    0    0  0.00000000000E+00  0.00000000000E+00  0.14999999963E+04  0.15000000000E+04  0.10566000000E+00 0.  1.
        994   -1    0    0    0    0 -0.00000000000E+00 -0.00000000000E+00  0.11368683772E-12  0.17120000000E+03  0.17120000000E+03 0.  0.
         13    1    1    2    0    0 -0.18570174636E+02 -0.20031000126E+02  0.88781653136E+02  0.92888564687E+02  0.10566000000E+00 0.  1.
        994    1    1    2    0    0  0.43653196163E+01 -0.67799195490E+01  0.47245860542E+01  0.17145490672E+03  0.17120000000E+03 0.  0.
        998    1    1    2    0    0  0.14204855020E+02  0.26810919675E+02  0.14064937571E+04  0.14068565286E+04  0.10000000000E+02 0.  1.
</event>
<event>
 5    1  0.9123258E-009  0.3855367E+03  0.7957747E-01  0.3427399E+00
         13   -1    0    0    0    0  0.00000000000E+00  0.00000000000E+00  0.14999999963E+04  0.15000000000E+04  0.10566000000E+00 0.  1.
        994   -1    0    0    0    0 -0.00000000000E+00 -0.00000000000E+00  0.11368683772E-12  0.17120000000E+03  0.17120000000E+03 0.  0.
         13    1    1    2    0    0  0.15236032332E+01  0.11644344565E+02  0.50239098136E+02  0.51593509986E+02  0.10566000000E+00 0.  1.
        994    1    1    2    0    0 -0.23422002821E+01 -0.95121184789E+01  0.16790032098E+01  0.17148826593E+03  0.17120000000E+03 0.  0.
        998    1    1    2    0    0  0.81859704896E+00 -0.21322260858E+01  0.14480818949E+04  0.14481182241E+04  0.10000000000E+02 0.  1.
</event>
<event>
 5    1  0.9123258E-009  0.3694973E+03  0.7957747E-01  0.3498204E+00
         13   -1    0    0    0    0  0.00000000000E+00  0.00000000000E+00  0.14999999963E+04  0.15000000000E+04  0.10566000000E+00 0. -1.
        994   -1    0    0    0    0 -0.00000000000E+00 -0.00000000000E+00  0.11368683772E-12  0.17120000000E+03  0.17120000000E+03 0.  0.
         13    1    1    2    0    0  0.16708209018E+02  0.63241681112E+01  0.12430181900E+02  0.21764189326E+02  0.10566000000E+00 0. -1.
        994    1    1    2    0    0 -0.15108264849E+02 -0.77763333269E+01  0.10532742493E+02  0.17236330726E+03  0.17120000000E+03 0.  0.
        998    1    1    2    0    0 -0.15999441695E+01  0.14521652157E+01  0.14770370719E+04  0.14770725034E+04  0.10000000000E+02 0. -1.
</event>
<event>
 5    1  0.9123258E-009  0.3819016E+03  0.7957747E-01  0.3442920E+00
         13   -1    0    0    0    0  0.00000000000E+00  0.00000000000E+00  0.14999999963E+04  0.15000000000E+04  0.10566000000E+00 0.  1.
        994   -1    0    0    0    0 -0.00000000000E+00 -0.00000000000E+00  0.11368683772E-12  0.17120000000E+03  0.17120000000E+03 0.  0.
         13    1    1    2    0    0 -0.72344231600E+01  0.93315864718E+01  0.20895652215E+02  0.24001142266E+02  0.10566000000E+00 0.  1.
        994    1    1    2    0    0  0.64309935577E+01 -0.12908390564E+01  0.33192474078E+01  0.17135775835E+03  0.17120000000E+03 0.  0.
        998    1    1    2    0    0  0.80342960239E+00 -0.80407474153E+01  0.14757850967E+04  0.14758410994E+04  0.10000000000E+02 0.  1.
</event>
<event>
 5    1  0.9123258E-009  0.3830823E+03  0.7957747E-01  0.3437846E+00
         13   -1    0    0    0    0  0.00000000000E+00  0.00000000000E+00  0.14999999963E+04  0.15000000000E+04  0.10566000000E+00 0.  1.
        994   -1    0    0    0    0 -0.00000000000E+00 -0.00000000000E+00  0.11368683772E-12  0.17120000000E+03  0.17120000000E+03 0.  0.
         13    1    1    2    0    0 -0.21874457675E+02 -0.14251588244E+01  0.87233140656E+02  0.89945288754E+02  0.10566000000E+00 0.  1.
        994    1    1    2    0    0  0.23401469786E+02 -0.22833209837E+01  0.44168607093E+01  0.17286350396E+03  0.17120000000E+03 0.  0.
        998    1    1    2    0    0 -0.15270121111E+01  0.37084798081E+01  0.14083499949E+04  0.14083912073E+04  0.10000000000E+02 0.  1.
</event>
<event>
 5    1  0.9123258E-009  0.3762495E+03  0.7957747E-01  0.3467653E+00
         13   -1    0    0    0    0  0.00000000000E+00  0.00000000000E+00  0.14999999963E+04  0.15000000000E+04  0.10566000000E+00 0. -1.
        994   -1    0    0    0    0 -0.00000000000E+00 -0.00000000000E+00  0.11368683772E-12  0.17120000000E+03  0.17120000000E+03 0.  0.
         13    1    1    2    0    0 -0.17735188263E+02 -0.19705043685E+01  0.23466178639E+02  0.29480374728E+02  0.10566000000E+00 0. -1.
        994    1    1    2    0    0  0.18768643327E+02 -0.32936624655E+01  0.72685191959E+01  0.17241050303E+03  0.17120000000E+03 0.  0.
        998    1    1    2    0    0 -0.10334550640E+01  0.52641668339E+01  0.14692652984E+04  0.14693091222E+04  0.10000000000E+02 0. -1.
</event>
<event>
 5    1  0.9123258E-009  0.3707451E+03  0.7957747E-01  0.3492474E+00
         13   -1    0    0    0    0  0.00000000000E+00  0.00000000000E+00  0.14999999963E+04  0.15000000000E+04  0.10566000000E+00 0. -1.
        994   -1    0    0    0    0 -0.00000000000E+00 -0.00000000000E+00  0.11368683772E-12  0.17120000000E+03  0.17120000000E+03 0.  0.
         13    1    1    2    0    0 -0.23325188387E+02 -0.29029996600E+02  0.71711599387E+02  0.80804515756E+02  0.10566000000E+00 0. -1.
        994    1    1    2    0    0  0.21497228663E+02  0.29856460591E+02  0.13562598698E+02  0.17563292164E+03  0.17120000000E+03 0.  0.
        998    1    1    2    0    0  0.18279597242E+01 -0.82646399096E+00  0.14147257982E+04  0.14147625626E+04  0.10000000000E+02 0. -1.
</event>
<event>
 5    1  0.9123258E-009  0.3979950E+03  0.7957747E-01  0.3376362E+00
         13   -1    0    0    0    0  0.00000000000E+00  0.00000000000E+00  0.14999999963E+04  0.15000000000E+04  0.10566000000E+00 0.  1.
        994   -1    0    0    0    0 -0.00000000000E+00 -0.00000000000E+00  0.11368683772E-12  0.17120000000E+03  0.17120000000E+03 0.  0.
         13    1    1    2    0    0 -0.96002667744E+02 -0.14452335559E+02  0.23007405194E+03  0.24971876733E+03  0.10566000000E+00 0.  1.
        994    1    1    2    0    0 -0.11710591288E+02 -0.13747816333E+02  0.27854179737E+02  0.17438874887E+03  0.17120000000E+03 0.  0.
        998    1    1    2    0    0  0.10771325903E+03  0.28200151893E+02  0.12420717646E+04  0.12470924838E+04  0.10000000000E+02 0.  1.
</event>
<event>
 5    1  0.9123258E-009  0.3792625E+03  0.7957747E-01  0.3454376E+00
         13   -1    0    0    0    0  0.00000000000E+00  0.00000000000E+00  0.14999999963E+04  0.15000000000E+04  0.10566000000E+00 0.  1.
        994   -1    0    0    0    0 -0.00000000000E+00 -0.00000000000E+00  0.11368683772E-12  0.17120000000E+03  0.17120000000E+03 0.  0.
         13    1    1    2    0    0 -0.20956135196E+02  0.19173523806E+02  0.13701310278E+03  0.13992635604E+03  0.10566000000E+00 0.  1.
        994    1    1    2    0    0 -0.53086700375E+02  0.20520606715E+02  0.15438598240E+02  0.18107203918E+03  0.17120000000E+03 0.  0.
        998    1    1    2    0    0  0.74042835571E+02 -0.39694130521E+02  0.13475482953E+04  0.13502016048E+04  0.10000000000E+02 0.  1.
</event>
<event>
 5    1  0.9123258E-009  0.3743096E+03  0.7957747E-01  0.3476316E+00
         13   -1    0    0    0    0  0.00000000000E+00  0.00000000000E+00  0.14999999963E+04  0.15000000000E+04  0.10566000000E+00 0. -1.
        994   -1    0    0    0    0 -0.00000000000E+00 -0.00000000000E+00  0.11368683772E-12  0.17120000000E+03  0.17120000000E+03 0.  0.
         13    1    1    2    0    0  0.35129000697E+02  0.29159639486E+02  0.14149232619E+03  0.14867555549E+03  0.10566000000E+00 0. -1.
        994    1    1    2    0    0 -0.37283195789E+02 -0.75267636444E+01  0.11978710446E+02  0.17578287278E+03  0.17120000000E+03 0.  0.
        998    1    1    2    0    0  0.21541950924E+01 -0.21632875842E+02  0.13465289596E+04  0.13467415717E+04  0.10000000000E+02 0. -1.
</event>
<event>
 5    1  0.9123258E-009  0.3819020E+03  0.7957747E-01  0.3442918E+00
         13   -1    0    0    0    0  0.00000000000E+00  0.00000000000E+00  0.14999999963E+04  0.15000000000E+04  0.10566000000E+00 0. -1.
        994   -1    0    0    0    0 -0.00000000000E+00 -0.00000000000E+00  0.11368683772E-12  0.17120000000E+03  0.17120000000E+03 0.  0.
         13    1    1    2    0    0 -0.17095400947E+02 -0.24373071446E+02  0.14295047364E+03  0.14601763052E+03  0.10566000000E+00 0. -1.
        994    1    1    2    0    0 -0.17483688293E+01  0.17549007492E+02  0.42100016639E+01  0.17215745285E+03  0.17120000000E+03 0.  0.
        998    1    1    2    0    0  0.18843769776E+02  0.68240639545E+01  0.13528395210E+04  0.13530249166E+04  0.10000000000E+02 0. -1.
</event>
<event>
 5    1  0.9123258E-009  0.3816878E+03  0.7957747E-01  0.3443842E+00
         13   -1    0    0    0    0  0.00000000000E+00  0.00000000000E+00  0.14999999963E+04  0.15000000000E+04  0.10566000000E+00 0.  1.
        994   -1    0    0    0    0 -0.00000000000E+00 -0.00000000000E+00  0.11368683772E-12  0.17120000000E+03  0.17120000000E+03 0.  0.
         13    1    1    2    0    0  0.47008861470E+01  0.98173641040E+01  0.16458426726E+02  0.19732459118E+02  0.10566000000E+00 0.  1.
        994    1    1    2    0    0 -0.14794923034E+02 -0.72361957690E+01  0.41858275828E+01  0.17204131315E+03  0.17120000000E+03 0.  0.
        998    1    1    2    0    0  0.10094036887E+02 -0.25811683351E+01  0.14793557420E+04  0.14794262277E+04  0.10000000000E+02 0.  1.
</event>
<event>
 5    1  0.9123258E-009  0.3806618E+03  0.7957747E-01  0.3448282E+00
         13   -1    0    0    0    0  0.00000000000E+00  0.00000000000E+00  0.14999999963E+04  0.15000000000E+04  0.10566000000E+00 0.  1.
        994   -1    0    0    0    0 -0.00000000000E+00 -0.00000000000E+00  0.11368683772E-12  0.17120000000E+03  0.17120000000E+03 0.  0.
         13    1    1    2    0    0 -0.36376630500E+02 -0.10300422446E+02  0.19407850718E+03  0.19772667008E+03  0.10566000000E+00 0.  1.
        994    1    1    2    0    0  0.15611251276E+02  0.68762899588E+01  0.47706732363E+01  0.17211389791E+03  0.17120000000E+03 0.  0.
        998    1    1    2    0    0  0.20765379223E+02  0.34241324870E+01  0.13011508159E+04  0.13013594320E+04  0.10000000000E+02 0.  1.
</event>
<event>
 5    1  0.9123258E-009  0.3694636E+03  0.7957747E-01  0.3498360E+00
         13   -1    0    0    0    0  0.00000000000E+00  0.00000000000E+00  0.14999999963E+04  0.15000000000E+04  0.10566000000E+00 0.  1.
        994   -1    0    0    0    0 -0.00000000000E+00 -0.00000000000E+00  0.11368683772E-12  0.17120000000E+03  0.17120000000E+03 0.  0.
         13    1    1    2    0    0 -0.35709771565E+02 -0.51475559950E+02  0.23399200394E+03  0.24223375101E+03  0.10566000000E+00 0.  1.
        994    1    1    2    0    0  0.31161800876E+02 -0.68254766510E+01  0.13083031811E+02  0.17463748362E+03  0.17120000000E+03 0.  0.
        998    1    1    2    0    0  0.45479706891E+01  0.58301036601E+02  0.12529249605E+04  0.12543287654E+04  0.10000000000E+02 0.  1.
</event>
<event>
 5    1  0.9123258E-009  0.3823228E+03  0.7957747E-01  0.3441107E+00
         13   -1    0    0    0    0  0.00000000000E+00  0.00000000000E+00  0.14999999963E+04  0.15000000000E+04  0.10566000000E+00 0. -1.
        994   -1    0    0    0    0 -0.00000000000E+00 -0.00000000000E+00  0.11368683772E-12  0.17120000000E+03  0.17120000000E+03 0.  0.
         13    1    1    2    0    0  0.14322272202E+02  0.12600751884E+01  0.36385380030E+02  0.39123168512E+02  0.10566000000E+00 0. -1.
        994    1    1    2    0    0  0.10112413086E+02 -0.31549117020E+01  0.33375496269E+01  0.17155988343E+03  0.17120000000E+03 0.  0.
        998    1    1    2    0    0 -0.24434685288E+02  0.18948365137E+01  0.14602770666E+04  0.14605169481E+04  0.10000000000E+02 0. -1.
</event>
<event>
 5    1  0.9123258E-009  0.3812160E+03  0.7957747E-01  0.3445881E+00
         13   -1    0    0    0    0  0.00000000000E+00  0.00000000000E+00  0.14999999963E+04  0.15000000000E+04  0.10566000000E+00 0.  1.
        994   -1    0    0    0    0 -0.00000000000E+00 -0.00000000000E+00  0.11368683772E-12  0.17120000000E+03  0.17120000000E+03 0.  0.
         13    1    1    2    0    0  0.18733811817E+02 -0.11476397340E+02  0.74998713509E+02  0.78150378074E+02  0.10566000000E+00 0.  1.
        994    1    1    2    0    0  0.57467352530E+01 -0.63466813107E+01  0.37646834907E+01  0.17145529496E+03  0.17120000000E+03 0.  0.
        998    1    1    2    0    0 -0.24480547070E+02  0.17823078650E+02  0.14212365993E+04  0.14215943270E+04  0.10000000000E+02 0.  1.
</event>
<event>
 5    1  0.9123258E-009  0.3730117E+03  0.7957747E-01  0.3482163E+00
         13   -1    0    0    0    0  0.00000000000E+00  0.00000000000E+00  0.14999999963E+04  0.15000000000E+04  0.10566000000E+00 0. -1.
        994   -1    0    0    0    0 -0.00000000000E+00 -0.00000000000E+00  0.11368683772E-12  0.17120000000E+03  0.17120000000E+03 0.  0.
         13    1    1    2    0    0  0.73326501567E+02  0.38988396003E+02  0.33489651903E+03  0.34503994041E+03  0.10566000000E+00 0. -1.
        994    1    1    2    0    0 -0.71873087370E+02 -0.49107434144E+02  0.34096016333E+02  0.19506219292E+03  0.17120000000E+03 0.  0.
        998    1    1    2    0    0 -0.14534141970E+01  0.10119038141E+02  0.11310074609E+04  0.11310978667E+04  0.10000000000E+02 0. -1.
</event>
<event>
 5    1  0.9123258E-009  0.3697153E+03  0.7957747E-01  0.3497200E+00
         13   -1    0    0    0    0  0.00000000000E+00  0.00000000000E+00  0.14999999963E+04  0.15000000000E+04  0.10566000000E+00 0. -1.
        994   -1    0    0    0    0 -0.00000000000E+00 -0.00000000000E+00  0.11368683772E-12  0.17120000000E+03  0.17120000000E+03 0.  0.
         13    1    1    2    0    0  0.29140099968E+02 -0.20602700443E+02  0.66873897322E+02  0.75800699197E+02  0.10566000000E+00 0. -1.
        994    1    1    2    0    0 -0.21694151762E+02 -0.13530639594E+02  0.11683775150E+02  0.17349255036E+03  0.17120000000E+03 0.  0.
        998    1    1    2    0    0 -0.74459482057E+01  0.34133340038E+02  0.14214423238E+04  0.14219067504E+04  0.10000000000E+02 0. -1.
</event>
<event>
 5    1  0.9123258E-009  0.3712421E+03  0.7957747E-01  0.3490202E+00
         13   -1    0    0    0    0  0.00000000000E+00  0.00000000000E+00  0.14999999963E+04  0.15000000000E+04  0.10566000000E+00 0. -1.
        994   -1    0    0    0    0 -0.00000000000E+00 -0.00000000000E+00  0.11368683772E-12  0.17120000000E+03  0.17120000000E+03 0.  0.
         13    1    1    2    0    0 -0.20470583261E+02  0.12639629506E+02  0.29596212435E+02  0.38141210884E+02  0.10566000000E+00 0. -1.
        994    1    1    2    0    0  0.21439884429E+02 -0.77354160670E+01  0.10411941781E+02  0.17302414236E+03  0.17120000000E+03 0.  0.
        998    1    1    2    0    0 -0.96930116799E+00 -0.49042134386E+01  0.14599918421E+04  0.14600346468E+04  0.10000000000E+02 0. -1.
</event>
<event>
 5    1  0.9123258E-009  0.3803540E+03  0.7957747E-01  0.3449618E+00
         13   -1    0    0    0    0  0.00000000000E+00  0.00000000000E+00  0.14999999963E+04  0.15000000000E+04  0.10566000000E+00 0. -1.
        994   -1    0    0    0    0 -0.00000000000E+00 -0.00000000000E+00  0.11368683772E-12  0.17120000000E+03  0.17120000000E+03 0.  0.
         13    1    1    2    0    0  0.39420812797E+02 -0.76285303935E+01  0.19391047960E+03  0.19802393850E+03  0.10566000000E+00 0. -1.
        994    1    1    2    0    0 -0.29652228032E+02  0.14490282318E+00  0.68960130665E+01  0.17388579764E+03  0.17120000000E+03 0.  0.
        998    1    1    2    0    0 -0.97685847649E+01  0.74836275703E+01  0.12991935036E+04  0.12992902639E+04  0.10000000000E+02 0. -1.
</event>
<event>
 5    1  0.9123258E-009  0.2664239E+03  0.7957747E-01  0.4169320E+00
         13   -1    0    0    0    0  0.00000000000E+00  0.00000000000E+00  0.14999999963E+04  0.15000000000E+04  0.10566000000E+00 0. -1.
        994   -1    0    0    0    0 -0.00000000000E+00 -0.00000000000E+00  0.11368683772E-12  0.17120000000E+03  0.17120000000E+03 0.  0.
         13    1    1    2    0    0  0.99597171964E+02  0.14356672797E+03  0.19855776969E+03  0.26449234603E+03  0.10566000000E+00 0. -1.
        994    1    1    2    0    0 -0.20402842576E+03 -0.15068652483E+03  0.42349420702E+03  0.52248522530E+03  0.17120000000E+03 0.  0.
        998    1    1    2    0    0  0.10443125380E+03  0.71197968618E+01  0.87794801958E+03  0.88422242867E+03  0.10000000000E+02 0. -1.
</event>
<event>
 5    1  0.9123258E-009  0.3738405E+03  0.7957747E-01  0.3478425E+00
         13   -1    0    0    0    0  0.00000000000E+00  0.00000000000E+00  0.14999999963E+04  0.15000000000E+04  0.10566000000E+00 0.  1.
        994   -1    0    0    0    0 -0.00000000000E+00 -0.00000000000E+00  0.11368683772E-12  0.17120000000E+03  0.17120000000E+03 0.  0.
         13    1    1    2    0    0 -0.38138158805E+02  0.56985963234E+01  0.93070525000E+02  0.10074287541E+03  0.10566000000E+00 0.  1.
        994    1    1    2    0    0  0.40885441156E+02 -0.37285396549E+01  0.13049113733E+02  0.17653679695E+03  0.17120000000E+03 0.  0.
        998    1    1    2    0    0 -0.27472823508E+01 -0.19700566685E+01  0.13938803575E+04  0.13939203276E+04  0.10000000000E+02 0.  1.
</event>
<event>
 5    1  0.9123258E-009  0.3861781E+03  0.7957747E-01  0.3424691E+00
         13   -1    0    0    0    0  0.00000000000E+00  0.00000000000E+00  0.14999999963E+04  0.15000000000E+04  0.10566000000E+00 0.  1.
        994   -1    0    0    0    0 -0.00000000000E+00 -0.00000000000E+00  0.11368683772E-12  0.17120000000E+03  0.17120000000E+03 0.  0.
         13    1    1    2    0    0 -0.49369888039E+01 -0.10392368923E+02  0.68522638098E+02  0.69481927767E+02  0.10566000000E+00 0.  1.
        994    1    1    2    0    0  0.14766361220E+02 -0.68643528270E+01  0.19155536240E+01  0.17198335416E+03  0.17120000000E+03 0.  0.
        998    1    1    2    0    0 -0.98293724163E+01  0.17256721750E+02  0.14295618046E+04  0.14297347181E+04  0.10000000000E+02 0.  1.
</event>
<event>
 5    1  0.9123258E-009  0.4424994E+03  0.7957747E-01  0.3217281E+00
         13   -1    0    0    0    0  0.00000000000E+00  0.00000000000E+00  0.14999999963E+04  0.15000000000E+04  0.10566000000E+00 0.  1.
        994   -1    0    0    0    0 -0.00000000000E+00 -0.00000000000E+00  0.11368683772E-12  0.17120000000E+03  0.17120000000E+03 0.  0.
         13    1    1    2    0    0 -0.42334881697E+02  0.82359817772E+02  0.60850784089E+02  0.11080708858E+03  0.10566000000E+00 0.  1.
        994    1    1    2    0    0  0.33639552650E+02 -0.68536257173E+02  0.84515407805E+02  0.20562376372E+03  0.17120000000E+03 0.  0.
        998    1    1    2    0    0  0.86953290472E+01 -0.13823560599E+02  0.13546338044E+04  0.13547691477E+04  0.10000000000E+02 0.  1.
</event>
<event>
 5    1  0.9123258E-009  0.3779459E+03  0.7957747E-01  0.3460152E+00
         13   -1    0    0    0    0  0.00000000000E+00  0.00000000000E+00  0.14999999963E+04  0.15000000000E+04  0.10566000000E+00 0.  1.
        994   -1    0    0    0    0 -0.00000000000E+00 -0.00000000000E+00  0.11368683772E-12  0.17120000000E+03  0.17120000000E+03 0.  0.
         13    1    1    2    0    0 -0.82300519673E+02 -0.49276231095E+02  0.39769791521E+03  0.40910287877E+03  0.10566000000E+00 0.  1.
        994    1    1    2    0    0 -0.35070849839E+02  0.12045739311E+03  0.74231782241E+02  0.22485494337E+03  0.17120000000E+03 0.  0.
        998    1    1    2    0    0  0.11737136951E+03 -0.71181162013E+02  0.10280702988E+04  0.10372421779E+04  0.10000000000E+02 0.  1.
</event>
<event>
 5    1  0.9123258E-009  0.2279662E+03  0.7957747E-01  0.4598025E+00
         13   -1    0    0    0    0  0.00000000000E+00  0.00000000000E+00  0.14999999963E+04  0.15000000000E+04  0.10566000000E+00 0.  1.
        994   -1    0    0    0    0 -0.00000000000E+00 -0.00000000000E+00  0.11368683772E-12  0.17120000000E+03  0.17120000000E+03 0.  0.
         13    1    1    2    0    0 -0.18580906737E+02  0.11576137338E+03  0.43212069558E+02  0.12495295027E+03  0.10566000000E+00 0.  1.
        994    1    1    2    0    0  0.18191514128E+02 -0.11251609776E+03  0.19183017892E+03  0.28124555283E+03  0.17120000000E+03 0.  0.
        998    1    1    2    0    0  0.38939260872E+00 -0.32452756202E+01  0.12649577478E+04  0.12650014969E+04  0.10000000000E+02 0.  1.
</event>
<event>
 5    1  0.9123258E-009  0.3806160E+03  0.7957747E-01  0.3448481E+00
         13   -1    0    0    0    0  0.00000000000E+00  0.00000000000E+00  0.14999999963E+04  0.15000000000E+04  0.10566000000E+00 0.  1.
        994   -1    0    0    0    0 -0.00000000000E+00 -0.00000000000E+00  0.11368683772E-12  0.17120000000E+03  0.17120000000E+03 0.  0.
         13    1    1    2    0    0  0.13240463950E+02 -0.10329731713E+02  0.35868582273E+02  0.39605297641E+02  0.10566000000E+00 0.  1.
        994    1    1    2    0    0  0.66193158967E+01  0.20928014101E+02  0.54314889028E+01  0.17268682112E+03  0.17120000000E+03 0.  0.
        998    1    1    2    0    0 -0.19859779847E+02 -0.10598282388E+02  0.14586999251E+04  0.14589078812E+04  0.10000000000E+02 0.  1.
</event>
<event>
 5    1  0.9123258E-009  0.3776052E+03  0.7957747E-01  0.3461653E+00
         13   -1    0    0    0    0  0.00000000000E+00  0.00000000000E+00  0.14999999963E+04  0.15000000000E+04  0.10566000000E+00 0.  1.
        994   -1    0    0    0    0 -0.00000000000E+00 -0.00000000000E+00  0.11368683772E-12  0.17120000000E+03  0.17120000000E+03 0.  0.
         13    1    1    2    0    0 -0.47192617475E+01  0.17297941542E+02  0.27849442945E+02  0.33122391964E+02  0.10566000000E+00 0.  1.
        994    1    1    2    0    0  0.47279930103E+00 -0.12797363346E+02  0.58997362362E+01  0.17177963481E+03  0.17120000000E+03 0.  0.
        998    1    1    2    0    0  0.42464624464E+01 -0.45005781965E+01  0.14662508171E+04  0.14662979732E+04  0.10000000000E+02 0.  1.
</event>
<event>
 5    1  0.9123258E-009  0.3776676E+03  0.7957747E-01  0.3461377E+00
         13   -1    0    0    0    0  0.00000000000E+00  0.00000000000E+00  0.14999999963E+04  0.15000000000E+04  0.10566000000E+00 0.  1.
        994   -1    0    0    0    0 -0.00000000000E+00 -0.00000000000E+00  0.11368683772E-12  0.17120000000E+03  0.17120000000E+03 0.  0.
         13    1    1    2    0    0 -0.14435900758E+03  0.18215149267E+03  0.88365192597E+03  0.91370642265E+03  0.10566000000E+00 0.  1.
        994    1    1    2    0    0  0.14156422114E+03 -0.20556829488E+03  0.25650655862E+03  0.39674148659E+03  0.17120000000E+03 0.  0.
        998    1    1    2    0    0  0.27947864452E+01  0.23416802205E+02  0.35984151169E+03  0.36075209077E+03  0.10000000000E+02 0.  1.
</event>
<event>
 5    1  0.9123258E-009  0.3810471E+03  0.7957747E-01  0.3446612E+00
         13   -1    0    0    0    0  0.00000000000E+00  0.00000000000E+00  0.14999999963E+04  0.15000000000E+04  0.10566000000E+00 0. -1.
        994   -1    0    0    0    0 -0.00000000000E+00 -0.00000000000E+00  0.11368683772E-12  0.17120000000E+03  0.17120000000E+03 0.  0.
         13    1    1    2    0    0  0.86108134210E+01  0.15504285903E+02  0.42884711936E+02  0.46407312689E+02  0.10566000000E+00 0. -1.
        994    1    1    2    0    0  0.34345114594E+02 -0.28759636562E+02  0.10319703714E+02  0.17726432206E+03  0.17120000000E+03 0.  0.
        998    1    1    2    0    0 -0.42955928015E+02  0.13255350660E+02  0.14467955806E+04  0.14475283652E+04  0.10000000000E+02 0. -1.
</event>
<event>
 5    1  0.9123258E-009  0.3793318E+03  0.7957747E-01  0.3454073E+00
         13   -1    0    0    0    0  0.00000000000E+00  0.00000000000E+00  0.14999999963E+04  0.15000000000E+04  0.10566000000E+00 0. -1.
        994   -1    0    0    0    0 -0.00000000000E+00 -0.00000000000E+00  0.11368683772E-12  0.17120000000E+03  0.17120000000E+03 0.  0.
         13    1    1    2    0    0  0.16753913156E+02  0.10889267228E+02  0.42287419831E+02  0.46770789888E+02  0.10566000000E+00 0. -1.
        994    1    1    2    0    0 -0.17205826060E+02 -0.59488849037E+01  0.55819779132E+01  0.17225570574E+03  0.17120000000E+03 0.  0.
        998    1    1    2    0    0  0.45191290409E+00 -0.49403823238E+01  0.14521305985E+04  0.14521735044E+04  0.10000000000E+02 0. -1.
</event>
<event>
 5    1  0.9123258E-009  0.3841179E+03  0.7957747E-01  0.3433422E+00
         13   -1    0    0    0    0  0.00000000000E+00  0.00000000000E+00  0.14999999963E+04  0.15000000000E+04  0.10566000000E+00 0. -1.
        994   -1    0    0    0    0 -0.00000000000E+00 -0.00000000000E+00  0.11368683772E-12  0.17120000000E+03  0.17120000000E+03 0.  0.
         13    1    1    2    0    0 -0.19248918124E+02  0.65663616341E+01  0.10929401298E+03  0.11117027656E+03  0.10566000000E+00 0. -1.
        994    1    1    2    0    0 -0.12938755440E+01 -0.49665522016E+01  0.21556134770E+01  0.17129047675E+03  0.17120000000E+03 0.  0.
        998    1    1    2    0    0  0.20542793669E+02 -0.15998094325E+01  0.13885503698E+04  0.13887392467E+04  0.10000000000E+02 0. -1.
</event>
<event>
 5    1  0.9123258E-009  0.3854551E+03  0.7957747E-01  0.3427745E+00
         13   -1    0    0    0    0  0.00000000000E+00  0.00000000000E+00  0.14999999963E+04  0.15000000000E+04  0.10566000000E+00 0.  1.
        994   -1    0    0    0    0 -0.00000000000E+00 -0.00000000000E+00  0.11368683772E-12  0.17120000000E+03  0.17120000000E+03 0.  0.
         13    1    1    2    0    0  0.10924299842E+02  0.54714578850E+00  0.41022019175E+02  0.42455352039E+02  0.10566000000E+00 0.  1.
        994    1    1    2    0    0 -0.15212931186E+02  0.58917402209E+01  0.22788320993E+01  0.17199063624E+03  0.17120000000E+03 0.  0.
        998    1    1    2    0    0  0.42886313441E+01 -0.64388860094E+01  0.14566991450E+04  0.14567540117E+04  0.10000000000E+02 0.  1.
</event>
<event>
 5    1  0.9123258E-009  0.3818086E+03  0.7957747E-01  0.3443321E+00
         13   -1    0    0    0    0  0.00000000000E+00  0.00000000000E+00  0.14999999963E+04  0.15000000000E+04  0.10566000000E+00 0. -1.
        994   -1    0    0    0    0 -0.00000000000E+00 -0.00000000000E+00  0.11368683772E-12  0.17120000000E+03  0.17120000000E+03 0.  0.
         13    1    1    2    0    0  0.92684509883E+02 -0.77364943265E+02  0.71449209391E+03  0.72462039458E+03  0.10566000000E+00 0. -1.
        994    1    1    2    0    0 -0.11260627466E+03  0.89532331882E+02  0.75357732078E+02  0.23597550578E+03  0.17120000000E+03 0.  0.
        998    1    1    2    0    0  0.19921764777E+02 -0.12167388617E+02  0.71015017029E+03  0.71060409964E+03  0.10000000000E+02 0. -1.
</event>
<event>
 5    1  0.9123258E-009  0.3799424E+03  0.7957747E-01  0.3451409E+00
         13   -1    0    0    0    0  0.00000000000E+00  0.00000000000E+00  0.14999999963E+04  0.15000000000E+04  0.10566000000E+00 0. -1.
        994   -1    0    0    0    0 -0.00000000000E+00 -0.00000000000E+00  0.11368683772E-12  0.17120000000E+03  0.17120000000E+03 0.  0.
         13    1    1    2    0    0 -0.21057997727E+02 -0.20924963146E+02  0.10710637683E+03  0.11114441269E+03  0.10566000000E+00 0. -1.
        994    1    1    2    0    0  0.11957007103E+02  0.67512715899E+01  0.47928943485E+01  0.17181665089E+03  0.17120000000E+03 0.  0.
        998    1    1    2    0    0  0.91009906237E+01  0.14173691556E+02  0.13881007251E+04  0.13882389364E+04  0.10000000000E+02 0.  1.
</event>
<event>
 5    1  0.9123258E-009  0.3723040E+03  0.7957747E-01  0.3485369E+00
         13   -1    0    0    0    0  0.00000000000E+00  0.00000000000E+00  0.14999999963E+04  0.15000000000E+04  0.10566000000E+00 0. -1.
        994   -1    0    0    0    0 -0.00000000000E+00 -0.00000000000E+00  0.11368683772E-12  0.17120000000E+03  0.17120000000E+03 0.  0.
         13    1    1    2    0    0  0.18131697925E+03  0.22660739276E+03  0.98704302631E+03  0.10288249143E+04  0.10566000000E+00 0. -1.
        994    1    1    2    0    0 -0.17473385128E+03 -0.23156403665E+03  0.37603818642E+03  0.50484451022E+03  0.17120000000E+03 0.  0.
        998    1    1    2    0    0 -0.65831279685E+01  0.49566438865E+01  0.13691878354E+03  0.13753057543E+03  0.10000000000E+02 0.  0.
</event>
<event>
 5    1  0.9123258E-009  0.3852750E+03  0.7957747E-01  0.3428507E+00
         13   -1    0    0    0    0  0.00000000000E+00  0.00000000000E+00  0.14999999963E+04  0.15000000000E+04  0.10566000000E+00 0. -1.
        994   -1    0    0    0    0 -0.00000000000E+00 -0.00000000000E+00  0.11368683772E-12  0.17120000000E+03  0.17120000000E+03 0.  0.
         13    1    1    2    0    0 -0.46984028830E+01 -0.89631019935E+01  0.33674346034E+02  0.35162265738E+02  0.10566000000E+00 0. -1.
        994    1    1    2    0    0  0.44896693363E+01  0.91419936029E+01  0.18345865229E+01  0.17151250358E+03  0.17120000000E+03 0.  0.
        998    1    1    2    0    0  0.20873354668E+00 -0.17889160932E+00  0.14644910637E+04  0.14645252307E+04  0.10000000000E+02 0. -1.
</event>
<event>
 5    1  0.9123258E-009  0.3748682E+03  0.7957747E-01  0.3473813E+00
         13   -1    0    0    0    0  0.00000000000E+00  0.00000000000E+00  0.14999999963E+04  0.15000000000E+04  0.10566000000E+00 0.  1.
        994   -1    0    0    0    0 -0.00000000000E+00 -0.00000000000E+00  0.11368683772E-12  0.17120000000E+03  0.17120000000E+03 0.  0.
         13    1    1    2    0    0 -0.27235634742E+02  0.14808956904E+02  0.28211304308E+02  0.41916272010E+02  0.10566000000E+00 0.  1.
        994    1    1    2    0    0  0.52115076151E+02 -0.29662463128E+01  0.23291768119E+02  0.18049023863E+03  0.17120000000E+03 0.  0.
        998    1    1    2    0    0 -0.24879441409E+02 -0.11842710591E+02  0.14484969239E+04  0.14487934894E+04  0.10000000000E+02 0.  1.
</event>
<event>
 5    1  0.9123258E-009  0.3836359E+03  0.7957747E-01  0.3435478E+00
         13   -1    0    0    0    0  0.00000000000E+00  0.00000000000E+00  0.14999999963E+04  0.15000000000E+04  0.10566000000E+00 0.  1.
        994   -1    0    0    0    0 -0.00000000000E+00 -0.00000000000E+00  0.11368683772E-12  0.17120000000E+03  0.17120000000E+03 0.  0.
         13    1    1    2    0    0  0.50693450701E+01  0.17387377338E+02  0.73277377921E+02  0.75482477630E+02  0.10566000000E+00 0.  1.
        994    1    1    2    0    0  0.61594019997E+01 -0.69674607862E+01  0.25946135791E+01  0.17147202618E+03  0.17120000000E+03 0.  0.
        998    1    1    2    0    0 -0.11228747070E+02 -0.10419916552E+02  0.14241280048E+04  0.14242454962E+04  0.10000000000E+02 0.  1.
</event>
<event>
 5    1  0.9123258E-009  0.3738462E+03  0.7957747E-01  0.3478399E+00
         13   -1    0    0    0    0  0.00000000000E+00  0.00000000000E+00  0.14999999963E+04  0.15000000000E+04  0.10566000000E+00 0.  1.
        994   -1    0    0    0    0 -0.00000000000E+00 -0.00000000000E+00  0.11368683772E-12  0.17120000000E+03  0.17120000000E+03 0.  0.
         13    1    1    2    0    0  0.49694399826E+01 -0.12678547283E+02  0.10214970577E+02  0.17023445094E+02  0.10566000000E+00 0.  1.
        994    1    1    2    0    0 -0.57050149594E+00 -0.26099078675E+02  0.96014801188E+01  0.17344484945E+03  0.17120000000E+03 0.  0.
        998    1    1    2    0    0 -0.43989384867E+01  0.38777625957E+02  0.14801835456E+04  0.14807317055E+04  0.10000000000E+02 0.  1.
</event>
<event>
 5    1  0.9123258E-009  0.3844422E+03  0.7957747E-01  0.3432041E+00
         13   -1    0    0    0    0  0.00000000000E+00  0.00000000000E+00  0.14999999963E+04  0.15000000000E+04  0.10566000000E+00 0.  1.
        994   -1    0    0    0    0 -0.00000000000E+00 -0.00000000000E+00  0.11368683772E-12  0.17120000000E+03  0.17120000000E+03 0.  0.
         13    1    1    2    0    0  0.62585845474E+01 -0.12789605004E+02  0.57922435099E+02  0.59646990942E+02  0.10566000000E+00 0.  1.
        994    1    1    2    0    0  0.32564876091E+01 -0.59067027947E+01  0.20572344456E+01  0.17134516644E+03  0.17120000000E+03 0.  0.
        998    1    1    2    0    0 -0.95150721565E+01  0.18696307799E+02  0.14400203267E+04  0.14402078426E+04  0.10000000000E+02 0.  1.
</event>
<event>
 5    1  0.9123258E-009  0.3779831E+03  0.7957747E-01  0.3459988E+00
         13   -1    0    0    0    0  0.00000000000E+00  0.00000000000E+00  0.14999999963E+04  0.15000000000E+04  0.10566000000E+00 0.  1.
        994   -1    0    0    0    0 -0.00000000000E+00 -0.00000000000E+00  0.11368683772E-12  0.17120000000E+03  0.17120000000E+03 0.  0.
         13    1    1    2    0    0  0.18676900724E+02  0.14209952649E+02  0.53438826502E+02  0.58364961380E+02  0.10566000000E+00 0.  1.
        994    1    1    2    0    0 -0.18662694396E+02  0.16797506210E+02  0.72793614218E+01  0.17318453014E+03  0.17120000000E+03 0.  0.
        998    1    1    2    0    0 -0.14206327515E-01 -0.31007458859E+02  0.14392818084E+04  0.14396505085E+04  0.10000000000E+02 0.  1.
</event>
<event>
 5    1  0.9123258E-009  0.3786932E+03  0.7957747E-01  0.3456868E+00
         13   -1    0    0    0    0  0.00000000000E+00  0.00000000000E+00  0.14999999963E+04  0.15000000000E+04  0.10566000000E+00 0. -1.
        994   -1    0    0    0    0 -0.00000000000E+00 -0.00000000000E+00  0.11368683772E-12  0.17120000000E+03  0.17120000000E+03 0.  0.
         13    1    1    2    0    0  0.43828651844E+02 -0.68735108840E+02  0.43031071310E+03  0.43796436714E+03  0.10566000000E+00 0. -1.
        994    1    1    2    0    0  0.19155617434E+02  0.15114903188E+03  0.87154673349E+02  0.24519042519E+03  0.17120000000E+03 0.  0.
        998    1    1    2    0    0 -0.62984269278E+02 -0.82413923044E+02  0.98253460983E+03  0.98804520767E+03  0.10000000000E+02 0. -1.
</event>
<event>
 5    1  0.9947455E-009  0.3853135E+03  0.7957747E-01  0.3428344E+00
         13   -1    0    0    0    0  0.00000000000E+00  0.00000000000E+00  0.14999999963E+04  0.15000000000E+04  0.10566000000E+00 0.  1.
        994   -1    0    0    0    0 -0.00000000000E+00 -0.00000000000E+00  0.11368683772E-12  0.17120000000E+03  0.17120000000E+03 0.  0.
         13    1    1    2    0    0  0.10012798794E+02 -0.17481570358E+01  0.33165245945E+02  0.34687993533E+02  0.10566000000E+00 0.  1.
        994    1    1    2    0    0 -0.17650989935E+02  0.39932763395E+01  0.25512729032E+01  0.17217274086E+03  0.17120000000E+03 0.  0.
        998    1    1    2    0    0  0.76381911408E+01 -0.22451193037E+01  0.14642834774E+04  0.14643392656E+04  0.10000000000E+02 0.  1.
</event>
<event>
 5    1  0.9123258E-009  0.3780487E+03  0.7957747E-01  0.3459699E+00
         13   -1    0    0    0    0  0.00000000000E+00  0.00000000000E+00  0.14999999963E+04  0.15000000000E+04  0.10566000000E+00 0.  1.
        994   -1    0    0    0    0 -0.00000000000E+00 -0.00000000000E+00  0.11368683772E-12  0.17120000000E+03  0.17120000000E+03 0.  0.
         13    1    1    2    0    0 -0.27838478787E+02  0.17327031195E+02  0.10969905222E+03  0.11449497864E+03  0.10566000000E+00 0.  1.
        994    1    1    2    0    0  0.12831557805E+02  0.63279590134E+01  0.58104190508E+01  0.17189500548E+03  0.17120000000E+03 0.  0.
        998    1    1    2    0    0  0.15006920982E+02 -0.23654990208E+02  0.13844905250E+04  0.13848100159E+04  0.10000000000E+02 0.  1.
</event>
<event>
 5    1  0.9123258E-009  0.3841940E+03  0.7957747E-01  0.3433098E+00
         13   -1    0    0    0    0  0.00000000000E+00  0.00000000000E+00  0.14999999963E+04  0.15000000000E+04  0.10566000000E+00 0.  1.
        994   -1    0    0    0    0 -0.00000000000E+00 -0.00000000000E+00  0.11368683772E-12  0.17120000000E+03  0.17120000000E+03 0.  0.
         13    1    1    2    0    0  0.30858571588E+02  0.15955929456E+02  0.20723256143E+03  0.21012422232E+03  0.10566000000E+00 0.  1.
        994    1    1    2    0    0 -0.76123535772E+02  0.12476216756E+02  0.21904025247E+02  0.18904939832E+03  0.17120000000E+03 0.  0.
        998    1    1    2    0    0  0.45264964184E+02 -0.28432146211E+02  0.12708634096E+04  0.12720263794E+04  0.10000000000E+02 0.  1.
</event>
<event>
 5    1  0.9123258E-009  0.3804832E+03  0.7957747E-01  0.3449057E+00
         13   -1    0    0    0    0  0.00000000000E+00  0.00000000000E+00  0.14999999963E+04  0.15000000000E+04  0.10566000000E+00 0. -1.
        994   -1    0    0    0    0 -0.00000000000E+00 -0.00000000000E+00  0.11368683772E-12  0.17120000000E+03  0.17120000000E+03 0.  0.
         13    1    1    2    0    0 -0.17417794165E+02  0.34649030332E+02  0.22148314801E+03  0.22485268705E+03  0.10566000000E+00 0. -1.
        994    1    1    2    0    0  0.19956468679E+01 -0.46880074849E+01  0.39760757870E+01  0.17132194605E+03  0.17120000000E+03 0.  0.
        998    1    1    2    0    0  0.15422147297E+02 -0.29961022847E+02  0.12745407725E+04  0.12750253669E+04  0.10000000000E+02 0. -1.
</event>
<event>
 5    1  0.9123258E-009  0.3821971E+03  0.7957747E-01  0.3441647E+00
         13   -1    0    0    0    0  0.00000000000E+00  0.00000000000E+00  0.14999999963E+04  0.15000000000E+04  0.10566000000E+00 0.  1.
        994   -1    0    0    0    0 -0.00000000000E+00 -0.00000000000E+00  0.11368683772E-12  0.17120000000E+03  0.17120000000E+03 0.  0.
         13    1    1    2    0    0  0.86421716820E+00 -0.25571253097E+02  0.10189523127E+03  0.10505848455E+03  0.10566000000E+00 0.  1.
        994    1    1    2    0    0  0.83296554370E+01  0.24530612046E+02  0.52587094497E+01  0.17322883164E+03  0.17120000000E+03 0.  0.
        998    1    1    2    0    0 -0.91938726052E+01  0.10406410510E+01  0.13928460556E+04  0.13929126838E+04  0.10000000000E+02 0.  1.
</event>
<event>
 5    1  0.9123258E-009  0.3741601E+03  0.7957747E-01  0.3476988E+00
         13   -1    0    0    0    0  0.00000000000E+00  0.00000000000E+00  0.14999999963E+04  0.15000000000E+04  0.10566000000E+00 0. -1.
        994   -1    0    0    0    0 -0.00000000000E+00 -0.00000000000E+00  0.11368683772E-12  0.17120000000E+03  0.17120000000E+03 0.  0.
         13    1    1    2    0    0 -0.13659529494E+01 -0.29363124808E+02  0.56273039640E+02  0.63487991624E+02  0.10566000000E+00 0. -1.
        994    1    1    2    0    0  0.78910935383E+01  0.28299435504E+02  0.10058579272E+02  0.17399351259E+03  0.17120000000E+03 0.  0.
        998    1    1    2    0    0 -0.65251405889E+01  0.10636893044E+01  0.14336683774E+04  0.14337184958E+04  0.10000000000E+02 0. -1.
</event>
<event>
 5    1  0.9123258E-009  0.3732157E+03  0.7957747E-01  0.3481241E+00
         13   -1    0    0    0    0  0.00000000000E+00  0.00000000000E+00  0.14999999963E+04  0.15000000000E+04  0.10566000000E+00 0. -1.
        994   -1    0    0    0    0 -0.00000000000E+00 -0.00000000000E+00  0.11368683772E-12  0.17120000000E+03  0.17120000000E+03 0.  0.
         13    1    1    2    0    0 -0.59020494853E+02 -0.28608992906E+02  0.23373738667E+03  0.24276546372E+03  0.10566000000E+00 0. -1.
        994    1    1    2    0    0  0.60966674982E+02  0.30321868560E+02  0.23623114186E+02  0.18575210011E+03  0.17120000000E+03 0.  0.
        998    1    1    2    0    0 -0.19461801286E+01 -0.17128756532E+01  0.12426394954E+04  0.12426824362E+04  0.10000000000E+02 0. -1.
</event>
<event>
 5    1  0.9123258E-009  0.3845328E+03  0.7957747E-01  0.3431656E+00
         13   -1    0    0    0    0  0.00000000000E+00  0.00000000000E+00  0.14999999963E+04  0.15000000000E+04  0.10566000000E+00 0.  1.
        994   -1    0    0    0    0 -0.00000000000E+00 -0.00000000000E+00  0.11368683772E-12  0.17120000000E+03  0.17120000000E+03 0.  0.
         13    1    1    2    0    0 -0.54797529755E+01 -0.15485581994E+02  0.73991238244E+02  0.75792779625E+02  0.10566000000E+00 0.  1.
        994    1    1    2    0    0 -0.25182092441E+02  0.17385813715E+02  0.49525654793E+01  0.17398382742E+03  0.17120000000E+03 0.  0.
        998    1    1    2    0    0  0.30661845417E+02 -0.19002317207E+01  0.14210561926E+04  0.14214233930E+04  0.10000000000E+02 0.  1.
</event>
<event>
 5    1  0.9123258E-009  0.3783246E+03  0.7957747E-01  0.3458486E+00
         13   -1    0    0    0    0  0.00000000000E+00  0.00000000000E+00  0.14999999963E+04  0.15000000000E+04  0.10566000000E+00 0. -1.
        994   -1    0    0    0    0 -0.00000000000E+00 -0.00000000000E+00  0.11368683772E-12  0.17120000000E+03  0.17120000000E+03 0.  0.
         13    1    1    2    0    0 -0.27661117464E-01  0.34988294828E+02  0.12760468599E+03  0.13231458192E+03  0.10566000000E+00 0. -1.
        994    1    1    2    0    0  0.15978291695E+01 -0.11256961107E+02  0.54159314959E+01  0.17166258924E+03  0.17120000000E+03 0.  0.
        998    1    1    2    0    0 -0.15701680520E+01 -0.23731333721E+02  0.13669793788E+04  0.13672228288E+04  0.10000000000E+02 0. -1.
</event>
<event>
 5    1  0.9123258E-009  0.3844861E+03  0.7957747E-01  0.3431855E+00
         13   -1    0    0    0    0  0.00000000000E+00  0.00000000000E+00  0.14999999963E+04  0.15000000000E+04  0.10566000000E+00 0. -1.
        994   -1    0    0    0    0 -0.00000000000E+00 -0.00000000000E+00  0.11368683772E-12  0.17120000000E+03  0.17120000000E+03 0.  0.
         13    1    1    2    0    0  0.18396500016E+02  0.10498934560E+02  0.11873592366E+03  0.12061048699E+03  0.10566000000E+00 0. -1.
        994    1    1    2    0    0 -0.14024725180E+02 -0.21434013509E+01  0.25488468324E+01  0.17180577320E+03  0.17120000000E+03 0.  0.
        998    1    1    2    0    0 -0.43717748353E+01 -0.83555332089E+01  0.13787152258E+04  0.13787837398E+04  0.10000000000E+02 0. -1.
</event>
<event>
 5    1  0.9123258E-009  0.3839423E+03  0.7957747E-01  0.3434171E+00
         13   -1    0    0    0    0  0.00000000000E+00  0.00000000000E+00  0.14999999963E+04  0.15000000000E+04  0.10566000000E+00 0. -1.
        994   -1    0    0    0    0 -0.00000000000E+00 -0.00000000000E+00  0.11368683772E-12  0.17120000000E+03  0.17120000000E+03 0.  0.
         13    1    1    2    0    0  0.71022003923E+01 -0.85996343837E+01  0.28777575224E+02  0.30863489138E+02  0.10566000000E+00 0. -1.
        994    1    1    2    0    0  0.16729674610E+01  0.47503842425E+01  0.22399089004E+01  0.17128870997E+03  0.17120000000E+03 0.  0.
        998    1    1    2    0    0 -0.87751678533E+01  0.38492501412E+01  0.14689825122E+04  0.14690478009E+04  0.10000000000E+02 0. -1.
</event>
<event>
 5    1  0.9123258E-009  0.3783905E+03  0.7957747E-01  0.3458197E+00
         13   -1    0    0    0    0  0.00000000000E+00  0.00000000000E+00  0.14999999963E+04  0.15000000000E+04  0.10566000000E+00 0. -1.
        994   -1    0    0    0    0 -0.00000000000E+00 -0.00000000000E+00  0.11368683772E-12  0.17120000000E+03  0.17120000000E+03 0.  0.
         13    1    1    2    0    0  0.59656676345E+02 -0.56300763276E+02  0.41017875090E+03  0.41830050661E+03  0.10566000000E+00 0. -1.
        994    1    1    2    0    0 -0.75640139252E+02  0.63653697150E+02  0.38529482768E+02  0.20141297096E+03  0.17120000000E+03 0.  0.
        998    1    1    2    0    0  0.15983462907E+02 -0.73529338738E+01  0.10512917626E+04  0.10514865224E+04  0.10000000000E+02 0. -1.
</event>
<event>
 5    1  0.9123258E-009  0.3852212E+03  0.7957747E-01  0.3428735E+00
         13   -1    0    0    0    0  0.00000000000E+00  0.00000000000E+00  0.14999999963E+04  0.15000000000E+04  0.10566000000E+00 0. -1.
        994   -1    0    0    0    0 -0.00000000000E+00 -0.00000000000E+00  0.11368683772E-12  0.17120000000E+03  0.17120000000E+03 0.  0.
         13    1    1    2    0    0  0.15501199839E+02  0.25735518667E+01  0.89642351015E+02  0.91009189785E+02  0.10566000000E+00 0. -1.
        994    1    1    2    0    0  0.28399847861E+01 -0.44212588753E+01  0.16111311329E+01  0.17128820388E+03  0.17120000000E+03 0.  0.
        998    1    1    2    0    0 -0.18341184625E+02  0.18477070086E+01  0.14087465141E+04  0.14089026063E+04  0.10000000000E+02 0. -1.
</event>
<event>
 5    1  0.9123258E-009  0.3829169E+03  0.7957747E-01  0.3438555E+00
         13   -1    0    0    0    0  0.00000000000E+00  0.00000000000E+00  0.14999999963E+04  0.15000000000E+04  0.10566000000E+00 0.  1.
        994   -1    0    0    0    0 -0.00000000000E+00 -0.00000000000E+00  0.11368683772E-12  0.17120000000E+03  0.17120000000E+03 0.  0.
         13    1    1    2    0    0  0.18749041364E+02 -0.63363791999E+01  0.69298865562E+02  0.72069551030E+02  0.10566000000E+00 0.  1.
        994    1    1    2    0    0 -0.23428146929E+02 -0.13497120363E+01  0.44934042135E+01  0.17285927939E+03  0.17120000000E+03 0.  0.
        998    1    1    2    0    0  0.46791055650E+01  0.76860912362E+01  0.14262077265E+04  0.14262711696E+04  0.10000000000E+02 0.  1.
</event>
<event>
 5    1  0.9123258E-009  0.3803850E+03  0.7957747E-01  0.3449484E+00
         13   -1    0    0    0    0  0.00000000000E+00  0.00000000000E+00  0.14999999963E+04  0.15000000000E+04  0.10566000000E+00 0.  1.
        994   -1    0    0    0    0 -0.00000000000E+00 -0.00000000000E+00  0.11368683772E-12  0.17120000000E+03  0.17120000000E+03 0.  0.
         13    1    1    2    0    0 -0.14737213079E+02  0.12366447583E+02  0.46060376302E+02  0.49916769771E+02  0.10566000000E+00 0.  1.
        994    1    1    2    0    0  0.91564452688E+01 -0.37619189743E+01  0.42661689189E+01  0.17153901224E+03  0.17120000000E+03 0.  0.
        998    1    1    2    0    0  0.55807678105E+01 -0.86045286092E+01  0.14496734511E+04  0.14497442180E+04  0.10000000000E+02 0.  1.
</event>
<event>
 5    1  0.9123258E-009  0.3812563E+03  0.7957747E-01  0.3445706E+00
         13   -1    0    0    0    0  0.00000000000E+00  0.00000000000E+00  0.14999999963E+04  0.15000000000E+04  0.10566000000E+00 0.  1.
        994   -1    0    0    0    0 -0.00000000000E+00 -0.00000000000E+00  0.11368683772E-12  0.17120000000E+03  0.17120000000E+03 0.  0.
         13    1    1    2    0    0 -0.19002707447E+02 -0.76375423885E+01  0.57556800488E+02  0.61091991214E+02  0.10566000000E+00 0.  1.
        994    1    1    2    0    0  0.18793045851E+02  0.97731462891E+00  0.46801440215E+01  0.17229474009E+03  0.17120000000E+03 0.  0.
        998    1    1    2    0    0  0.20966159562E+00  0.66602277595E+01  0.14377630518E+04  0.14378132687E+04  0.10000000000E+02 0.  1.
</event>
<event>
 5    1  0.9123258E-009  0.3811550E+03  0.7957747E-01  0.3446145E+00
         13   -1    0    0    0    0  0.00000000000E+00  0.00000000000E+00  0.14999999963E+04  0.15000000000E+04  0.10566000000E+00 0. -1.
        994   -1    0    0    0    0 -0.00000000000E+00 -0.00000000000E+00  0.11368683772E-12  0.17120000000E+03  0.17120000000E+03 0.  0.
         13    1    1    2    0    0  0.51160110598E+01  0.28124914888E+02  0.10000912062E+03  0.10401451715E+03  0.10566000000E+00 0. -1.
        994    1    1    2    0    0  0.22179448837E+01 -0.42515976710E+02  0.96109675203E+01  0.17667579985E+03  0.17120000000E+03 0.  0.
        998    1    1    2    0    0 -0.73339559435E+01  0.14391061822E+02  0.13903799081E+04  0.13905096830E+04  0.10000000000E+02 0. -1.
</event>
<event>
 5    1  0.9123258E-009  0.3720976E+03  0.7957747E-01  0.3486306E+00
         13   -1    0    0    0    0  0.00000000000E+00  0.00000000000E+00  0.14999999963E+04  0.15000000000E+04  0.10566000000E+00 0.  1.
        994   -1    0    0    0    0 -0.00000000000E+00 -0.00000000000E+00  0.11368683772E-12  0.17120000000E+03  0.17120000000E+03 0.  0.
         13    1    1    2    0    0  0.12675541387E+02  0.26962792989E+02  0.46284268620E+02  0.55044584120E+02  0.10566000000E+00 0.  1.
        994    1    1    2    0    0  0.22119810139E+02 -0.68372054121E+02  0.26117824941E+02  0.18749827883E+03  0.17120000000E+03 0.  0.
        998    1    1    2    0    0 -0.34795351526E+02  0.41409261132E+02  0.14275979027E+04  0.14286571370E+04  0.10000000000E+02 0.  1.
</event>
<event>
 5    1  0.9123258E-009  0.3856550E+03  0.7957747E-01  0.3426899E+00
         13   -1    0    0    0    0  0.00000000000E+00  0.00000000000E+00  0.14999999963E+04  0.15000000000E+04  0.10566000000E+00 0.  1.
        994   -1    0    0    0    0 -0.00000000000E+00 -0.00000000000E+00  0.11368683772E-12  0.17120000000E+03  0.17120000000E+03 0.  0.
         13    1    1    2    0    0  0.85814286307E+01 -0.71532909625E+01  0.52254318394E+02  0.53435338904E+02  0.10566000000E+00 0.  1.
        994    1    1    2    0    0  0.49920501069E+01 -0.23614983930E+01  0.14053803716E+01  0.17129481117E+03  0.17120000000E+03 0.  0.
        998    1    1    2    0    0 -0.13573478738E+02  0.95147893555E+01  0.14463402975E+04  0.14464698499E+04  0.10000000000E+02 0.  1.
</event>
<event>
 5    1  0.9123258E-009  0.3778263E+03  0.7957747E-01  0.3460678E+00
         13   -1    0    0    0    0  0.00000000000E+00  0.00000000000E+00  0.14999999963E+04  0.15000000000E+04  0.10566000000E+00 0. -1.
        994   -1    0    0    0    0 -0.00000000000E+00 -0.00000000000E+00  0.11368683772E-12  0.17120000000E+03  0.17120000000E+03 0.  0.
         13    1    1    2    0    0 -0.14071085967E+02 -0.52161524046E+01  0.20880455993E+02  0.25713971158E+02  0.10566000000E+00 0. -1.
        994    1    1    2    0    0 -0.20003826684E+02 -0.61859057571E+01  0.67120563183E+01  0.17260622878E+03  0.17120000000E+03 0.  0.
        998    1    1    2    0    0  0.34074912650E+02  0.11402058162E+02  0.14724074840E+04  0.14728798001E+04  0.10000000000E+02 0. -1.
</event>
<event>
 5    1  0.9123258E-009  0.3823472E+03  0.7957747E-01  0.3441001E+00
         13   -1    0    0    0    0  0.00000000000E+00  0.00000000000E+00  0.14999999963E+04  0.15000000000E+04  0.10566000000E+00 0.  1.
        994   -1    0    0    0    0 -0.00000000000E+00 -0.00000000000E+00  0.11368683772E-12  0.17120000000E+03  0.17120000000E+03 0.  0.
         13    1    1    2    0    0  0.11485100641E+01 -0.34537962084E+02  0.18349005048E+03  0.18671582603E+03  0.10566000000E+00 0.  1.
        994    1    1    2    0    0 -0.29563250109E+00  0.31596976872E+02  0.62720897719E+01  0.17420457932E+03  0.17120000000E+03 0.  0.
        998    1    1    2    0    0 -0.85287756301E+00  0.29409852113E+01  0.13102378560E+04  0.13102795946E+04  0.10000000000E+02 0.  1.
</event>
<event>
 5    1  0.9123258E-009  0.3703909E+03  0.7957747E-01  0.3494096E+00
         13   -1    0    0    0    0  0.00000000000E+00  0.00000000000E+00  0.14999999963E+04  0.15000000000E+04  0.10566000000E+00 0. -1.
        994   -1    0    0    0    0 -0.00000000000E+00 -0.00000000000E+00  0.11368683772E-12  0.17120000000E+03  0.17120000000E+03 0.  0.
         13    1    1    2    0    0  0.48885712926E+02  0.87624193168E+00  0.12718669137E+03  0.13626094949E+03  0.10566000000E+00 0. -1.
        994    1    1    2    0    0 -0.32817161377E+02  0.11253724855E+01  0.12797107775E+02  0.17478969796E+03  0.17120000000E+03 0.  0.
        998    1    1    2    0    0 -0.16068551548E+02 -0.20016144172E+01  0.13600161971E+04  0.13601493526E+04  0.10000000000E+02 0. -1.
</event>
<event>
 5    1  0.9123258E-009  0.3830209E+03  0.7957747E-01  0.3438109E+00
         13   -1    0    0    0    0  0.00000000000E+00  0.00000000000E+00  0.14999999963E+04  0.15000000000E+04  0.10566000000E+00 0.  1.
        994   -1    0    0    0    0 -0.00000000000E+00 -0.00000000000E+00  0.11368683772E-12  0.17120000000E+03  0.17120000000E+03 0.  0.
         13    1    1    2    0    0  0.17848191617E+02 -0.60296784747E+00  0.61087034339E+02  0.63643997695E+02  0.10566000000E+00 0.  1.
        994    1    1    2    0    0 -0.85787781032E+01  0.23419041621E+01  0.28776990449E+01  0.17145495356E+03  0.17120000000E+03 0.  0.
        998    1    1    2    0    0 -0.92694135139E+01 -0.17389363146E+01  0.14360352629E+04  0.14361010487E+04  0.10000000000E+02 0.  1.
</event>
<event>
 5    1  0.9123258E-009  0.3858908E+03  0.7957747E-01  0.3425903E+00
         13   -1    0    0    0    0  0.00000000000E+00  0.00000000000E+00  0.14999999963E+04  0.15000000000E+04  0.10566000000E+00 0. -1.
        994   -1    0    0    0    0 -0.00000000000E+00 -0.00000000000E+00  0.11368683772E-12  0.17120000000E+03  0.17120000000E+03 0.  0.
         13    1    1    2    0    0 -0.97389710789E+01  0.62639030279E+01  0.55509128234E+02  0.56704131420E+02  0.10566000000E+00 0. -1.
        994    1    1    2    0    0  0.11791700159E+02 -0.31604835079E+01  0.16773549601E+01  0.17164290364E+03  0.17120000000E+03 0.  0.
        998    1    1    2    0    0 -0.20527290803E+01 -0.31034195200E+01  0.14428135131E+04  0.14428529649E+04  0.10000000000E+02 0. -1.
</event>
<event>
 5    1  0.9123258E-009  0.3379548E+03  0.7957747E-01  0.3657509E+00
         13   -1    0    0    0    0  0.00000000000E+00  0.00000000000E+00  0.14999999963E+04  0.15000000000E+04  0.10566000000E+00 0. -1.
        994   -1    0    0    0    0 -0.00000000000E+00 -0.00000000000E+00  0.11368683772E-12  0.17120000000E+03  0.17120000000E+03 0.  0.
         13    1    1    2    0    0 -0.19673265655E+03  0.16628510323E+03  0.10061469211E+04  0.10385981474E+04  0.10566000000E+00 0. -1.
        994    1    1    2    0    0  0.13750021961E+03 -0.10742339525E+03  0.16935690096E+03  0.29738408858E+03  0.17120000000E+03 0.  0.
        998    1    1    2    0    0  0.59232436947E+02 -0.58861707987E+02  0.32449617421E+03  0.33521776405E+03  0.10000000000E+02 0. -1.
</event>
<event>
 5    1  0.9123258E-009  0.3761375E+03  0.7957747E-01  0.3468151E+00
         13   -1    0    0    0    0  0.00000000000E+00  0.00000000000E+00  0.14999999963E+04  0.15000000000E+04  0.10566000000E+00 0. -1.
        994   -1    0    0    0    0 -0.00000000000E+00 -0.00000000000E+00  0.11368683772E-12  0.17120000000E+03  0.17120000000E+03 0.  0.
         13    1    1    2    0    0 -0.28444523429E+02 -0.44615953851E+02  0.20221356875E+03  0.20902156061E+03  0.10566000000E+00 0. -1.
        994    1    1    2    0    0  0.23010861817E+02  0.44362722430E+02  0.14600255776E+02  0.17894177369E+03  0.17120000000E+03 0.  0.
        998    1    1    2    0    0  0.54336616113E+01  0.25323142118E+00  0.12831861718E+04  0.12832366657E+04  0.10000000000E+02 0. -1.
</event>
<event>
 5    1  0.9123258E-009  0.3778048E+03  0.7957747E-01  0.3460773E+00
         13   -1    0    0    0    0  0.00000000000E+00  0.00000000000E+00  0.14999999963E+04  0.15000000000E+04  0.10566000000E+00 0.  1.
        994   -1    0    0    0    0 -0.00000000000E+00 -0.00000000000E+00  0.11368683772E-12  0.17120000000E+03  0.17120000000E+03 0.  0.
         13    1    1    2    0    0 -0.41388904895E+02 -0.31677649829E+02  0.21845670779E+03  0.22458819935E+03  0.10566000000E+00 0.  1.
        994    1    1    2    0    0  0.43551775839E+02  0.31716686766E+02  0.15082889300E+02  0.18011007453E+03  0.17120000000E+03 0.  0.
        998    1    1    2    0    0 -0.21628709442E+01 -0.39036936964E-01  0.12664603992E+04  0.12665017261E+04  0.10000000000E+02 0.  1.
</event>
<event>
 5    1  0.9123258E-009  0.3693575E+03  0.7957747E-01  0.3498849E+00
         13   -1    0    0    0    0  0.00000000000E+00  0.00000000000E+00  0.14999999963E+04  0.15000000000E+04  0.10566000000E+00 0.  1.
        994   -1    0    0    0    0 -0.00000000000E+00 -0.00000000000E+00  0.11368683772E-12  0.17120000000E+03  0.17120000000E+03 0.  0.
         13    1    1    2    0    0  0.22037616919E+02  0.62350830773E+01  0.24436170662E+02  0.33491348452E+02  0.10566000000E+00 0.  1.
        994    1    1    2    0    0 -0.17829966767E+01  0.24093372009E+02  0.11630507642E+02  0.17328698266E+03  0.17120000000E+03 0.  0.
        998    1    1    2    0    0 -0.20254620242E+02 -0.30328455086E+02  0.14639333180E+04  0.14644216689E+04  0.10000000000E+02 0.  1.
</event>
<event>
 5    1  0.9123258E-009  0.4033588E+03  0.7957747E-01  0.3355357E+00
         13   -1    0    0    0    0  0.00000000000E+00  0.00000000000E+00  0.14999999963E+04  0.15000000000E+04  0.10566000000E+00 0.  1.
        994   -1    0    0    0    0 -0.00000000000E+00 -0.00000000000E+00  0.11368683772E-12  0.17120000000E+03  0.17120000000E+03 0.  0.
         13    1    1    2    0    0  0.49770134858E+02  0.29838742514E+02  0.50807480897E+02  0.77128646803E+02  0.10566000000E+00 0.  1.
        994    1    1    2    0    0  0.18774040475E+02 -0.41131299799E+02  0.37957766716E+02  0.18109246388E+03  0.17120000000E+03 0.  0.
        998    1    1    2    0    0 -0.68544175333E+02  0.11292557284E+02  0.14112347487E+04  0.14129788893E+04  0.10000000000E+02 0.  1.
</event>
<event>
 5    1  0.9123258E-009  0.3843080E+03  0.7957747E-01  0.3432612E+00
         13   -1    0    0    0    0  0.00000000000E+00  0.00000000000E+00  0.14999999963E+04  0.15000000000E+04  0.10566000000E+00 0. -1.
        994   -1    0    0    0    0 -0.00000000000E+00 -0.00000000000E+00  0.11368683772E-12  0.17120000000E+03  0.17120000000E+03 0.  0.
         13    1    1    2    0    0 -0.19202871160E+02 -0.46303158023E+01  0.88880664997E+02  0.91049293570E+02  0.10566000000E+00 0. -1.
        994    1    1    2    0    0  0.29266752264E+02 -0.13957523037E+01  0.48088329565E+01  0.17375573598E+03  0.17120000000E+03 0.  0.
        998    1    1    2    0    0 -0.10063881104E+02  0.60260681060E+01  0.14063104983E+04  0.14063949704E+04  0.10000000000E+02 0. -1.
</event>
<event>
 5    1  0.9123258E-009  0.3745348E+03  0.7957747E-01  0.3475306E+00
         13   -1    0    0    0    0  0.00000000000E+00  0.00000000000E+00  0.14999999963E+04  0.15000000000E+04  0.10566000000E+00 0.  1.
        994   -1    0    0    0    0 -0.00000000000E+00 -0.00000000000E+00  0.11368683772E-12  0.17120000000E+03  0.17120000000E+03 0.  0.
         13    1    1    2    0    0  0.41589240951E+02  0.37856482905E+02  0.19237635647E+03  0.20042817155E+03  0.10566000000E+00 0.  1.
        994    1    1    2    0    0 -0.79717728510E+02 -0.65442181158E+01  0.29021500779E+02  0.19117905360E+03  0.17120000000E+03 0.  0.
        998    1    1    2    0    0  0.38128487559E+02 -0.31312264789E+02  0.12786021390E+04  0.12795927748E+04  0.10000000000E+02 0.  1.
</event>
<event>
 5    1  0.9123258E-009  0.3774476E+03  0.7957747E-01  0.3462348E+00
         13   -1    0    0    0    0  0.00000000000E+00  0.00000000000E+00  0.14999999963E+04  0.15000000000E+04  0.10566000000E+00 0.  1.
        994   -1    0    0    0    0 -0.00000000000E+00 -0.00000000000E+00  0.11368683772E-12  0.17120000000E+03  0.17120000000E+03 0.  0.
         13    1    1    2    0    0 -0.10125504492E+02 -0.51003267473E+01  0.93400938523E+01  0.14689713794E+02  0.10566000000E+00 0.  1.
        994    1    1    2    0    0  0.10558515997E+02  0.35835039693E+01  0.58464256901E+01  0.17166229771E+03  0.17120000000E+03 0.  0.
        998    1    1    2    0    0 -0.43301150438E+00  0.15168227780E+01  0.14848134767E+04  0.14848479885E+04  0.10000000000E+02 0.  1.
</event>
<event>
 5    1  0.9123258E-009  0.3792263E+03  0.7957747E-01  0.3454534E+00
         13   -1    0    0    0    0  0.00000000000E+00  0.00000000000E+00  0.14999999963E+04  0.15000000000E+04  0.10566000000E+00 0.  1.
        994   -1    0    0    0    0 -0.00000000000E+00 -0.00000000000E+00  0.11368683772E-12  0.17120000000E+03  0.17120000000E+03 0.  0.
         13    1    1    2    0    0 -0.30057142733E+01  0.96927384309E+01  0.92974565937E+01  0.13763624513E+02  0.10566000000E+00 0.  1.
        994    1    1    2    0    0  0.54018187550E+01 -0.89436032405E+01  0.48901685015E+01  0.17158823221E+03  0.17120000000E+03 0.  0.
        998    1    1    2    0    0 -0.23961044817E+01 -0.74913519033E+00  0.14858123712E+04  0.14858481433E+04  0.10000000000E+02 0.  1.
</event>
<event>
 5    1  0.9123258E-009  0.3852346E+03  0.7957747E-01  0.3428678E+00
         13   -1    0    0    0    0  0.00000000000E+00  0.00000000000E+00  0.14999999963E+04  0.15000000000E+04  0.10566000000E+00 0.  1.
        994   -1    0    0    0    0 -0.00000000000E+00 -0.00000000000E+00  0.11368683772E-12  0.17120000000E+03  0.17120000000E+03 0.  0.
         13    1    1    2    0    0  0.15700187372E+02 -0.29485607925E+01  0.88787646544E+02  0.90213342899E+02  0.10566000000E+00 0.  1.
        994    1    1    2    0    0 -0.29855848593E+01  0.58203034369E+01  0.16543427732E+01  0.17133291131E+03  0.17120000000E+03 0.  0.
        998    1    1    2    0    0 -0.12714602513E+02 -0.28717426444E+01  0.14095580070E+04  0.14096537458E+04  0.10000000000E+02 0.  1.
</event>
<event>
 5    1  0.9123258E-009  0.3850189E+03  0.7957747E-01  0.3429592E+00
         13   -1    0    0    0    0  0.00000000000E+00  0.00000000000E+00  0.14999999963E+04  0.15000000000E+04  0.10566000000E+00 0.  1.
        994   -1    0    0    0    0 -0.00000000000E+00 -0.00000000000E+00  0.11368683772E-12  0.17120000000E+03  0.17120000000E+03 0.  0.
         13    1    1    2    0    0  0.10281584123E+02  0.16881248242E+01  0.33449196063E+02  0.35034563202E+02  0.10566000000E+00 0.  1.
        994    1    1    2    0    0 -0.57215484992E+01 -0.30443977305E+01  0.17588844262E+01  0.17133166126E+03  0.17120000000E+03 0.  0.
        998    1    1    2    0    0 -0.45600356233E+01  0.13562729063E+01  0.14647919158E+04  0.14648337755E+04  0.10000000000E+02 0.  1.
</event>
<event>
 5    1  0.9123258E-009  0.3831443E+03  0.7957747E-01  0.3437581E+00
         13   -1    0    0    0    0  0.00000000000E+00  0.00000000000E+00  0.14999999963E+04  0.15000000000E+04  0.10566000000E+00 0. -1.
        994   -1    0    0    0    0 -0.00000000000E+00 -0.00000000000E+00  0.11368683772E-12  0.17120000000E+03  0.17120000000E+03 0.  0.
         13    1    1    2    0    0 -0.21866348299E+01 -0.15442729051E+02  0.46545089390E+02  0.49088855790E+02  0.10566000000E+00 0. -1.
        994    1    1    2    0    0  0.21606334812E+01  0.11685981620E+02  0.30216767524E+01  0.17163857676E+03  0.17120000000E+03 0.  0.
        998    1    1    2    0    0  0.26001348656E-01  0.37567474302E+01  0.14504332301E+04  0.14504725674E+04  0.10000000000E+02 0. -1.
</event>
<event>
 5    1  0.9123258E-009  0.3853140E+03  0.7957747E-01  0.3428342E+00
         13   -1    0    0    0    0  0.00000000000E+00  0.00000000000E+00  0.14999999963E+04  0.15000000000E+04  0.10566000000E+00 0.  1.
        994   -1    0    0    0    0 -0.00000000000E+00 -0.00000000000E+00  0.11368683772E-12  0.17120000000E+03  0.17120000000E+03 0.  0.
         13    1    1    2    0    0  0.97352524670E+01  0.61892339062E+01  0.45512028858E+02  0.46951439719E+02  0.10566000000E+00 0.  1.
        994    1    1    2    0    0 -0.68194477612E+01 -0.14782379096E+01  0.16343227591E+01  0.17134993746E+03  0.17120000000E+03 0.  0.
        998    1    1    2    0    0 -0.29158047057E+01 -0.47109959965E+01  0.14528536447E+04  0.14528986228E+04  0.10000000000E+02 0.  1.
</event>
<event>
 5    1  0.9123258E-009  0.3752306E+03  0.7957747E-01  0.3472192E+00
         13   -1    0    0    0    0  0.00000000000E+00  0.00000000000E+00  0.14999999963E+04  0.15000000000E+04  0.10566000000E+00 0. -1.
        994   -1    0    0    0    0 -0.00000000000E+00 -0.00000000000E+00  0.11368683772E-12  0.17120000000E+03  0.17120000000E+03 0.  0.
         13    1    1    2    0    0 -0.10193692792E+03 -0.36687172287E+02  0.29245708736E+03  0.31187857412E+03  0.10566000000E+00 0. -1.
        994    1    1    2    0    0  0.10526888544E+03  0.97888820277E+02  0.91493609288E+02  0.24154560629E+03  0.17120000000E+03 0.  0.
        998    1    1    2    0    0 -0.33319575161E+01 -0.61201647990E+02  0.11160492996E+04  0.11177758196E+04  0.10000000000E+02 0. -1.
</event>
<event>
 5    1  0.9123258E-009  0.3691563E+03  0.7957747E-01  0.3499778E+00
         13   -1    0    0    0    0  0.00000000000E+00  0.00000000000E+00  0.14999999963E+04  0.15000000000E+04  0.10566000000E+00 0. -1.
        994   -1    0    0    0    0 -0.00000000000E+00 -0.00000000000E+00  0.11368683772E-12  0.17120000000E+03  0.17120000000E+03 0.  0.
         13    1    1    2    0    0 -0.10432767070E+02 -0.13324942896E+01  0.10944092622E+01  0.10574831698E+02  0.10566000000E+00 0. -1.
        994    1    1    2    0    0  0.14655928482E+02  0.82061251571E+01  0.10689722853E+02  0.17235384215E+03  0.17120000000E+03 0.  0.
        998    1    1    2    0    0 -0.42231614116E+01 -0.68736308675E+01  0.14882158642E+04  0.14882713262E+04  0.10000000000E+02 0. -1.
</event>
<event>
 5    1  0.9123258E-009  0.3890338E+03  0.7957747E-01  0.3412742E+00
         13   -1    0    0    0    0  0.00000000000E+00  0.00000000000E+00  0.14999999963E+04  0.15000000000E+04  0.10566000000E+00 0. -1.
        994   -1    0    0    0    0 -0.00000000000E+00 -0.00000000000E+00  0.11368683772E-12  0.17120000000E+03  0.17120000000E+03 0.  0.
         13    1    1    2    0    0  0.62956093845E+02 -0.23763072807E+02  0.92995267250E+02  0.11478799709E+03  0.10566000000E+00 0. -1.
        994    1    1    2    0    0 -0.59071458613E+02  0.34819985353E+02  0.39226669586E+02  0.18854718298E+03  0.17120000000E+03 0.  0.
        998    1    1    2    0    0 -0.38846352321E+01 -0.11056912547E+02  0.13677780594E+04  0.13678648199E+04  0.10000000000E+02 0. -1.
</event>
<event>
 5    1  0.9123258E-009  0.3720739E+03  0.7957747E-01  0.3486414E+00
         13   -1    0    0    0    0  0.00000000000E+00  0.00000000000E+00  0.14999999963E+04  0.15000000000E+04  0.10566000000E+00 0.  1.
        994   -1    0    0    0    0 -0.00000000000E+00 -0.00000000000E+00  0.11368683772E-12  0.17120000000E+03  0.17120000000E+03 0.  0.
         13    1    1    2    0    0  0.22397347776E+02  0.19064827222E+02  0.53755739095E+02  0.61276418581E+02  0.10566000000E+00 0.  1.
        994    1    1    2    0    0  0.26393256678E+01  0.72602252499E+01  0.83939777700E+01  0.17157964848E+03  0.17120000000E+03 0.  0.
        998    1    1    2    0    0 -0.25036673444E+02 -0.26325052472E+02  0.14378502794E+04  0.14383439329E+04  0.10000000000E+02 0.  1.
</event>
<event>
 5    1  0.9123258E-009  0.3764625E+03  0.7957747E-01  0.3466708E+00
         13   -1    0    0    0    0  0.00000000000E+00  0.00000000000E+00  0.14999999963E+04  0.15000000000E+04  0.10566000000E+00 0. -1.
        994   -1    0    0    0    0 -0.00000000000E+00 -0.00000000000E+00  0.11368683772E-12  0.17120000000E+03  0.17120000000E+03 0.  0.
         13    1    1    2    0    0 -0.46598744514E+02  0.20139621118E+02  0.23933644866E+03  0.24466097799E+03  0.10566000000E+00 0. -1.
        994    1    1    2    0    0  0.90634770053E+01 -0.15222515103E+02  0.69920144431E+01  0.17225620409E+03  0.17120000000E+03 0.  0.
        998    1    1    2    0    0  0.37535267509E+02 -0.49171060159E+01  0.12536715332E+04  0.12542828179E+04  0.10000000000E+02 0. -1.
</event>
<event>
 5    1  0.9123258E-009  0.3540093E+03  0.7957747E-01  0.3572772E+00
         13   -1    0    0    0    0  0.00000000000E+00  0.00000000000E+00  0.14999999963E+04  0.15000000000E+04  0.10566000000E+00 0.  1.
        994   -1    0    0    0    0 -0.00000000000E+00 -0.00000000000E+00  0.11368683772E-12  0.17120000000E+03  0.17120000000E+03 0.  0.
         13    1    1    2    0    0 -0.10690729280E+03 -0.26806375608E+03  0.80687285304E+03  0.85693124504E+03  0.10566000000E+00 0.  1.
        994    1    1    2    0    0  0.50159509097E+02  0.30552512747E+03  0.52980831940E+03  0.63707760530E+03  0.17120000000E+03 0.  0.
        998    1    1    2    0    0  0.56747783699E+02 -0.37461371384E+02  0.16331882384E+03  0.17719114967E+03  0.10000000000E+02 0. -1.
</event>
<event>
 5    1  0.9123258E-009  0.3796680E+03  0.7957747E-01  0.3452605E+00
         13   -1    0    0    0    0  0.00000000000E+00  0.00000000000E+00  0.14999999963E+04  0.15000000000E+04  0.10566000000E+00 0.  1.
        994   -1    0    0    0    0 -0.00000000000E+00 -0.00000000000E+00  0.11368683772E-12  0.17120000000E+03  0.17120000000E+03 0.  0.
         13    1    1    2    0    0 -0.28000058003E+02  0.16180480238E+01  0.92842373364E+02  0.96986281419E+02  0.10566000000E+00 0.  1.
        994    1    1    2    0    0  0.10433306318E+02 -0.59211361455E+01  0.47825965039E+01  0.17168642044E+03  0.17120000000E+03 0.  0.
        998    1    1    2    0    0  0.17566751685E+02  0.43030881217E+01  0.14023750264E+04  0.14025272981E+04  0.10000000000E+02 0.  1.
</event>
<event>
 5    1  0.9123258E-009  0.3813284E+03  0.7957747E-01  0.3445395E+00
         13   -1    0    0    0    0  0.00000000000E+00  0.00000000000E+00  0.14999999963E+04  0.15000000000E+04  0.10566000000E+00 0.  1.
        994   -1    0    0    0    0 -0.00000000000E+00 -0.00000000000E+00  0.11368683772E-12  0.17120000000E+03  0.17120000000E+03 0.  0.
         13    1    1    2    0    0 -0.75744603111E+01  0.16377572021E+02  0.46369599331E+02  0.49756891186E+02  0.10566000000E+00 0.  1.
        994    1    1    2    0    0 -0.15929905517E+01 -0.10070165202E+02  0.38101056376E+01  0.17154562877E+03  0.17120000000E+03 0.  0.
        998    1    1    2    0    0  0.91674508628E+01 -0.63074068196E+01  0.14498202913E+04  0.14498974800E+04  0.10000000000E+02 0.  1.
</event>
<event>
 5    1  0.9123258E-009  0.3842562E+03  0.7957747E-01  0.3432833E+00
         13   -1    0    0    0    0  0.00000000000E+00  0.00000000000E+00  0.14999999963E+04  0.15000000000E+04  0.10566000000E+00 0. -1.
        994   -1    0    0    0    0 -0.00000000000E+00 -0.00000000000E+00  0.11368683772E-12  0.17120000000E+03  0.17120000000E+03 0.  0.
         13    1    1    2    0    0  0.54374882551E+01  0.24381451568E+02  0.84321425262E+01  0.26365387361E+02  0.10566000000E+00 0. -1.
        994    1    1    2    0    0 -0.48744616115E+01 -0.27888539371E+02  0.21640929745E+02  0.17486938224E+03  0.17120000000E+03 0.  0.
        998    1    1    2    0    0 -0.56302664360E+00  0.35070878031E+01  0.14699269240E+04  0.14699652304E+04  0.10000000000E+02 0. -1.
</event>
<event>
 5    1  0.9123258E-009  0.3769970E+03  0.7957747E-01  0.3464339E+00
         13   -1    0    0    0    0  0.00000000000E+00  0.00000000000E+00  0.14999999963E+04  0.15000000000E+04  0.10566000000E+00 0.  1.
        994   -1    0    0    0    0 -0.00000000000E+00 -0.00000000000E+00  0.11368683772E-12  0.17120000000E+03  0.17120000000E+03 0.  0.
         13    1    1    2    0    0  0.33886166057E+02  0.12344265636E+02  0.13374948293E+03  0.13852649022E+03  0.10566000000E+00 0.  1.
        994    1    1    2    0    0  0.11178640506E+02 -0.10487605740E+01  0.60825140445E+01  0.17167556285E+03  0.17120000000E+03 0.  0.
        998    1    1    2    0    0 -0.45064806563E+02 -0.11295505062E+02  0.13601679993E+04  0.13609979469E+04  0.10000000000E+02 0.  1.
</event>
<event>
 5    1  0.9123258E-009  0.4323075E+03  0.7957747E-01  0.3250879E+00
         13   -1    0    0    0    0  0.00000000000E+00  0.00000000000E+00  0.14999999963E+04  0.15000000000E+04  0.10566000000E+00 0. -1.
        994   -1    0    0    0    0 -0.00000000000E+00 -0.00000000000E+00  0.11368683772E-12  0.17120000000E+03  0.17120000000E+03 0.  0.
         13    1    1    2    0    0  0.78610219283E+02 -0.98106775154E+02  0.11103663620E+03  0.16773089056E+03  0.10566000000E+00 0. -1.
        994    1    1    2    0    0 -0.75466693935E+02  0.15712584221E+03  0.20766923339E+03  0.32065511485E+03  0.17120000000E+03 0.  0.
        998    1    1    2    0    0 -0.31435253478E+01 -0.59019067061E+02  0.11812941267E+04  0.11828139946E+04  0.10000000000E+02 0. -1.
</event>
<event>
 5    1  0.9123258E-009  0.3842469E+03  0.7957747E-01  0.3432873E+00
         13   -1    0    0    0    0  0.00000000000E+00  0.00000000000E+00  0.14999999963E+04  0.15000000000E+04  0.10566000000E+00 0.  1.
        994   -1    0    0    0    0 -0.00000000000E+00 -0.00000000000E+00  0.11368683772E-12  0.17120000000E+03  0.17120000000E+03 0.  0.
         13    1    1    2    0    0  0.11445770845E+03 -0.11639792220E+03  0.48275572108E+03  0.50960979260E+03  0.10566000000E+00 0.  1.
        994    1    1    2    0    0 -0.10180432530E+03  0.11312807611E+03  0.10984585784E+03  0.25404258450E+03  0.17120000000E+03 0.  0.
        998    1    1    2    0    0 -0.12653383159E+02  0.32698460914E+01  0.90739841737E+03  0.90754762290E+03  0.10000000000E+02 0.  1.
</event>
<event>
 5    1  0.9123258E-009  0.3811842E+03  0.7957747E-01  0.3446018E+00
         13   -1    0    0    0    0  0.00000000000E+00  0.00000000000E+00  0.14999999963E+04  0.15000000000E+04  0.10566000000E+00 0.  1.
        994   -1    0    0    0    0 -0.00000000000E+00 -0.00000000000E+00  0.11368683772E-12  0.17120000000E+03  0.17120000000E+03 0.  0.
         13    1    1    2    0    0 -0.60573121095E+01  0.90808795747E+01  0.15725564760E+02  0.19143091571E+02  0.10566000000E+00 0.  1.
        994    1    1    2    0    0  0.27888425715E+01  0.32612508186E+01  0.35978940869E+01  0.17129155917E+03  0.17120000000E+03 0.  0.
        998    1    1    2    0    0  0.32684695380E+01 -0.12342130393E+02  0.14806765374E+04  0.14807653493E+04  0.10000000000E+02 0.  1.
</event>
<event>
 5    1  0.9123258E-009  0.3776908E+03  0.7957747E-01  0.3461275E+00
         13   -1    0    0    0    0  0.00000000000E+00  0.00000000000E+00  0.14999999963E+04  0.15000000000E+04  0.10566000000E+00 0. -1.
        994   -1    0    0    0    0 -0.00000000000E+00 -0.00000000000E+00  0.11368683772E-12  0.17120000000E+03  0.17120000000E+03 0.  0.
         13    1    1    2    0    0  0.29745431969E+02 -0.42396154031E+02  0.28806404192E+03  0.29268264043E+03  0.10566000000E+00 0. -1.
        994    1    1    2    0    0 -0.52805667060E+01  0.12312249810E+02  0.59082038505E+01  0.17182497709E+03  0.17120000000E+03 0.  0.
        998    1    1    2    0    0 -0.24464865263E+02  0.30083904221E+02  0.12060277505E+04  0.12066923825E+04  0.10000000000E+02 0. -1.
</event>
<event>
 5    1  0.9123258E-009  0.3816942E+03  0.7957747E-01  0.3443814E+00
         13   -1    0    0    0    0  0.00000000000E+00  0.00000000000E+00  0.14999999963E+04  0.15000000000E+04  0.10566000000E+00 0.  1.
        994   -1    0    0    0    0 -0.00000000000E+00 -0.00000000000E+00  0.11368683772E-12  0.17120000000E+03  0.17120000000E+03 0.  0.
         13    1    1    2    0    0  0.16247485418E+02  0.93187178708E+01  0.54551185471E+02  0.57677225015E+02  0.10566000000E+00 0.  1.
        994    1    1    2    0    0 -0.64854363004E+01  0.60603624059E+01  0.35423124528E+01  0.17146654733E+03  0.17120000000E+03 0.  0.
        998    1    1    2    0    0 -0.97620491173E+01 -0.15379080277E+02  0.14419064984E+04  0.14420562277E+04  0.10000000000E+02 0.  1.
</event>
<event>
 5    1  0.9123258E-009  0.3752372E+03  0.7957747E-01  0.3472163E+00
         13   -1    0    0    0    0  0.00000000000E+00  0.00000000000E+00  0.14999999963E+04  0.15000000000E+04  0.10566000000E+00 0. -1.
        994   -1    0    0    0    0 -0.00000000000E+00 -0.00000000000E+00  0.11368683772E-12  0.17120000000E+03  0.17120000000E+03 0.  0.
         13    1    1    2    0    0 -0.18380304261E+02 -0.17515515034E+02  0.46061939904E+02  0.52596029540E+02  0.10566000000E+00 0. -1.
        994    1    1    2    0    0  0.12763442864E+02  0.16246528082E+02  0.80081282494E+01  0.17262799676E+03  0.17120000000E+03 0.  0.
        998    1    1    2    0    0  0.56168613966E+01  0.12689869516E+01  0.14459299281E+04  0.14459759737E+04  0.10000000000E+02 0. -1.
</event>
<event>
 5    1  0.9123258E-009  0.3832338E+03  0.7957747E-01  0.3437198E+00
         13   -1    0    0    0    0  0.00000000000E+00  0.00000000000E+00  0.14999999963E+04  0.15000000000E+04  0.10566000000E+00 0.  1.
        994   -1    0    0    0    0 -0.00000000000E+00 -0.00000000000E+00  0.11368683772E-12  0.17120000000E+03  0.17120000000E+03 0.  0.
         13    1    1    2    0    0  0.17282362149E+02  0.49212186013E+00  0.55937928814E+02  0.58548998877E+02  0.10566000000E+00 0.  1.
        994    1    1    2    0    0 -0.21757290896E+02 -0.34500625417E+01  0.41163344938E+01  0.17266055383E+03  0.17120000000E+03 0.  0.
        998    1    1    2    0    0  0.44749287473E+01  0.29579406816E+01  0.14399457330E+04  0.14399904473E+04  0.10000000000E+02 0.  1.
</event>
<event>
 5    1  0.9123258E-009  0.3832448E+03  0.7957747E-01  0.3437151E+00
         13   -1    0    0    0    0  0.00000000000E+00  0.00000000000E+00  0.14999999963E+04  0.15000000000E+04  0.10566000000E+00 0. -1.
        994   -1    0    0    0    0 -0.00000000000E+00 -0.00000000000E+00  0.11368683772E-12  0.17120000000E+03  0.17120000000E+03 0.  0.
         13    1    1    2    0    0  0.86435937238E+01 -0.23297607141E+02  0.13449239996E+03  0.13676880866E+03  0.10566000000E+00 0. -1.
        994    1    1    2    0    0  0.38722589766E+01  0.46462673313E+01  0.26250857902E+01  0.17132691927E+03  0.17120000000E+03 0.  0.
        998    1    1    2    0    0 -0.12515852700E+02  0.18651339810E+02  0.13628825105E+04  0.13631042721E+04  0.10000000000E+02 0. -1.
</event>
<event>
 5    1  0.9123258E-009  0.3847543E+03  0.7957747E-01  0.3430715E+00
         13   -1    0    0    0    0  0.00000000000E+00  0.00000000000E+00  0.14999999963E+04  0.15000000000E+04  0.10566000000E+00 0.  1.
        994   -1    0    0    0    0 -0.00000000000E+00 -0.00000000000E+00  0.11368683772E-12  0.17120000000E+03  0.17120000000E+03 0.  0.
         13    1    1    2    0    0 -0.14865328041E+02 -0.11076955556E+01  0.57231720705E+02  0.59141237611E+02  0.10566000000E+00 0.  1.
        994    1    1    2    0    0  0.28622749628E+02 -0.10808025706E+02  0.48391511641E+01  0.17397969019E+03  0.17120000000E+03 0.  0.
        998    1    1    2    0    0 -0.13757421587E+02  0.11915721261E+02  0.14379291244E+04  0.14380790722E+04  0.10000000000E+02 0.  1.
</event>
<event>
 5    1  0.9123258E-009  0.3825973E+03  0.7957747E-01  0.3439927E+00
         13   -1    0    0    0    0  0.00000000000E+00  0.00000000000E+00  0.14999999963E+04  0.15000000000E+04  0.10566000000E+00 0.  1.
        994   -1    0    0    0    0 -0.00000000000E+00 -0.00000000000E+00  0.11368683772E-12  0.17120000000E+03  0.17120000000E+03 0.  0.
         13    1    1    2    0    0 -0.24975584711E+02 -0.45914680100E+01  0.10662920710E+03  0.10961140626E+03  0.10566000000E+00 0.  1.
        994    1    1    2    0    0  0.24938676657E+02  0.30601332964E+01  0.49230026592E+01  0.17310395133E+03  0.17120000000E+03 0.  0.
        998    1    1    2    0    0  0.36908053434E-01  0.15313347136E+01  0.13884477865E+04  0.13884846424E+04  0.10000000000E+02 0.  0.
</event>
<event>
 5    1  0.9123258E-009  0.3801989E+03  0.7957747E-01  0.3450293E+00
         13   -1    0    0    0    0  0.00000000000E+00  0.00000000000E+00  0.14999999963E+04  0.15000000000E+04  0.10566000000E+00 0. -1.
        994   -1    0    0    0    0 -0.00000000000E+00 -0.00000000000E+00  0.11368683772E-12  0.17120000000E+03  0.17120000000E+03 0.  0.
         13    1    1    2    0    0  0.15956337182E+02 -0.51986758100E+01  0.34341720949E+02  0.38222975920E+02  0.10566000000E+00 0. -1.
        994    1    1    2    0    0  0.86618188656E+00  0.10111811862E+02  0.43769475488E+01  0.17155639504E+03  0.17120000000E+03 0.  0.
        998    1    1    2    0    0 -0.16822519068E+02 -0.49131360522E+01  0.14612813278E+04  0.14614206290E+04  0.10000000000E+02 0. -1.
</event>
<event>
 5    1  0.9123258E-009  0.3765490E+03  0.7957747E-01  0.3466324E+00
         13   -1    0    0    0    0  0.00000000000E+00  0.00000000000E+00  0.14999999963E+04  0.15000000000E+04  0.10566000000E+00 0.  1.
        994   -1    0    0    0    0 -0.00000000000E+00 -0.00000000000E+00  0.11368683772E-12  0.17120000000E+03  0.17120000000E+03 0.  0.
         13    1    1    2    0    0  0.14516711574E+02  0.53000590745E+01  0.18309235420E+02  0.23959649556E+02  0.10566000000E+00 0.  1.
        994    1    1    2    0    0  0.33521514349E+01 -0.38154172521E+01  0.59726388097E+01  0.17137942333E+03  0.17120000000E+03 0.  0.
        998    1    1    2    0    0 -0.17868863009E+02 -0.14846418224E+01  0.14757181220E+04  0.14758609271E+04  0.10000000000E+02 0.  1.
</event>
<event>
 5    1  0.9123258E-009  0.3773297E+03  0.7957747E-01  0.3462869E+00
         13   -1    0    0    0    0  0.00000000000E+00  0.00000000000E+00  0.14999999963E+04  0.15000000000E+04  0.10566000000E+00 0.  1.
        994   -1    0    0    0    0 -0.00000000000E+00 -0.00000000000E+00  0.11368683772E-12  0.17120000000E+03  0.17120000000E+03 0.  0.
         13    1    1    2    0    0 -0.55335899956E+02 -0.27334130587E+02  0.26803905150E+03  0.27505301454E+03  0.10566000000E+00 0.  1.
        994    1    1    2    0    0  0.57657681901E+02  0.40238928866E+02  0.22346242261E+02  0.18641988687E+03  0.17120000000E+03 0.  0.
        998    1    1    2    0    0 -0.23217819453E+01 -0.12904798280E+02  0.12096147025E+04  0.12097270986E+04  0.10000000000E+02 0.  1.
</event>
<event>
 5    1  0.9123258E-009  0.3848950E+03  0.7957747E-01  0.3430118E+00
         13   -1    0    0    0    0  0.00000000000E+00  0.00000000000E+00  0.14999999963E+04  0.15000000000E+04  0.10566000000E+00 0. -1.
        994   -1    0    0    0    0 -0.00000000000E+00 -0.00000000000E+00  0.11368683772E-12  0.17120000000E+03  0.17120000000E+03 0.  0.
         13    1    1    2    0    0 -0.65466787777E+01 -0.16858245093E+02  0.99813116924E+02  0.10143830097E+03  0.10566000000E+00 0. -1.
        994    1    1    2    0    0  0.13874499019E+02  0.35795884374E+01  0.23579929217E+01  0.17181477034E+03  0.17120000000E+03 0.  0.
        998    1    1    2    0    0 -0.73278202415E+01  0.13278656656E+02  0.13978288864E+04  0.13979469287E+04  0.10000000000E+02 0. -1.
</event>
<event>
 5    1  0.9123258E-009  0.3783431E+03  0.7957747E-01  0.3458405E+00
         13   -1    0    0    0    0  0.00000000000E+00  0.00000000000E+00  0.14999999963E+04  0.15000000000E+04  0.10566000000E+00 0.  1.
        994   -1    0    0    0    0 -0.00000000000E+00 -0.00000000000E+00  0.11368683772E-12  0.17120000000E+03  0.17120000000E+03 0.  0.
         13    1    1    2    0    0 -0.15956149039E+02 -0.56737776658E+01  0.26337282470E+02  0.31312203006E+02  0.10566000000E+00 0.  1.
        994    1    1    2    0    0  0.16621857103E+02  0.64796770811E+01  0.60424059840E+01  0.17223304857E+03  0.17120000000E+03 0.  0.
        998    1    1    2    0    0 -0.66570806468E+00 -0.80589941526E+00  0.14676203078E+04  0.14676547484E+04  0.10000000000E+02 0.  1.
</event>
<event>
 5    1  0.9123258E-009  0.3810146E+03  0.7957747E-01  0.3446752E+00
         13   -1    0    0    0    0  0.00000000000E+00  0.00000000000E+00  0.14999999963E+04  0.15000000000E+04  0.10566000000E+00 0. -1.
        994   -1    0    0    0    0 -0.00000000000E+00 -0.00000000000E+00  0.11368683772E-12  0.17120000000E+03  0.17120000000E+03 0.  0.
         13    1    1    2    0    0 -0.17420758113E+01 -0.12075717064E+02  0.18037176528E+02  0.21776332838E+02  0.10566000000E+00 0. -1.
        994    1    1    2    0    0  0.85455202720E+02  0.13854892163E+02  0.29008659434E+02  0.19402446246E+03  0.17120000000E+03 0.  0.
        998    1    1    2    0    0 -0.83713126909E+02 -0.17791750995E+01  0.14529541603E+04  0.14553992047E+04  0.10000000000E+02 0. -1.
</event>
<event>
 5    1  0.9123258E-009  0.3696433E+03  0.7957747E-01  0.3497532E+00
         13   -1    0    0    0    0  0.00000000000E+00  0.00000000000E+00  0.14999999963E+04  0.15000000000E+04  0.10566000000E+00 0.  1.
        994   -1    0    0    0    0 -0.00000000000E+00 -0.00000000000E+00  0.11368683772E-12  0.17120000000E+03  0.17120000000E+03 0.  0.
         13    1    1    2    0    0  0.29859906097E+02  0.15568462745E+02  0.55710174141E+02  0.65097048253E+02  0.10566000000E+00 0.  1.
        994    1    1    2    0    0 -0.24672685357E+02 -0.95939865383E+01  0.11885472868E+02  0.17364184532E+03  0.17120000000E+03 0.  0.
        998    1    1    2    0    0 -0.51872207398E+01 -0.59744762070E+01  0.14324043493E+04  0.14324611064E+04  0.10000000000E+02 0.  1.
</event>
<event>
 5    1  0.9123258E-009  0.3685089E+03  0.7957747E-01  0.3502772E+00
         13   -1    0    0    0    0  0.00000000000E+00  0.00000000000E+00  0.14999999963E+04  0.15000000000E+04  0.10566000000E+00 0.  1.
        994   -1    0    0    0    0 -0.00000000000E+00 -0.00000000000E+00  0.11368683772E-12  0.17120000000E+03  0.17120000000E+03 0.  0.
         13    1    1    2    0    0  0.56305089985E+02  0.15099323406E+02  0.15162407416E+03  0.16244421736E+03  0.10566000000E+00 0.  1.
        994    1    1    2    0    0 -0.49748153673E+02 -0.29115953723E+02  0.21688899045E+02  0.18194083076E+03  0.17120000000E+03 0.  0.
        998    1    1    2    0    0 -0.65569363120E+01  0.14016630317E+02  0.13266870231E+04  0.13268149519E+04  0.10000000000E+02 0.  1.
</event>
<event>
 5    1  0.9123258E-009  0.3850433E+03  0.7957747E-01  0.3429489E+00
         13   -1    0    0    0    0  0.00000000000E+00  0.00000000000E+00  0.14999999963E+04  0.15000000000E+04  0.10566000000E+00 0.  1.
        994   -1    0    0    0    0 -0.00000000000E+00 -0.00000000000E+00  0.11368683772E-12  0.17120000000E+03  0.17120000000E+03 0.  0.
         13    1    1    2    0    0  0.93767783635E+01  0.78639485846E+01  0.43428336001E+02  0.45119809305E+02  0.10566000000E+00 0.  1.
        994    1    1    2    0    0 -0.17031875894E+02 -0.12852927415E+02  0.31071232723E+01  0.17255253332E+03  0.17120000000E+03 0.  0.
        998    1    1    2    0    0  0.76550975307E+01  0.49889788300E+01  0.14534645370E+04  0.14535276574E+04  0.10000000000E+02 0.  1.
</event>
<event>
 5    1  0.9123258E-009  0.3795724E+03  0.7957747E-01  0.3453023E+00
         13   -1    0    0    0    0  0.00000000000E+00  0.00000000000E+00  0.14999999963E+04  0.15000000000E+04  0.10566000000E+00 0. -1.
        994   -1    0    0    0    0 -0.00000000000E+00 -0.00000000000E+00  0.11368683772E-12  0.17120000000E+03  0.17120000000E+03 0.  0.
         13    1    1    2    0    0  0.53532779171E+02  0.55141587554E+02  0.45424336384E+03  0.46069881472E+03  0.10566000000E+00 0. -1.
        994    1    1    2    0    0 -0.60191488315E+02 -0.52924649958E+02  0.26163675091E+02  0.19083503801E+03  0.17120000000E+03 0.  0.
        998    1    1    2    0    0  0.66587091439E+01 -0.22169375959E+01  0.10195929573E+04  0.10196661473E+04  0.10000000000E+02 0. -1.
</event>
<event>
 5    1  0.9123258E-009  0.3762213E+03  0.7957747E-01  0.3467779E+00
         13   -1    0    0    0    0  0.00000000000E+00  0.00000000000E+00  0.14999999963E+04  0.15000000000E+04  0.10566000000E+00 0. -1.
        994   -1    0    0    0    0 -0.00000000000E+00 -0.00000000000E+00  0.11368683772E-12  0.17120000000E+03  0.17120000000E+03 0.  0.
         13    1    1    2    0    0 -0.24500765601E+02  0.34178109990E+02  0.15680561859E+03  0.16234667814E+03  0.10566000000E+00 0. -1.
        994    1    1    2    0    0  0.37436540510E+01 -0.89096038541E+01  0.63691451542E+01  0.17159079811E+03  0.17120000000E+03 0.  0.
        998    1    1    2    0    0  0.20757111550E+02 -0.25268506136E+02  0.13368252325E+04  0.13372625238E+04  0.10000000000E+02 0. -1.
</event>
<event>
 5    1  0.9123258E-009  0.3743960E+03  0.7957747E-01  0.3475928E+00
         13   -1    0    0    0    0  0.00000000000E+00  0.00000000000E+00  0.14999999963E+04  0.15000000000E+04  0.10566000000E+00 0.  1.
        994   -1    0    0    0    0 -0.00000000000E+00 -0.00000000000E+00  0.11368683772E-12  0.17120000000E+03  0.17120000000E+03 0.  0.
         13    1    1    2    0    0 -0.25560392303E+02  0.81569503764E+02  0.18617562494E+03  0.20486164132E+03  0.10566000000E+00 0.  1.
        994    1    1    2    0    0  0.11886109857E+02 -0.13783552649E+03  0.84756336785E+02  0.23586646348E+03  0.17120000000E+03 0.  0.
        998    1    1    2    0    0  0.13674282446E+02  0.56266022721E+02  0.12290680346E+04  0.12304718952E+04  0.10000000000E+02 0.  1.
</event>
<event>
 5    1  0.9123258E-009  0.3850651E+03  0.7957747E-01  0.3429396E+00
         13   -1    0    0    0    0  0.00000000000E+00  0.00000000000E+00  0.14999999963E+04  0.15000000000E+04  0.10566000000E+00 0.  1.
        994   -1    0    0    0    0 -0.00000000000E+00 -0.00000000000E+00  0.11368683772E-12  0.17120000000E+03  0.17120000000E+03 0.  0.
         13    1    1    2    0    0  0.58278793929E+01 -0.17644644713E+02  0.10087980288E+03  0.10257701233E+03  0.10566000000E+00 0.  1.
        994    1    1    2    0    0  0.13817700146E+01  0.22363209919E+02  0.32501683643E+01  0.17269054995E+03  0.17120000000E+03 0.  0.
        998    1    1    2    0    0 -0.72096494075E+01 -0.47185652063E+01  0.13958700250E+04  0.13959324377E+04  0.10000000000E+02 0.  1.
</event>
<event>
 5    1  0.9123258E-009  0.3848517E+03  0.7957747E-01  0.3430301E+00
         13   -1    0    0    0    0  0.00000000000E+00  0.00000000000E+00  0.14999999963E+04  0.15000000000E+04  0.10566000000E+00 0.  1.
        994   -1    0    0    0    0 -0.00000000000E+00 -0.00000000000E+00  0.11368683772E-12  0.17120000000E+03  0.17120000000E+03 0.  0.
         13    1    1    2    0    0 -0.19745073580E+02  0.61948954156E+01  0.11993935214E+03  0.12171156073E+03  0.10566000000E+00 0.  1.
        994    1    1    2    0    0  0.20741769296E+02  0.38350088572E+01  0.31690626967E+01  0.17252365416E+03  0.17120000000E+03 0.  0.
        998    1    1    2    0    0 -0.99669571568E+00 -0.10029904273E+02  0.13768915814E+04  0.13769647851E+04  0.10000000000E+02 0.  1.
</event>
<event>
 5    1  0.9123258E-009  0.3758175E+03  0.7957747E-01  0.3469575E+00
         13   -1    0    0    0    0  0.00000000000E+00  0.00000000000E+00  0.14999999963E+04  0.15000000000E+04  0.10566000000E+00 0.  1.
        994   -1    0    0    0    0 -0.00000000000E+00 -0.00000000000E+00  0.11368683772E-12  0.17120000000E+03  0.17120000000E+03 0.  0.
         13    1    1    2    0    0  0.20041406156E+02 -0.15958355158E+02  0.63162869811E+02  0.68160739043E+02  0.10566000000E+00 0.  1.
        994    1    1    2    0    0  0.44493535086E+02 -0.22266374068E+02  0.14697591845E+02  0.17888802443E+03  0.17120000000E+03 0.  0.
        998    1    1    2    0    0 -0.64534941242E+02  0.38224729226E+02  0.14221395346E+04  0.14241512365E+04  0.10000000000E+02 0.  1.
</event>
<event>
 5    1  0.9123258E-009  0.3858771E+03  0.7957747E-01  0.3425961E+00
         13   -1    0    0    0    0  0.00000000000E+00  0.00000000000E+00  0.14999999963E+04  0.15000000000E+04  0.10566000000E+00 0.  1.
        994   -1    0    0    0    0 -0.00000000000E+00 -0.00000000000E+00  0.11368683772E-12  0.17120000000E+03  0.17120000000E+03 0.  0.
         13    1    1    2    0    0 -0.34360787078E+01 -0.10633432152E+02  0.53475208348E+02  0.54630445615E+02  0.10566000000E+00 0.  1.
        994    1    1    2    0    0 -0.22046728090E+01  0.64707236639E+01  0.13485670570E+01  0.17134173304E+03  0.17120000000E+03 0.  0.
        998    1    1    2    0    0  0.56407515168E+01  0.41627084883E+01  0.14451762209E+04  0.14452278213E+04  0.10000000000E+02 0.  1.
</event>
<event>
 5    1  0.9123258E-009  0.3798947E+03  0.7957747E-01  0.3451617E+00
         13   -1    0    0    0    0  0.00000000000E+00  0.00000000000E+00  0.14999999963E+04  0.15000000000E+04  0.10566000000E+00 0. -1.
        994   -1    0    0    0    0 -0.00000000000E+00 -0.00000000000E+00  0.11368683772E-12  0.17120000000E+03  0.17120000000E+03 0.  0.
         13    1    1    2    0    0  0.11653709628E+02  0.62205376086E+01  0.20062158012E+02  0.24020936376E+02  0.10566000000E+00 0. -1.
        994    1    1    2    0    0  0.14935939315E+02 -0.79691597076E+01  0.51452796640E+01  0.17211189294E+03  0.17120000000E+03 0.  0.
        998    1    1    2    0    0 -0.26589648944E+02  0.17486220990E+01  0.14747925586E+04  0.14750671707E+04  0.10000000000E+02 0. -1.
</event>
<event>
 5    1  0.9123258E-009  0.3791296E+03  0.7957747E-01  0.3454957E+00
         13   -1    0    0    0    0  0.00000000000E+00  0.00000000000E+00  0.14999999963E+04  0.15000000000E+04  0.10566000000E+00 0.  1.
        994   -1    0    0    0    0 -0.00000000000E+00 -0.00000000000E+00  0.11368683772E-12  0.17120000000E+03  0.17120000000E+03 0.  0.
         13    1    1    2    0    0  0.17680367618E+02  0.51115380714E+01  0.34597895559E+02  0.39188630516E+02  0.10566000000E+00 0.  1.
        994    1    1    2    0    0 -0.17563712100E+02 -0.45080199377E+01  0.56762858179E+01  0.17225117256E+03  0.17120000000E+03 0.  0.
        998    1    1    2    0    0 -0.11665551765E+00 -0.60351813370E+00  0.14597258149E+04  0.14597601969E+04  0.10000000000E+02 0.  1.
</event>
<event>
 5    1  0.9123258E-009  0.3857745E+03  0.7957747E-01  0.3426394E+00
         13   -1    0    0    0    0  0.00000000000E+00  0.00000000000E+00  0.14999999963E+04  0.15000000000E+04  0.10566000000E+00 0.  1.
        994   -1    0    0    0    0 -0.00000000000E+00 -0.00000000000E+00  0.11368683772E-12  0.17120000000E+03  0.17120000000E+03 0.  0.
         13    1    1    2    0    0 -0.13207066203E+02 -0.71708928121E+01  0.87667506450E+02  0.88946338613E+02  0.10566000000E+00 0.  1.
        994    1    1    2    0    0  0.15680518236E+02  0.20722518802E+01  0.20671873688E+01  0.17194151955E+03  0.17120000000E+03 0.  0.
        998    1    1    2    0    0 -0.24734520337E+01  0.50986409319E+01  0.14102653025E+04  0.14103121418E+04  0.10000000000E+02 0.  1.
</event>
<event>
 5    1  0.9123258E-009  0.3853355E+03  0.7957747E-01  0.3428250E+00
         13   -1    0    0    0    0  0.00000000000E+00  0.00000000000E+00  0.14999999963E+04  0.15000000000E+04  0.10566000000E+00 0.  1.
        994   -1    0    0    0    0 -0.00000000000E+00 -0.00000000000E+00  0.11368683772E-12  0.17120000000E+03  0.17120000000E+03 0.  0.
         13    1    1    2    0    0 -0.14764558422E+02 -0.94560432122E+01  0.99793751050E+02  0.10132232158E+03  0.10566000000E+00 0.  1.
        994    1    1    2    0    0  0.15676577846E+02  0.85765411786E+01  0.25133058156E+01  0.17214839197E+03  0.17120000000E+03 0.  0.
        998    1    1    2    0    0 -0.91201942365E+00  0.87950203361E+00  0.13976929394E+04  0.13977292864E+04  0.10000000000E+02 0.  1.
</event>
<event>
 5    1  0.9123258E-009  0.3852140E+03  0.7957747E-01  0.3428765E+00
         13   -1    0    0    0    0  0.00000000000E+00  0.00000000000E+00  0.14999999963E+04  0.15000000000E+04  0.10566000000E+00 0.  1.
        994   -1    0    0    0    0 -0.00000000000E+00 -0.00000000000E+00  0.11368683772E-12  0.17120000000E+03  0.17120000000E+03 0.  0.
         13    1    1    2    0    0  0.48629927720E+01  0.11485054769E+02  0.51923212654E+02  0.53400246798E+02  0.10566000000E+00 0.  1.
        994    1    1    2    0    0 -0.10121800533E+02 -0.19090729945E+01  0.18726678987E+01  0.17151980145E+03  0.17120000000E+03 0.  0.
        998    1    1    2    0    0  0.52588077606E+01 -0.95759817741E+01  0.14462041157E+04  0.14462799517E+04  0.10000000000E+02 0.  1.
</event>
<event>
 5    1  0.9123258E-009  0.3808659E+03  0.7957747E-01  0.3447397E+00
         13   -1    0    0    0    0  0.00000000000E+00  0.00000000000E+00  0.14999999963E+04  0.15000000000E+04  0.10566000000E+00 0. -1.
        994   -1    0    0    0    0 -0.00000000000E+00 -0.00000000000E+00  0.11368683772E-12  0.17120000000E+03  0.17120000000E+03 0.  0.
         13    1    1    2    0    0 -0.34701951579E+01  0.23579183842E+02  0.67634128344E+02  0.71710575552E+02  0.10566000000E+00 0. -1.
        994    1    1    2    0    0  0.29440130288E+02 -0.36270768787E+02  0.11005529070E+02  0.17780003265E+03  0.17120000000E+03 0.  0.
        998    1    1    2    0    0 -0.25969935130E+02  0.12691584945E+02  0.14213603389E+04  0.14216893918E+04  0.10000000000E+02 0. -1.
</event>
<event>
 5    1  0.9123258E-009  0.3945384E+03  0.7957747E-01  0.3390199E+00
         13   -1    0    0    0    0  0.00000000000E+00  0.00000000000E+00  0.14999999963E+04  0.15000000000E+04  0.10566000000E+00 0.  1.
        994   -1    0    0    0    0 -0.00000000000E+00 -0.00000000000E+00  0.11368683772E-12  0.17120000000E+03  0.17120000000E+03 0.  0.
         13    1    1    2    0    0 -0.10225752661E+03  0.69166916843E+02  0.32879395500E+03  0.35120669148E+03  0.10566000000E+00 0.  1.
        994    1    1    2    0    0  0.28575798087E+02 -0.66122319800E+02  0.44710710155E+02  0.19104246914E+03  0.17120000000E+03 0.  0.
        998    1    1    2    0    0  0.73681728522E+02 -0.30445970432E+01  0.11264953311E+04  0.11289508394E+04  0.10000000000E+02 0.  1.
</event>
<event>
 5    1  0.9123258E-009  0.3698055E+03  0.7957747E-01  0.3496785E+00
         13   -1    0    0    0    0  0.00000000000E+00  0.00000000000E+00  0.14999999963E+04  0.15000000000E+04  0.10566000000E+00 0. -1.
        994   -1    0    0    0    0 -0.00000000000E+00 -0.00000000000E+00  0.11368683772E-12  0.17120000000E+03  0.17120000000E+03 0.  0.
         13    1    1    2    0    0  0.14051883372E+02 -0.26724459498E+02  0.43790393561E+02  0.53190806480E+02  0.10566000000E+00 0. -1.
        994    1    1    2    0    0 -0.19483767750E+02  0.23677518803E+02  0.12630878989E+02  0.17438239936E+03  0.17120000000E+03 0.  0.
        998    1    1    2    0    0  0.54318843777E+01  0.30469406943E+01  0.14435787237E+04  0.14436267942E+04  0.10000000000E+02 0. -1.
</event>
<event>
 5    1  0.9123258E-009  0.3860826E+03  0.7957747E-01  0.3425094E+00
         13   -1    0    0    0    0  0.00000000000E+00  0.00000000000E+00  0.14999999963E+04  0.15000000000E+04  0.10566000000E+00 0. -1.
        994   -1    0    0    0    0 -0.00000000000E+00 -0.00000000000E+00  0.11368683772E-12  0.17120000000E+03  0.17120000000E+03 0.  0.
         13    1    1    2    0    0  0.90391028311E+01  0.58735654130E+01  0.53117668625E+02  0.54200572274E+02  0.10566000000E+00 0. -1.
        994    1    1    2    0    0 -0.40620472036E+01 -0.10708434778E+02  0.15235770898E+01  0.17158942884E+03  0.17120000000E+03 0.  0.
        998    1    1    2    0    0 -0.49770556276E+01  0.48348693654E+01  0.14453587506E+04  0.14454099989E+04  0.10000000000E+02 0. -1.
</event>
<event>
 5    1  0.9123258E-009  0.3835197E+03  0.7957747E-01  0.3435975E+00
         13   -1    0    0    0    0  0.00000000000E+00  0.00000000000E+00  0.14999999963E+04  0.15000000000E+04  0.10566000000E+00 0. -1.
        994   -1    0    0    0    0 -0.00000000000E+00 -0.00000000000E+00  0.11368683772E-12  0.17120000000E+03  0.17120000000E+03 0.  0.
         13    1    1    2    0    0 -0.10981479556E+02 -0.17885882272E+02  0.81093666612E+02  0.83765694688E+02  0.10566000000E+00 0. -1.
        994    1    1    2    0    0  0.11218907037E+02  0.35174428633E+02  0.68843287591E+01  0.17527104235E+03  0.17120000000E+03 0.  0.
        998    1    1    2    0    0 -0.23742748042E+00 -0.17288546362E+02  0.14120220009E+04  0.14121632630E+04  0.10000000000E+02 0. -1.
</event>
<event>
 5    1  0.9123258E-009  0.3713997E+03  0.7957747E-01  0.3489483E+00
         13   -1    0    0    0    0  0.00000000000E+00  0.00000000000E+00  0.14999999963E+04  0.15000000000E+04  0.10566000000E+00 0.  1.
        994   -1    0    0    0    0 -0.00000000000E+00 -0.00000000000E+00  0.11368683772E-12  0.17120000000E+03  0.17120000000E+03 0.  0.
         13    1    1    2    0    0 -0.12219086014E+03 -0.14584864062E+02  0.59551303530E+03  0.60809465623E+03  0.10566000000E+00 0.  1.
        994    1    1    2    0    0  0.11977055995E+03 -0.32529500993E+02  0.63564036036E+02  0.22080077478E+03  0.17120000000E+03 0.  0.
        998    1    1    2    0    0  0.24203001956E+01  0.47114365055E+02  0.84092292495E+03  0.84230456899E+03  0.10000000000E+02 0.  1.
</event>
<event>
 5    1  0.9123258E-009  0.3835616E+03  0.7957747E-01  0.3435796E+00
         13   -1    0    0    0    0  0.00000000000E+00  0.00000000000E+00  0.14999999963E+04  0.15000000000E+04  0.10566000000E+00 0.  1.
        994   -1    0    0    0    0 -0.00000000000E+00 -0.00000000000E+00  0.11368683772E-12  0.17120000000E+03  0.17120000000E+03 0.  0.
         13    1    1    2    0    0 -0.25683426564E+01 -0.16704153852E+02  0.59286734172E+02  0.61648626528E+02  0.10566000000E+00 0.  1.
        994    1    1    2    0    0  0.20763970117E+01  0.14139090967E+02  0.30210157251E+01  0.17182197721E+03  0.17120000000E+03 0.  0.
        998    1    1    2    0    0  0.49194564468E+00  0.25650628851E+01  0.14376922464E+04  0.14377293963E+04  0.10000000000E+02 0.  1.
</event>
<event>
 5    1  0.9123258E-009  0.3808562E+03  0.7957747E-01  0.3447439E+00
         13   -1    0    0    0    0  0.00000000000E+00  0.00000000000E+00  0.14999999963E+04  0.15000000000E+04  0.10566000000E+00 0.  1.
        994   -1    0    0    0    0 -0.00000000000E+00 -0.00000000000E+00  0.11368683772E-12  0.17120000000E+03  0.17120000000E+03 0.  0.
         13    1    1    2    0    0 -0.68303346800E+01 -0.17131279963E+02  0.47179892711E+02  0.50656565865E+02  0.10566000000E+00 0.  1.
        994    1    1    2    0    0 -0.16523546394E+02  0.38902523912E+01  0.46627211663E+01  0.17210270950E+03  0.17120000000E+03 0.  0.
        998    1    1    2    0    0  0.23353881074E+02  0.13241027572E+02  0.14481573824E+04  0.14484407246E+04  0.10000000000E+02 0.  1.
</event>
<event>
 5    1  0.9123258E-009  0.3854370E+03  0.7957747E-01  0.3427821E+00
         13   -1    0    0    0    0  0.00000000000E+00  0.00000000000E+00  0.14999999963E+04  0.15000000000E+04  0.10566000000E+00 0.  1.
        994   -1    0    0    0    0 -0.00000000000E+00 -0.00000000000E+00  0.11368683772E-12  0.17120000000E+03  0.17120000000E+03 0.  0.
         13    1    1    2    0    0  0.11610469871E+02 -0.67963752209E+02  0.11077359224E+03  0.13047863628E+03  0.10566000000E+00 0.  1.
        994    1    1    2    0    0 -0.16267961395E+02  0.60721511154E+02  0.34107775809E+02  0.18553848349E+03  0.17120000000E+03 0.  0.
        998    1    1    2    0    0  0.46574915241E+01  0.72422410547E+01  0.13551186282E+04  0.13551828802E+04  0.10000000000E+02 0.  1.
</event>
<event>
 5    1  0.9123258E-009  0.3688161E+03  0.7957747E-01  0.3501349E+00
         13   -1    0    0    0    0  0.00000000000E+00  0.00000000000E+00  0.14999999963E+04  0.15000000000E+04  0.10566000000E+00 0.  1.
        994   -1    0    0    0    0 -0.00000000000E+00 -0.00000000000E+00  0.11368683772E-12  0.17120000000E+03  0.17120000000E+03 0.  0.
         13    1    1    2    0    0 -0.81042909750E+02  0.13379947707E+03  0.75051164754E+03  0.76664072259E+03  0.10566000000E+00 0.  1.
        994    1    1    2    0    0  0.94987382079E+02 -0.10061482762E+03  0.80278614890E+02  0.23430758054E+03  0.17120000000E+03 0.  0.
        998    1    1    2    0    0 -0.13944472329E+02 -0.33184649456E+02  0.66920973385E+03  0.67025169686E+03  0.10000000000E+02 0.  1.
</event>
<event>
 5    1  0.9123258E-009  0.3727971E+03  0.7957747E-01  0.3483134E+00
         13   -1    0    0    0    0  0.00000000000E+00  0.00000000000E+00  0.14999999963E+04  0.15000000000E+04  0.10566000000E+00 0. -1.
        994   -1    0    0    0    0 -0.00000000000E+00 -0.00000000000E+00  0.11368683772E-12  0.17120000000E+03  0.17120000000E+03 0.  0.
         13    1    1    2    0    0  0.18442671455E+02 -0.40837061565E+02  0.85659923738E+02  0.96671771612E+02  0.10566000000E+00 0. -1.
        994    1    1    2    0    0 -0.28838409677E+02 -0.20421067909E+02  0.16846884737E+02  0.17561871031E+03  0.17120000000E+03 0.  0.
        998    1    1    2    0    0  0.10395738223E+02  0.61258129474E+02  0.13974931878E+04  0.13989095181E+04  0.10000000000E+02 0. -1.
</event>
<event>
 5    1  0.9123258E-009  0.3824742E+03  0.7957747E-01  0.3440455E+00
         13   -1    0    0    0    0  0.00000000000E+00  0.00000000000E+00  0.14999999963E+04  0.15000000000E+04  0.10566000000E+00 0.  1.
        994   -1    0    0    0    0 -0.00000000000E+00 -0.00000000000E+00  0.11368683772E-12  0.17120000000E+03  0.17120000000E+03 0.  0.
         13    1    1    2    0    0  0.73253387506E+01 -0.11187846593E+02  0.37481072365E+02  0.39795357127E+02  0.10566000000E+00 0.  1.
        994    1    1    2    0    0  0.46135186062E+02 -0.27669418494E+02  0.12545453790E+02  0.17989130197E+03  0.17120000000E+03 0.  0.
        998    1    1    2    0    0 -0.53460524813E+02  0.38857265087E+02  0.14499734701E+04  0.14515133409E+04  0.10000000000E+02 0.  1.
</event>
<event>
 5    1  0.9123258E-009  0.3786139E+03  0.7957747E-01  0.3457216E+00
         13   -1    0    0    0    0  0.00000000000E+00  0.00000000000E+00  0.14999999963E+04  0.15000000000E+04  0.10566000000E+00 0. -1.
        994   -1    0    0    0    0 -0.00000000000E+00 -0.00000000000E+00  0.11368683772E-12  0.17120000000E+03  0.17120000000E+03 0.  0.
         13    1    1    2    0    0 -0.11056713444E+02 -0.95821202669E+01  0.20568173947E+02  0.25241412095E+02  0.10566000000E+00 0. -1.
        994    1    1    2    0    0  0.79441538663E+01 -0.71749464491E+01  0.52193954477E+01  0.17161372767E+03  0.17120000000E+03 0.  0.
        998    1    1    2    0    0  0.31125595779E+01  0.16757066716E+02  0.14742124269E+04  0.14743448602E+04  0.10000000000E+02 0. -1.
</event>
<event>
 5    1  0.9123258E-009  0.3786552E+03  0.7957747E-01  0.3457035E+00
         13   -1    0    0    0    0  0.00000000000E+00  0.00000000000E+00  0.14999999963E+04  0.15000000000E+04  0.10566000000E+00 0. -1.
        994   -1    0    0    0    0 -0.00000000000E+00 -0.00000000000E+00  0.11368683772E-12  0.17120000000E+03  0.17120000000E+03 0.  0.
         13    1    1    2    0    0 -0.64667111293E+02  0.89411836998E+02  0.40262459527E+03  0.41747202033E+03  0.10566000000E+00 0. -1.
        994    1    1    2    0    0  0.37033939870E+02 -0.45334335898E+02  0.28051904814E+02  0.18309304759E+03  0.17120000000E+03 0.  0.
        998    1    1    2    0    0  0.27633171424E+02 -0.44077501100E+02  0.10693234962E+04  0.10706349321E+04  0.10000000000E+02 0. -1.
</event>
<event>
 5    1  0.9123258E-009  0.3779308E+03  0.7957747E-01  0.3460218E+00
         13   -1    0    0    0    0  0.00000000000E+00  0.00000000000E+00  0.14999999963E+04  0.15000000000E+04  0.10566000000E+00 0. -1.
        994   -1    0    0    0    0 -0.00000000000E+00 -0.00000000000E+00  0.11368683772E-12  0.17120000000E+03  0.17120000000E+03 0.  0.
         13    1    1    2    0    0  0.38788467456E+02 -0.60548755201E+02  0.38568038417E+03  0.39232647994E+03  0.10566000000E+00 0. -1.
        994    1    1    2    0    0 -0.39258429770E+02  0.55284912072E+02  0.20816216747E+02  0.18531163129E+03  0.17120000000E+03 0.  0.
        998    1    1    2    0    0  0.46996231424E+00  0.52638431293E+01  0.10935033954E+04  0.10935618888E+04  0.10000000000E+02 0. -1.
</event>
<event>
 5    1  0.9123258E-009  0.3838907E+03  0.7957747E-01  0.3434390E+00
         13   -1    0    0    0    0  0.00000000000E+00  0.00000000000E+00  0.14999999963E+04  0.15000000000E+04  0.10566000000E+00 0. -1.
        994   -1    0    0    0    0 -0.00000000000E+00 -0.00000000000E+00  0.11368683772E-12  0.17120000000E+03  0.17120000000E+03 0.  0.
         13    1    1    2    0    0 -0.14052248197E+02  0.16653835288E+02  0.10390792815E+03  0.10616819018E+03  0.10566000000E+00 0. -1.
        994    1    1    2    0    0  0.96393429533E+01 -0.17531578526E+02  0.35041031653E+01  0.17240067261E+03  0.17120000000E+03 0.  0.
        998    1    1    2    0    0  0.44129052433E+01  0.87774323843E+00  0.13925879650E+04  0.13926311372E+04  0.10000000000E+02 0. -1.
</event>
<event>
 5    1  0.9123258E-009  0.3815441E+03  0.7957747E-01  0.3444463E+00
         13   -1    0    0    0    0  0.00000000000E+00  0.00000000000E+00  0.14999999963E+04  0.15000000000E+04  0.10566000000E+00 0. -1.
        994   -1    0    0    0    0 -0.00000000000E+00 -0.00000000000E+00  0.11368683772E-12  0.17120000000E+03  0.17120000000E+03 0.  0.
         13    1    1    2    0    0 -0.14485776407E+02 -0.94242488182E+01  0.44343929504E+02  0.47592535463E+02  0.10566000000E+00 0. -1.
        994    1    1    2    0    0  0.15068827393E+01  0.74264808412E+01  0.35467335301E+01  0.17140432501E+03  0.17120000000E+03 0.  0.
        998    1    1    2    0    0  0.12978893667E+02  0.19977679770E+01  0.14521093332E+04  0.14522031395E+04  0.10000000000E+02 0. -1.
</event>
<event>
 5    1  0.9123258E-009  0.3697133E+03  0.7957747E-01  0.3497210E+00
         13   -1    0    0    0    0  0.00000000000E+00  0.00000000000E+00  0.14999999963E+04  0.15000000000E+04  0.10566000000E+00 0.  1.
        994   -1    0    0    0    0 -0.00000000000E+00 -0.00000000000E+00  0.11368683772E-12  0.17120000000E+03  0.17120000000E+03 0.  0.
         13    1    1    2    0    0  0.10508245762E+02  0.67490668885E+01  0.22060751300E+01  0.12682707297E+02  0.10566000000E+00 0.  1.
        994    1    1    2    0    0 -0.10670605051E+02 -0.78701983899E+01  0.11401475054E+02  0.17209077683E+03  0.17120000000E+03 0.  0.
        998    1    1    2    0    0  0.16235928851E+00  0.11211315014E+01  0.14863924461E+04  0.14864265159E+04  0.10000000000E+02 0.  1.
</event>
<event>
 5    1  0.9123258E-009  0.3841966E+03  0.7957747E-01  0.3433087E+00
         13   -1    0    0    0    0  0.00000000000E+00  0.00000000000E+00  0.14999999963E+04  0.15000000000E+04  0.10566000000E+00 0. -1.
        994   -1    0    0    0    0 -0.00000000000E+00 -0.00000000000E+00  0.11368683772E-12  0.17120000000E+03  0.17120000000E+03 0.  0.
         13    1    1    2    0    0 -0.13963987745E+02  0.10116491663E+02  0.75057606776E+02  0.77012933046E+02  0.10566000000E+00 0. -1.
        994    1    1    2    0    0 -0.74806278342E+01 -0.22283994762E+02  0.38535190281E+01  0.17284914181E+03  0.17120000000E+03 0.  0.
        998    1    1    2    0    0  0.21444615579E+02  0.12167503099E+02  0.14210888705E+04  0.14213379251E+04  0.10000000000E+02 0. -1.
</event>
<event>
 5    1  0.9123258E-009  0.2766601E+03  0.7957747E-01  0.4078158E+00
         13   -1    0    0    0    0  0.00000000000E+00  0.00000000000E+00  0.14999999963E+04  0.15000000000E+04  0.10566000000E+00 0. -1.
        994   -1    0    0    0    0 -0.00000000000E+00 -0.00000000000E+00  0.11368683772E-12  0.17120000000E+03  0.17120000000E+03 0.  0.
         13    1    1    2    0    0  0.15784438549E+03  0.10792213000E+03  0.45246204217E+03  0.49120662347E+03  0.10566000000E+00 0. -1.
        994    1    1    2    0    0 -0.15205450036E+03 -0.10699947559E+03  0.17508463586E+03  0.30746305236E+03  0.17120000000E+03 0.  0.
        998    1    1    2    0    0 -0.57898851344E+01 -0.92265441255E+00  0.87245331825E+03  0.87253032417E+03  0.10000000000E+02 0.  0.
</event>
<event>
 5    1  0.9123258E-009  0.3853028E+03  0.7957747E-01  0.3428389E+00
         13   -1    0    0    0    0  0.00000000000E+00  0.00000000000E+00  0.14999999963E+04  0.15000000000E+04  0.10566000000E+00 0.  1.
        994   -1    0    0    0    0 -0.00000000000E+00 -0.00000000000E+00  0.11368683772E-12  0.17120000000E+03  0.17120000000E+03 0.  0.
         13    1    1    2    0    0 -0.13136429020E+02 -0.19401119237E+00  0.59722197502E+02  0.61150269388E+02  0.10566000000E+00 0.  1.
        994    1    1    2    0    0  0.54802204156E+01 -0.25018820480E+01  0.15991437209E+01  0.17131342472E+03  0.17120000000E+03 0.  0.
        998    1    1    2    0    0  0.76562086044E+01  0.26958932404E+01  0.14386786551E+04  0.14387363059E+04  0.10000000000E+02 0.  1.
</event>
<event>
 5    1  0.9123258E-009  0.3771512E+03  0.7957747E-01  0.3463657E+00
         13   -1    0    0    0    0  0.00000000000E+00  0.00000000000E+00  0.14999999963E+04  0.15000000000E+04  0.10566000000E+00 0.  1.
        994   -1    0    0    0    0 -0.00000000000E+00 -0.00000000000E+00  0.11368683772E-12  0.17120000000E+03  0.17120000000E+03 0.  0.
         13    1    1    2    0    0  0.19510009585E+02 -0.96359334979E+01  0.39984351234E+02  0.45521985853E+02  0.10566000000E+00 0.  1.
        994    1    1    2    0    0 -0.12970754458E+02  0.10999982136E+02  0.65548765634E+01  0.17216749544E+03  0.17120000000E+03 0.  0.
        998    1    1    2    0    0 -0.65392551277E+01 -0.13640486382E+01  0.14534607685E+04  0.14535105187E+04  0.10000000000E+02 0.  1.
</event>
<event>
 5    1  0.9123258E-009  0.3801386E+03  0.7957747E-01  0.3450555E+00
         13   -1    0    0    0    0  0.00000000000E+00  0.00000000000E+00  0.14999999963E+04  0.15000000000E+04  0.10566000000E+00 0. -1.
        994   -1    0    0    0    0 -0.00000000000E+00 -0.00000000000E+00  0.11368683772E-12  0.17120000000E+03  0.17120000000E+03 0.  0.
         13    1    1    2    0    0  0.88886548281E+01  0.46648817078E+02  0.25016602251E+03  0.25463340375E+03  0.10566000000E+00 0. -1.
        994    1    1    2    0    0 -0.23742845786E+01 -0.39275008410E+02  0.92535820428E+01  0.17590688529E+03  0.17120000000E+03 0.  0.
        998    1    1    2    0    0 -0.65143702495E+01 -0.73738086683E+01  0.12405803917E+04  0.12406597110E+04  0.10000000000E+02 0. -1.
</event>
<event>
 5    1  0.9123258E-009  0.3797098E+03  0.7957747E-01  0.3452423E+00
         13   -1    0    0    0    0  0.00000000000E+00  0.00000000000E+00  0.14999999963E+04  0.15000000000E+04  0.10566000000E+00 0. -1.
        994   -1    0    0    0    0 -0.00000000000E+00 -0.00000000000E+00  0.11368683772E-12  0.17120000000E+03  0.17120000000E+03 0.  0.
         13    1    1    2    0    0  0.37445363377E+02 -0.10440140755E+02  0.41097169195E+02  0.56569782193E+02  0.10566000000E+00 0. -1.
        994    1    1    2    0    0 -0.24218595865E+02 -0.25498641156E+01  0.18317393060E+02  0.17389079642E+03  0.17120000000E+03 0.  0.
        998    1    1    2    0    0 -0.13226767513E+02  0.12990004871E+02  0.14405854340E+04  0.14407394214E+04  0.10000000000E+02 0. -1.
</event>
<event>
 5    1  0.9123258E-009  0.3803914E+03  0.7957747E-01  0.3449456E+00
         13   -1    0    0    0    0  0.00000000000E+00  0.00000000000E+00  0.14999999963E+04  0.15000000000E+04  0.10566000000E+00 0.  1.
        994   -1    0    0    0    0 -0.00000000000E+00 -0.00000000000E+00  0.11368683772E-12  0.17120000000E+03  0.17120000000E+03 0.  0.
         13    1    1    2    0    0  0.26650365540E+02 -0.11647335980E+00  0.97675058170E+02  0.10124566016E+03  0.10566000000E+00 0.  1.
        994    1    1    2    0    0  0.14807141088E+01 -0.86558305058E+01  0.41931933675E+01  0.17147635052E+03  0.17120000000E+03 0.  0.
        998    1    1    2    0    0 -0.28131079649E+02  0.87723038655E+01  0.13981317447E+04  0.13984779893E+04  0.10000000000E+02 0.  1.
</event>
<event>
 5    1  0.9123258E-009  0.3725281E+03  0.7957747E-01  0.3484352E+00
         13   -1    0    0    0    0  0.00000000000E+00  0.00000000000E+00  0.14999999963E+04  0.15000000000E+04  0.10566000000E+00 0. -1.
        994   -1    0    0    0    0 -0.00000000000E+00 -0.00000000000E+00  0.11368683772E-12  0.17120000000E+03  0.17120000000E+03 0.  0.
         13    1    1    2    0    0  0.66083947282E+02  0.68964567577E+02  0.48064444787E+03  0.49004315739E+03  0.10566000000E+00 0. -1.
        994    1    1    2    0    0 -0.79233119720E+02  0.29583120178E+02  0.37960733311E+02  0.19468822649E+03  0.17120000000E+03 0.  0.
        998    1    1    2    0    0  0.13149172438E+02 -0.98547687755E+02  0.98139481510E+03  0.98646861612E+03  0.10000000000E+02 0. -1.
</event>
<event>
 5    1  0.9123258E-009  0.3858340E+03  0.7957747E-01  0.3426143E+00
         13   -1    0    0    0    0  0.00000000000E+00  0.00000000000E+00  0.14999999963E+04  0.15000000000E+04  0.10566000000E+00 0.  1.
        994   -1    0    0    0    0 -0.00000000000E+00 -0.00000000000E+00  0.11368683772E-12  0.17120000000E+03  0.17120000000E+03 0.  0.
         13    1    1    2    0    0 -0.14414424056E+01 -0.11282860716E+02  0.49978955287E+02  0.51257075978E+02  0.10566000000E+00 0.  1.
        994    1    1    2    0    0 -0.67533897816E+01  0.19992284275E+02  0.26784812242E+01  0.17251641651E+03  0.17120000000E+03 0.  0.
        998    1    1    2    0    0  0.81948321872E+01 -0.87094235585E+01  0.14473425598E+04  0.14474265075E+04  0.10000000000E+02 0.  1.
</event>
<event>
 5    1  0.9123258E-009  0.3832535E+03  0.7957747E-01  0.3437113E+00
         13   -1    0    0    0    0  0.00000000000E+00  0.00000000000E+00  0.14999999963E+04  0.15000000000E+04  0.10566000000E+00 0. -1.
        994   -1    0    0    0    0 -0.00000000000E+00 -0.00000000000E+00  0.11368683772E-12  0.17120000000E+03  0.17120000000E+03 0.  0.
         13    1    1    2    0    0 -0.93960459342E+01 -0.10575464401E+02  0.40444255528E+02  0.42847113039E+02  0.10566000000E+00 0. -1.
        994    1    1    2    0    0  0.11731052506E+02 -0.69539615881E+01  0.31150806861E+01  0.17177054143E+03  0.17120000000E+03 0.  0.
        998    1    1    2    0    0 -0.23350065721E+01  0.17529425989E+02  0.14564406601E+04  0.14565823455E+04  0.10000000000E+02 0. -1.
</event>
<event>
 5    1  0.9123258E-009  0.3811106E+03  0.7957747E-01  0.3446337E+00
         13   -1    0    0    0    0  0.00000000000E+00  0.00000000000E+00  0.14999999963E+04  0.15000000000E+04  0.10566000000E+00 0.  1.
        994   -1    0    0    0    0 -0.00000000000E+00 -0.00000000000E+00  0.11368683772E-12  0.17120000000E+03  0.17120000000E+03 0.  0.
         13    1    1    2    0    0  0.20454837217E+02 -0.94371187947E+01  0.69579163673E+02  0.73135017319E+02  0.10566000000E+00 0.  1.
        994    1    1    2    0    0 -0.14415841160E+02  0.42089154925E+01  0.43251117112E+01  0.17191183216E+03  0.17120000000E+03 0.  0.
        998    1    1    2    0    0 -0.60389960573E+01  0.52282033022E+01  0.14260957209E+04  0.14261531505E+04  0.10000000000E+02 0.  1.
</event>
<event>
 5    1  0.9123258E-009  0.3846993E+03  0.7957747E-01  0.3430949E+00
         13   -1    0    0    0    0  0.00000000000E+00  0.00000000000E+00  0.14999999963E+04  0.15000000000E+04  0.10566000000E+00 0.  1.
        994   -1    0    0    0    0 -0.00000000000E+00 -0.00000000000E+00  0.11368683772E-12  0.17120000000E+03  0.17120000000E+03 0.  0.
         13    1    1    2    0    0  0.40332060801E+01 -0.11702601497E+02  0.45262021964E+02  0.46924188105E+02  0.10566000000E+00 0.  1.
        994    1    1    2    0    0 -0.19429894160E+02 -0.88961703128E+01  0.32842284670E+01  0.17255981221E+03  0.17120000000E+03 0.  0.
        998    1    1    2    0    0  0.15396688080E+02  0.20598771810E+02  0.14514537458E+04  0.14517159997E+04  0.10000000000E+02 0.  1.
</event>
<event>
 5    1  0.9123258E-009  0.3718118E+03  0.7957747E-01  0.3487606E+00
         13   -1    0    0    0    0  0.00000000000E+00  0.00000000000E+00  0.14999999963E+04  0.15000000000E+04  0.10566000000E+00 0. -1.
        994   -1    0    0    0    0 -0.00000000000E+00 -0.00000000000E+00  0.11368683772E-12  0.17120000000E+03  0.17120000000E+03 0.  0.
         13    1    1    2    0    0 -0.24190195088E+02 -0.26111432391E+02  0.47211928765E+02  0.59126557668E+02  0.10566000000E+00 0. -1.
        994    1    1    2    0    0  0.22488510737E+02  0.27918402918E+02  0.16435173939E+02  0.17568359422E+03  0.17120000000E+03 0.  0.
        998    1    1    2    0    0  0.17016843511E+01 -0.18069705271E+01  0.14363528936E+04  0.14363898481E+04  0.10000000000E+02 0. -1.
</event>
<event>
 5    1  0.9123258E-009  0.3832717E+03  0.7957747E-01  0.3437035E+00
         13   -1    0    0    0    0  0.00000000000E+00  0.00000000000E+00  0.14999999963E+04  0.15000000000E+04  0.10566000000E+00 0.  1.
        994   -1    0    0    0    0 -0.00000000000E+00 -0.00000000000E+00  0.11368683772E-12  0.17120000000E+03  0.17120000000E+03 0.  0.
         13    1    1    2    0    0  0.14611079999E+02 -0.14151176977E+02  0.90931171777E+02  0.93178477307E+02  0.10566000000E+00 0.  1.
        994    1    1    2    0    0  0.49605386588E+01  0.92776484558E+00  0.25748818984E+01  0.17129371766E+03  0.17120000000E+03 0.  0.
        998    1    1    2    0    0 -0.19571618658E+02  0.13223412131E+02  0.14064939426E+04  0.14067278050E+04  0.10000000000E+02 0.  1.
</event>
<event>
 5    1  0.9123258E-009  0.3694725E+03  0.7957747E-01  0.3498318E+00
         13   -1    0    0    0    0  0.00000000000E+00  0.00000000000E+00  0.14999999963E+04  0.15000000000E+04  0.10566000000E+00 0.  1.
        994   -1    0    0    0    0 -0.00000000000E+00 -0.00000000000E+00  0.11368683772E-12  0.17120000000E+03  0.17120000000E+03 0.  0.
         13    1    1    2    0    0 -0.10900301696E+03  0.12504577063E+03  0.87169718059E+03  0.88734102141E+03  0.10566000000E+00 0.  1.
        994    1    1    2    0    0  0.71619662714E+02 -0.11398490658E+03  0.76863986842E+02  0.23095334483E+03  0.17120000000E+03 0.  0.
        998    1    1    2    0    0  0.37383354248E+02 -0.11060864056E+02  0.55143882884E+03  0.55290563376E+03  0.10000000000E+02 0.  1.
</event>
<event>
 5    1  0.1161613E-008  0.3860989E+03  0.7957747E-01  0.3425025E+00
         13   -1    0    0    0    0  0.00000000000E+00  0.00000000000E+00  0.14999999963E+04  0.15000000000E+04  0.10566000000E+00 0.  1.
        994   -1    0    0    0    0 -0.00000000000E+00 -0.00000000000E+00  0.11368683772E-12  0.17120000000E+03  0.17120000000E+03 0.  0.
         13    1    1    2    0    0  0.49435260258E+01  0.95540257957E+01  0.55813669301E+02  0.56840959733E+02  0.10566000000E+00 0.  1.
        994    1    1    2    0    0  0.66767788540E+01 -0.66091246135E+01  0.13748253151E+01  0.17146308655E+03  0.17120000000E+03 0.  0.
        998    1    1    2    0    0 -0.11620304880E+02 -0.29449011823E+01  0.14428115017E+04  0.14428959537E+04  0.10000000000E+02 0.  1.
</event>
<event>
 5    1  0.9123258E-009  0.3801462E+03  0.7957747E-01  0.3450522E+00
         13   -1    0    0    0    0  0.00000000000E+00  0.00000000000E+00  0.14999999963E+04  0.15000000000E+04  0.10566000000E+00 0. -1.
        994   -1    0    0    0    0 -0.00000000000E+00 -0.00000000000E+00  0.11368683772E-12  0.17120000000E+03  0.17120000000E+03 0.  0.
         13    1    1    2    0    0  0.11182690794E+03 -0.13873065100E+03  0.10176754373E+04  0.10331576636E+04  0.10566000000E+00 0. -1.
        994    1    1    2    0    0 -0.11179781152E+03  0.13756339720E+03  0.11739082625E+03  0.27296975107E+03  0.17120000000E+03 0.  0.
        998    1    1    2    0    0 -0.29096422791E-01  0.11672537955E+01  0.36493373269E+03  0.36507258536E+03  0.10000000000E+02 0.  0.
</event>
<event>
 5    1  0.9123258E-009  0.3848501E+03  0.7957747E-01  0.3430308E+00
         13   -1    0    0    0    0  0.00000000000E+00  0.00000000000E+00  0.14999999963E+04  0.15000000000E+04  0.10566000000E+00 0.  1.
        994   -1    0    0    0    0 -0.00000000000E+00 -0.00000000000E+00  0.11368683772E-12  0.17120000000E+03  0.17120000000E+03 0.  0.
         13    1    1    2    0    0  0.81352986569E+01  0.88603884064E+01  0.45029569854E+02  0.46608613927E+02  0.10566000000E+00 0.  1.
        994    1    1    2    0    0  0.74205379805E+01 -0.14916452543E+01  0.18930852215E+01  0.17137769155E+03  0.17120000000E+03 0.  0.
        998    1    1    2    0    0 -0.15555836637E+02 -0.73687431521E+01  0.14530773412E+04  0.14532136945E+04  0.10000000000E+02 0.  1.
</event>
<event>
 5    1  0.9123258E-009  0.3792419E+03  0.7957747E-01  0.3454466E+00
         13   -1    0    0    0    0  0.00000000000E+00  0.00000000000E+00  0.14999999963E+04  0.15000000000E+04  0.10566000000E+00 0. -1.
        994   -1    0    0    0    0 -0.00000000000E+00 -0.00000000000E+00  0.11368683772E-12  0.17120000000E+03  0.17120000000E+03 0.  0.
         13    1    1    2    0    0 -0.11316572139E+02  0.24128997224E+02  0.90119781285E+02  0.93977973243E+02  0.10566000000E+00 0. -1.
        994    1    1    2    0    0 -0.11622432121E+02  0.12397318480E+02  0.54846751659E+01  0.17212871955E+03  0.17120000000E+03 0.  0.
        998    1    1    2    0    0  0.22939004261E+02 -0.36526315704E+02  0.14043955398E+04  0.14050933072E+04  0.10000000000E+02 0. -1.
</event>
<event>
 5    1  0.9123258E-009  0.3755507E+03  0.7957747E-01  0.3470763E+00
         13   -1    0    0    0    0  0.00000000000E+00  0.00000000000E+00  0.14999999963E+04  0.15000000000E+04  0.10566000000E+00 0. -1.
        994   -1    0    0    0    0 -0.00000000000E+00 -0.00000000000E+00  0.11368683772E-12  0.17120000000E+03  0.17120000000E+03 0.  0.
         13    1    1    2    0    0  0.39761241627E+02 -0.29709818142E+02  0.15134533062E+03  0.15927664579E+03  0.10566000000E+00 0. -1.
        994    1    1    2    0    0 -0.41246159299E+02  0.68918126381E+02  0.28608052260E+02  0.19125588737E+03  0.17120000000E+03 0.  0.
        998    1    1    2    0    0  0.14849176722E+01 -0.39208308239E+02  0.13200466134E+04  0.13206674668E+04  0.10000000000E+02 0. -1.
</event>
<event>
 5    1  0.9123258E-009  0.3777861E+03  0.7957747E-01  0.3460855E+00
         13   -1    0    0    0    0  0.00000000000E+00  0.00000000000E+00  0.14999999963E+04  0.15000000000E+04  0.10566000000E+00 0.  1.
        994   -1    0    0    0    0 -0.00000000000E+00 -0.00000000000E+00  0.11368683772E-12  0.17120000000E+03  0.17120000000E+03 0.  0.
         13    1    1    2    0    0 -0.16289967787E+02 -0.73267932180E+02  0.36582431867E+03  0.37344476999E+03  0.10566000000E+00 0.  1.
        994    1    1    2    0    0  0.34994438533E+02  0.79895083775E+02  0.31318727957E+02  0.19467444070E+03  0.17120000000E+03 0.  0.
        998    1    1    2    0    0 -0.18704470746E+02 -0.66271515957E+01  0.11028569497E+04  0.11030807893E+04  0.10000000000E+02 0.  1.
</event>
<event>
 5    1  0.9123258E-009  0.3826019E+03  0.7957747E-01  0.3439907E+00
         13   -1    0    0    0    0  0.00000000000E+00  0.00000000000E+00  0.14999999963E+04  0.15000000000E+04  0.10566000000E+00 0.  1.
        994   -1    0    0    0    0 -0.00000000000E+00 -0.00000000000E+00  0.11368683772E-12  0.17120000000E+03  0.17120000000E+03 0.  0.
         13    1    1    2    0    0 -0.17585920084E+02 -0.27712032152E+01  0.60867522912E+02  0.63417747216E+02  0.10566000000E+00 0.  1.
        994    1    1    2    0    0 -0.80264624380E+01 -0.40393012082E+01  0.30931103241E+01  0.17146354535E+03  0.17120000000E+03 0.  0.
        998    1    1    2    0    0  0.25612382522E+02  0.68105044234E+01  0.14360393630E+04  0.14363187074E+04  0.10000000000E+02 0.  1.
</event>
<event>
 5    1  0.9123258E-009  0.3797521E+03  0.7957747E-01  0.3452239E+00
         13   -1    0    0    0    0  0.00000000000E+00  0.00000000000E+00  0.14999999963E+04  0.15000000000E+04  0.10566000000E+00 0.  1.
        994   -1    0    0    0    0 -0.00000000000E+00 -0.00000000000E+00  0.11368683772E-12  0.17120000000E+03  0.17120000000E+03 0.  0.
         13    1    1    2    0    0  0.76768515018E+02 -0.95047153228E+02  0.27915727104E+03  0.30472308638E+03  0.10566000000E+00 0.  1.
        994    1    1    2    0    0 -0.14225776366E+03  0.99167121073E+02  0.13494334673E+03  0.27855077822E+03  0.17120000000E+03 0.  0.
        998    1    1    2    0    0  0.65489248643E+02 -0.41199678445E+01  0.10858993785E+04  0.10879261354E+04  0.10000000000E+02 0.  1.
</event>
<event>
 5    1  0.9123258E-009  0.3748761E+03  0.7957747E-01  0.3473777E+00
         13   -1    0    0    0    0  0.00000000000E+00  0.00000000000E+00  0.14999999963E+04  0.15000000000E+04  0.10566000000E+00 0. -1.
        994   -1    0    0    0    0 -0.00000000000E+00 -0.00000000000E+00  0.11368683772E-12  0.17120000000E+03  0.17120000000E+03 0.  0.
         13    1    1    2    0    0 -0.11234586662E+03  0.11758900910E+03  0.67374170323E+03  0.69309210257E+03  0.10566000000E+00 0. -1.
        994    1    1    2    0    0  0.11691495830E+03 -0.14698756019E+03  0.13809696646E+03  0.28923115750E+03  0.17120000000E+03 0.  0.
        998    1    1    2    0    0 -0.45690916821E+01  0.29398551092E+02  0.68816132659E+03  0.68887673993E+03  0.10000000000E+02 0. -1.
</event>
<event>
 5    1  0.9123258E-009  0.3727075E+03  0.7957747E-01  0.3483539E+00
         13   -1    0    0    0    0  0.00000000000E+00  0.00000000000E+00  0.14999999963E+04  0.15000000000E+04  0.10566000000E+00 0. -1.
        994   -1    0    0    0    0 -0.00000000000E+00 -0.00000000000E+00  0.11368683772E-12  0.17120000000E+03  0.17120000000E+03 0.  0.
         13    1    1    2    0    0  0.15375982883E+02 -0.53550475893E+01  0.13757761828E+02  0.21316297963E+02  0.10566000000E+00 0. -1.
        994    1    1    2    0    0 -0.89181631915E+00 -0.21203156029E+01  0.78788388913E+01  0.17139663701E+03  0.17120000000E+03 0.  0.
        998    1    1    2    0    0 -0.14484166563E+02  0.74753631922E+01  0.14783633956E+04  0.14784870650E+04  0.10000000000E+02 0. -1.
</event>
<event>
 5    1  0.9123258E-009  0.4002424E+03  0.7957747E-01  0.3367492E+00
         13   -1    0    0    0    0  0.00000000000E+00  0.00000000000E+00  0.14999999963E+04  0.15000000000E+04  0.10566000000E+00 0.  1.
        994   -1    0    0    0    0 -0.00000000000E+00 -0.00000000000E+00  0.11368683772E-12  0.17120000000E+03  0.17120000000E+03 0.  0.
         13    1    1    2    0    0  0.89981689929E+02 -0.65510477521E+02  0.25204426151E+03  0.27552612963E+03  0.10566000000E+00 0.  1.
        994    1    1    2    0    0 -0.19361098762E+02  0.28388055574E+02  0.32563495597E+02  0.17762475923E+03  0.17120000000E+03 0.  0.
        998    1    1    2    0    0 -0.70620591166E+02  0.37122421948E+02  0.12153922392E+04  0.12180491111E+04  0.10000000000E+02 0.  1.
</event>
<event>
 5    1  0.9123258E-009  0.3826152E+03  0.7957747E-01  0.3439850E+00
         13   -1    0    0    0    0  0.00000000000E+00  0.00000000000E+00  0.14999999963E+04  0.15000000000E+04  0.10566000000E+00 0. -1.
        994   -1    0    0    0    0 -0.00000000000E+00 -0.00000000000E+00  0.11368683772E-12  0.17120000000E+03  0.17120000000E+03 0.  0.
         13    1    1    2    0    0 -0.77226351958E+01 -0.39291828452E+02  0.23670921687E+03  0.24007238782E+03  0.10566000000E+00 0. -1.
        994    1    1    2    0    0  0.12616725836E+02  0.40659007856E+02  0.88487521163E+01  0.17663543559E+03  0.17120000000E+03 0.  0.
        998    1    1    2    0    0 -0.48940906398E+01 -0.13671794032E+01  0.12544420273E+04  0.12544921766E+04  0.10000000000E+02 0. -1.
</event>
<event>
 5    1  0.9123258E-009  0.3785709E+03  0.7957747E-01  0.3457405E+00
         13   -1    0    0    0    0  0.00000000000E+00  0.00000000000E+00  0.14999999963E+04  0.15000000000E+04  0.10566000000E+00 0. -1.
        994   -1    0    0    0    0 -0.00000000000E+00 -0.00000000000E+00  0.11368683772E-12  0.17120000000E+03  0.17120000000E+03 0.  0.
         13    1    1    2    0    0 -0.18727664417E+02 -0.51334253962E+01  0.37330216090E+02  0.42078898134E+02  0.10566000000E+00 0. -1.
        994    1    1    2    0    0  0.95410248808E+01  0.62252070838E+00  0.51634260987E+01  0.17154451217E+03  0.17120000000E+03 0.  0.
        998    1    1    2    0    0  0.91866395358E+01  0.45109046878E+01  0.14575063541E+04  0.14575765897E+04  0.10000000000E+02 0. -1.
</event>
<event>
 5    1  0.9123258E-009  0.3743024E+03  0.7957747E-01  0.3476349E+00
         13   -1    0    0    0    0  0.00000000000E+00  0.00000000000E+00  0.14999999963E+04  0.15000000000E+04  0.10566000000E+00 0.  1.
        994   -1    0    0    0    0 -0.00000000000E+00 -0.00000000000E+00  0.11368683772E-12  0.17120000000E+03  0.17120000000E+03 0.  0.
         13    1    1    2    0    0  0.98522614726E+01 -0.36129476756E+02  0.46070712882E+02  0.59371103209E+02  0.10566000000E+00 0.  1.
        994    1    1    2    0    0 -0.17871466582E+02  0.37752881193E+02  0.19450514559E+02  0.17729193967E+03  0.17120000000E+03 0.  0.
        998    1    1    2    0    0  0.80192051096E+01 -0.16234044375E+01  0.14344787688E+04  0.14345369571E+04  0.10000000000E+02 0.  1.
</event>
<event>
 5    1  0.9123258E-009  0.3813964E+03  0.7957747E-01  0.3445101E+00
         13   -1    0    0    0    0  0.00000000000E+00  0.00000000000E+00  0.14999999963E+04  0.15000000000E+04  0.10566000000E+00 0.  1.
        994   -1    0    0    0    0 -0.00000000000E+00 -0.00000000000E+00  0.11368683772E-12  0.17120000000E+03  0.17120000000E+03 0.  0.
         13    1    1    2    0    0 -0.20339825716E+02 -0.27058415683E+02  0.14838370132E+03  0.15219592751E+03  0.10566000000E+00 0.  1.
        994    1    1    2    0    0  0.17044931023E+02  0.32966915824E+02  0.80267109834E+01  0.17536024436E+03  0.17120000000E+03 0.  0.
        998    1    1    2    0    0  0.32948946923E+01 -0.59085001400E+01  0.13435895840E+04  0.13436438281E+04  0.10000000000E+02 0.  1.
</event>
<event>
 5    1  0.9123258E-009  0.3860357E+03  0.7957747E-01  0.3425292E+00
         13   -1    0    0    0    0  0.00000000000E+00  0.00000000000E+00  0.14999999963E+04  0.15000000000E+04  0.10566000000E+00 0.  1.
        994   -1    0    0    0    0 -0.00000000000E+00 -0.00000000000E+00  0.11368683772E-12  0.17120000000E+03  0.17120000000E+03 0.  0.
         13    1    1    2    0    0 -0.82892266473E+01  0.87135993991E+01  0.66216203590E+02  0.67299590450E+02  0.10566000000E+00 0.  1.
        994    1    1    2    0    0  0.10505686017E+02  0.61068590244E+00  0.14798645916E+01  0.17152950876E+03  0.17120000000E+03 0.  0.
        998    1    1    2    0    0 -0.22164593697E+01 -0.93242853016E+01  0.14323039281E+04  0.14323709008E+04  0.10000000000E+02 0.  1.
</event>
<event>
 5    1  0.9123258E-009  0.3746212E+03  0.7957747E-01  0.3474918E+00
         13   -1    0    0    0    0  0.00000000000E+00  0.00000000000E+00  0.14999999963E+04  0.15000000000E+04  0.10566000000E+00 0. -1.
        994   -1    0    0    0    0 -0.00000000000E+00 -0.00000000000E+00  0.11368683772E-12  0.17120000000E+03  0.17120000000E+03 0.  0.
         13    1    1    2    0    0  0.30678361903E+02  0.23214608537E+02  0.13645853343E+03  0.14177807464E+03  0.10566000000E+00 0. -1.
        994    1    1    2    0    0  0.13819744740E+02  0.29091567128E+02  0.10412006133E+02  0.17451405243E+03  0.17120000000E+03 0.  0.
        998    1    1    2    0    0 -0.44498106643E+02 -0.52306175665E+02  0.13531294567E+04  0.13549078729E+04  0.10000000000E+02 0. -1.
</event>
<event>
 5    1  0.9123258E-009  0.3767222E+03  0.7957747E-01  0.3465556E+00
         13   -1    0    0    0    0  0.00000000000E+00  0.00000000000E+00  0.14999999963E+04  0.15000000000E+04  0.10566000000E+00 0.  1.
        994   -1    0    0    0    0 -0.00000000000E+00 -0.00000000000E+00  0.11368683772E-12  0.17120000000E+03  0.17120000000E+03 0.  0.
         13    1    1    2    0    0  0.40512980483E+02  0.29148423303E+02  0.18464694961E+03  0.19127320600E+03  0.10566000000E+00 0.  1.
        994    1    1    2    0    0 -0.45249466594E+02 -0.27439051236E+02  0.15320430095E+02  0.17984596559E+03  0.17120000000E+03 0.  0.
        998    1    1    2    0    0  0.47364861115E+01 -0.17093720667E+01  0.13000326166E+04  0.13000808284E+04  0.10000000000E+02 0.  1.
</event>
<event>
 5    1  0.9123258E-009  0.3687754E+03  0.7957747E-01  0.3501538E+00
         13   -1    0    0    0    0  0.00000000000E+00  0.00000000000E+00  0.14999999963E+04  0.15000000000E+04  0.10566000000E+00 0.  1.
        994   -1    0    0    0    0 -0.00000000000E+00 -0.00000000000E+00  0.11368683772E-12  0.17120000000E+03  0.17120000000E+03 0.  0.
         13    1    1    2    0    0  0.26926134870E+03 -0.60226937668E+02  0.10458637827E+04  0.10816469022E+04  0.10566000000E+00 0.  1.
        994    1    1    2    0    0 -0.26778510020E+03  0.27830795359E+02  0.32264815831E+03  0.45375619788E+03  0.17120000000E+03 0.  0.
        998    1    1    2    0    0 -0.14762485068E+01  0.32396142309E+02  0.13148805525E+03  0.13579689989E+03  0.10000000000E+02 0.  1.
</event>
<event>
 5    1  0.9123258E-009  0.3685828E+03  0.7957747E-01  0.3502429E+00
         13   -1    0    0    0    0  0.00000000000E+00  0.00000000000E+00  0.14999999963E+04  0.15000000000E+04  0.10566000000E+00 0. -1.
        994   -1    0    0    0    0 -0.00000000000E+00 -0.00000000000E+00  0.11368683772E-12  0.17120000000E+03  0.17120000000E+03 0.  0.
         13    1    1    2    0    0  0.39096433963E+02 -0.44898482497E+02  0.17137948753E+03  0.18142586583E+03  0.10566000000E+00 0. -1.
        994    1    1    2    0    0 -0.30535002600E+02  0.24622294555E+02  0.15376931621E+02  0.17630806504E+03  0.17120000000E+03 0.  0.
        998    1    1    2    0    0 -0.85614313623E+01  0.20276187943E+02  0.13132435771E+04  0.13134660691E+04  0.10000000000E+02 0. -1.
</event>
<event>
 5    1  0.9123258E-009  0.3815786E+03  0.7957747E-01  0.3444314E+00
         13   -1    0    0    0    0  0.00000000000E+00  0.00000000000E+00  0.14999999963E+04  0.15000000000E+04  0.10566000000E+00 0. -1.
        994   -1    0    0    0    0 -0.00000000000E+00 -0.00000000000E+00  0.11368683772E-12  0.17120000000E+03  0.17120000000E+03 0.  0.
         13    1    1    2    0    0  0.69064641763E+01  0.10056624838E+02  0.21259371698E+02  0.24511364702E+02  0.10566000000E+00 0. -1.
        994    1    1    2    0    0  0.53073030858E+01 -0.80910085134E+01  0.36498365505E+01  0.17151207885E+03  0.17120000000E+03 0.  0.
        998    1    1    2    0    0 -0.12213767262E+02 -0.19656163251E+01  0.14750907880E+04  0.14751765564E+04  0.10000000000E+02 0. -1.
</event>
<event>
 5    1  0.9123258E-009  0.3807320E+03  0.7957747E-01  0.3447977E+00
         13   -1    0    0    0    0  0.00000000000E+00  0.00000000000E+00  0.14999999963E+04  0.15000000000E+04  0.10566000000E+00 0. -1.
        994   -1    0    0    0    0 -0.00000000000E+00 -0.00000000000E+00  0.11368683772E-12  0.17120000000E+03  0.17120000000E+03 0.  0.
         13    1    1    2    0    0  0.61479410095E+01 -0.14227059593E+02  0.30346845346E+02  0.34075630439E+02  0.10566000000E+00 0. -1.
        994    1    1    2    0    0 -0.96651769275E+01  0.83942914262E+01  0.43107988110E+01  0.17173206678E+03  0.17120000000E+03 0.  0.
        998    1    1    2    0    0  0.35172359181E+01  0.58327681672E+01  0.14653423521E+04  0.14653923028E+04  0.10000000000E+02 0. -1.
</event>
<event>
 5    1  0.9123258E-009  0.3720848E+03  0.7957747E-01  0.3486364E+00
         13   -1    0    0    0    0  0.00000000000E+00  0.00000000000E+00  0.14999999963E+04  0.15000000000E+04  0.10566000000E+00 0.  1.
        994   -1    0    0    0    0 -0.00000000000E+00 -0.00000000000E+00  0.11368683772E-12  0.17120000000E+03  0.17120000000E+03 0.  0.
         13    1    1    2    0    0 -0.53768255636E+01 -0.14489018790E+02  0.47758501384E+01  0.16175964491E+02  0.10566000000E+00 0.  1.
        994    1    1    2    0    0 -0.12698006414E+02 -0.68303135025E+01  0.12777903302E+02  0.17228060646E+03  0.17120000000E+03 0.  0.
        998    1    1    2    0    0  0.18074831978E+02  0.21319332293E+02  0.14824462428E+04  0.14827434290E+04  0.10000000000E+02 0.  1.
</event>
<event>
 5    1  0.9123258E-009  0.3811723E+03  0.7957747E-01  0.3446070E+00
         13   -1    0    0    0    0  0.00000000000E+00  0.00000000000E+00  0.14999999963E+04  0.15000000000E+04  0.10566000000E+00 0. -1.
        994   -1    0    0    0    0 -0.00000000000E+00 -0.00000000000E+00  0.11368683772E-12  0.17120000000E+03  0.17120000000E+03 0.  0.
         13    1    1    2    0    0  0.88261649215E+01  0.13375364479E+02  0.34851391084E+02  0.38359251645E+02  0.10566000000E+00 0. -1.
        994    1    1    2    0    0 -0.29551426361E+01 -0.11618807888E+02  0.40212908685E+01  0.17166636346E+03  0.17120000000E+03 0.  0.
        998    1    1    2    0    0 -0.58710222854E+01 -0.17565565916E+01  0.14611273143E+04  0.14611743849E+04  0.10000000000E+02 0. -1.
</event>
<event>
 5    1  0.9123258E-009  0.3788455E+03  0.7957747E-01  0.3456201E+00
         13   -1    0    0    0    0  0.00000000000E+00  0.00000000000E+00  0.14999999963E+04  0.15000000000E+04  0.10566000000E+00 0. -1.
        994   -1    0    0    0    0 -0.00000000000E+00 -0.00000000000E+00  0.11368683772E-12  0.17120000000E+03  0.17120000000E+03 0.  0.
         13    1    1    2    0    0  0.34549279390E+01  0.30292023661E+02  0.10702002502E+03  0.11127821056E+03  0.10566000000E+00 0. -1.
        994    1    1    2    0    0  0.33499498117E+01  0.66976901114E+00  0.47562170250E+01  0.17130012363E+03  0.17120000000E+03 0.  0.
        998    1    1    2    0    0 -0.68048777507E+01 -0.30961792672E+02  0.13882237542E+04  0.13886216658E+04  0.10000000000E+02 0. -1.
</event>
<event>
 5    1  0.9123258E-009  0.3781323E+03  0.7957747E-01  0.3459331E+00
         13   -1    0    0    0    0  0.00000000000E+00  0.00000000000E+00  0.14999999963E+04  0.15000000000E+04  0.10566000000E+00 0.  1.
        994   -1    0    0    0    0 -0.00000000000E+00 -0.00000000000E+00  0.11368683772E-12  0.17120000000E+03  0.17120000000E+03 0.  0.
         13    1    1    2    0    0 -0.21841271952E+02  0.51014539778E+02  0.24393131463E+03  0.25016398992E+03  0.10566000000E+00 0.  1.
        994    1    1    2    0    0  0.25267556368E+02 -0.55225003816E+02  0.17586972036E+02  0.18250203297E+03  0.17120000000E+03 0.  0.
        998    1    1    2    0    0 -0.34262844158E+01  0.42104640373E+01  0.12384817096E+04  0.12385339771E+04  0.10000000000E+02 0.  0.
</event>
<event>
 5    1  0.9123258E-009  0.3713449E+03  0.7957747E-01  0.3489733E+00
         13   -1    0    0    0    0  0.00000000000E+00  0.00000000000E+00  0.14999999963E+04  0.15000000000E+04  0.10566000000E+00 0.  1.
        994   -1    0    0    0    0 -0.00000000000E+00 -0.00000000000E+00  0.11368683772E-12  0.17120000000E+03  0.17120000000E+03 0.  0.
         13    1    1    2    0    0  0.98005641646E+01  0.46590726152E+02  0.12044718141E+03  0.12951556468E+03  0.10566000000E+00 0.  1.
        994    1    1    2    0    0 -0.12817137248E+02 -0.44398429168E+02  0.15953554333E+02  0.17804340880E+03  0.17120000000E+03 0.  0.
        998    1    1    2    0    0  0.30165730832E+01 -0.21922969841E+01  0.13635992605E+04  0.13636410265E+04  0.10000000000E+02 0.  1.
</event>
<event>
 5    1  0.9123258E-009  0.3837829E+03  0.7957747E-01  0.3434850E+00
         13   -1    0    0    0    0  0.00000000000E+00  0.00000000000E+00  0.14999999963E+04  0.15000000000E+04  0.10566000000E+00 0.  1.
        994   -1    0    0    0    0 -0.00000000000E+00 -0.00000000000E+00  0.11368683772E-12  0.17120000000E+03  0.17120000000E+03 0.  0.
         13    1    1    2    0    0  0.76845486454E+01  0.20158158916E+02  0.92922430696E+02  0.95393883186E+02  0.10566000000E+00 0.  1.
        994    1    1    2    0    0 -0.70087645034E+01 -0.29936702767E+02  0.53630282562E+01  0.17402163953E+03  0.17120000000E+03 0.  0.
        998    1    1    2    0    0 -0.67578414192E+00  0.97785438507E+01  0.14017145373E+04  0.14017844773E+04  0.10000000000E+02 0.  1.
</event>
<event>
 5    1  0.9123258E-009  0.3846102E+03  0.7957747E-01  0.3431327E+00
         13   -1    0    0    0    0  0.00000000000E+00  0.00000000000E+00  0.14999999963E+04  0.15000000000E+04  0.10566000000E+00 0.  1.
        994   -1    0    0    0    0 -0.00000000000E+00 -0.00000000000E+00  0.11368683772E-12  0.17120000000E+03  0.17120000000E+03 0.  0.
         13    1    1    2    0    0  0.14625779119E+02  0.12748923591E+02  0.10434505862E+03  0.10613364636E+03  0.10566000000E+00 0.  1.
        994    1    1    2    0    0 -0.13980215398E+02 -0.31684697306E+00  0.24679740251E+01  0.17178788581E+03  0.17120000000E+03 0.  0.
        998    1    1    2    0    0 -0.64556372084E+00 -0.12432076618E+02  0.13931869636E+04  0.13932784678E+04  0.10000000000E+02 0.  1.
</event>
<event>
 5    1  0.9123258E-009  0.3693737E+03  0.7957747E-01  0.3498774E+00
         13   -1    0    0    0    0  0.00000000000E+00  0.00000000000E+00  0.14999999963E+04  0.15000000000E+04  0.10566000000E+00 0.  1.
        994   -1    0    0    0    0 -0.00000000000E+00 -0.00000000000E+00  0.11368683772E-12  0.17120000000E+03  0.17120000000E+03 0.  0.
         13    1    1    2    0    0  0.44349970127E+01 -0.28167961549E+02  0.36935347111E+02  0.46661914734E+02  0.10566000000E+00 0.  1.
        994    1    1    2    0    0 -0.67957809705E+01  0.34926335116E+02  0.13996459658E+02  0.17541770836E+03  0.17120000000E+03 0.  0.
        998    1    1    2    0    0  0.23607839578E+01 -0.67583735670E+01  0.14490681895E+04  0.14491203769E+04  0.10000000000E+02 0.  1.
</event>
<event>
 5    1  0.9123258E-009  0.3807118E+03  0.7957747E-01  0.3448065E+00
         13   -1    0    0    0    0  0.00000000000E+00  0.00000000000E+00  0.14999999963E+04  0.15000000000E+04  0.10566000000E+00 0.  1.
        994   -1    0    0    0    0 -0.00000000000E+00 -0.00000000000E+00  0.11368683772E-12  0.17120000000E+03  0.17120000000E+03 0.  0.
         13    1    1    2    0    0 -0.38531072550E+02 -0.10721585497E+02  0.21436302965E+03  0.21806218286E+03  0.10566000000E+00 0.  1.
        994    1    1    2    0    0  0.23346498736E+02 -0.53196576317E+01  0.56887790745E+01  0.17295999528E+03  0.17120000000E+03 0.  0.
        998    1    1    2    0    0  0.15184573814E+02  0.16041243129E+02  0.12799481876E+04  0.12801778219E+04  0.10000000000E+02 0.  1.
</event>
<event>
 5    1  0.9123258E-009  0.3770452E+03  0.7957747E-01  0.3464126E+00
         13   -1    0    0    0    0  0.00000000000E+00  0.00000000000E+00  0.14999999963E+04  0.15000000000E+04  0.10566000000E+00 0. -1.
        994   -1    0    0    0    0 -0.00000000000E+00 -0.00000000000E+00  0.11368683772E-12  0.17120000000E+03  0.17120000000E+03 0.  0.
         13    1    1    2    0    0 -0.11073560163E+03 -0.75921275902E+02  0.77690925384E+03  0.78842527450E+03  0.10566000000E+00 0. -1.
        994    1    1    2    0    0  0.98500384249E+02  0.87818413195E+02  0.66881558948E+02  0.22626750169E+03  0.17120000000E+03 0.  0.
        998    1    1    2    0    0  0.12235217379E+02 -0.11897137293E+02  0.65620918349E+03  0.65650722381E+03  0.10000000000E+02 0.  0.
</event>
<event>
 5    1  0.9123258E-009  0.3821768E+03  0.7957747E-01  0.3441735E+00
         13   -1    0    0    0    0  0.00000000000E+00  0.00000000000E+00  0.14999999963E+04  0.15000000000E+04  0.10566000000E+00 0. -1.
        994   -1    0    0    0    0 -0.00000000000E+00 -0.00000000000E+00  0.11368683772E-12  0.17120000000E+03  0.17120000000E+03 0.  0.
         13    1    1    2    0    0  0.35813034052E+02  0.92074538687E+01  0.18828324249E+03  0.19188001767E+03  0.10566000000E+00 0. -1.
        994    1    1    2    0    0 -0.38912821281E+02 -0.23538011922E+02  0.99335282405E+01  0.17741578467E+03  0.17120000000E+03 0.  0.
        998    1    1    2    0    0  0.30997872294E+01  0.14330558054E+02  0.13017832255E+04  0.13019041977E+04  0.10000000000E+02 0. -1.
</event>
<event>
 5    1  0.9123258E-009  0.3853323E+03  0.7957747E-01  0.3428264E+00
         13   -1    0    0    0    0  0.00000000000E+00  0.00000000000E+00  0.14999999963E+04  0.15000000000E+04  0.10566000000E+00 0. -1.
        994   -1    0    0    0    0 -0.00000000000E+00 -0.00000000000E+00  0.11368683772E-12  0.17120000000E+03  0.17120000000E+03 0.  0.
         13    1    1    2    0    0 -0.12795412193E+02  0.15594988318E+01  0.53369613018E+02  0.54904292797E+02  0.10566000000E+00 0. -1.
        994    1    1    2    0    0  0.19509429005E+02  0.12948037516E+01  0.27221310649E+01  0.17233439684E+03  0.17120000000E+03 0.  0.
        998    1    1    2    0    0 -0.67140168123E+01 -0.28543025834E+01  0.14439082522E+04  0.14439613104E+04  0.10000000000E+02 0. -1.
</event>
<event>
 5    1  0.9123258E-009  0.3803180E+03  0.7957747E-01  0.3449775E+00
         13   -1    0    0    0    0  0.00000000000E+00  0.00000000000E+00  0.14999999963E+04  0.15000000000E+04  0.10566000000E+00 0. -1.
        994   -1    0    0    0    0 -0.00000000000E+00 -0.00000000000E+00  0.11368683772E-12  0.17120000000E+03  0.17120000000E+03 0.  0.
         13    1    1    2    0    0 -0.47147005428E+02 -0.16374442465E+02  0.26767925946E+03  0.27229241561E+03  0.10566000000E+00 0. -1.
        994    1    1    2    0    0  0.31714865456E+02  0.63431941146E+02  0.20954860655E+02  0.18648857883E+03  0.17120000000E+03 0.  0.
        998    1    1    2    0    0  0.15432139971E+02 -0.47057498681E+02  0.12113658762E+04  0.12124190056E+04  0.10000000000E+02 0.  1.
</event>
<event>
 5    1  0.9123258E-009  0.3947183E+03  0.7957747E-01  0.3389473E+00
         13   -1    0    0    0    0  0.00000000000E+00  0.00000000000E+00  0.14999999963E+04  0.15000000000E+04  0.10566000000E+00 0. -1.
        994   -1    0    0    0    0 -0.00000000000E+00 -0.00000000000E+00  0.11368683772E-12  0.17120000000E+03  0.17120000000E+03 0.  0.
         13    1    1    2    0    0 -0.23899018724E+02  0.51258901598E+02  0.57898015012E+02  0.80937194141E+02  0.10566000000E+00 0. -1.
        994    1    1    2    0    0  0.40812315072E+02 -0.15077568966E+02  0.31948020478E+02  0.17950792228E+03  0.17120000000E+03 0.  0.
        998    1    1    2    0    0 -0.16913296348E+02 -0.36181332632E+02  0.14101539608E+04  0.14107548836E+04  0.10000000000E+02 0. -1.
</event>
<event>
 5    1  0.9123258E-009  0.3780986E+03  0.7957747E-01  0.3459480E+00
         13   -1    0    0    0    0  0.00000000000E+00  0.00000000000E+00  0.14999999963E+04  0.15000000000E+04  0.10566000000E+00 0. -1.
        994   -1    0    0    0    0 -0.00000000000E+00 -0.00000000000E+00  0.11368683772E-12  0.17120000000E+03  0.17120000000E+03 0.  0.
         13    1    1    2    0    0 -0.46678125811E+02 -0.16497572362E+02  0.21307730105E+03  0.21875320503E+03  0.10566000000E+00 0. -1.
        994    1    1    2    0    0  0.41611509931E+02  0.17495892545E+02  0.11981545452E+02  0.17745597044E+03  0.17120000000E+03 0.  0.
        998    1    1    2    0    0  0.50666158798E+01 -0.99832018360E+00  0.12749411498E+04  0.12749908245E+04  0.10000000000E+02 0. -1.
</event>
<event>
 5    1  0.9123258E-009  0.4497759E+03  0.7957747E-01  0.3194198E+00
         13   -1    0    0    0    0  0.00000000000E+00  0.00000000000E+00  0.14999999963E+04  0.15000000000E+04  0.10566000000E+00 0. -1.
        994   -1    0    0    0    0 -0.00000000000E+00 -0.00000000000E+00  0.11368683772E-12  0.17120000000E+03  0.17120000000E+03 0.  0.
         13    1    1    2    0    0  0.65987649883E+02 -0.49860336513E+02  0.35400320767E+02  0.89964531726E+02  0.10566000000E+00 0. -1.
        994    1    1    2    0    0 -0.78758355530E+02  0.32624573907E+02  0.98859492623E+02  0.21529022428E+03  0.17120000000E+03 0.  0.
        998    1    1    2    0    0  0.12770705647E+02  0.17235762606E+02  0.13657401829E+04  0.13659452440E+04  0.10000000000E+02 0. -1.
</event>
<event>
 5    1  0.9123258E-009  0.3846053E+03  0.7957747E-01  0.3431348E+00
         13   -1    0    0    0    0  0.00000000000E+00  0.00000000000E+00  0.14999999963E+04  0.15000000000E+04  0.10566000000E+00 0. -1.
        994   -1    0    0    0    0 -0.00000000000E+00 -0.00000000000E+00  0.11368683772E-12  0.17120000000E+03  0.17120000000E+03 0.  0.
         13    1    1    2    0    0  0.28101764463E+01  0.11520833263E+02  0.42194501559E+02  0.43829371620E+02  0.10566000000E+00 0. -1.
        994    1    1    2    0    0  0.32953292294E+00  0.12309529056E+02  0.23257106974E+01  0.17165803805E+03  0.17120000000E+03 0.  0.
        998    1    1    2    0    0 -0.31397093693E+01 -0.23830362320E+02  0.14554797840E+04  0.14557125903E+04  0.10000000000E+02 0. -1.
</event>
<event>
 5    1  0.9123258E-009  0.3690139E+03  0.7957747E-01  0.3500435E+00
         13   -1    0    0    0    0  0.00000000000E+00  0.00000000000E+00  0.14999999963E+04  0.15000000000E+04  0.10566000000E+00 0.  1.
        994   -1    0    0    0    0 -0.00000000000E+00 -0.00000000000E+00  0.11368683772E-12  0.17120000000E+03  0.17120000000E+03 0.  0.
         13    1    1    2    0    0 -0.22889817708E+01  0.21713659493E+02  0.18058000741E+02  0.28334166670E+02  0.10566000000E+00 0.  1.
        994    1    1    2    0    0  0.46415033486E+01 -0.23914970913E+02  0.12488679209E+02  0.17337495925E+03  0.17120000000E+03 0.  0.
        998    1    1    2    0    0 -0.23525215778E+01  0.22013114203E+01  0.14694533163E+04  0.14694908741E+04  0.10000000000E+02 0.  1.
</event>
<event>
 5    1  0.9123258E-009  0.3849754E+03  0.7957747E-01  0.3429777E+00
         13   -1    0    0    0    0  0.00000000000E+00  0.00000000000E+00  0.14999999963E+04  0.15000000000E+04  0.10566000000E+00 0. -1.
        994   -1    0    0    0    0 -0.00000000000E+00 -0.00000000000E+00  0.11368683772E-12  0.17120000000E+03  0.17120000000E+03 0.  0.
         13    1    1    2    0    0  0.11135459274E+02  0.10719553516E+02  0.82254979395E+02  0.83694683703E+02  0.10566000000E+00 0. -1.
        994    1    1    2    0    0  0.97910611491E+01 -0.45661553583E+00  0.19583930213E+01  0.17149154113E+03  0.17120000000E+03 0.  0.
        998    1    1    2    0    0 -0.20926520424E+02 -0.10262937980E+02  0.14157866239E+04  0.14160137752E+04  0.10000000000E+02 0. -1.
</event>
<event>
 5    1  0.9123258E-009  0.3734749E+03  0.7957747E-01  0.3480072E+00
         13   -1    0    0    0    0  0.00000000000E+00  0.00000000000E+00  0.14999999963E+04  0.15000000000E+04  0.10566000000E+00 0. -1.
        994   -1    0    0    0    0 -0.00000000000E+00 -0.00000000000E+00  0.11368683772E-12  0.17120000000E+03  0.17120000000E+03 0.  0.
         13    1    1    2    0    0  0.17885582075E+02  0.33382257836E+02  0.91002327279E+02  0.98568270344E+02  0.10566000000E+00 0. -1.
        994    1    1    2    0    0 -0.22053451150E+02 -0.22528896907E+02  0.10867491227E+02  0.17441745403E+03  0.17120000000E+03 0.  0.
        998    1    1    2    0    0  0.41678690750E+01 -0.10853360929E+02  0.13981301778E+04  0.13982142756E+04  0.10000000000E+02 0. -1.
</event>
<event>
 5    1  0.9123258E-009  0.4092568E+03  0.7957747E-01  0.3332890E+00
         13   -1    0    0    0    0  0.00000000000E+00  0.00000000000E+00  0.14999999963E+04  0.15000000000E+04  0.10566000000E+00 0.  1.
        994   -1    0    0    0    0 -0.00000000000E+00 -0.00000000000E+00  0.11368683772E-12  0.17120000000E+03  0.17120000000E+03 0.  0.
         13    1    1    2    0    0 -0.45925657312E+02 -0.43310049128E+02  0.45365251472E+02  0.77736372183E+02  0.10566000000E+00 0.  1.
        994    1    1    2    0    0  0.40195752705E+02  0.62707592487E+02  0.56382213768E+02  0.19502906122E+03  0.17120000000E+03 0.  0.
        998    1    1    2    0    0  0.57299046070E+01 -0.19397543359E+02  0.13982525310E+04  0.13984345666E+04  0.10000000000E+02 0.  1.
</event>
<event>
 5    1  0.9123258E-009  0.3803371E+03  0.7957747E-01  0.3449692E+00
         13   -1    0    0    0    0  0.00000000000E+00  0.00000000000E+00  0.14999999963E+04  0.15000000000E+04  0.10566000000E+00 0.  1.
        994   -1    0    0    0    0 -0.00000000000E+00 -0.00000000000E+00  0.11368683772E-12  0.17120000000E+03  0.17120000000E+03 0.  0.
         13    1    1    2    0    0 -0.25484160847E+01  0.36259076365E+02  0.32382547006E+02  0.48681162250E+02  0.10566000000E+00 0.  1.
        994    1    1    2    0    0  0.91572477342E+00 -0.40854616630E+02  0.22595475070E+02  0.17745403277E+03  0.17120000000E+03 0.  0.
        998    1    1    2    0    0  0.16326913113E+01  0.45955402645E+01  0.14450219742E+04  0.14450648050E+04  0.10000000000E+02 0.  1.
</event>
<event>
 5    1  0.9123258E-009  0.3812249E+03  0.7957747E-01  0.3445842E+00
         13   -1    0    0    0    0  0.00000000000E+00  0.00000000000E+00  0.14999999963E+04  0.15000000000E+04  0.10566000000E+00 0. -1.
        994   -1    0    0    0    0 -0.00000000000E+00 -0.00000000000E+00  0.11368683772E-12  0.17120000000E+03  0.17120000000E+03 0.  0.
         13    1    1    2    0    0  0.18132663000E+02  0.79979411600E+01  0.53463110057E+02  0.57018206139E+02  0.10566000000E+00 0. -1.
        994    1    1    2    0    0 -0.15471668134E+02 -0.95888008586E+01  0.46199917660E+01  0.17222689088E+03  0.17120000000E+03 0.  0.
        998    1    1    2    0    0 -0.26609948661E+01  0.15908596986E+01  0.14419168945E+04  0.14419549030E+04  0.10000000000E+02 0. -1.
</event>
<event>
 5    1  0.9728183E-009  0.3849191E+03  0.7957747E-01  0.3430016E+00
         13   -1    0    0    0    0  0.00000000000E+00  0.00000000000E+00  0.14999999963E+04  0.15000000000E+04  0.10566000000E+00 0.  1.
        994   -1    0    0    0    0 -0.00000000000E+00 -0.00000000000E+00  0.11368683772E-12  0.17120000000E+03  0.17120000000E+03 0.  0.
         13    1    1    2    0    0  0.94057161944E+01 -0.92396771812E+01  0.51427867952E+02  0.53091203581E+02  0.10566000000E+00 0.  1.
        994    1    1    2    0    0 -0.16127665010E+02 -0.10682348052E+01  0.25301646949E+01  0.17197989545E+03  0.17120000000E+03 0.  0.
        998    1    1    2    0    0  0.67219488157E+01  0.10307911986E+02  0.14460419636E+04  0.14461289010E+04  0.10000000000E+02 0.  1.
</event>
<event>
 5    1  0.9123258E-009  0.3803470E+03  0.7957747E-01  0.3449649E+00
         13   -1    0    0    0    0  0.00000000000E+00  0.00000000000E+00  0.14999999963E+04  0.15000000000E+04  0.10566000000E+00 0. -1.
        994   -1    0    0    0    0 -0.00000000000E+00 -0.00000000000E+00  0.11368683772E-12  0.17120000000E+03  0.17120000000E+03 0.  0.
         13    1    1    2    0    0  0.88994283204E+01 -0.39191582355E+02  0.17839566924E+03  0.18286663424E+03  0.10566000000E+00 0. -1.
        994    1    1    2    0    0 -0.22539170005E+02  0.37915498501E+02  0.10482081570E+02  0.17710142079E+03  0.17120000000E+03 0.  0.
        998    1    1    2    0    0  0.13639741685E+02  0.12760838545E+01  0.13111222455E+04  0.13112319450E+04  0.10000000000E+02 0. -1.
</event>
<event>
 5    1  0.9123258E-009  0.3792856E+03  0.7957747E-01  0.3454275E+00
         13   -1    0    0    0    0  0.00000000000E+00  0.00000000000E+00  0.14999999963E+04  0.15000000000E+04  0.10566000000E+00 0. -1.
        994   -1    0    0    0    0 -0.00000000000E+00 -0.00000000000E+00  0.11368683772E-12  0.17120000000E+03  0.17120000000E+03 0.  0.
         13    1    1    2    0    0  0.21691131157E+02  0.14541679520E+02  0.84336103537E+02  0.88286777821E+02  0.10566000000E+00 0. -1.
        994    1    1    2    0    0 -0.57848615573E+01  0.27823222481E+02  0.72050363087E+01  0.17369210944E+03  0.17120000000E+03 0.  0.
        998    1    1    2    0    0 -0.15906269600E+02 -0.42364902001E+02  0.14084588564E+04  0.14092211127E+04  0.10000000000E+02 0. -1.
</event>
<event>
 5    1  0.9123258E-009  0.2992718E+03  0.7957747E-01  0.3901231E+00
         13   -1    0    0    0    0  0.00000000000E+00  0.00000000000E+00  0.14999999963E+04  0.15000000000E+04  0.10566000000E+00 0. -1.
        994   -1    0    0    0    0 -0.00000000000E+00 -0.00000000000E+00  0.11368683772E-12  0.17120000000E+03  0.17120000000E+03 0.  0.
         13    1    1    2    0    0 -0.11498788250E+03  0.16096068241E+03  0.84304378951E+03  0.86594075813E+03  0.10566000000E+00 0. -1.
        994    1    1    2    0    0  0.39100325061E+02 -0.64233864135E+02  0.61020929213E+02  0.19669219233E+03  0.17120000000E+03 0.  0.
        998    1    1    2    0    0  0.75887557435E+02 -0.96726818271E+02  0.59593527756E+03  0.60856704954E+03  0.10000000000E+02 0.  1.
</event>
<event>
 5    1  0.9123258E-009  0.3778522E+03  0.7957747E-01  0.3460564E+00
         13   -1    0    0    0    0  0.00000000000E+00  0.00000000000E+00  0.14999999963E+04  0.15000000000E+04  0.10566000000E+00 0.  1.
        994   -1    0    0    0    0 -0.00000000000E+00 -0.00000000000E+00  0.11368683772E-12  0.17120000000E+03  0.17120000000E+03 0.  0.
         13    1    1    2    0    0 -0.70885061058E+01 -0.47570896235E+02  0.23369261277E+03  0.23859062327E+03  0.10566000000E+00 0.  1.
        994    1    1    2    0    0  0.13967156245E+02  0.17518151175E+02  0.69131407698E+01  0.17279814406E+03  0.17120000000E+03 0.  0.
        998    1    1    2    0    0 -0.68786501391E+01  0.30052745060E+02  0.12593942427E+04  0.12598112327E+04  0.10000000000E+02 0.  1.
</event>
<event>
 5    1  0.9123258E-009  0.3837965E+03  0.7957747E-01  0.3434793E+00
         13   -1    0    0    0    0  0.00000000000E+00  0.00000000000E+00  0.14999999963E+04  0.15000000000E+04  0.10566000000E+00 0.  1.
        994   -1    0    0    0    0 -0.00000000000E+00 -0.00000000000E+00  0.11368683772E-12  0.17120000000E+03  0.17120000000E+03 0.  0.
         13    1    1    2    0    0 -0.16560153717E+02  0.23144599624E+01  0.62666173849E+02  0.64858738232E+02  0.10566000000E+00 0.  1.
        994    1    1    2    0    0  0.17186589769E+02  0.41567880710E+02  0.89375554449E+01  0.17723596551E+03  0.17120000000E+03 0.  0.
        998    1    1    2    0    0 -0.62643605221E+00 -0.43882340672E+02  0.14283962670E+04  0.14291052963E+04  0.10000000000E+02 0.  1.
</event>
<event>
 5    1  0.9123258E-009  0.3836172E+03  0.7957747E-01  0.3435558E+00
         13   -1    0    0    0    0  0.00000000000E+00  0.00000000000E+00  0.14999999963E+04  0.15000000000E+04  0.10566000000E+00 0.  1.
        994   -1    0    0    0    0 -0.00000000000E+00 -0.00000000000E+00  0.11368683772E-12  0.17120000000E+03  0.17120000000E+03 0.  0.
         13    1    1    2    0    0  0.18296716325E+02  0.20830376310E+02  0.14728459983E+03  0.14987140794E+03  0.10566000000E+00 0.  1.
        994    1    1    2    0    0 -0.11927105162E+02 -0.31046623988E+02  0.59809220143E+01  0.17450318085E+03  0.17120000000E+03 0.  0.
        998    1    1    2    0    0 -0.63696111632E+01  0.10216247679E+02  0.13467344744E+04  0.13468254112E+04  0.10000000000E+02 0.  1.
</event>
<event>
 5    1  0.9123258E-009  0.3791733E+03  0.7957747E-01  0.3454766E+00
         13   -1    0    0    0    0  0.00000000000E+00  0.00000000000E+00  0.14999999963E+04  0.15000000000E+04  0.10566000000E+00 0. -1.
        994   -1    0    0    0    0 -0.00000000000E+00 -0.00000000000E+00  0.11368683772E-12  0.17120000000E+03  0.17120000000E+03 0.  0.
         13    1    1    2    0    0  0.45165653074E+01 -0.20118274743E+02  0.43471883999E+02  0.48114033330E+02  0.10566000000E+00 0. -1.
        994    1    1    2    0    0 -0.83017656404E+01  0.22154373739E+02  0.64295616311E+01  0.17294656646E+03  0.17120000000E+03 0.  0.
        998    1    1    2    0    0  0.37852003330E+01 -0.20360989966E+01  0.14500985506E+04  0.14501394002E+04  0.10000000000E+02 0. -1.
</event>
<event>
 5    1  0.9123258E-009  0.3817593E+03  0.7957747E-01  0.3443534E+00
         13   -1    0    0    0    0  0.00000000000E+00  0.00000000000E+00  0.14999999963E+04  0.15000000000E+04  0.10566000000E+00 0. -1.
        994   -1    0    0    0    0 -0.00000000000E+00 -0.00000000000E+00  0.11368683772E-12  0.17120000000E+03  0.17120000000E+03 0.  0.
         13    1    1    2    0    0 -0.39788689105E+01  0.16154053567E+02  0.40535291819E+02  0.43816730724E+02  0.10566000000E+00 0. -1.
        994    1    1    2    0    0  0.50812211510E+01 -0.16302782177E+02  0.42174275123E+01  0.17210120921E+03  0.17120000000E+03 0.  0.
        998    1    1    2    0    0 -0.11023522405E+01  0.14872860967E+00  0.14552472769E+04  0.14552820601E+04  0.10000000000E+02 0. -1.
</event>
<event>
 5    1  0.9123258E-009  0.3746681E+03  0.7957747E-01  0.3474709E+00
         13   -1    0    0    0    0  0.00000000000E+00  0.00000000000E+00  0.14999999963E+04  0.15000000000E+04  0.10566000000E+00 0.  1.
        994   -1    0    0    0    0 -0.00000000000E+00 -0.00000000000E+00  0.11368683772E-12  0.17120000000E+03  0.17120000000E+03 0.  0.
         13    1    1    2    0    0  0.51729163252E+02  0.93315620929E+02  0.39201678542E+03  0.40627685469E+03  0.10566000000E+00 0.  1.
        994    1    1    2    0    0 -0.39476606963E+02 -0.61149913227E+02  0.32505756182E+02  0.18884855988E+03  0.17120000000E+03 0.  0.
        998    1    1    2    0    0 -0.12252556290E+02 -0.32165707703E+02  0.10754774547E+04  0.10760745854E+04  0.10000000000E+02 0.  1.
</event>
<event>
 5    1  0.9123258E-009  0.3734277E+03  0.7957747E-01  0.3480285E+00
         13   -1    0    0    0    0  0.00000000000E+00  0.00000000000E+00  0.14999999963E+04  0.15000000000E+04  0.10566000000E+00 0.  1.
        994   -1    0    0    0    0 -0.00000000000E+00 -0.00000000000E+00  0.11368683772E-12  0.17120000000E+03  0.17120000000E+03 0.  0.
         13    1    1    2    0    0  0.19755149175E+01 -0.35472714800E+02  0.79563045640E+02  0.87134984651E+02  0.10566000000E+00 0.  1.
        994    1    1    2    0    0 -0.31308912826E+02  0.27532393256E+02  0.13451981255E+02  0.17671637304E+03  0.17120000000E+03 0.  0.
        998    1    1    2    0    0  0.29333397909E+02  0.79403215434E+01  0.14069849694E+04  0.14073486423E+04  0.10000000000E+02 0.  1.
</event>
<event>
 5    1  0.9123258E-009  0.3784314E+03  0.7957747E-01  0.3458017E+00
         13   -1    0    0    0    0  0.00000000000E+00  0.00000000000E+00  0.14999999963E+04  0.15000000000E+04  0.10566000000E+00 0.  1.
        994   -1    0    0    0    0 -0.00000000000E+00 -0.00000000000E+00  0.11368683772E-12  0.17120000000E+03  0.17120000000E+03 0.  0.
         13    1    1    2    0    0  0.51387236126E+02  0.95838223502E+01  0.24865203890E+03  0.25408727890E+03  0.10566000000E+00 0.  1.
        994    1    1    2    0    0 -0.41934172475E+02 -0.12014127189E+02  0.11347950323E+02  0.17703397993E+03  0.17120000000E+03 0.  0.
        998    1    1    2    0    0 -0.94530636516E+01  0.24303048386E+01  0.12400000071E+04  0.12400787412E+04  0.10000000000E+02 0.  1.
</event>
<event>
 5    1  0.9123258E-009  0.3857774E+03  0.7957747E-01  0.3426382E+00
         13   -1    0    0    0    0  0.00000000000E+00  0.00000000000E+00  0.14999999963E+04  0.15000000000E+04  0.10566000000E+00 0.  1.
        994   -1    0    0    0    0 -0.00000000000E+00 -0.00000000000E+00  0.11368683772E-12  0.17120000000E+03  0.17120000000E+03 0.  0.
         13    1    1    2    0    0  0.94222932591E+01  0.12376667134E+02  0.91784965601E+02  0.93093783756E+02  0.10566000000E+00 0.  1.
        994    1    1    2    0    0 -0.99556465767E+01 -0.14730375755E+02  0.22822897568E+01  0.17213584088E+03  0.17120000000E+03 0.  0.
        998    1    1    2    0    0  0.53335331756E+00  0.23537086209E+01  0.14059327409E+04  0.14059703754E+04  0.10000000000E+02 0.  0.
</event>
<event>
 5    1  0.9123258E-009  0.3825086E+03  0.7957747E-01  0.3440308E+00
         13   -1    0    0    0    0  0.00000000000E+00  0.00000000000E+00  0.14999999963E+04  0.15000000000E+04  0.10566000000E+00 0. -1.
        994   -1    0    0    0    0 -0.00000000000E+00 -0.00000000000E+00  0.11368683772E-12  0.17120000000E+03  0.17120000000E+03 0.  0.
         13    1    1    2    0    0 -0.26766790362E+01  0.12855369156E+02  0.32468495103E+02  0.35023413099E+02  0.10566000000E+00 0. -1.
        994    1    1    2    0    0 -0.67365708126E+01  0.21271097748E+02  0.45244486098E+01  0.17270712672E+03  0.17120000000E+03 0.  0.
        998    1    1    2    0    0  0.94132498488E+01 -0.34126466904E+02  0.14630070526E+04  0.14634694602E+04  0.10000000000E+02 0. -1.
</event>
<event>
 5    1  0.9123258E-009  0.3846919E+03  0.7957747E-01  0.3430980E+00
         13   -1    0    0    0    0  0.00000000000E+00  0.00000000000E+00  0.14999999963E+04  0.15000000000E+04  0.10566000000E+00 0. -1.
        994   -1    0    0    0    0 -0.00000000000E+00 -0.00000000000E+00  0.11368683772E-12  0.17120000000E+03  0.17120000000E+03 0.  0.
         13    1    1    2    0    0  0.19262666767E+02  0.94089503609E+01  0.11118709528E+03  0.11323497692E+03  0.10566000000E+00 0. -1.
        994    1    1    2    0    0 -0.27679739177E+02 -0.16989448274E+02  0.52632593613E+01  0.17433287473E+03  0.17120000000E+03 0.  0.
        998    1    1    2    0    0  0.84170724103E+01  0.75804979126E+01  0.13835496416E+04  0.13836321483E+04  0.10000000000E+02 0. -1.
</event>
<event>
 5    1  0.9123258E-009  0.3796858E+03  0.7957747E-01  0.3452528E+00
         13   -1    0    0    0    0  0.00000000000E+00  0.00000000000E+00  0.14999999963E+04  0.15000000000E+04  0.10566000000E+00 0.  1.
        994   -1    0    0    0    0 -0.00000000000E+00 -0.00000000000E+00  0.11368683772E-12  0.17120000000E+03  0.17120000000E+03 0.  0.
         13    1    1    2    0    0  0.54984658483E+01  0.18787368168E+02  0.42212465865E+02  0.46530654066E+02  0.10566000000E+00 0.  1.
        994    1    1    2    0    0 -0.13170506095E+02 -0.15238605826E+02  0.56505377440E+01  0.17247331943E+03  0.17120000000E+03 0.  0.
        998    1    1    2    0    0  0.76720402467E+01 -0.35487623412E+01  0.14521369927E+04  0.14521960265E+04  0.10000000000E+02 0.  1.
</event>
<event>
 5    1  0.9123258E-009  0.3790343E+03  0.7957747E-01  0.3455374E+00
         13   -1    0    0    0    0  0.00000000000E+00  0.00000000000E+00  0.14999999963E+04  0.15000000000E+04  0.10566000000E+00 0. -1.
        994   -1    0    0    0    0 -0.00000000000E+00 -0.00000000000E+00  0.11368683772E-12  0.17120000000E+03  0.17120000000E+03 0.  0.
         13    1    1    2    0    0 -0.28487307825E+02 -0.52758923357E+01  0.87117725818E+02  0.91808883354E+02  0.10566000000E+00 0. -1.
        994    1    1    2    0    0  0.22870694114E+02  0.23801874626E+01  0.63965901507E+01  0.17285569215E+03  0.17120000000E+03 0.  0.
        998    1    1    2    0    0  0.56166137104E+01  0.28957048732E+01  0.14064856803E+04  0.14065354245E+04  0.10000000000E+02 0.  0.
</event>
<event>
 5    1  0.9123258E-009  0.3810677E+03  0.7957747E-01  0.3446523E+00
         13   -1    0    0    0    0  0.00000000000E+00  0.00000000000E+00  0.14999999963E+04  0.15000000000E+04  0.10566000000E+00 0. -1.
        994   -1    0    0    0    0 -0.00000000000E+00 -0.00000000000E+00  0.11368683772E-12  0.17120000000E+03  0.17120000000E+03 0.  0.
         13    1    1    2    0    0  0.34323134578E+01 -0.11943871935E+02  0.20317568020E+02  0.23817044039E+02  0.10566000000E+00 0. -1.
        994    1    1    2    0    0  0.82470816073E+01  0.58309654135E+01  0.39350478305E+01  0.17154282006E+03  0.17120000000E+03 0.  0.
        998    1    1    2    0    0 -0.11679395065E+02  0.61129065218E+01  0.14757473804E+04  0.14758401359E+04  0.10000000000E+02 0. -1.
</event>
<event>
 5    1  0.9123258E-009  0.3793325E+03  0.7957747E-01  0.3454070E+00
         13   -1    0    0    0    0  0.00000000000E+00  0.00000000000E+00  0.14999999963E+04  0.15000000000E+04  0.10566000000E+00 0. -1.
        994   -1    0    0    0    0 -0.00000000000E+00 -0.00000000000E+00  0.11368683772E-12  0.17120000000E+03  0.17120000000E+03 0.  0.
         13    1    1    2    0    0 -0.14932602633E+02 -0.28691248114E+02  0.12523797179E+03  0.12934732731E+03  0.10566000000E+00 0. -1.
        994    1    1    2    0    0 -0.78415053818E+01  0.97617606102E+01  0.49958931161E+01  0.17172996280E+03  0.17120000000E+03 0.  0.
        998    1    1    2    0    0  0.22774108015E+02  0.18929487503E+02  0.13697661314E+04  0.13701227099E+04  0.10000000000E+02 0. -1.
</event>
<event>
 5    1  0.9123258E-009  0.3729316E+03  0.7957747E-01  0.3482525E+00
         13   -1    0    0    0    0  0.00000000000E+00  0.00000000000E+00  0.14999999963E+04  0.15000000000E+04  0.10566000000E+00 0. -1.
        994   -1    0    0    0    0 -0.00000000000E+00 -0.00000000000E+00  0.11368683772E-12  0.17120000000E+03  0.17120000000E+03 0.  0.
         13    1    1    2    0    0  0.83925915069E+02  0.56002215998E+02  0.47974748735E+03  0.49024225665E+03  0.10566000000E+00 0. -1.
        994    1    1    2    0    0 -0.63126339214E+02 -0.73164234023E+02  0.40418027535E+02  0.20070126256E+03  0.17120000000E+03 0.  0.
        998    1    1    2    0    0 -0.20799575855E+02  0.17162018025E+02  0.97983448139E+03  0.98025648080E+03  0.10000000000E+02 0.  1.
</event>
<event>
 5    1  0.9123258E-009  0.3766144E+03  0.7957747E-01  0.3466034E+00
         13   -1    0    0    0    0  0.00000000000E+00  0.00000000000E+00  0.14999999963E+04  0.15000000000E+04  0.10566000000E+00 0. -1.
        994   -1    0    0    0    0 -0.00000000000E+00 -0.00000000000E+00  0.11368683772E-12  0.17120000000E+03  0.17120000000E+03 0.  0.
         13    1    1    2    0    0 -0.18994028676E+02  0.44073243980E+02  0.21752316897E+03  0.22275449303E+03  0.10566000000E+00 0. -1.
        994    1    1    2    0    0 -0.14107844907E+02 -0.19014535492E+02  0.77495585308E+01  0.17300311993E+03  0.17120000000E+03 0.  0.
        998    1    1    2    0    0  0.33101873583E+02 -0.25058708488E+02  0.12747272688E+04  0.12754423870E+04  0.10000000000E+02 0. -1.
</event>
<event>
 5    1  0.9123258E-009  0.3777075E+03  0.7957747E-01  0.3461202E+00
         13   -1    0    0    0    0  0.00000000000E+00  0.00000000000E+00  0.14999999963E+04  0.15000000000E+04  0.10566000000E+00 0.  1.
        994   -1    0    0    0    0 -0.00000000000E+00 -0.00000000000E+00  0.11368683772E-12  0.17120000000E+03  0.17120000000E+03 0.  0.
         13    1    1    2    0    0 -0.56598884415E+02  0.10137647805E+03  0.52290839794E+03  0.53564337746E+03  0.10566000000E+00 0.  1.
        994    1    1    2    0    0  0.19858158512E+02 -0.43390558247E+02  0.23301322069E+02  0.17924697658E+03  0.17120000000E+03 0.  0.
        998    1    1    2    0    0  0.36740725903E+02 -0.57985919808E+02  0.95379027627E+03  0.95630964595E+03  0.10000000000E+02 0.  1.
</event>
<event>
 5    1  0.9123258E-009  0.3828676E+03  0.7957747E-01  0.3438766E+00
         13   -1    0    0    0    0  0.00000000000E+00  0.00000000000E+00  0.14999999963E+04  0.15000000000E+04  0.10566000000E+00 0. -1.
        994   -1    0    0    0    0 -0.00000000000E+00 -0.00000000000E+00  0.11368683772E-12  0.17120000000E+03  0.17120000000E+03 0.  0.
         13    1    1    2    0    0 -0.23293310582E+02  0.51944363341E+01  0.11176243515E+03  0.11428216642E+03  0.10566000000E+00 0. -1.
        994    1    1    2    0    0  0.46818804727E+01 -0.31926315235E+01  0.27988901202E+01  0.17131662700E+03  0.17120000000E+03 0.  0.
        998    1    1    2    0    0  0.18611430109E+02 -0.20018048106E+01  0.13854386710E+04  0.13856012066E+04  0.10000000000E+02 0. -1.
</event>
<event>
 5    1  0.9123258E-009  0.3696372E+03  0.7957747E-01  0.3497560E+00
         13   -1    0    0    0    0  0.00000000000E+00  0.00000000000E+00  0.14999999963E+04  0.15000000000E+04  0.10566000000E+00 0.  1.
        994   -1    0    0    0    0 -0.00000000000E+00 -0.00000000000E+00  0.11368683772E-12  0.17120000000E+03  0.17120000000E+03 0.  0.
         13    1    1    2    0    0 -0.25151783660E+02 -0.42016828052E+01  0.31835507443E+02  0.40789423358E+02  0.10566000000E+00 0.  1.
        994    1    1    2    0    0  0.44159990578E+01 -0.24202201686E+02  0.11557015383E+02  0.17334431695E+03  0.17120000000E+03 0.  0.
        998    1    1    2    0    0  0.20735784602E+02  0.28403884491E+02  0.14566074735E+04  0.14570662597E+04  0.10000000000E+02 0.  1.
</event>
<event>
 5    1  0.9123258E-009  0.3743752E+03  0.7957747E-01  0.3476022E+00
         13   -1    0    0    0    0  0.00000000000E+00  0.00000000000E+00  0.14999999963E+04  0.15000000000E+04  0.10566000000E+00 0.  1.
        994   -1    0    0    0    0 -0.00000000000E+00 -0.00000000000E+00  0.11368683772E-12  0.17120000000E+03  0.17120000000E+03 0.  0.
         13    1    1    2    0    0 -0.12502163153E+02  0.11459495648E+01  0.90168462391E+01  0.15457424237E+02  0.10566000000E+00 0.  1.
        994    1    1    2    0    0 -0.41007766660E+02  0.40283010087E+01  0.12805557240E+02  0.17655391933E+03  0.17120000000E+03 0.  0.
        998    1    1    2    0    0  0.53509929813E+02 -0.51742505735E+01  0.14781775928E+04  0.14791886564E+04  0.10000000000E+02 0.  1.
</event>
<event>
 5    1  0.1008174E-008  0.3853596E+03  0.7957747E-01  0.3428148E+00
         13   -1    0    0    0    0  0.00000000000E+00  0.00000000000E+00  0.14999999963E+04  0.15000000000E+04  0.10566000000E+00 0.  1.
        994   -1    0    0    0    0 -0.00000000000E+00 -0.00000000000E+00  0.11368683772E-12  0.17120000000E+03  0.17120000000E+03 0.  0.
         13    1    1    2    0    0 -0.95061659223E+01  0.15490904789E+02  0.10465203890E+03  0.10621862234E+03  0.10566000000E+00 0.  1.
        994    1    1    2    0    0  0.11869209585E+02 -0.18448126317E+02  0.30339859379E+01  0.17262634959E+03  0.17120000000E+03 0.  0.
        998    1    1    2    0    0 -0.23630436631E+01  0.29572215281E+01  0.13923139714E+04  0.13923550281E+04  0.10000000000E+02 0.  1.
</event>
<event>
 5    1  0.9123258E-009  0.3791007E+03  0.7957747E-01  0.3455084E+00
         13   -1    0    0    0    0  0.00000000000E+00  0.00000000000E+00  0.14999999963E+04  0.15000000000E+04  0.10566000000E+00 0. -1.
        994   -1    0    0    0    0 -0.00000000000E+00 -0.00000000000E+00  0.11368683772E-12  0.17120000000E+03  0.17120000000E+03 0.  0.
         13    1    1    2    0    0  0.30215827696E+02 -0.27829765468E+02  0.17044313890E+03  0.17532360608E+03  0.10566000000E+00 0. -1.
        994    1    1    2    0    0 -0.22718836772E+02  0.26205789011E+02  0.86315012553E+01  0.17489091382E+03  0.17120000000E+03 0.  0.
        998    1    1    2    0    0 -0.74969909243E+01  0.16239764573E+01  0.13209253561E+04  0.13209854801E+04  0.10000000000E+02 0. -1.
</event>
<event>
 5    1  0.9123258E-009  0.3820695E+03  0.7957747E-01  0.3442197E+00
         13   -1    0    0    0    0  0.00000000000E+00  0.00000000000E+00  0.14999999963E+04  0.15000000000E+04  0.10566000000E+00 0. -1.
        994   -1    0    0    0    0 -0.00000000000E+00 -0.00000000000E+00  0.11368683772E-12  0.17120000000E+03  0.17120000000E+03 0.  0.
         13    1    1    2    0    0  0.13953429324E+02  0.40647318555E+02  0.24895354626E+03  0.25263567060E+03  0.10566000000E+00 0. -1.
        994    1    1    2    0    0 -0.52075806765E+02 -0.31850478977E+02  0.15564582295E+02  0.18242269290E+03  0.17120000000E+03 0.  0.
        998    1    1    2    0    0  0.38122377441E+02 -0.87968395778E+01  0.12354818677E+04  0.12361416365E+04  0.10000000000E+02 0. -1.
</event>
<event>
 5    1  0.9123258E-009  0.3717444E+03  0.7957747E-01  0.3487912E+00
         13   -1    0    0    0    0  0.00000000000E+00  0.00000000000E+00  0.14999999963E+04  0.15000000000E+04  0.10566000000E+00 0. -1.
        994   -1    0    0    0    0 -0.00000000000E+00 -0.00000000000E+00  0.11368683772E-12  0.17120000000E+03  0.17120000000E+03 0.  0.
         13    1    1    2    0    0  0.14691183051E+02 -0.39363435974E+01  0.43604017325E+01  0.15822450116E+02  0.10566000000E+00 0. -1.
        994    1    1    2    0    0 -0.12260639665E+02 -0.18541049629E+01  0.12405214166E+02  0.17209616593E+03  0.17120000000E+03 0.  0.
        998    1    1    2    0    0 -0.24305433857E+01  0.57904485603E+01  0.14832343804E+04  0.14832813840E+04  0.10000000000E+02 0. -1.
</event>
<event>
 5    1  0.9123258E-009  0.3849041E+03  0.7957747E-01  0.3430079E+00
         13   -1    0    0    0    0  0.00000000000E+00  0.00000000000E+00  0.14999999963E+04  0.15000000000E+04  0.10566000000E+00 0. -1.
        994   -1    0    0    0    0 -0.00000000000E+00 -0.00000000000E+00  0.11368683772E-12  0.17120000000E+03  0.17120000000E+03 0.  0.
         13    1    1    2    0    0  0.86788933116E+01  0.68749114804E+01  0.35876423236E+02  0.37546191621E+02  0.10566000000E+00 0. -1.
        994    1    1    2    0    0 -0.99236166259E+01 -0.38283587365E+01  0.20500138014E+01  0.17154234770E+03  0.17120000000E+03 0.  0.
        998    1    1    2    0    0  0.12447233143E+01 -0.30465527439E+01  0.14620735592E+04  0.14621114607E+04  0.10000000000E+02 0. -1.
</event>
<event>
 5    1  0.9123258E-009  0.3747278E+03  0.7957747E-01  0.3474441E+00
         13   -1    0    0    0    0  0.00000000000E+00  0.00000000000E+00  0.14999999963E+04  0.15000000000E+04  0.10566000000E+00 0.  1.
        994   -1    0    0    0    0 -0.00000000000E+00 -0.00000000000E+00  0.11368683772E-12  0.17120000000E+03  0.17120000000E+03 0.  0.
         13    1    1    2    0    0 -0.15589714577E+02  0.27323406038E+02  0.68975047600E+02  0.75810131734E+02  0.10566000000E+00 0.  1.
        994    1    1    2    0    0  0.25900013822E+02 -0.13193395423E+02  0.96984890144E+01  0.17392060570E+03  0.17120000000E+03 0.  0.
        998    1    1    2    0    0 -0.10310299245E+02 -0.14130010615E+02  0.14213264597E+04  0.14214692626E+04  0.10000000000E+02 0.  1.
</event>
<event>
 5    1  0.9123258E-009  0.3839362E+03  0.7957747E-01  0.3434196E+00
         13   -1    0    0    0    0  0.00000000000E+00  0.00000000000E+00  0.14999999963E+04  0.15000000000E+04  0.10566000000E+00 0.  1.
        994   -1    0    0    0    0 -0.00000000000E+00 -0.00000000000E+00  0.11368683772E-12  0.17120000000E+03  0.17120000000E+03 0.  0.
         13    1    1    2    0    0  0.15725525020E+02 -0.50311278157E+01  0.62631419371E+02  0.64771214599E+02  0.10566000000E+00 0.  1.
        994    1    1    2    0    0 -0.95934058975E+01  0.57596037793E+01  0.25724963841E+01  0.17158456868E+03  0.17120000000E+03 0.  0.
        998    1    1    2    0    0 -0.61321191223E+01 -0.72847596354E+00  0.14347960805E+04  0.14348442167E+04  0.10000000000E+02 0.  1.
</event>
<event>
 5    1  0.9207931E-009  0.3837573E+03  0.7957747E-01  0.3434960E+00
         13   -1    0    0    0    0  0.00000000000E+00  0.00000000000E+00  0.14999999963E+04  0.15000000000E+04  0.10566000000E+00 0. -1.
        994   -1    0    0    0    0 -0.00000000000E+00 -0.00000000000E+00  0.11368683772E-12  0.17120000000E+03  0.17120000000E+03 0.  0.
         13    1    1    2    0    0  0.30567411118E+02 -0.87837681929E+01  0.18333013735E+03  0.18606845953E+03  0.10566000000E+00 0. -1.
        994    1    1    2    0    0 -0.45805929096E+02 -0.73554237228E+01  0.93877757056E+01  0.17762279057E+03  0.17120000000E+03 0.  0.
        998    1    1    2    0    0  0.15238517978E+02  0.16139191916E+02  0.13072820832E+04  0.13075087499E+04  0.10000000000E+02 0. -1.
</event>
<event>
 5    1  0.9123258E-009  0.3854595E+03  0.7957747E-01  0.3427726E+00
         13   -1    0    0    0    0  0.00000000000E+00  0.00000000000E+00  0.14999999963E+04  0.15000000000E+04  0.10566000000E+00 0.  1.
        994   -1    0    0    0    0 -0.00000000000E+00 -0.00000000000E+00  0.11368683772E-12  0.17120000000E+03  0.17120000000E+03 0.  0.
         13    1    1    2    0    0 -0.58800677744E+02  0.89041526234E+01  0.10956148117E+03  0.12466167397E+03  0.10566000000E+00 0.  1.
        994    1    1    2    0    0 -0.49836657494E+02 -0.40856291000E+02  0.34881793258E+02  0.18622327579E+03  0.17120000000E+03 0.  0.
        998    1    1    2    0    0  0.10863733524E+03  0.31952138376E+02  0.13555567219E+04  0.13603150502E+04  0.10000000000E+02 0.  1.
</event>
<event>
 5    1  0.1029466E-008  0.3860474E+03  0.7957747E-01  0.3425242E+00
         13   -1    0    0    0    0  0.00000000000E+00  0.00000000000E+00  0.14999999963E+04  0.15000000000E+04  0.10566000000E+00 0.  1.
        994   -1    0    0    0    0 -0.00000000000E+00 -0.00000000000E+00  0.11368683772E-12  0.17120000000E+03  0.17120000000E+03 0.  0.
         13    1    1    2    0    0 -0.12518230470E+02  0.19760879407E+01  0.74412537417E+02  0.75484090420E+02  0.10566000000E+00 0.  1.
        994    1    1    2    0    0  0.65963507458E+01  0.12126039976E+01  0.12584774295E+01  0.17133594491E+03  0.17120000000E+03 0.  0.
        998    1    1    2    0    0  0.59218797240E+01 -0.31886919383E+01  0.14243289814E+04  0.14243799647E+04  0.10000000000E+02 0.  1.
</event>
<event>
 5    1  0.9123258E-009  0.3840282E+03  0.7957747E-01  0.3433804E+00
         13   -1    0    0    0    0  0.00000000000E+00  0.00000000000E+00  0.14999999963E+04  0.15000000000E+04  0.10566000000E+00 0. -1.
        994   -1    0    0    0    0 -0.00000000000E+00 -0.00000000000E+00  0.11368683772E-12  0.17120000000E+03  0.17120000000E+03 0.  0.
         13    1    1    2    0    0 -0.10397706519E+02  0.56924689740E+01  0.33202016012E+02  0.35254808681E+02  0.10566000000E+00 0. -1.
        994    1    1    2    0    0  0.74119668576E+01  0.45853705525E+01  0.23640512032E+01  0.17143801099E+03  0.17120000000E+03 0.  0.
        998    1    1    2    0    0  0.29857396617E+01 -0.10277839526E+02  0.14644339291E+04  0.14645071803E+04  0.10000000000E+02 0. -1.
</event>
<event>
 5    1  0.9123258E-009  0.3716457E+03  0.7957747E-01  0.3488362E+00
         13   -1    0    0    0    0  0.00000000000E+00  0.00000000000E+00  0.14999999963E+04  0.15000000000E+04  0.10566000000E+00 0. -1.
        994   -1    0    0    0    0 -0.00000000000E+00 -0.00000000000E+00  0.11368683772E-12  0.17120000000E+03  0.17120000000E+03 0.  0.
         13    1    1    2    0    0  0.30929055951E+02 -0.16970056380E+02  0.81319197648E+02  0.88642046376E+02  0.10566000000E+00 0. -1.
        994    1    1    2    0    0  0.22491681515E+02  0.74835493246E+01  0.10345632626E+02  0.17314257524E+03  0.17120000000E+03 0.  0.
        998    1    1    2    0    0 -0.53420737466E+02  0.94865070554E+01  0.14083351660E+04  0.14094153784E+04  0.10000000000E+02 0. -1.
</event>
<event>
 5    1  0.1264243E-008  0.3862382E+03  0.7957747E-01  0.3424438E+00
         13   -1    0    0    0    0  0.00000000000E+00  0.00000000000E+00  0.14999999963E+04  0.15000000000E+04  0.10566000000E+00 0. -1.
        994   -1    0    0    0    0 -0.00000000000E+00 -0.00000000000E+00  0.11368683772E-12  0.17120000000E+03  0.17120000000E+03 0.  0.
         13    1    1    2    0    0  0.84769710567E+01  0.82814138794E+01  0.70091714927E+02  0.71086570600E+02  0.10566000000E+00 0. -1.
        994    1    1    2    0    0 -0.64592368593E+01 -0.48301880346E+01  0.12297381393E+01  0.17139429603E+03  0.17120000000E+03 0.  0.
        998    1    1    2    0    0 -0.20177341974E+01 -0.34512258448E+01  0.14286785432E+04  0.14287191334E+04  0.10000000000E+02 0. -1.
</event>
<event>
 5    1  0.9123258E-009  0.3841998E+03  0.7957747E-01  0.3433073E+00
         13   -1    0    0    0    0  0.00000000000E+00  0.00000000000E+00  0.14999999963E+04  0.15000000000E+04  0.10566000000E+00 0.  1.
        994   -1    0    0    0    0 -0.00000000000E+00 -0.00000000000E+00  0.11368683772E-12  0.17120000000E+03  0.17120000000E+03 0.  0.
         13    1    1    2    0    0  0.20940069735E+02 -0.12120721660E+01  0.10319554510E+03  0.10530568519E+03  0.10566000000E+00 0.  1.
        994    1    1    2    0    0 -0.19660663497E+02  0.61427188617E+00  0.33047326448E+01  0.17235800033E+03  0.17120000000E+03 0.  0.
        998    1    1    2    0    0 -0.12794062382E+01  0.59780027985E+00  0.13934997185E+04  0.13935363145E+04  0.10000000000E+02 0.  1.
</event>
<event>
 5    1  0.9123258E-009  0.3832021E+03  0.7957747E-01  0.3437333E+00
         13   -1    0    0    0    0  0.00000000000E+00  0.00000000000E+00  0.14999999963E+04  0.15000000000E+04  0.10566000000E+00 0. -1.
        994   -1    0    0    0    0 -0.00000000000E+00 -0.00000000000E+00  0.11368683772E-12  0.17120000000E+03  0.17120000000E+03 0.  0.
         13    1    1    2    0    0  0.69623565161E+01 -0.17066647926E+02  0.70178021952E+02  0.72558326943E+02  0.10566000000E+00 0. -1.
        994    1    1    2    0    0 -0.62341966488E+01 -0.19829481353E+00  0.26540880552E+01  0.17133414345E+03  0.17120000000E+03 0.  0.
        998    1    1    2    0    0 -0.72815986734E+00  0.17264942739E+02  0.14271678863E+04  0.14273075296E+04  0.10000000000E+02 0. -1.
</event>
<event>
 5    1  0.9123258E-009  0.3737207E+03  0.7957747E-01  0.3478964E+00
         13   -1    0    0    0    0  0.00000000000E+00  0.00000000000E+00  0.14999999963E+04  0.15000000000E+04  0.10566000000E+00 0. -1.
        994   -1    0    0    0    0 -0.00000000000E+00 -0.00000000000E+00  0.11368683772E-12  0.17120000000E+03  0.17120000000E+03 0.  0.
         13    1    1    2    0    0  0.31785663014E+02  0.53655012298E+02  0.27329175808E+03  0.28031693655E+03  0.10566000000E+00 0. -1.
        994    1    1    2    0    0 -0.13248618848E+02 -0.27062669094E+02  0.10442953878E+02  0.17414479391E+03  0.17120000000E+03 0.  0.
        998    1    1    2    0    0 -0.18537044166E+02 -0.26592343204E+02  0.12162652843E+04  0.12167382695E+04  0.10000000000E+02 0. -1.
</event>
<event>
 5    1  0.9123258E-009  0.3758555E+03  0.7957747E-01  0.3469405E+00
         13   -1    0    0    0    0  0.00000000000E+00  0.00000000000E+00  0.14999999963E+04  0.15000000000E+04  0.10566000000E+00 0. -1.
        994   -1    0    0    0    0 -0.00000000000E+00 -0.00000000000E+00  0.11368683772E-12  0.17120000000E+03  0.17120000000E+03 0.  0.
         13    1    1    2    0    0 -0.11403117620E+02 -0.75512942894E+01  0.12017725418E+00  0.13677673176E+02  0.10566000000E+00 0. -1.
        994    1    1    2    0    0  0.21169568876E+02 -0.27096062428E+01  0.15696516192E+02  0.17323773617E+03  0.17120000000E+03 0.  0.
        998    1    1    2    0    0 -0.97664512561E+01  0.10260900532E+02  0.14841833028E+04  0.14842845907E+04  0.10000000000E+02 0. -1.
</event>
<event>
 5    1  0.9123258E-009  0.3803760E+03  0.7957747E-01  0.3449523E+00
         13   -1    0    0    0    0  0.00000000000E+00  0.00000000000E+00  0.14999999963E+04  0.15000000000E+04  0.10566000000E+00 0.  1.
        994   -1    0    0    0    0 -0.00000000000E+00 -0.00000000000E+00  0.11368683772E-12  0.17120000000E+03  0.17120000000E+03 0.  0.
         13    1    1    2    0    0  0.24854115552E+02 -0.22251884819E+02  0.14566687152E+03  0.14943802080E+03  0.10566000000E+00 0.  1.
        994    1    1    2    0    0 -0.14394477683E+02  0.38591898272E+01  0.46853082627E+01  0.17191127493E+03  0.17120000000E+03 0.  0.
        998    1    1    2    0    0 -0.10459637869E+02  0.18392694992E+02  0.13496478165E+04  0.13498507043E+04  0.10000000000E+02 0.  1.
</event>
<event>
 5    1  0.9123258E-009  0.3830058E+03  0.7957747E-01  0.3438174E+00
         13   -1    0    0    0    0  0.00000000000E+00  0.00000000000E+00  0.14999999963E+04  0.15000000000E+04  0.10566000000E+00 0.  1.
        994   -1    0    0    0    0 -0.00000000000E+00 -0.00000000000E+00  0.11368683772E-12  0.17120000000E+03  0.17120000000E+03 0.  0.
         13    1    1    2    0    0 -0.99902503956E+01  0.86439425031E+01  0.34145903418E+02  0.36612521481E+02  0.10566000000E+00 0.  1.
        994    1    1    2    0    0 -0.28003597573E+01  0.40230772987E+01  0.27030047269E+01  0.17129148665E+03  0.17120000000E+03 0.  0.
        998    1    1    2    0    0  0.12790610153E+02 -0.12667019802E+02  0.14631510881E+04  0.14632959919E+04  0.10000000000E+02 0.  1.
</event>
<event>
 5    1  0.9123258E-009  0.3733774E+03  0.7957747E-01  0.3480512E+00
         13   -1    0    0    0    0  0.00000000000E+00  0.00000000000E+00  0.14999999963E+04  0.15000000000E+04  0.10566000000E+00 0.  1.
        994   -1    0    0    0    0 -0.00000000000E+00 -0.00000000000E+00  0.11368683772E-12  0.17120000000E+03  0.17120000000E+03 0.  0.
         13    1    1    2    0    0  0.39746746463E+02  0.21847155612E+01  0.94455752721E+02  0.10250110840E+03  0.10566000000E+00 0.  1.
        994    1    1    2    0    0 -0.44198471555E+02 -0.40503382659E+02  0.19899719350E+02  0.18248141748E+03  0.17120000000E+03 0.  0.
        998    1    1    2    0    0  0.44517250920E+01  0.38318667098E+02  0.13856445242E+04  0.13862174741E+04  0.10000000000E+02 0.  1.
</event>
<event>
 5    1  0.9123258E-009  0.3916542E+03  0.7957747E-01  0.3401932E+00
         13   -1    0    0    0    0  0.00000000000E+00  0.00000000000E+00  0.14999999963E+04  0.15000000000E+04  0.10566000000E+00 0. -1.
        994   -1    0    0    0    0 -0.00000000000E+00 -0.00000000000E+00  0.11368683772E-12  0.17120000000E+03  0.17120000000E+03 0.  0.
         13    1    1    2    0    0 -0.34350274491E+02 -0.51571115217E+02  0.72986448625E+02  0.95742123067E+02  0.10566000000E+00 0. -1.
        994    1    1    2    0    0  0.33048643701E+02  0.50639353443E+02  0.36862129057E+02  0.18526956989E+03  0.17120000000E+03 0.  0.
        998    1    1    2    0    0  0.13016307902E+01  0.93176177456E+00  0.13901514186E+04  0.13901883070E+04  0.10000000000E+02 0. -1.
</event>
<event>
 5    1  0.9123258E-009  0.3780072E+03  0.7957747E-01  0.3459882E+00
         13   -1    0    0    0    0  0.00000000000E+00  0.00000000000E+00  0.14999999963E+04  0.15000000000E+04  0.10566000000E+00 0. -1.
        994   -1    0    0    0    0 -0.00000000000E+00 -0.00000000000E+00  0.11368683772E-12  0.17120000000E+03  0.17120000000E+03 0.  0.
         13    1    1    2    0    0 -0.28004565171E+02  0.32853396769E+02  0.18664068300E+03  0.19156815253E+03  0.10566000000E+00 0. -1.
        994    1    1    2    0    0  0.11795233344E+02 -0.14885367349E+02  0.63572187574E+01  0.17236750251E+03  0.17120000000E+03 0.  0.
        998    1    1    2    0    0  0.16209331827E+02 -0.17968029421E+02  0.13070020945E+04  0.13072643450E+04  0.10000000000E+02 0. -1.
</event>
<event>
 5    1  0.9123258E-009  0.3815245E+03  0.7957747E-01  0.3444547E+00
         13   -1    0    0    0    0  0.00000000000E+00  0.00000000000E+00  0.14999999963E+04  0.15000000000E+04  0.10566000000E+00 0.  1.
        994   -1    0    0    0    0 -0.00000000000E+00 -0.00000000000E+00  0.11368683772E-12  0.17120000000E+03  0.17120000000E+03 0.  0.
         13    1    1    2    0    0  0.80913491381E+01 -0.97512774670E+01  0.23469972750E+02  0.26672235153E+02  0.10566000000E+00 0.  1.
        994    1    1    2    0    0  0.14663815527E+02  0.58139231924E+01  0.41936326163E+01  0.17197632321E+03  0.17120000000E+03 0.  0.
        998    1    1    2    0    0 -0.22755164665E+02  0.39373542746E+01  0.14723363909E+04  0.14725514416E+04  0.10000000000E+02 0.  1.
</event>
<event>
 5    1  0.9123258E-009  0.3787274E+03  0.7957747E-01  0.3456718E+00
         13   -1    0    0    0    0  0.00000000000E+00  0.00000000000E+00  0.14999999963E+04  0.15000000000E+04  0.10566000000E+00 0. -1.
        994   -1    0    0    0    0 -0.00000000000E+00 -0.00000000000E+00  0.11368683772E-12  0.17120000000E+03  0.17120000000E+03 0.  0.
         13    1    1    2    0    0  0.23026562849E+02 -0.12847168498E+02  0.68205042418E+02  0.73124628617E+02  0.10566000000E+00 0. -1.
        994    1    1    2    0    0 -0.23548950286E+02  0.12466623491E+02  0.71639724464E+01  0.17340914700E+03  0.17120000000E+03 0.  0.
        998    1    1    2    0    0  0.52238743624E+00  0.38054500635E+00  0.14246309814E+04  0.14246662244E+04  0.10000000000E+02 0. -1.
</event>
<event>
 5    1  0.9123258E-009  0.4289746E+03  0.7957747E-01  0.3262203E+00
         13   -1    0    0    0    0  0.00000000000E+00  0.00000000000E+00  0.14999999963E+04  0.15000000000E+04  0.10566000000E+00 0.  1.
        994   -1    0    0    0    0 -0.00000000000E+00 -0.00000000000E+00  0.11368683772E-12  0.17120000000E+03  0.17120000000E+03 0.  0.
         13    1    1    2    0    0 -0.53110013298E+02 -0.33527797702E+02  0.25662682682E+02  0.67848147932E+02  0.10566000000E+00 0.  1.
        994    1    1    2    0    0  0.56408107177E+02  0.33917249063E+02  0.65931754173E+02  0.19490687660E+03  0.17120000000E+03 0.  0.
        998    1    1    2    0    0 -0.32980938786E+01 -0.38945136193E+00  0.14084055594E+04  0.14084449755E+04  0.10000000000E+02 0.  1.
</event>
<event>
 5    1  0.9123258E-009  0.3762941E+03  0.7957747E-01  0.3467455E+00
         13   -1    0    0    0    0  0.00000000000E+00  0.00000000000E+00  0.14999999963E+04  0.15000000000E+04  0.10566000000E+00 0.  1.
        994   -1    0    0    0    0 -0.00000000000E+00 -0.00000000000E+00  0.11368683772E-12  0.17120000000E+03  0.17120000000E+03 0.  0.
         13    1    1    2    0    0 -0.52598198991E+02  0.44703285463E+02  0.14040748268E+03  0.15645838624E+03  0.10566000000E+00 0.  1.
        994    1    1    2    0    0  0.58802190509E+02 -0.55606676283E+02  0.38110518761E+02  0.19316224190E+03  0.17120000000E+03 0.  0.
        998    1    1    2    0    0 -0.62039915174E+01  0.10903390820E+02  0.13214819948E+04  0.13215793719E+04  0.10000000000E+02 0.  1.
</event>
<event>
 5    1  0.9123258E-009  0.3785812E+03  0.7957747E-01  0.3457360E+00
         13   -1    0    0    0    0  0.00000000000E+00  0.00000000000E+00  0.14999999963E+04  0.15000000000E+04  0.10566000000E+00 0.  1.
        994   -1    0    0    0    0 -0.00000000000E+00 -0.00000000000E+00  0.11368683772E-12  0.17120000000E+03  0.17120000000E+03 0.  0.
         13    1    1    2    0    0 -0.29553320806E+02 -0.57101924605E+01  0.90108812392E+02  0.95003233120E+02  0.10566000000E+00 0.  1.
        994    1    1    2    0    0  0.14706992307E+02  0.46286204736E+02  0.12814394124E+02  0.17841624665E+03  0.17120000000E+03 0.  0.
        998    1    1    2    0    0  0.14846328498E+02 -0.40576012276E+02  0.13970767898E+04  0.13977805202E+04  0.10000000000E+02 0.  1.
</event>
<event>
 5    1  0.9123258E-009  0.3799655E+03  0.7957747E-01  0.3451309E+00
         13   -1    0    0    0    0  0.00000000000E+00  0.00000000000E+00  0.14999999963E+04  0.15000000000E+04  0.10566000000E+00 0.  1.
        994   -1    0    0    0    0 -0.00000000000E+00 -0.00000000000E+00  0.11368683772E-12  0.17120000000E+03  0.17120000000E+03 0.  0.
         13    1    1    2    0    0 -0.16076534870E+02  0.35029829849E+01  0.31660212024E+02  0.35680611719E+02  0.10566000000E+00 0.  1.
        994    1    1    2    0    0  0.36444977121E+01 -0.27917907566E+01  0.42210512842E+01  0.17131355385E+03  0.17120000000E+03 0.  0.
        998    1    1    2    0    0  0.12432037158E+02 -0.71119222829E+00  0.14641187330E+04  0.14642058344E+04  0.10000000000E+02 0.  1.
</event>
<event>
 5    1  0.9123258E-009  0.3851396E+03  0.7957747E-01  0.3429080E+00
         13   -1    0    0    0    0  0.00000000000E+00  0.00000000000E+00  0.14999999963E+04  0.15000000000E+04  0.10566000000E+00 0.  1.
        994   -1    0    0    0    0 -0.00000000000E+00 -0.00000000000E+00  0.11368683772E-12  0.17120000000E+03  0.17120000000E+03 0.  0.
         13    1    1    2    0    0 -0.19121512439E+01 -0.14500664275E+02  0.73004396851E+02  0.74455212782E+02  0.10566000000E+00 0.  1.
        994    1    1    2    0    0  0.66692557432E+01 -0.10912520239E+00  0.17070983009E+01  0.17133839344E+03  0.17120000000E+03 0.  0.
        998    1    1    2    0    0 -0.47571044993E+01  0.14609789477E+02  0.14252885011E+04  0.14254063938E+04  0.10000000000E+02 0.  1.
</event>
<event>
 5    1  0.9123258E-009  0.3812114E+03  0.7957747E-01  0.3445901E+00
         13   -1    0    0    0    0  0.00000000000E+00  0.00000000000E+00  0.14999999963E+04  0.15000000000E+04  0.10566000000E+00 0. -1.
        994   -1    0    0    0    0 -0.00000000000E+00 -0.00000000000E+00  0.11368683772E-12  0.17120000000E+03  0.17120000000E+03 0.  0.
         13    1    1    2    0    0 -0.20310964683E+02  0.74001393869E+01  0.63333419865E+02  0.66921077286E+02  0.10566000000E+00 0. -1.
        994    1    1    2    0    0  0.15413328077E+02 -0.16322690601E+02  0.52028276970E+01  0.17274406018E+03  0.17120000000E+03 0.  0.
        998    1    1    2    0    0  0.48976366060E+01  0.89225512140E+01  0.14314637487E+04  0.14315348625E+04  0.10000000000E+02 0. -1.
</event>
<event>
 5    1  0.9123258E-009  0.3849582E+03  0.7957747E-01  0.3429850E+00
         13   -1    0    0    0    0  0.00000000000E+00  0.00000000000E+00  0.14999999963E+04  0.15000000000E+04  0.10566000000E+00 0.  1.
        994   -1    0    0    0    0 -0.00000000000E+00 -0.00000000000E+00  0.11368683772E-12  0.17120000000E+03  0.17120000000E+03 0.  0.
         13    1    1    2    0    0 -0.11041939645E+02 -0.11192660756E+01  0.36109956207E+02  0.37777205944E+02  0.10566000000E+00 0.  1.
        994    1    1    2    0    0  0.13497354109E+02 -0.54757645351E+00  0.22513353120E+01  0.17174686873E+03  0.17120000000E+03 0.  0.
        998    1    1    2    0    0 -0.24554144639E+01  0.16668425291E+01  0.14616387048E+04  0.14616759253E+04  0.10000000000E+02 0.  1.
</event>
<event>
 5    1  0.9123258E-009  0.3831556E+03  0.7957747E-01  0.3437533E+00
         13   -1    0    0    0    0  0.00000000000E+00  0.00000000000E+00  0.14999999963E+04  0.15000000000E+04  0.10566000000E+00 0. -1.
        994   -1    0    0    0    0 -0.00000000000E+00 -0.00000000000E+00  0.11368683772E-12  0.17120000000E+03  0.17120000000E+03 0.  0.
         13    1    1    2    0    0  0.15145157204E+02  0.78842312795E+01  0.56797693715E+02  0.59308735149E+02  0.10566000000E+00 0. -1.
        994    1    1    2    0    0 -0.10699569231E+02 -0.10442420410E+01  0.29310961053E+01  0.17156224103E+03  0.17120000000E+03 0.  0.
        998    1    1    2    0    0 -0.44455879731E+01 -0.68399892386E+01  0.14402712065E+04  0.14403290238E+04  0.10000000000E+02 0. -1.
</event>
<event>
 5    1  0.9123258E-009  0.3722073E+03  0.7957747E-01  0.3485808E+00
         13   -1    0    0    0    0  0.00000000000E+00  0.00000000000E+00  0.14999999963E+04  0.15000000000E+04  0.10566000000E+00 0.  1.
        994   -1    0    0    0    0 -0.00000000000E+00 -0.00000000000E+00  0.11368683772E-12  0.17120000000E+03  0.17120000000E+03 0.  0.
         13    1    1    2    0    0 -0.57895041971E+01 -0.30373958350E+02  0.69251557026E+02  0.75841182871E+02  0.10566000000E+00 0.  1.
        994    1    1    2    0    0 -0.33851164795E+02 -0.38499236957E+02  0.17192721206E+02  0.17953585232E+03  0.17120000000E+03 0.  0.
        998    1    1    2    0    0  0.39640668992E+02  0.68873195307E+02  0.14135557180E+04  0.14158229648E+04  0.10000000000E+02 0.  1.
</event>
<event>
 5    1  0.9123258E-009  0.3750118E+03  0.7957747E-01  0.3473170E+00
         13   -1    0    0    0    0  0.00000000000E+00  0.00000000000E+00  0.14999999963E+04  0.15000000000E+04  0.10566000000E+00 0. -1.
        994   -1    0    0    0    0 -0.00000000000E+00 -0.00000000000E+00  0.11368683772E-12  0.17120000000E+03  0.17120000000E+03 0.  0.
         13    1    1    2    0    0  0.41156706142E+02 -0.16082269076E+03  0.94807861975E+03  0.96250241180E+03  0.10566000000E+00 0. -1.
        994    1    1    2    0    0 -0.42392503636E+02  0.14404114118E+03  0.87631496130E+02  0.24399527420E+03  0.17120000000E+03 0.  0.
        998    1    1    2    0    0  0.12357974936E+01  0.16781549584E+02  0.46428988039E+03  0.46470231400E+03  0.10000000000E+02 0.  1.
</event>
<event>
 5    1  0.9123258E-009  0.3794092E+03  0.7957747E-01  0.3453735E+00
         13   -1    0    0    0    0  0.00000000000E+00  0.00000000000E+00  0.14999999963E+04  0.15000000000E+04  0.10566000000E+00 0. -1.
        994   -1    0    0    0    0 -0.00000000000E+00 -0.00000000000E+00  0.11368683772E-12  0.17120000000E+03  0.17120000000E+03 0.  0.
         13    1    1    2    0    0 -0.43043288185E+02  0.53322461277E+02  0.14164412216E+03  0.15735017649E+03  0.10566000000E+00 0. -1.
        994    1    1    2    0    0  0.51464685262E+02 -0.14810619586E+02  0.26446532591E+02  0.18131968279E+03  0.17120000000E+03 0.  0.
        998    1    1    2    0    0 -0.84213970763E+01 -0.38511841691E+02  0.13319093415E+04  0.13325301407E+04  0.10000000000E+02 0. -1.
</event>
<event>
 5    1  0.2037237E-008  0.3861706E+03  0.7957747E-01  0.3424723E+00
         13   -1    0    0    0    0  0.00000000000E+00  0.00000000000E+00  0.14999999963E+04  0.15000000000E+04  0.10566000000E+00 0.  1.
        994   -1    0    0    0    0 -0.00000000000E+00 -0.00000000000E+00  0.11368683772E-12  0.17120000000E+03  0.17120000000E+03 0.  0.
         13    1    1    2    0    0 -0.11430620189E+02  0.10301138488E+01  0.64381893181E+02  0.65396938354E+02  0.10566000000E+00 0.  1.
        994    1    1    2    0    0  0.64486230096E+01  0.25111066070E+01  0.12069820009E+01  0.17134406089E+03  0.17120000000E+03 0.  0.
        998    1    1    2    0    0  0.49819971791E+01 -0.35412204558E+01  0.14344111211E+04  0.14344590008E+04  0.10000000000E+02 0.  0.
</event>
<event>
 5    1  0.9123258E-009  0.3855123E+03  0.7957747E-01  0.3427503E+00
         13   -1    0    0    0    0  0.00000000000E+00  0.00000000000E+00  0.14999999963E+04  0.15000000000E+04  0.10566000000E+00 0.  1.
        994   -1    0    0    0    0 -0.00000000000E+00 -0.00000000000E+00  0.11368683772E-12  0.17120000000E+03  0.17120000000E+03 0.  0.
         13    1    1    2    0    0 -0.10448585891E+02 -0.76774691652E+00  0.40479963293E+02  0.41813884950E+02  0.10566000000E+00 0.  1.
        994    1    1    2    0    0  0.52847544091E+01 -0.42073476807E+01  0.15258522309E+01  0.17134000884E+03  0.17120000000E+03 0.  0.
        998    1    1    2    0    0  0.51638314817E+01  0.49750945972E+01  0.14579941808E+04  0.14580461062E+04  0.10000000000E+02 0.  1.
</event>
<event>
 5    1  0.9123258E-009  0.3833150E+03  0.7957747E-01  0.3436850E+00
         13   -1    0    0    0    0  0.00000000000E+00  0.00000000000E+00  0.14999999963E+04  0.15000000000E+04  0.10566000000E+00 0. -1.
        994   -1    0    0    0    0 -0.00000000000E+00 -0.00000000000E+00  0.11368683772E-12  0.17120000000E+03  0.17120000000E+03 0.  0.
         13    1    1    2    0    0  0.10037453694E+02  0.33493599969E+01  0.21711260981E+02  0.24152819845E+02  0.10566000000E+00 0. -1.
        994    1    1    2    0    0 -0.60522815226E+01 -0.92525134600E+01  0.28733301049E+01  0.17158069572E+03  0.17120000000E+03 0.  0.
        998    1    1    2    0    0 -0.39851721716E+01  0.59031534631E+01  0.14754154052E+04  0.14754664844E+04  0.10000000000E+02 0. -1.
</event>
<event>
 5    1  0.9123258E-009  0.3686864E+03  0.7957747E-01  0.3501950E+00
         13   -1    0    0    0    0  0.00000000000E+00  0.00000000000E+00  0.14999999963E+04  0.15000000000E+04  0.10566000000E+00 0. -1.
        994   -1    0    0    0    0 -0.00000000000E+00 -0.00000000000E+00  0.11368683772E-12  0.17120000000E+03  0.17120000000E+03 0.  0.
         13    1    1    2    0    0 -0.46204608263E+02  0.33045665997E+02  0.17945886030E+03  0.18823489467E+03  0.10566000000E+00 0. -1.
        994    1    1    2    0    0  0.34368252473E+02  0.40711456330E+02  0.20190248777E+02  0.18043194174E+03  0.17120000000E+03 0.  0.
        998    1    1    2    0    0  0.11836355789E+02 -0.73757122327E+02  0.13003508872E+04  0.13025331636E+04  0.10000000000E+02 0. -1.
</event>
<event>
 5    1  0.9123258E-009  0.3813070E+03  0.7957747E-01  0.3445487E+00
         13   -1    0    0    0    0  0.00000000000E+00  0.00000000000E+00  0.14999999963E+04  0.15000000000E+04  0.10566000000E+00 0. -1.
        994   -1    0    0    0    0 -0.00000000000E+00 -0.00000000000E+00  0.11368683772E-12  0.17120000000E+03  0.17120000000E+03 0.  0.
         13    1    1    2    0    0  0.19794949069E+02 -0.24387430837E+01  0.53395473902E+02  0.56998905899E+02  0.10566000000E+00 0. -1.
        994    1    1    2    0    0 -0.24048484056E+02  0.56798200878E+01  0.55098505827E+01  0.17306180513E+03  0.17120000000E+03 0.  0.
        998    1    1    2    0    0  0.42535349874E+01 -0.32410770040E+01  0.14410946718E+04  0.14411392890E+04  0.10000000000E+02 0. -1.
</event>
<event>
 5    1  0.9123258E-009  0.3783331E+03  0.7957747E-01  0.3458449E+00
         13   -1    0    0    0    0  0.00000000000E+00  0.00000000000E+00  0.14999999963E+04  0.15000000000E+04  0.10566000000E+00 0. -1.
        994   -1    0    0    0    0 -0.00000000000E+00 -0.00000000000E+00  0.11368683772E-12  0.17120000000E+03  0.17120000000E+03 0.  0.
         13    1    1    2    0    0  0.14039890251E+02  0.22935002745E+02  0.70499519250E+02  0.75454133403E+02  0.10566000000E+00 0. -1.
        994    1    1    2    0    0 -0.12703026367E+02 -0.13410193463E+02  0.61247360483E+01  0.17230250306E+03  0.17120000000E+03 0.  0.
        998    1    1    2    0    0 -0.13368638840E+01 -0.95248092815E+01  0.14233757410E+04  0.14234433635E+04  0.10000000000E+02 0. -1.
</event>
<event>
 5    1  0.9325866E-009  0.3862292E+03  0.7957747E-01  0.3424476E+00
         13   -1    0    0    0    0  0.00000000000E+00  0.00000000000E+00  0.14999999963E+04  0.15000000000E+04  0.10566000000E+00 0. -1.
        994   -1    0    0    0    0 -0.00000000000E+00 -0.00000000000E+00  0.11368683772E-12  0.17120000000E+03  0.17120000000E+03 0.  0.
         13    1    1    2    0    0 -0.10647626220E+02  0.49559268117E+01  0.68352756352E+02  0.69354478007E+02  0.10566000000E+00 0. -1.
        994    1    1    2    0    0  0.63429970791E+01 -0.59768141708E+01  0.12699087826E+01  0.17142639408E+03  0.17120000000E+03 0.  0.
        998    1    1    2    0    0  0.43046291408E+01  0.10208873591E+01  0.14303773311E+04  0.14304191279E+04  0.10000000000E+02 0. -1.
</event>
<event>
 5    1  0.9123258E-009  0.3841989E+03  0.7957747E-01  0.3433077E+00
         13   -1    0    0    0    0  0.00000000000E+00  0.00000000000E+00  0.14999999963E+04  0.15000000000E+04  0.10566000000E+00 0. -1.
        994   -1    0    0    0    0 -0.00000000000E+00 -0.00000000000E+00  0.11368683772E-12  0.17120000000E+03  0.17120000000E+03 0.  0.
         13    1    1    2    0    0  0.10230506072E+02 -0.21589635888E+02  0.10686733267E+03  0.10950531306E+03  0.10566000000E+00 0. -1.
        994    1    1    2    0    0 -0.44100222937E+02  0.39285855064E+02  0.13615712405E+02  0.18161232253E+03  0.17120000000E+03 0.  0.
        998    1    1    2    0    0  0.33869716865E+02 -0.17696219176E+02  0.13795169512E+04  0.13800823644E+04  0.10000000000E+02 0. -1.
</event>
<event>
 5    1  0.9123258E-009  0.3849679E+03  0.7957747E-01  0.3429808E+00
         13   -1    0    0    0    0  0.00000000000E+00  0.00000000000E+00  0.14999999963E+04  0.15000000000E+04  0.10566000000E+00 0. -1.
        994   -1    0    0    0    0 -0.00000000000E+00 -0.00000000000E+00  0.11368683772E-12  0.17120000000E+03  0.17120000000E+03 0.  0.
         13    1    1    2    0    0  0.64074691622E+01  0.15430075547E+02  0.73315803567E+02  0.75195485963E+02  0.10566000000E+00 0. -1.
        994    1    1    2    0    0 -0.15140283572E+02 -0.29684414181E+02  0.53066858478E+01  0.17449353440E+03  0.17120000000E+03 0.  0.
        998    1    1    2    0    0  0.87328144103E+01  0.14254338634E+02  0.14213775069E+04  0.14215109796E+04  0.10000000000E+02 0. -1.
</event>
<event>
 5    1  0.9123258E-009  0.3791492E+03  0.7957747E-01  0.3454871E+00
         13   -1    0    0    0    0  0.00000000000E+00  0.00000000000E+00  0.14999999963E+04  0.15000000000E+04  0.10566000000E+00 0. -1.
        994   -1    0    0    0    0 -0.00000000000E+00 -0.00000000000E+00  0.11368683772E-12  0.17120000000E+03  0.17120000000E+03 0.  0.
         13    1    1    2    0    0  0.43396435286E+02  0.28451801255E+02  0.24003755374E+03  0.24558256037E+03  0.10566000000E+00 0. -1.
        994    1    1    2    0    0 -0.58102317024E+02 -0.14815274318E+02  0.16712006921E+02  0.18216504267E+03  0.17120000000E+03 0.  0.
        998    1    1    2    0    0  0.14705881738E+02 -0.13636526937E+02  0.12432504356E+04  0.12434523970E+04  0.10000000000E+02 0. -1.
</event>
<event>
 5    1  0.9123258E-009  0.3821013E+03  0.7957747E-01  0.3442059E+00
         13   -1    0    0    0    0  0.00000000000E+00  0.00000000000E+00  0.14999999963E+04  0.15000000000E+04  0.10566000000E+00 0. -1.
        994   -1    0    0    0    0 -0.00000000000E+00 -0.00000000000E+00  0.11368683772E-12  0.17120000000E+03  0.17120000000E+03 0.  0.
         13    1    1    2    0    0 -0.24043141590E+01  0.10151327474E+02  0.16676532245E+02  0.19670995598E+02  0.10566000000E+00 0. -1.
        994    1    1    2    0    0  0.89525694466E+01 -0.25775409261E+00  0.33424912009E+01  0.17146669410E+03  0.17120000000E+03 0.  0.
        998    1    1    2    0    0 -0.65482552876E+01 -0.98935733810E+01  0.14799809728E+04  0.14800623103E+04  0.10000000000E+02 0. -1.
</event>
<event>
 5    1  0.9123258E-009  0.3832429E+03  0.7957747E-01  0.3437159E+00
         13   -1    0    0    0    0  0.00000000000E+00  0.00000000000E+00  0.14999999963E+04  0.15000000000E+04  0.10566000000E+00 0.  1.
        994   -1    0    0    0    0 -0.00000000000E+00 -0.00000000000E+00  0.11368683772E-12  0.17120000000E+03  0.17120000000E+03 0.  0.
         13    1    1    2    0    0  0.70864300662E+01  0.97550339208E+01  0.28269565482E+02  0.30733657030E+02  0.10566000000E+00 0.  1.
        994    1    1    2    0    0 -0.18884044182E+01 -0.78108928588E+01  0.27186624323E+01  0.17141005584E+03  0.17120000000E+03 0.  0.
        998    1    1    2    0    0 -0.51980256480E+01 -0.19441410620E+01  0.14690117684E+04  0.14690562871E+04  0.10000000000E+02 0.  1.
</event>
<event>
 5    1  0.9123258E-009  0.3819408E+03  0.7957747E-01  0.3442751E+00
         13   -1    0    0    0    0  0.00000000000E+00  0.00000000000E+00  0.14999999963E+04  0.15000000000E+04  0.10566000000E+00 0. -1.
        994   -1    0    0    0    0 -0.00000000000E+00 -0.00000000000E+00  0.11368683772E-12  0.17120000000E+03  0.17120000000E+03 0.  0.
         13    1    1    2    0    0  0.87761180716E+01 -0.19888904984E+02  0.82123188636E+02  0.84951857341E+02  0.10566000000E+00 0. -1.
        994    1    1    2    0    0  0.43217377874E+01 -0.49195146986E+01  0.32991019528E+01  0.17135694651E+03  0.17120000000E+03 0.  0.
        998    1    1    2    0    0 -0.13097855859E+02  0.24808419683E+02  0.14145777057E+04  0.14148911962E+04  0.10000000000E+02 0. -1.
</event>
<event>
 5    1  0.9123258E-009  0.3782336E+03  0.7957747E-01  0.3458886E+00
         13   -1    0    0    0    0  0.00000000000E+00  0.00000000000E+00  0.14999999963E+04  0.15000000000E+04  0.10566000000E+00 0. -1.
        994   -1    0    0    0    0 -0.00000000000E+00 -0.00000000000E+00  0.11368683772E-12  0.17120000000E+03  0.17120000000E+03 0.  0.
         13    1    1    2    0    0  0.32165831201E+02  0.39891488882E+02  0.23552707393E+03  0.24103731102E+03  0.10566000000E+00 0. -1.
        994    1    1    2    0    0 -0.20467576092E+02 -0.38292314267E+02  0.11392937351E+02  0.17698718040E+03  0.17120000000E+03 0.  0.
        998    1    1    2    0    0 -0.11698255109E+02 -0.15991746153E+01  0.12530799850E+04  0.12531755086E+04  0.10000000000E+02 0.  1.
</event>
<event>
 5    1  0.9123258E-009  0.4143305E+03  0.7957747E-01  0.3314069E+00
         13   -1    0    0    0    0  0.00000000000E+00  0.00000000000E+00  0.14999999963E+04  0.15000000000E+04  0.10566000000E+00 0.  1.
        994   -1    0    0    0    0 -0.00000000000E+00 -0.00000000000E+00  0.11368683772E-12  0.17120000000E+03  0.17120000000E+03 0.  0.
         13    1    1    2    0    0 -0.78135983658E+02  0.21941685583E+02  0.74796063996E+02  0.11036816507E+03  0.10566000000E+00 0.  1.
        994    1    1    2    0    0  0.82117622616E+02 -0.53813196048E+01  0.65415841820E+02  0.20090031087E+03  0.17120000000E+03 0.  0.
        998    1    1    2    0    0 -0.39816389581E+01 -0.16560365979E+02  0.13597880905E+04  0.13599315241E+04  0.10000000000E+02 0.  1.
</event>
<event>
 5    1  0.9123258E-009  0.3854524E+03  0.7957747E-01  0.3427756E+00
         13   -1    0    0    0    0  0.00000000000E+00  0.00000000000E+00  0.14999999963E+04  0.15000000000E+04  0.10566000000E+00 0.  1.
        994   -1    0    0    0    0 -0.00000000000E+00 -0.00000000000E+00  0.11368683772E-12  0.17120000000E+03  0.17120000000E+03 0.  0.
         13    1    1    2    0    0 -0.29487873839E+01  0.12621593615E+02  0.55907915565E+02  0.57390819468E+02  0.10566000000E+00 0.  1.
        994    1    1    2    0    0  0.79641424159E+01 -0.18713469923E+02  0.27651370212E+01  0.17242594788E+03  0.17120000000E+03 0.  0.
        998    1    1    2    0    0 -0.50153550320E+01  0.60918763082E+01  0.14413269437E+04  0.14413832326E+04  0.10000000000E+02 0.  1.
</event>
<event>
 5    1  0.9123258E-009  0.3804083E+03  0.7957747E-01  0.3449382E+00
         13   -1    0    0    0    0  0.00000000000E+00  0.00000000000E+00  0.14999999963E+04  0.15000000000E+04  0.10566000000E+00 0.  1.
        994   -1    0    0    0    0 -0.00000000000E+00 -0.00000000000E+00  0.11368683772E-12  0.17120000000E+03  0.17120000000E+03 0.  0.
         13    1    1    2    0    0  0.58395164271E+01  0.14530114078E+02  0.31603303469E+02  0.35270442603E+02  0.10566000000E+00 0.  1.
        994    1    1    2    0    0  0.13869993928E+02  0.42195228673E+01  0.46291429751E+01  0.17187510020E+03  0.17120000000E+03 0.  0.
        998    1    1    2    0    0 -0.19709510355E+02 -0.18749636945E+02  0.14637675498E+04  0.14640544572E+04  0.10000000000E+02 0.  1.
</event>
<event>
 5    1  0.9123258E-009  0.3805976E+03  0.7957747E-01  0.3448560E+00
         13   -1    0    0    0    0  0.00000000000E+00  0.00000000000E+00  0.14999999963E+04  0.15000000000E+04  0.10566000000E+00 0.  1.
        994   -1    0    0    0    0 -0.00000000000E+00 -0.00000000000E+00  0.11368683772E-12  0.17120000000E+03  0.17120000000E+03 0.  0.
         13    1    1    2    0    0  0.91329795724E+01 -0.80460741390E+01  0.17768000776E+02  0.21537493831E+02  0.10566000000E+00 0.  1.
        994    1    1    2    0    0 -0.61515414637E+01  0.48318106467E+01  0.40359411259E+01  0.17142612601E+03  0.17120000000E+03 0.  0.
        998    1    1    2    0    0 -0.29814381087E+01  0.32142634923E+01  0.14781960544E+04  0.14782363802E+04  0.10000000000E+02 0.  1.
</event>
<event>
 5    1  0.9123258E-009  0.3796386E+03  0.7957747E-01  0.3452734E+00
         13   -1    0    0    0    0  0.00000000000E+00  0.00000000000E+00  0.14999999963E+04  0.15000000000E+04  0.10566000000E+00 0. -1.
        994   -1    0    0    0    0 -0.00000000000E+00 -0.00000000000E+00  0.11368683772E-12  0.17120000000E+03  0.17120000000E+03 0.  0.
         13    1    1    2    0    0  0.28178420078E+02  0.13445966953E+02  0.10542229431E+03  0.10994857292E+03  0.10566000000E+00 0. -1.
        994    1    1    2    0    0 -0.35902487816E+02  0.56567713224E+01  0.87496078962E+01  0.17523408154E+03  0.17120000000E+03 0.  0.
        998    1    1    2    0    0  0.77240677381E+01 -0.19102738275E+02  0.13858280941E+04  0.13860173455E+04  0.10000000000E+02 0. -1.
</event>
<event>
 5    1  0.9123258E-009  0.3825964E+03  0.7957747E-01  0.3439931E+00
         13   -1    0    0    0    0  0.00000000000E+00  0.00000000000E+00  0.14999999963E+04  0.15000000000E+04  0.10566000000E+00 0.  1.
        994   -1    0    0    0    0 -0.00000000000E+00 -0.00000000000E+00  0.11368683772E-12  0.17120000000E+03  0.17120000000E+03 0.  0.
         13    1    1    2    0    0  0.31307743382E+01  0.14635060572E+02  0.40920283444E+02  0.43571406990E+02  0.10566000000E+00 0.  1.
        994    1    1    2    0    0  0.10799685857E+02  0.18699143447E+01  0.32264830270E+01  0.17158082640E+03  0.17120000000E+03 0.  0.
        998    1    1    2    0    0 -0.13930460195E+02 -0.16504974917E+02  0.14558532298E+04  0.14560477666E+04  0.10000000000E+02 0.  1.
</event>
<event>
 5    1  0.9123258E-009  0.3833042E+03  0.7957747E-01  0.3436896E+00
         13   -1    0    0    0    0  0.00000000000E+00  0.00000000000E+00  0.14999999963E+04  0.15000000000E+04  0.10566000000E+00 0.  1.
        994   -1    0    0    0    0 -0.00000000000E+00 -0.00000000000E+00  0.11368683772E-12  0.17120000000E+03  0.17120000000E+03 0.  0.
         13    1    1    2    0    0 -0.60967746815E+01 -0.21657284156E+02  0.98764139881E+02  0.10129449693E+03  0.10566000000E+00 0.  1.
        994    1    1    2    0    0  0.54902892499E+01  0.17627113662E+02  0.36023674400E+01  0.17223029775E+03  0.17120000000E+03 0.  0.
        998    1    1    2    0    0  0.60648543160E+00  0.40301704943E+01  0.13976334890E+04  0.13976752053E+04  0.10000000000E+02 0.  1.
</event>
<event>
 5    1  0.9123258E-009  0.3842831E+03  0.7957747E-01  0.3432718E+00
         13   -1    0    0    0    0  0.00000000000E+00  0.00000000000E+00  0.14999999963E+04  0.15000000000E+04  0.10566000000E+00 0.  1.
        994   -1    0    0    0    0 -0.00000000000E+00 -0.00000000000E+00  0.11368683772E-12  0.17120000000E+03  0.17120000000E+03 0.  0.
         13    1    1    2    0    0  0.15059459007E+02 -0.13967386442E+02  0.12294318458E+03  0.12464715395E+03  0.10566000000E+00 0.  1.
        994    1    1    2    0    0  0.38097030907E+01 -0.38164780503E+01  0.20823468238E+01  0.17129756423E+03  0.17120000000E+03 0.  0.
        998    1    1    2    0    0 -0.18869162098E+02  0.17783864493E+02  0.13749744649E+04  0.13752552818E+04  0.10000000000E+02 0.  1.
</event>
<event>
 5    1  0.9123258E-009  0.3803546E+03  0.7957747E-01  0.3449616E+00
         13   -1    0    0    0    0  0.00000000000E+00  0.00000000000E+00  0.14999999963E+04  0.15000000000E+04  0.10566000000E+00 0.  1.
        994   -1    0    0    0    0 -0.00000000000E+00 -0.00000000000E+00  0.11368683772E-12  0.17120000000E+03  0.17120000000E+03 0.  0.
         13    1    1    2    0    0  0.10128549763E+02  0.51315227344E+01  0.15092653663E+02  0.18887016824E+02  0.10566000000E+00 0.  1.
        994    1    1    2    0    0  0.10078542007E+01  0.87689511761E+01  0.42144345989E+01  0.17147918747E+03  0.17120000000E+03 0.  0.
        998    1    1    2    0    0 -0.11136403964E+02 -0.13900473911E+02  0.14806929080E+04  0.14808337957E+04  0.10000000000E+02 0.  1.
</event>
<event>
 5    1  0.9123258E-009  0.3723876E+03  0.7957747E-01  0.3484989E+00
         13   -1    0    0    0    0  0.00000000000E+00  0.00000000000E+00  0.14999999963E+04  0.15000000000E+04  0.10566000000E+00 0. -1.
        994   -1    0    0    0    0 -0.00000000000E+00 -0.00000000000E+00  0.11368683772E-12  0.17120000000E+03  0.17120000000E+03 0.  0.
         13    1    1    2    0    0  0.96315767483E+01  0.93862973724E+01  0.73679683133E+01  0.15335187319E+02  0.10566000000E+00 0. -1.
        994    1    1    2    0    0 -0.35252822893E+02  0.37767536021E+01  0.12349511336E+02  0.17526829668E+03  0.17120000000E+03 0.  0.
        998    1    1    2    0    0  0.25621246145E+02 -0.13163050975E+02  0.14802825166E+04  0.14805965160E+04  0.10000000000E+02 0. -1.
</event>
<event>
 5    1  0.9123258E-009  0.3859861E+03  0.7957747E-01  0.3425501E+00
         13   -1    0    0    0    0  0.00000000000E+00  0.00000000000E+00  0.14999999963E+04  0.15000000000E+04  0.10566000000E+00 0. -1.
        994   -1    0    0    0    0 -0.00000000000E+00 -0.00000000000E+00  0.11368683772E-12  0.17120000000E+03  0.17120000000E+03 0.  0.
         13    1    1    2    0    0 -0.75101409395E+02 -0.45175189617E+02  0.23038878339E+03  0.24649548094E+03  0.10566000000E+00 0. -1.
        994    1    1    2    0    0  0.87661668166E+01  0.44802658564E+01  0.20014503363E+02  0.17264686156E+03  0.17120000000E+03 0.  0.
        998    1    1    2    0    0  0.66335242579E+02  0.40694923760E+02  0.12495967095E+04  0.12520576575E+04  0.10000000000E+02 0. -1.
</event>
<event>
 5    1  0.9123258E-009  0.3822900E+03  0.7957747E-01  0.3441247E+00
         13   -1    0    0    0    0  0.00000000000E+00  0.00000000000E+00  0.14999999963E+04  0.15000000000E+04  0.10566000000E+00 0. -1.
        994   -1    0    0    0    0 -0.00000000000E+00 -0.00000000000E+00  0.11368683772E-12  0.17120000000E+03  0.17120000000E+03 0.  0.
         13    1    1    2    0    0  0.85603871300E+01  0.12344163701E+02  0.36061212035E+02  0.39065083933E+02  0.10566000000E+00 0. -1.
        994    1    1    2    0    0 -0.17999443695E+02 -0.65157841243E+01  0.41982952971E+01  0.17231802314E+03  0.17120000000E+03 0.  0.
        998    1    1    2    0    0  0.94390565653E+01 -0.58283795766E+01  0.14597404889E+04  0.14598168929E+04  0.10000000000E+02 0. -1.
</event>
<event>
 5    1  0.9123258E-009  0.3802448E+03  0.7957747E-01  0.3450093E+00
         13   -1    0    0    0    0  0.00000000000E+00  0.00000000000E+00  0.14999999963E+04  0.15000000000E+04  0.10566000000E+00 0. -1.
        994   -1    0    0    0    0 -0.00000000000E+00 -0.00000000000E+00  0.11368683772E-12  0.17120000000E+03  0.17120000000E+03 0.  0.
         13    1    1    2    0    0 -0.15137818960E+03 -0.16728495764E+03  0.89864978490E+03  0.92653713385E+03  0.10566000000E+00 0. -1.
        994    1    1    2    0    0  0.16589715900E+03  0.18259744060E+03  0.24501543365E+03  0.38756379527E+03  0.17120000000E+03 0.  0.
        998    1    1    2    0    0 -0.14518969401E+02 -0.15312482962E+02  0.35633477773E+03  0.35709907088E+03  0.10000000000E+02 0. -1.
</event>
<event>
 5    1  0.9123258E-009  0.3797892E+03  0.7957747E-01  0.3452077E+00
         13   -1    0    0    0    0  0.00000000000E+00  0.00000000000E+00  0.14999999963E+04  0.15000000000E+04  0.10566000000E+00 0. -1.
        994   -1    0    0    0    0 -0.00000000000E+00 -0.00000000000E+00  0.11368683772E-12  0.17120000000E+03  0.17120000000E+03 0.  0.
         13    1    1    2    0    0  0.14426950967E+01  0.99162085962E+01  0.99283147144E+01  0.14106564400E+02  0.10566000000E+00 0. -1.
        994    1    1    2    0    0 -0.13308427199E+01 -0.85154761691E+01  0.44881271984E+01  0.17147556025E+03  0.17120000000E+03 0.  0.
        998    1    1    2    0    0 -0.11185237681E+00 -0.14007324271E+01  0.14855835544E+04  0.14856178754E+04  0.10000000000E+02 0. -1.
</event>
<event>
 5    1  0.9123258E-009  0.3829096E+03  0.7957747E-01  0.3438587E+00
         13   -1    0    0    0    0  0.00000000000E+00  0.00000000000E+00  0.14999999963E+04  0.15000000000E+04  0.10566000000E+00 0.  1.
        994   -1    0    0    0    0 -0.00000000000E+00 -0.00000000000E+00  0.11368683772E-12  0.17120000000E+03  0.17120000000E+03 0.  0.
         13    1    1    2    0    0 -0.45471171592E+01 -0.23502836219E+02  0.94347661072E+02  0.97337309900E+02  0.10566000000E+00 0.  1.
        994    1    1    2    0    0  0.57547622989E+01  0.34651705658E+02  0.67677331866E+01  0.17489739908E+03  0.17120000000E+03 0.  0.
        998    1    1    2    0    0 -0.12076451397E+01 -0.11148869439E+02  0.13988846020E+04  0.13989652910E+04  0.10000000000E+02 0.  1.
</event>
<event>
 5    1  0.9123258E-009  0.3790504E+03  0.7957747E-01  0.3455304E+00
         13   -1    0    0    0    0  0.00000000000E+00  0.00000000000E+00  0.14999999963E+04  0.15000000000E+04  0.10566000000E+00 0.  1.
        994   -1    0    0    0    0 -0.00000000000E+00 -0.00000000000E+00  0.11368683772E-12  0.17120000000E+03  0.17120000000E+03 0.  0.
         13    1    1    2    0    0 -0.35189072980E+02 -0.40816755630E+01  0.12680888135E+03  0.13166409718E+03  0.10566000000E+00 0.  1.
        994    1    1    2    0    0  0.31864766041E+02  0.43889675356E+00  0.80263546619E+01  0.17432561004E+03  0.17120000000E+03 0.  0.
        998    1    1    2    0    0  0.33243069386E+01  0.36427788094E+01  0.13651647603E+04  0.13652102928E+04  0.10000000000E+02 0.  1.
</event>
<event>
 5    1  0.9123258E-009  0.3809775E+03  0.7957747E-01  0.3446913E+00
         13   -1    0    0    0    0  0.00000000000E+00  0.00000000000E+00  0.14999999963E+04  0.15000000000E+04  0.10566000000E+00 0. -1.
        994   -1    0    0    0    0 -0.00000000000E+00 -0.00000000000E+00  0.11368683772E-12  0.17120000000E+03  0.17120000000E+03 0.  0.
         13    1    1    2    0    0  0.26222957448E+01 -0.98826327887E+01  0.13077839654E+02  0.16600720462E+02  0.10566000000E+00 0. -1.
        994    1    1    2    0    0 -0.12197642849E+02 -0.48402365918E+01  0.42145393554E+01  0.17175393074E+03  0.17120000000E+03 0.  0.
        998    1    1    2    0    0  0.95753471044E+01  0.14722869380E+02  0.14827076173E+04  0.14828453488E+04  0.10000000000E+02 0. -1.
</event>
<event>
 5    1  0.9123258E-009  0.3798782E+03  0.7957747E-01  0.3451689E+00
         13   -1    0    0    0    0  0.00000000000E+00  0.00000000000E+00  0.14999999963E+04  0.15000000000E+04  0.10566000000E+00 0. -1.
        994   -1    0    0    0    0 -0.00000000000E+00 -0.00000000000E+00  0.11368683772E-12  0.17120000000E+03  0.17120000000E+03 0.  0.
         13    1    1    2    0    0 -0.11223726981E+02 -0.29257655734E+02  0.10584554025E+03  0.11038691961E+03  0.10566000000E+00 0. -1.
        994    1    1    2    0    0  0.98286037720E+01  0.34635577884E+02  0.85417495378E+01  0.17515315068E+03  0.17120000000E+03 0.  0.
        998    1    1    2    0    0  0.13951232091E+01 -0.53779221498E+01  0.13856127065E+04  0.13856599297E+04  0.10000000000E+02 0. -1.
</event>
<event>
 5    1  0.9123258E-009  0.3726896E+03  0.7957747E-01  0.3483620E+00
         13   -1    0    0    0    0  0.00000000000E+00  0.00000000000E+00  0.14999999963E+04  0.15000000000E+04  0.10566000000E+00 0.  1.
        994   -1    0    0    0    0 -0.00000000000E+00 -0.00000000000E+00  0.11368683772E-12  0.17120000000E+03  0.17120000000E+03 0.  0.
         13    1    1    2    0    0  0.11914537700E+01  0.47579096219E+02  0.86214789574E+02  0.98479394110E+02  0.10566000000E+00 0.  1.
        994    1    1    2    0    0 -0.28141839520E+01 -0.34678681287E+02  0.16652404074E+02  0.17549151868E+03  0.17120000000E+03 0.  0.
        998    1    1    2    0    0  0.16227301820E+01 -0.12900414932E+02  0.13971328026E+04  0.13972290872E+04  0.10000000000E+02 0.  1.
</event>
<event>
 5    1  0.9123258E-009  0.3887327E+03  0.7957747E-01  0.3413994E+00
         13   -1    0    0    0    0  0.00000000000E+00  0.00000000000E+00  0.14999999963E+04  0.15000000000E+04  0.10566000000E+00 0. -1.
        994   -1    0    0    0    0 -0.00000000000E+00 -0.00000000000E+00  0.11368683772E-12  0.17120000000E+03  0.17120000000E+03 0.  0.
         13    1    1    2    0    0 -0.29376906083E+02 -0.10340544433E+03  0.31665093592E+03  0.33440023163E+03  0.10566000000E+00 0. -1.
        994    1    1    2    0    0  0.50730679666E+02  0.19520644804E+02  0.32355897926E+02  0.18251301752E+03  0.17120000000E+03 0.  0.
        998    1    1    2    0    0 -0.21353773582E+02  0.83884799525E+02  0.11509931624E+04  0.11542867509E+04  0.10000000000E+02 0. -1.
</event>
<event>
 5    1  0.9123258E-009  0.3830612E+03  0.7957747E-01  0.3437937E+00
         13   -1    0    0    0    0  0.00000000000E+00  0.00000000000E+00  0.14999999963E+04  0.15000000000E+04  0.10566000000E+00 0. -1.
        994   -1    0    0    0    0 -0.00000000000E+00 -0.00000000000E+00  0.11368683772E-12  0.17120000000E+03  0.17120000000E+03 0.  0.
         13    1    1    2    0    0 -0.19096006419E+02 -0.70928220606E+01  0.75517072838E+02  0.78216398792E+02  0.10566000000E+00 0. -1.
        994    1    1    2    0    0  0.20187223490E+02  0.78095107091E+01  0.41478624299E+01  0.17261273769E+03  0.17120000000E+03 0.  0.
        998    1    1    2    0    0 -0.10912170711E+01 -0.71668864857E+00  0.14203350610E+04  0.14203708635E+04  0.10000000000E+02 0. -1.
</event>
<event>
 5    1  0.9123258E-009  0.3835661E+03  0.7957747E-01  0.3435776E+00
         13   -1    0    0    0    0  0.00000000000E+00  0.00000000000E+00  0.14999999963E+04  0.15000000000E+04  0.10566000000E+00 0.  1.
        994   -1    0    0    0    0 -0.00000000000E+00 -0.00000000000E+00  0.11368683772E-12  0.17120000000E+03  0.17120000000E+03 0.  0.
         13    1    1    2    0    0 -0.28495770718E+02  0.18664221443E+01  0.15945898666E+03  0.16199590140E+03  0.10566000000E+00 0.  1.
        994    1    1    2    0    0  0.26823369379E+02 -0.40762227674E+01  0.47796204782E+01  0.17340240341E+03  0.17120000000E+03 0.  0.
        998    1    1    2    0    0  0.16724013389E+01  0.22098006231E+01  0.13357613891E+04  0.13358016952E+04  0.10000000000E+02 0.  1.
</event>
<event>
 5    1  0.9123258E-009  0.3833112E+03  0.7957747E-01  0.3436866E+00
         13   -1    0    0    0    0  0.00000000000E+00  0.00000000000E+00  0.14999999963E+04  0.15000000000E+04  0.10566000000E+00 0. -1.
        994   -1    0    0    0    0 -0.00000000000E+00 -0.00000000000E+00  0.11368683772E-12  0.17120000000E+03  0.17120000000E+03 0.  0.
         13    1    1    2    0    0 -0.14916274585E+02  0.15528568132E+02  0.95928159540E+02  0.98315078358E+02  0.10566000000E+00 0. -1.
        994    1    1    2    0    0  0.59964521725E+01 -0.65428135290E+01  0.27314349189E+01  0.17145164503E+03  0.17120000000E+03 0.  0.
        998    1    1    2    0    0  0.89198224120E+01 -0.89857546032E+01  0.14013404018E+04  0.14014332766E+04  0.10000000000E+02 0. -1.
</event>
<event>
 5    1  0.9123258E-009  0.3840887E+03  0.7957747E-01  0.3433546E+00
         13   -1    0    0    0    0  0.00000000000E+00  0.00000000000E+00  0.14999999963E+04  0.15000000000E+04  0.10566000000E+00 0.  1.
        994   -1    0    0    0    0 -0.00000000000E+00 -0.00000000000E+00  0.11368683772E-12  0.17120000000E+03  0.17120000000E+03 0.  0.
         13    1    1    2    0    0 -0.19581792366E+01  0.12880755080E+02  0.45952747947E+02  0.47764155234E+02  0.10566000000E+00 0.  1.
        994    1    1    2    0    0 -0.16130269850E+02  0.15890518367E+02  0.37761530714E+01  0.17273214383E+03  0.17120000000E+03 0.  0.
        998    1    1    2    0    0  0.18088449086E+02 -0.28771273447E+02  0.14502710953E+04  0.14507037009E+04  0.10000000000E+02 0.  1.
</event>
<event>
 5    1  0.9123258E-009  0.3681720E+03  0.7957747E-01  0.3504334E+00
         13   -1    0    0    0    0  0.00000000000E+00  0.00000000000E+00  0.14999999963E+04  0.15000000000E+04  0.10566000000E+00 0. -1.
        994   -1    0    0    0    0 -0.00000000000E+00 -0.00000000000E+00  0.11368683772E-12  0.17120000000E+03  0.17120000000E+03 0.  0.
         13    1    1    2    0    0 -0.44267925651E+02 -0.31228437369E+03  0.86621291619E+03  0.92184923205E+03  0.10566000000E+00 0. -1.
        994    1    1    2    0    0  0.35623209480E+02  0.29853756886E+03  0.46554068221E+03  0.58002694753E+03  0.17120000000E+03 0.  0.
        998    1    1    2    0    0  0.86447161709E+01  0.13746804839E+02  0.16824639788E+03  0.16932382042E+03  0.10000000000E+02 0.  0.
</event>
<event>
 5    1  0.9123258E-009  0.3827262E+03  0.7957747E-01  0.3439373E+00
         13   -1    0    0    0    0  0.00000000000E+00  0.00000000000E+00  0.14999999963E+04  0.15000000000E+04  0.10566000000E+00 0.  1.
        994   -1    0    0    0    0 -0.00000000000E+00 -0.00000000000E+00  0.11368683772E-12  0.17120000000E+03  0.17120000000E+03 0.  0.
         13    1    1    2    0    0  0.10851184237E+02  0.32070095813E+02  0.17439284838E+03  0.17764885582E+03  0.10566000000E+00 0.  1.
        994    1    1    2    0    0 -0.14109300253E+02 -0.38500269069E+02  0.83537718965E+01  0.17624008788E+03  0.17120000000E+03 0.  0.
        998    1    1    2    0    0  0.32581160159E+01  0.64301732559E+01  0.13172533760E+04  0.13173110563E+04  0.10000000000E+02 0.  1.
</event>
<event>
 5    1  0.9123258E-009  0.3703069E+03  0.7957747E-01  0.3494482E+00
         13   -1    0    0    0    0  0.00000000000E+00  0.00000000000E+00  0.14999999963E+04  0.15000000000E+04  0.10566000000E+00 0.  1.
        994   -1    0    0    0    0 -0.00000000000E+00 -0.00000000000E+00  0.11368683772E-12  0.17120000000E+03  0.17120000000E+03 0.  0.
         13    1    1    2    0    0 -0.40935913088E+00 -0.20206502411E+02  0.13458014026E+02  0.24281672515E+02  0.10566000000E+00 0.  1.
        994    1    1    2    0    0 -0.64864048397E+00  0.18106945856E+02  0.12250887341E+02  0.17259144377E+03  0.17120000000E+03 0.  0.
        998    1    1    2    0    0  0.10579996148E+01  0.20995565555E+01  0.14742910949E+04  0.14743268837E+04  0.10000000000E+02 0.  1.
</event>
<event>
 5    1  0.9123258E-009  0.3837133E+03  0.7957747E-01  0.3435148E+00
         13   -1    0    0    0    0  0.00000000000E+00  0.00000000000E+00  0.14999999963E+04  0.15000000000E+04  0.10566000000E+00 0.  1.
        994   -1    0    0    0    0 -0.00000000000E+00 -0.00000000000E+00  0.11368683772E-12  0.17120000000E+03  0.17120000000E+03 0.  0.
         13    1    1    2    0    0 -0.11039184741E+02 -0.77008209937E+01  0.38915272901E+02  0.41177370881E+02  0.10566000000E+00 0.  1.
        994    1    1    2    0    0  0.10884288689E+02  0.40627074596E+01  0.27161655949E+01  0.17161524084E+03  0.17120000000E+03 0.  0.
        998    1    1    2    0    0  0.15489605257E+00  0.36381135341E+01  0.14583685578E+04  0.14584073883E+04  0.10000000000E+02 0.  1.
</event>
<event>
 5    1  0.9123258E-009  0.3710249E+03  0.7957747E-01  0.3491194E+00
         13   -1    0    0    0    0  0.00000000000E+00  0.00000000000E+00  0.14999999963E+04  0.15000000000E+04  0.10566000000E+00 0. -1.
        994   -1    0    0    0    0 -0.00000000000E+00 -0.00000000000E+00  0.11368683772E-12  0.17120000000E+03  0.17120000000E+03 0.  0.
         13    1    1    2    0    0  0.64808349110E+02  0.19767965258E+01  0.21991166103E+03  0.22927097431E+03  0.10566000000E+00 0. -1.
        994    1    1    2    0    0 -0.51560452545E+02 -0.13829529977E+02  0.18617832287E+02  0.18029364893E+03  0.17120000000E+03 0.  0.
        998    1    1    2    0    0 -0.13247896565E+02  0.11852733451E+02  0.12614705030E+04  0.12616353768E+04  0.10000000000E+02 0. -1.
</event>
<event>
 5    1  0.9123258E-009  0.3854165E+03  0.7957747E-01  0.3427908E+00
         13   -1    0    0    0    0  0.00000000000E+00  0.00000000000E+00  0.14999999963E+04  0.15000000000E+04  0.10566000000E+00 0.  1.
        994   -1    0    0    0    0 -0.00000000000E+00 -0.00000000000E+00  0.11368683772E-12  0.17120000000E+03  0.17120000000E+03 0.  0.
         13    1    1    2    0    0  0.10003134968E+02 -0.70034463976E+01  0.53516076646E+02  0.54891644121E+02  0.10566000000E+00 0.  1.
        994    1    1    2    0    0 -0.32935749779E+01  0.44769205002E+01  0.15249338789E+01  0.17129698152E+03  0.17120000000E+03 0.  0.
        998    1    1    2    0    0 -0.67095599902E+01  0.25265258974E+01  0.14449589858E+04  0.14450113744E+04  0.10000000000E+02 0.  1.
</event>
<event>
 5    1  0.9123258E-009  0.3707191E+03  0.7957747E-01  0.3492592E+00
         13   -1    0    0    0    0  0.00000000000E+00  0.00000000000E+00  0.14999999963E+04  0.15000000000E+04  0.10566000000E+00 0. -1.
        994   -1    0    0    0    0 -0.00000000000E+00 -0.00000000000E+00  0.11368683772E-12  0.17120000000E+03  0.17120000000E+03 0.  0.
         13    1    1    2    0    0 -0.99525288993E+02  0.30624165967E+02  0.36468159955E+03  0.37925690884E+03  0.10566000000E+00 0. -1.
        994    1    1    2    0    0  0.94421629898E+02 -0.33367184371E+02  0.47348842294E+02  0.20391215278E+03  0.17120000000E+03 0.  0.
        998    1    1    2    0    0  0.51036590956E+01  0.27430184036E+01  0.10879695544E+04  0.10880309384E+04  0.10000000000E+02 0.  0.
</event>
<event>
 5    1  0.9123258E-009  0.3798020E+03  0.7957747E-01  0.3452021E+00
         13   -1    0    0    0    0  0.00000000000E+00  0.00000000000E+00  0.14999999963E+04  0.15000000000E+04  0.10566000000E+00 0. -1.
        994   -1    0    0    0    0 -0.00000000000E+00 -0.00000000000E+00  0.11368683772E-12  0.17120000000E+03  0.17120000000E+03 0.  0.
         13    1    1    2    0    0 -0.50609708161E+01 -0.34051224138E+02  0.13289123777E+03  0.13727778965E+03  0.10566000000E+00 0. -1.
        994    1    1    2    0    0  0.15056446017E+02  0.25711003164E+02  0.72084608978E+01  0.17392283967E+03  0.17120000000E+03 0.  0.
        998    1    1    2    0    0 -0.99954752006E+01  0.83402209738E+01  0.13599002976E+04  0.13599993707E+04  0.10000000000E+02 0. -1.
</event>
<event>
 5    1  0.9123258E-009  0.3849246E+03  0.7957747E-01  0.3429992E+00
         13   -1    0    0    0    0  0.00000000000E+00  0.00000000000E+00  0.14999999963E+04  0.15000000000E+04  0.10566000000E+00 0.  1.
        994   -1    0    0    0    0 -0.00000000000E+00 -0.00000000000E+00  0.11368683772E-12  0.17120000000E+03  0.17120000000E+03 0.  0.
         13    1    1    2    0    0  0.10015955430E+02 -0.12850973660E+02  0.85249929471E+02  0.86793021183E+02  0.10566000000E+00 0.  1.
        994    1    1    2    0    0  0.69386655331E+01  0.70117137291E+01  0.19877579435E+01  0.17149548213E+03  0.17120000000E+03 0.  0.
        998    1    1    2    0    0 -0.16954620963E+02  0.58392599306E+01  0.14127623089E+04  0.14129114967E+04  0.10000000000E+02 0.  1.
</event>
<event>
 5    1  0.9123258E-009  0.3825251E+03  0.7957747E-01  0.3440237E+00
         13   -1    0    0    0    0  0.00000000000E+00  0.00000000000E+00  0.14999999963E+04  0.15000000000E+04  0.10566000000E+00 0.  1.
        994   -1    0    0    0    0 -0.00000000000E+00 -0.00000000000E+00  0.11368683772E-12  0.17120000000E+03  0.17120000000E+03 0.  0.
         13    1    1    2    0    0  0.15963739764E+02 -0.43351062444E+01  0.34791036321E+02  0.38523518865E+02  0.10566000000E+00 0.  1.
        994    1    1    2    0    0 -0.82501781092E+02  0.41694947167E+02  0.31729435261E+02  0.19713246705E+03  0.17120000000E+03 0.  0.
        998    1    1    2    0    0  0.66538041328E+02 -0.37359840922E+02  0.14334795247E+04  0.14355440141E+04  0.10000000000E+02 0.  1.
</event>
<event>
 5    1  0.9123258E-009  0.3761346E+03  0.7957747E-01  0.3468164E+00
         13   -1    0    0    0    0  0.00000000000E+00  0.00000000000E+00  0.14999999963E+04  0.15000000000E+04  0.10566000000E+00 0.  1.
        994   -1    0    0    0    0 -0.00000000000E+00 -0.00000000000E+00  0.11368683772E-12  0.17120000000E+03  0.17120000000E+03 0.  0.
         13    1    1    2    0    0 -0.46027874873E+02 -0.34175643658E+02  0.26197701881E+03  0.26817626561E+03  0.10566000000E+00 0.  1.
        994    1    1    2    0    0  0.25647048349E+02  0.25341343667E+02  0.10511852775E+02  0.17527091555E+03  0.17120000000E+03 0.  0.
        998    1    1    2    0    0  0.20380826524E+02  0.88342999902E+01  0.12275111247E+04  0.12277528188E+04  0.10000000000E+02 0.  1.
</event>
<event>
 5    1  0.9123258E-009  0.4018842E+03  0.7957747E-01  0.3361076E+00
         13   -1    0    0    0    0  0.00000000000E+00  0.00000000000E+00  0.14999999963E+04  0.15000000000E+04  0.10566000000E+00 0. -1.
        994   -1    0    0    0    0 -0.00000000000E+00 -0.00000000000E+00  0.11368683772E-12  0.17120000000E+03  0.17120000000E+03 0.  0.
         13    1    1    2    0    0 -0.90806141356E+01 -0.14201550749E+03  0.49420288413E+03  0.51428334969E+03  0.10566000000E+00 0. -1.
        994    1    1    2    0    0 -0.16224371629E+02  0.29491392705E+02  0.33391402870E+02  0.17764402119E+03  0.17120000000E+03 0.  0.
        998    1    1    2    0    0  0.25304985765E+02  0.11252411478E+03  0.97240570928E+03  0.97927262912E+03  0.10000000000E+02 0. -1.
</event>
<event>
 5    1  0.9123258E-009  0.3741548E+03  0.7957747E-01  0.3477012E+00
         13   -1    0    0    0    0  0.00000000000E+00  0.00000000000E+00  0.14999999963E+04  0.15000000000E+04  0.10566000000E+00 0.  1.
        994   -1    0    0    0    0 -0.00000000000E+00 -0.00000000000E+00  0.11368683772E-12  0.17120000000E+03  0.17120000000E+03 0.  0.
         13    1    1    2    0    0  0.13160551113E+02  0.35858698164E+02  0.94631632130E+02  0.10205000394E+03  0.10566000000E+00 0.  1.
        994    1    1    2    0    0 -0.15809977546E+02 -0.33991593472E+02  0.11919324432E+02  0.17566130511E+03  0.17120000000E+03 0.  0.
        998    1    1    2    0    0  0.26494264331E+01 -0.18671046922E+01  0.13934490397E+04  0.13934886910E+04  0.10000000000E+02 0.  1.
</event>
<event>
 5    1  0.9123258E-009  0.3807562E+03  0.7957747E-01  0.3447872E+00
         13   -1    0    0    0    0  0.00000000000E+00  0.00000000000E+00  0.14999999963E+04  0.15000000000E+04  0.10566000000E+00 0.  1.
        994   -1    0    0    0    0 -0.00000000000E+00 -0.00000000000E+00  0.11368683772E-12  0.17120000000E+03  0.17120000000E+03 0.  0.
         13    1    1    2    0    0  0.87151274451E+02  0.20424133020E+02  0.24210444682E+03  0.25812218847E+03  0.10566000000E+00 0.  1.
        994    1    1    2    0    0 -0.43642059665E+02 -0.22396388824E+02  0.25538438028E+02  0.17991075405E+03  0.17120000000E+03 0.  0.
        998    1    1    2    0    0 -0.43509214785E+02  0.19722558045E+01  0.12323571114E+04  0.12331670575E+04  0.10000000000E+02 0.  1.
</event>
<event>
 5    1  0.9123258E-009  0.3818300E+03  0.7957747E-01  0.3443229E+00
         13   -1    0    0    0    0  0.00000000000E+00  0.00000000000E+00  0.14999999963E+04  0.15000000000E+04  0.10566000000E+00 0.  1.
        994   -1    0    0    0    0 -0.00000000000E+00 -0.00000000000E+00  0.11368683772E-12  0.17120000000E+03  0.17120000000E+03 0.  0.
         13    1    1    2    0    0 -0.12277563225E+02  0.21851758143E+02  0.95216422832E+02  0.98460226659E+02  0.10566000000E+00 0.  1.
        994    1    1    2    0    0 -0.16822067839E+02 -0.31395222894E+02  0.74391871953E+01  0.17502406547E+03  0.17120000000E+03 0.  0.
        998    1    1    2    0    0  0.29099631064E+02  0.95434647505E+01  0.13973443863E+04  0.13977157079E+04  0.10000000000E+02 0.  1.
</event>
<event>
 5    1  0.9123258E-009  0.3808789E+03  0.7957747E-01  0.3447341E+00
         13   -1    0    0    0    0  0.00000000000E+00  0.00000000000E+00  0.14999999963E+04  0.15000000000E+04  0.10566000000E+00 0.  1.
        994   -1    0    0    0    0 -0.00000000000E+00 -0.00000000000E+00  0.11368683772E-12  0.17120000000E+03  0.17120000000E+03 0.  0.
         13    1    1    2    0    0 -0.11018666031E+02  0.45887842473E+01  0.18589422897E+02  0.22091757505E+02  0.10566000000E+00 0.  1.
        994    1    1    2    0    0 -0.13517359569E+02 -0.10919302144E+02  0.46972775681E+01  0.17214370330E+03  0.17120000000E+03 0.  0.
        998    1    1    2    0    0  0.24536025600E+02  0.63305178966E+01  0.14767132958E+04  0.14769645392E+04  0.10000000000E+02 0.  1.
</event>
<event>
 5    1  0.9123258E-009  0.3783444E+03  0.7957747E-01  0.3458399E+00
         13   -1    0    0    0    0  0.00000000000E+00  0.00000000000E+00  0.14999999963E+04  0.15000000000E+04  0.10566000000E+00 0.  1.
        994   -1    0    0    0    0 -0.00000000000E+00 -0.00000000000E+00  0.11368683772E-12  0.17120000000E+03  0.17120000000E+03 0.  0.
         13    1    1    2    0    0  0.34657858868E+02 -0.11877456201E+02  0.14422398271E+03  0.14880460174E+03  0.10566000000E+00 0.  1.
        994    1    1    2    0    0 -0.91198146334E+01 -0.18600218008E+01  0.52624897555E+01  0.17153356668E+03  0.17120000000E+03 0.  0.
        998    1    1    2    0    0 -0.25538044235E+02  0.13737478002E+02  0.13505135238E+04  0.13508618316E+04  0.10000000000E+02 0.  1.
</event>
<event>
 5    1  0.9123258E-009  0.3692258E+03  0.7957747E-01  0.3499457E+00
         13   -1    0    0    0    0  0.00000000000E+00  0.00000000000E+00  0.14999999963E+04  0.15000000000E+04  0.10566000000E+00 0. -1.
        994   -1    0    0    0    0 -0.00000000000E+00 -0.00000000000E+00  0.11368683772E-12  0.17120000000E+03  0.17120000000E+03 0.  0.
         13    1    1    2    0    0  0.27461635672E+02 -0.14208801010E+03  0.68916863560E+03  0.70419923566E+03  0.10566000000E+00 0. -1.
        994    1    1    2    0    0 -0.27283117120E+01  0.12954028091E+03  0.70353510549E+02  0.22593623992E+03  0.17120000000E+03 0.  0.
        998    1    1    2    0    0 -0.24733323960E+02  0.12547729190E+02  0.74047785013E+03  0.74106452442E+03  0.10000000000E+02 0. -1.
</event>
<event>
 5    1  0.9123258E-009  0.3833121E+03  0.7957747E-01  0.3436863E+00
         13   -1    0    0    0    0  0.00000000000E+00  0.00000000000E+00  0.14999999963E+04  0.15000000000E+04  0.10566000000E+00 0.  1.
        994   -1    0    0    0    0 -0.00000000000E+00 -0.00000000000E+00  0.11368683772E-12  0.17120000000E+03  0.17120000000E+03 0.  0.
         13    1    1    2    0    0 -0.16031238679E+02 -0.22003030380E+02  0.14707414968E+03  0.14957255974E+03  0.10566000000E+00 0.  1.
        994    1    1    2    0    0  0.11266580997E+02  0.14355024650E+02  0.35724117214E+01  0.17220686602E+03  0.17120000000E+03 0.  0.
        998    1    1    2    0    0  0.47646576819E+01  0.76480057299E+01  0.13493534349E+04  0.13494205742E+04  0.10000000000E+02 0.  1.
</event>
<event>
 5    1  0.9123258E-009  0.3761831E+03  0.7957747E-01  0.3467948E+00
         13   -1    0    0    0    0  0.00000000000E+00  0.00000000000E+00  0.14999999963E+04  0.15000000000E+04  0.10566000000E+00 0. -1.
        994   -1    0    0    0    0 -0.00000000000E+00 -0.00000000000E+00  0.11368683772E-12  0.17120000000E+03  0.17120000000E+03 0.  0.
         13    1    1    2    0    0  0.36745930504E+02 -0.24328718949E+02  0.17559872475E+03  0.18104439586E+03  0.10566000000E+00 0. -1.
        994    1    1    2    0    0 -0.22854345254E+01  0.10596686564E+02  0.64703980395E+01  0.17166484506E+03  0.17120000000E+03 0.  0.
        998    1    1    2    0    0 -0.34460495979E+02  0.13732032386E+02  0.13179308735E+04  0.13184907591E+04  0.10000000000E+02 0. -1.
</event>
<event>
 5    1  0.9123258E-009  0.3689761E+03  0.7957747E-01  0.3500610E+00
         13   -1    0    0    0    0  0.00000000000E+00  0.00000000000E+00  0.14999999963E+04  0.15000000000E+04  0.10566000000E+00 0.  1.
        994   -1    0    0    0    0 -0.00000000000E+00 -0.00000000000E+00  0.11368683772E-12  0.17120000000E+03  0.17120000000E+03 0.  0.
         13    1    1    2    0    0  0.41750371040E+02  0.72054347866E+02  0.47364705766E+03  0.48091212183E+03  0.10566000000E+00 0.  1.
        994    1    1    2    0    0 -0.20503174476E+01 -0.79801207201E+01  0.10634922183E+02  0.17172777206E+03  0.17120000000E+03 0.  0.
        998    1    1    2    0    0 -0.39700053593E+02 -0.64074227146E+02  0.10157180164E+04  0.10185601061E+04  0.10000000000E+02 0.  1.
</event>
<event>
 5    1  0.9123258E-009  0.3858402E+03  0.7957747E-01  0.3426117E+00
         13   -1    0    0    0    0  0.00000000000E+00  0.00000000000E+00  0.14999999963E+04  0.15000000000E+04  0.10566000000E+00 0.  1.
        994   -1    0    0    0    0 -0.00000000000E+00 -0.00000000000E+00  0.11368683772E-12  0.17120000000E+03  0.17120000000E+03 0.  0.
         13    1    1    2    0    0  0.37714545119E+01  0.13601588479E+02  0.80796840672E+02  0.82020532216E+02  0.10566000000E+00 0.  1.
        994    1    1    2    0    0  0.56088553687E+01 -0.14474149037E+02  0.20042617534E+01  0.17191398231E+03  0.17120000000E+03 0.  0.
        998    1    1    2    0    0 -0.93803098807E+01  0.87256055721E+00  0.14171988939E+04  0.14172654855E+04  0.10000000000E+02 0.  1.
</event>
<event>
 5    1  0.9123258E-009  0.3760650E+03  0.7957747E-01  0.3468474E+00
         13   -1    0    0    0    0  0.00000000000E+00  0.00000000000E+00  0.14999999963E+04  0.15000000000E+04  0.10566000000E+00 0. -1.
        994   -1    0    0    0    0 -0.00000000000E+00 -0.00000000000E+00  0.11368683772E-12  0.17120000000E+03  0.17120000000E+03 0.  0.
         13    1    1    2    0    0 -0.58251510263E+01 -0.15150859004E+02  0.19556004480E+02  0.25415140926E+02  0.10566000000E+00 0. -1.
        994    1    1    2    0    0  0.29027316794E+01 -0.50980187840E+01  0.62494432726E+01  0.17141444276E+03  0.17120000000E+03 0.  0.
        998    1    1    2    0    0  0.29224193469E+01  0.20248877788E+02  0.14741945485E+04  0.14743704163E+04  0.10000000000E+02 0. -1.
</event>
<event>
 5    1  0.9123258E-009  0.3800252E+03  0.7957747E-01  0.3451049E+00
         13   -1    0    0    0    0  0.00000000000E+00  0.00000000000E+00  0.14999999963E+04  0.15000000000E+04  0.10566000000E+00 0.  1.
        994   -1    0    0    0    0 -0.00000000000E+00 -0.00000000000E+00  0.11368683772E-12  0.17120000000E+03  0.17120000000E+03 0.  0.
         13    1    1    2    0    0  0.89665225693E+02  0.10023250325E+03  0.55515847471E+03  0.57121567784E+03  0.10566000000E+00 0.  1.
        994    1    1    2    0    0 -0.11628696827E+03 -0.13073107051E+02  0.67814648297E+02  0.21817843991E+03  0.17120000000E+03 0.  0.
        998    1    1    2    0    0  0.26621742580E+02 -0.87159396203E+02  0.87702687328E+03  0.88180588225E+03  0.10000000000E+02 0.  1.
</event>
<event>
 5    1  0.9123258E-009  0.3780105E+03  0.7957747E-01  0.3459867E+00
         13   -1    0    0    0    0  0.00000000000E+00  0.00000000000E+00  0.14999999963E+04  0.15000000000E+04  0.10566000000E+00 0. -1.
        994   -1    0    0    0    0 -0.00000000000E+00 -0.00000000000E+00  0.11368683772E-12  0.17120000000E+03  0.17120000000E+03 0.  0.
         13    1    1    2    0    0  0.21875007932E+01 -0.41140081083E+02  0.15169613360E+03  0.15719102883E+03  0.10566000000E+00 0. -1.
        994    1    1    2    0    0 -0.24670608349E+01  0.36985145011E+02  0.97782921216E+01  0.17543956890E+03  0.17120000000E+03 0.  0.
        998    1    1    2    0    0  0.27956004174E+00  0.41549360725E+01  0.13385255706E+04  0.13385694023E+04  0.10000000000E+02 0. -1.
</event>
<event>
 5    1  0.9123258E-009  0.3837146E+03  0.7957747E-01  0.3435142E+00
         13   -1    0    0    0    0  0.00000000000E+00  0.00000000000E+00  0.14999999963E+04  0.15000000000E+04  0.10566000000E+00 0. -1.
        994   -1    0    0    0    0 -0.00000000000E+00 -0.00000000000E+00  0.11368683772E-12  0.17120000000E+03  0.17120000000E+03 0.  0.
         13    1    1    2    0    0  0.10332744731E+02  0.25669167200E+01  0.24417544095E+02  0.26637986013E+02  0.10566000000E+00 0. -1.
        994    1    1    2    0    0 -0.54632335188E+01  0.45061507465E-01  0.23682650370E+01  0.17130352486E+03  0.17120000000E+03 0.  0.
        998    1    1    2    0    0 -0.48695112119E+01 -0.26119782275E+01  0.14732141871E+04  0.14732584891E+04  0.10000000000E+02 0. -1.
</event>
<event>
 5    1  0.9123258E-009  0.3743995E+03  0.7957747E-01  0.3475913E+00
         13   -1    0    0    0    0  0.00000000000E+00  0.00000000000E+00  0.14999999963E+04  0.15000000000E+04  0.10566000000E+00 0. -1.
        994   -1    0    0    0    0 -0.00000000000E+00 -0.00000000000E+00  0.11368683772E-12  0.17120000000E+03  0.17120000000E+03 0.  0.
         13    1    1    2    0    0 -0.44129076380E+02 -0.23162073390E+01  0.13331972116E+03  0.14045248097E+03  0.10566000000E+00 0. -1.
        994    1    1    2    0    0  0.34212991599E+02 -0.22020271403E+02  0.12646900258E+02  0.17642223565E+03  0.17120000000E+03 0.  0.
        998    1    1    2    0    0  0.99160847811E+01  0.24336478742E+02  0.13540333749E+04  0.13543252834E+04  0.10000000000E+02 0. -1.
</event>
<event>
 5    1  0.9123258E-009  0.3803348E+03  0.7957747E-01  0.3449702E+00
         13   -1    0    0    0    0  0.00000000000E+00  0.00000000000E+00  0.14999999963E+04  0.15000000000E+04  0.10566000000E+00 0.  1.
        994   -1    0    0    0    0 -0.00000000000E+00 -0.00000000000E+00  0.11368683772E-12  0.17120000000E+03  0.17120000000E+03 0.  0.
         13    1    1    2    0    0  0.21405700183E+02  0.24316571168E+01  0.67229551703E+01  0.22568257507E+02  0.10566000000E+00 0.  1.
        994    1    1    2    0    0 -0.21361976954E+02  0.37581970259E+01  0.18219881518E+02  0.17352769862E+03  0.17120000000E+03 0.  0.
        998    1    1    2    0    0 -0.43723229099E-01 -0.61898541427E+01  0.14750571596E+04  0.14751040439E+04  0.10000000000E+02 0.  1.
</event>
<event>
 5    1  0.9123258E-009  0.3742877E+03  0.7957747E-01  0.3476414E+00
         13   -1    0    0    0    0  0.00000000000E+00  0.00000000000E+00  0.14999999963E+04  0.15000000000E+04  0.10566000000E+00 0. -1.
        994   -1    0    0    0    0 -0.00000000000E+00 -0.00000000000E+00  0.11368683772E-12  0.17120000000E+03  0.17120000000E+03 0.  0.
         13    1    1    2    0    0 -0.18993095292E+02 -0.19620248810E+02  0.48891277836E+02  0.56000536110E+02  0.10566000000E+00 0. -1.
        994    1    1    2    0    0  0.21621312024E+02  0.15845108102E+02  0.94971929413E+01  0.17354591686E+03  0.17120000000E+03 0.  0.
        998    1    1    2    0    0 -0.26282167318E+01  0.37751407073E+01  0.14416115255E+04  0.14416535470E+04  0.10000000000E+02 0. -1.
</event>
<event>
 5    1  0.9123258E-009  0.3865986E+03  0.7957747E-01  0.3422921E+00
         13   -1    0    0    0    0  0.00000000000E+00  0.00000000000E+00  0.14999999963E+04  0.15000000000E+04  0.10566000000E+00 0. -1.
        994   -1    0    0    0    0 -0.00000000000E+00 -0.00000000000E+00  0.11368683772E-12  0.17120000000E+03  0.17120000000E+03 0.  0.
         13    1    1    2    0    0 -0.37008649115E+02 -0.40169991513E+02  0.65000783677E+02  0.84902187075E+02  0.10566000000E+00 0. -1.
        994    1    1    2    0    0  0.34429231998E+02  0.41159585156E+02  0.30772296942E+02  0.18203257325E+03  0.17120000000E+03 0.  0.
        998    1    1    2    0    0  0.25794171167E+01 -0.98959364301E+00  0.14042269157E+04  0.14042652397E+04  0.10000000000E+02 0. -1.
</event>
<event>
 5    1  0.9123258E-009  0.3836353E+03  0.7957747E-01  0.3435481E+00
         13   -1    0    0    0    0  0.00000000000E+00  0.00000000000E+00  0.14999999963E+04  0.15000000000E+04  0.10566000000E+00 0. -1.
        994   -1    0    0    0    0 -0.00000000000E+00 -0.00000000000E+00  0.11368683772E-12  0.17120000000E+03  0.17120000000E+03 0.  0.
         13    1    1    2    0    0  0.50946738697E+01  0.18313852647E+02  0.81169441863E+02  0.83365714517E+02  0.10566000000E+00 0. -1.
        994    1    1    2    0    0 -0.15409985721E+00 -0.50526116410E+01  0.23935961485E+01  0.17129133642E+03  0.17120000000E+03 0.  0.
        998    1    1    2    0    0 -0.49405740125E+01 -0.13261241006E+02  0.14164369583E+04  0.14165429491E+04  0.10000000000E+02 0. -1.
</event>
<event>
 5    1  0.9123258E-009  0.3828522E+03  0.7957747E-01  0.3438832E+00
         13   -1    0    0    0    0  0.00000000000E+00  0.00000000000E+00  0.14999999963E+04  0.15000000000E+04  0.10566000000E+00 0.  1.
        994   -1    0    0    0    0 -0.00000000000E+00 -0.00000000000E+00  0.11368683772E-12  0.17120000000E+03  0.17120000000E+03 0.  0.
         13    1    1    2    0    0  0.37818319661E+01 -0.34735328475E+02  0.18539939474E+03  0.18866317084E+03  0.10566000000E+00 0.  1.
        994    1    1    2    0    0 -0.29651467248E+01  0.43727291503E+02  0.90877950210E+01  0.17695450301E+03  0.17120000000E+03 0.  0.
        998    1    1    2    0    0 -0.81668524130E+00 -0.89919630282E+01  0.13055128065E+04  0.13055823261E+04  0.10000000000E+02 0.  1.
</event>
<event>
 5    1  0.9123258E-009  0.3819061E+03  0.7957747E-01  0.3442901E+00
         13   -1    0    0    0    0  0.00000000000E+00  0.00000000000E+00  0.14999999963E+04  0.15000000000E+04  0.10566000000E+00 0.  1.
        994   -1    0    0    0    0 -0.00000000000E+00 -0.00000000000E+00  0.11368683772E-12  0.17120000000E+03  0.17120000000E+03 0.  0.
         13    1    1    2    0    0  0.82400476178E+01  0.67987016378E+01  0.16555392413E+02  0.19703119314E+02  0.10566000000E+00 0.  1.
        994    1    1    2    0    0 -0.72657206152E+01 -0.75524530002E+01  0.35389936293E+01  0.17155697222E+03  0.17120000000E+03 0.  0.
        998    1    1    2    0    0 -0.97432700257E+00  0.75375136243E+00  0.14799056102E+04  0.14799399085E+04  0.10000000000E+02 0.  1.
</event>
<event>
 5    1  0.9123258E-009  0.3818552E+03  0.7957747E-01  0.3443120E+00
         13   -1    0    0    0    0  0.00000000000E+00  0.00000000000E+00  0.14999999963E+04  0.15000000000E+04  0.10566000000E+00 0. -1.
        994   -1    0    0    0    0 -0.00000000000E+00 -0.00000000000E+00  0.11368683772E-12  0.17120000000E+03  0.17120000000E+03 0.  0.
         13    1    1    2    0    0  0.30258912232E+01 -0.12267796098E+02  0.23373557235E+02  0.26570456915E+02  0.10566000000E+00 0. -1.
        994    1    1    2    0    0  0.21664891909E+01  0.14356135147E+02  0.39002720131E+01  0.17185879208E+03  0.17120000000E+03 0.  0.
        998    1    1    2    0    0 -0.51923804141E+01 -0.20883390482E+01  0.14727261670E+04  0.14727707510E+04  0.10000000000E+02 0. -1.
</event>
<event>
 5    1  0.9123258E-009  0.3796081E+03  0.7957747E-01  0.3452867E+00
         13   -1    0    0    0    0  0.00000000000E+00  0.00000000000E+00  0.14999999963E+04  0.15000000000E+04  0.10566000000E+00 0.  1.
        994   -1    0    0    0    0 -0.00000000000E+00 -0.00000000000E+00  0.11368683772E-12  0.17120000000E+03  0.17120000000E+03 0.  0.
         13    1    1    2    0    0 -0.36167276419E+02 -0.82055149776E+02  0.49919027530E+03  0.50718050200E+03  0.10566000000E+00 0.  1.
        994    1    1    2    0    0  0.54184977739E+02  0.91574040510E+02  0.43210659648E+02  0.20615144388E+03  0.17120000000E+03 0.  0.
        998    1    1    2    0    0 -0.18017701320E+02 -0.95188907338E+01  0.95759906133E+03  0.95786805411E+03  0.10000000000E+02 0.  1.
</event>
<event>
 5    1  0.9123258E-009  0.3822983E+03  0.7957747E-01  0.3441212E+00
         13   -1    0    0    0    0  0.00000000000E+00  0.00000000000E+00  0.14999999963E+04  0.15000000000E+04  0.10566000000E+00 0.  1.
        994   -1    0    0    0    0 -0.00000000000E+00 -0.00000000000E+00  0.11368683772E-12  0.17120000000E+03  0.17120000000E+03 0.  0.
         13    1    1    2    0    0  0.16587548283E+02  0.63846402685E+01  0.54164874673E+02  0.57006624192E+02  0.10566000000E+00 0.  1.
        994    1    1    2    0    0  0.87983590741E+01 -0.32363429139E+02  0.67182300770E+01  0.17458343932E+03  0.17120000000E+03 0.  0.
        998    1    1    2    0    0 -0.25385907357E+02  0.25978788871E+02  0.14391168915E+04  0.14396099365E+04  0.10000000000E+02 0.  1.
</event>
<event>
 5    1  0.9123258E-009  0.3717529E+03  0.7957747E-01  0.3487873E+00
         13   -1    0    0    0    0  0.00000000000E+00  0.00000000000E+00  0.14999999963E+04  0.15000000000E+04  0.10566000000E+00 0.  1.
        994   -1    0    0    0    0 -0.00000000000E+00 -0.00000000000E+00  0.11368683772E-12  0.17120000000E+03  0.17120000000E+03 0.  0.
         13    1    1    2    0    0 -0.22705752129E+02 -0.13615409693E+02  0.39578742991E+02  0.47617419309E+02  0.10566000000E+00 0.  1.
        994    1    1    2    0    0  0.92272866081E+01  0.18736570674E+01  0.86604630812E+01  0.17167730493E+03  0.17120000000E+03 0.  0.
        998    1    1    2    0    0  0.13478465521E+02  0.11741752626E+02  0.14517607902E+04  0.14519052758E+04  0.10000000000E+02 0.  1.
</event>
<event>
 5    1  0.9123258E-009  0.3860421E+03  0.7957747E-01  0.3425265E+00
         13   -1    0    0    0    0  0.00000000000E+00  0.00000000000E+00  0.14999999963E+04  0.15000000000E+04  0.10566000000E+00 0.  1.
        994   -1    0    0    0    0 -0.00000000000E+00 -0.00000000000E+00  0.11368683772E-12  0.17120000000E+03  0.17120000000E+03 0.  0.
         13    1    1    2    0    0  0.68777680459E+01 -0.10866267358E+02  0.70948088275E+02  0.72104242964E+02  0.10566000000E+00 0.  1.
        994    1    1    2    0    0 -0.19936536262E+01  0.17600608202E+02  0.21426819576E+01  0.17212724116E+03  0.17120000000E+03 0.  0.
        998    1    1    2    0    0 -0.48841144197E+01 -0.67343408437E+01  0.14269092260E+04  0.14269685159E+04  0.10000000000E+02 0.  1.
</event>
<event>
 5    1  0.9123258E-009  0.3834117E+03  0.7957747E-01  0.3436437E+00
         13   -1    0    0    0    0  0.00000000000E+00  0.00000000000E+00  0.14999999963E+04  0.15000000000E+04  0.10566000000E+00 0. -1.
        994   -1    0    0    0    0 -0.00000000000E+00 -0.00000000000E+00  0.11368683772E-12  0.17120000000E+03  0.17120000000E+03 0.  0.
         13    1    1    2    0    0  0.11639409886E+02  0.76084129867E+01  0.41740613068E+02  0.43996065210E+02  0.10566000000E+00 0. -1.
        994    1    1    2    0    0  0.51786147122E+01  0.11324931862E+01  0.25136703587E+01  0.17130049366E+03  0.17120000000E+03 0.  0.
        998    1    1    2    0    0 -0.16818024598E+02 -0.87409061729E+01  0.14557457129E+04  0.14559034411E+04  0.10000000000E+02 0. -1.
</event>
<event>
 5    1  0.9123258E-009  0.3699291E+03  0.7957747E-01  0.3496217E+00
         13   -1    0    0    0    0  0.00000000000E+00  0.00000000000E+00  0.14999999963E+04  0.15000000000E+04  0.10566000000E+00 0.  1.
        994   -1    0    0    0    0 -0.00000000000E+00 -0.00000000000E+00  0.11368683772E-12  0.17120000000E+03  0.17120000000E+03 0.  0.
         13    1    1    2    0    0  0.22011843896E+02  0.48288337073E+02  0.16748327297E+03  0.17568990483E+03  0.10566000000E+00 0.  1.
        994    1    1    2    0    0  0.93387706442E+02 -0.58309769823E+02  0.52477192582E+02  0.21020130521E+03  0.17120000000E+03 0.  0.
        998    1    1    2    0    0 -0.11539955034E+03  0.10021432751E+02  0.12800395307E+04  0.12853087900E+04  0.10000000000E+02 0.  1.
</event>
<event>
 5    1  0.9123258E-009  0.3800836E+03  0.7957747E-01  0.3450794E+00
         13   -1    0    0    0    0  0.00000000000E+00  0.00000000000E+00  0.14999999963E+04  0.15000000000E+04  0.10566000000E+00 0. -1.
        994   -1    0    0    0    0 -0.00000000000E+00 -0.00000000000E+00  0.11368683772E-12  0.17120000000E+03  0.17120000000E+03 0.  0.
         13    1    1    2    0    0 -0.45438759361E+02 -0.90349194788E+02  0.36700684128E+03  0.38068581608E+03  0.10566000000E+00 0. -1.
        994    1    1    2    0    0  0.44522916620E+02  0.13300298018E+02  0.24240812111E+02  0.17904257874E+03  0.17120000000E+03 0.  0.
        998    1    1    2    0    0  0.91584274116E+00  0.77048896769E+02  0.11087523429E+04  0.11114716052E+04  0.10000000000E+02 0. -1.
</event>
<event>
 5    1  0.9123258E-009  0.3761859E+03  0.7957747E-01  0.3467936E+00
         13   -1    0    0    0    0  0.00000000000E+00  0.00000000000E+00  0.14999999963E+04  0.15000000000E+04  0.10566000000E+00 0. -1.
        994   -1    0    0    0    0 -0.00000000000E+00 -0.00000000000E+00  0.11368683772E-12  0.17120000000E+03  0.17120000000E+03 0.  0.
         13    1    1    2    0    0 -0.17706108241E+01  0.48235707219E+02  0.16611531972E+03  0.17298592175E+03  0.10566000000E+00 0. -1.
        994    1    1    2    0    0  0.66651187674E+02 -0.53348815441E+02  0.31160582811E+02  0.19382698173E+03  0.17120000000E+03 0.  0.
        998    1    1    2    0    0 -0.64880576850E+02  0.51131082227E+01  0.13027240937E+04  0.13043870965E+04  0.10000000000E+02 0. -1.
</event>
<event>
 5    1  0.9123258E-009  0.3704247E+03  0.7957747E-01  0.3493941E+00
         13   -1    0    0    0    0  0.00000000000E+00  0.00000000000E+00  0.14999999963E+04  0.15000000000E+04  0.10566000000E+00 0. -1.
        994   -1    0    0    0    0 -0.00000000000E+00 -0.00000000000E+00  0.11368683772E-12  0.17120000000E+03  0.17120000000E+03 0.  0.
         13    1    1    2    0    0  0.34733144551E+02 -0.20772961657E+02  0.65290198815E+02  0.76816199410E+02  0.10566000000E+00 0. -1.
        994    1    1    2    0    0 -0.41043964731E+02  0.21608648189E+02  0.18734722844E+02  0.17835910562E+03  0.17120000000E+03 0.  0.
        998    1    1    2    0    0  0.63108201804E+01 -0.83568653158E+00  0.14159750746E+04  0.14160246950E+04  0.10000000000E+02 0. -1.
</event>
<event>
 5    1  0.9123258E-009  0.3825800E+03  0.7957747E-01  0.3440001E+00
         13   -1    0    0    0    0  0.00000000000E+00  0.00000000000E+00  0.14999999963E+04  0.15000000000E+04  0.10566000000E+00 0.  1.
        994   -1    0    0    0    0 -0.00000000000E+00 -0.00000000000E+00  0.11368683772E-12  0.17120000000E+03  0.17120000000E+03 0.  0.
         13    1    1    2    0    0  0.14988255768E+02 -0.21594931706E+02  0.12139626992E+03  0.12420971943E+03  0.10566000000E+00 0.  1.
        994    1    1    2    0    0 -0.10982324403E+02  0.11095912274E+02  0.36447168843E+01  0.17194898860E+03  0.17120000000E+03 0.  0.
        998    1    1    2    0    0 -0.40059313652E+01  0.10499019431E+02  0.13749590095E+04  0.13750412920E+04  0.10000000000E+02 0.  1.
</event>
<event>
 5    1  0.9123258E-009  0.3825140E+03  0.7957747E-01  0.3440285E+00
         13   -1    0    0    0    0  0.00000000000E+00  0.00000000000E+00  0.14999999963E+04  0.15000000000E+04  0.10566000000E+00 0.  1.
        994   -1    0    0    0    0 -0.00000000000E+00 -0.00000000000E+00  0.11368683772E-12  0.17120000000E+03  0.17120000000E+03 0.  0.
         13    1    1    2    0    0  0.27722878093E+02 -0.78773976528E+01  0.13572482063E+03  0.13875103410E+03  0.10566000000E+00 0.  1.
        994    1    1    2    0    0 -0.26330044438E+02  0.92386464537E+00  0.51741317212E+01  0.17329263229E+03  0.17120000000E+03 0.  0.
        998    1    1    2    0    0 -0.13928336548E+01  0.69535330075E+01  0.13591010439E+04  0.13591563336E+04  0.10000000000E+02 0.  1.
</event>
<event>
 5    1  0.9123258E-009  0.3778069E+03  0.7957747E-01  0.3460764E+00
         13   -1    0    0    0    0  0.00000000000E+00  0.00000000000E+00  0.14999999963E+04  0.15000000000E+04  0.10566000000E+00 0. -1.
        994   -1    0    0    0    0 -0.00000000000E+00 -0.00000000000E+00  0.11368683772E-12  0.17120000000E+03  0.17120000000E+03 0.  0.
         13    1    1    2    0    0 -0.24564185618E+02 -0.19514750519E+02  0.98598577856E+02  0.10346939365E+03  0.10566000000E+00 0. -1.
        994    1    1    2    0    0  0.10937110316E+02 -0.68043209503E+01  0.58032408410E+01  0.17178194541E+03  0.17120000000E+03 0.  0.
        998    1    1    2    0    0  0.13627075302E+02  0.26319071469E+02  0.13955981776E+04  0.13959486609E+04  0.10000000000E+02 0. -1.
</event>
<event>
 5    1  0.9123258E-009  0.3763316E+03  0.7957747E-01  0.3467289E+00
         13   -1    0    0    0    0  0.00000000000E+00  0.00000000000E+00  0.14999999963E+04  0.15000000000E+04  0.10566000000E+00 0.  1.
        994   -1    0    0    0    0 -0.00000000000E+00 -0.00000000000E+00  0.11368683772E-12  0.17120000000E+03  0.17120000000E+03 0.  0.
         13    1    1    2    0    0  0.62015149113E+02  0.30328788334E+02  0.41236345802E+03  0.41810207700E+03  0.10566000000E+00 0.  1.
        994    1    1    2    0    0 -0.23264708321E+02 -0.34338867732E+02  0.11840606133E+02  0.17655040199E+03  0.17120000000E+03 0.  0.
        998    1    1    2    0    0 -0.38750440792E+02  0.40100793982E+01  0.10757959321E+04  0.10765475210E+04  0.10000000000E+02 0.  1.
</event>
<event>
 5    1  0.9123258E-009  0.3845975E+03  0.7957747E-01  0.3431381E+00
         13   -1    0    0    0    0  0.00000000000E+00  0.00000000000E+00  0.14999999963E+04  0.15000000000E+04  0.10566000000E+00 0.  1.
        994   -1    0    0    0    0 -0.00000000000E+00 -0.00000000000E+00  0.11368683772E-12  0.17120000000E+03  0.17120000000E+03 0.  0.
         13    1    1    2    0    0  0.74579560152E+01 -0.75775276828E+01  0.32087333697E+02  0.33803079468E+02  0.10566000000E+00 0.  1.
        994    1    1    2    0    0  0.99305081171E+01  0.36844216873E+01  0.21996099628E+01  0.17154144758E+03  0.17120000000E+03 0.  0.
        998    1    1    2    0    0 -0.17388464132E+02  0.38931059955E+01  0.14657130526E+04  0.14658554729E+04  0.10000000000E+02 0.  1.
</event>
<event>
 5    1  0.9123258E-009  0.3860040E+03  0.7957747E-01  0.3425425E+00
         13   -1    0    0    0    0  0.00000000000E+00  0.00000000000E+00  0.14999999963E+04  0.15000000000E+04  0.10566000000E+00 0. -1.
        994   -1    0    0    0    0 -0.00000000000E+00 -0.00000000000E+00  0.11368683772E-12  0.17120000000E+03  0.17120000000E+03 0.  0.
         13    1    1    2    0    0  0.10529807285E+01  0.11855599969E+02  0.63271034512E+02  0.64380889955E+02  0.10566000000E+00 0. -1.
        994    1    1    2    0    0 -0.69340618078E+01 -0.74444333461E+01  0.14718451144E+01  0.17150832962E+03  0.17120000000E+03 0.  0.
        998    1    1    2    0    0  0.58810810792E+01 -0.44111666229E+01  0.14352571167E+04  0.14353107804E+04  0.10000000000E+02 0. -1.
</event>
<event>
 5    1  0.9123258E-009  0.3833596E+03  0.7957747E-01  0.3436659E+00
         13   -1    0    0    0    0  0.00000000000E+00  0.00000000000E+00  0.14999999963E+04  0.15000000000E+04  0.10566000000E+00 0.  1.
        994   -1    0    0    0    0 -0.00000000000E+00 -0.00000000000E+00  0.11368683772E-12  0.17120000000E+03  0.17120000000E+03 0.  0.
         13    1    1    2    0    0 -0.13323122102E+02  0.11613280627E+02  0.62848558777E+02  0.65286494575E+02  0.10566000000E+00 0.  1.
        994    1    1    2    0    0  0.93937175459E+01 -0.82339494767E+01  0.29628455811E+01  0.17168068705E+03  0.17120000000E+03 0.  0.
        998    1    1    2    0    0  0.39294045561E+01 -0.33793311501E+01  0.14341885919E+04  0.14342328184E+04  0.10000000000E+02 0.  1.
</event>
<event>
 5    1  0.9123258E-009  0.3792473E+03  0.7957747E-01  0.3454442E+00
         13   -1    0    0    0    0  0.00000000000E+00  0.00000000000E+00  0.14999999963E+04  0.15000000000E+04  0.10566000000E+00 0.  1.
        994   -1    0    0    0    0 -0.00000000000E+00 -0.00000000000E+00  0.11368683772E-12  0.17120000000E+03  0.17120000000E+03 0.  0.
         13    1    1    2    0    0 -0.10313984181E+02  0.70225181014E+02  0.14093448970E+03  0.15779890960E+03  0.10566000000E+00 0.  1.
        994    1    1    2    0    0  0.18313006531E+02 -0.65984039436E+02  0.33060874853E+02  0.18732784394E+03  0.17120000000E+03 0.  0.
        998    1    1    2    0    0 -0.79990223496E+01 -0.42411415778E+01  0.13260046317E+04  0.13260732465E+04  0.10000000000E+02 0.  1.
</event>
<event>
 5    1  0.9123258E-009  0.3831099E+03  0.7957747E-01  0.3437728E+00
         13   -1    0    0    0    0  0.00000000000E+00  0.00000000000E+00  0.14999999963E+04  0.15000000000E+04  0.10566000000E+00 0. -1.
        994   -1    0    0    0    0 -0.00000000000E+00 -0.00000000000E+00  0.11368683772E-12  0.17120000000E+03  0.17120000000E+03 0.  0.
         13    1    1    2    0    0 -0.63477496511E+01 -0.17970527525E+02  0.72744867564E+02  0.75200137673E+02  0.10566000000E+00 0. -1.
        994    1    1    2    0    0  0.63961351192E-02  0.52320318158E+01  0.26620416925E+01  0.17130061490E+03  0.17120000000E+03 0.  0.
        998    1    1    2    0    0  0.63413535159E+01  0.12738495709E+02  0.14245930870E+04  0.14246992474E+04  0.10000000000E+02 0. -1.
</event>
<event>
 5    1  0.1064316E-008  0.3858457E+03  0.7957747E-01  0.3426093E+00
         13   -1    0    0    0    0  0.00000000000E+00  0.00000000000E+00  0.14999999963E+04  0.15000000000E+04  0.10566000000E+00 0. -1.
        994   -1    0    0    0    0 -0.00000000000E+00 -0.00000000000E+00  0.11368683772E-12  0.17120000000E+03  0.17120000000E+03 0.  0.
         13    1    1    2    0    0  0.15455557468E+02  0.15318443046E+01  0.92097380694E+02  0.93397855962E+02  0.10566000000E+00 0. -1.
        994    1    1    2    0    0 -0.19232889113E+02 -0.13207452137E+02  0.29981286398E+01  0.17280847662E+03  0.17120000000E+03 0.  0.
        998    1    1    2    0    0  0.37773316454E+01  0.11675607832E+02  0.14049044869E+04  0.14049936674E+04  0.10000000000E+02 0. -1.
</event>
<event>
 5    1  0.9123258E-009  0.3796892E+03  0.7957747E-01  0.3452513E+00
         13   -1    0    0    0    0  0.00000000000E+00  0.00000000000E+00  0.14999999963E+04  0.15000000000E+04  0.10566000000E+00 0.  1.
        994   -1    0    0    0    0 -0.00000000000E+00 -0.00000000000E+00  0.11368683772E-12  0.17120000000E+03  0.17120000000E+03 0.  0.
         13    1    1    2    0    0  0.39203626783E+01 -0.18064236441E+02  0.39134653069E+02  0.43280689881E+02  0.10566000000E+00 0.  1.
        994    1    1    2    0    0  0.92953988991E+00  0.51438540688E+01  0.43815561322E+01  0.17133581445E+03  0.17120000000E+03 0.  0.
        998    1    1    2    0    0 -0.48499025682E+01  0.12920382372E+02  0.14564837871E+04  0.14565834957E+04  0.10000000000E+02 0.  1.
</event>
<event>
 5    1  0.9123258E-009  0.3798604E+03  0.7957747E-01  0.3451767E+00
         13   -1    0    0    0    0  0.00000000000E+00  0.00000000000E+00  0.14999999963E+04  0.15000000000E+04  0.10566000000E+00 0.  1.
        994   -1    0    0    0    0 -0.00000000000E+00 -0.00000000000E+00  0.11368683772E-12  0.17120000000E+03  0.17120000000E+03 0.  0.
         13    1    1    2    0    0  0.79947838288E+02 -0.40824348284E+02  0.52433903539E+03  0.53196778047E+03  0.10566000000E+00 0.  1.
        994    1    1    2    0    0 -0.77812403732E+02  0.78066967672E+02  0.45969256721E+02  0.20873867437E+03  0.17120000000E+03 0.  0.
        998    1    1    2    0    0 -0.21354345557E+01 -0.37242619388E+02  0.92969170416E+03  0.93049354515E+03  0.10000000000E+02 0.  1.
</event>
<event>
 5    1  0.9123258E-009  0.3798068E+03  0.7957747E-01  0.3452000E+00
         13   -1    0    0    0    0  0.00000000000E+00  0.00000000000E+00  0.14999999963E+04  0.15000000000E+04  0.10566000000E+00 0. -1.
        994   -1    0    0    0    0 -0.00000000000E+00 -0.00000000000E+00  0.11368683772E-12  0.17120000000E+03  0.17120000000E+03 0.  0.
         13    1    1    2    0    0 -0.15192577292E+02  0.14829406837E+01  0.27174064803E+02  0.31168164524E+02  0.10566000000E+00 0. -1.
        994    1    1    2    0    0 -0.63526784814E+01  0.53489859170E+01  0.44614545302E+01  0.17145936181E+03  0.17120000000E+03 0.  0.
        998    1    1    2    0    0  0.21545255773E+02 -0.68319266007E+01  0.14683644769E+04  0.14685724737E+04  0.10000000000E+02 0. -1.
</event>
<event>
 5    1  0.9123258E-009  0.3784337E+03  0.7957747E-01  0.3458007E+00
         13   -1    0    0    0    0  0.00000000000E+00  0.00000000000E+00  0.14999999963E+04  0.15000000000E+04  0.10566000000E+00 0. -1.
        994   -1    0    0    0    0 -0.00000000000E+00 -0.00000000000E+00  0.11368683772E-12  0.17120000000E+03  0.17120000000E+03 0.  0.
         13    1    1    2    0    0  0.92014761620E+01 -0.36511820572E+02  0.13027960796E+03  0.13561182699E+03  0.10566000000E+00 0. -1.
        994    1    1    2    0    0 -0.63483615170E+01  0.38203460625E+02  0.99822810786E+01  0.17580924900E+03  0.17120000000E+03 0.  0.
        998    1    1    2    0    0 -0.28531146450E+01 -0.16916400521E+01  0.13597381072E+04  0.13597789240E+04  0.10000000000E+02 0. -1.
</event>
<event>
 5    1  0.9123258E-009  0.3809223E+03  0.7957747E-01  0.3447152E+00
         13   -1    0    0    0    0  0.00000000000E+00  0.00000000000E+00  0.14999999963E+04  0.15000000000E+04  0.10566000000E+00 0. -1.
        994   -1    0    0    0    0 -0.00000000000E+00 -0.00000000000E+00  0.11368683772E-12  0.17120000000E+03  0.17120000000E+03 0.  0.
         13    1    1    2    0    0  0.20026721225E+02 -0.21320865055E+02  0.13288105142E+03  0.13606261000E+03  0.10566000000E+00 0. -1.
        994    1    1    2    0    0  0.62387812111E+01 -0.28210488541E+00  0.37982958314E+01  0.17135597167E+03  0.17120000000E+03 0.  0.
        998    1    1    2    0    0 -0.26265502436E+02  0.21602969940E+02  0.13633206490E+04  0.13637814183E+04  0.10000000000E+02 0. -1.
</event>
<event>
 5    1  0.9123258E-009  0.3774168E+03  0.7957747E-01  0.3462484E+00
         13   -1    0    0    0    0  0.00000000000E+00  0.00000000000E+00  0.14999999963E+04  0.15000000000E+04  0.10566000000E+00 0.  1.
        994   -1    0    0    0    0 -0.00000000000E+00 -0.00000000000E+00  0.11368683772E-12  0.17120000000E+03  0.17120000000E+03 0.  0.
         13    1    1    2    0    0 -0.11958247828E+02  0.26422435601E+01  0.11420845378E+02  0.16745985051E+02  0.10566000000E+00 0.  1.
        994    1    1    2    0    0  0.54265552627E+01 -0.49745438936E+01  0.56255902674E+01  0.17145052014E+03  0.17120000000E+03 0.  0.
        998    1    1    2    0    0  0.65316925656E+01  0.23323003335E+01  0.14829535606E+04  0.14830034948E+04  0.10000000000E+02 0.  1.
</event>
<event>
 5    1  0.9123258E-009  0.3845406E+03  0.7957747E-01  0.3431623E+00
         13   -1    0    0    0    0  0.00000000000E+00  0.00000000000E+00  0.14999999963E+04  0.15000000000E+04  0.10566000000E+00 0.  1.
        994   -1    0    0    0    0 -0.00000000000E+00 -0.00000000000E+00  0.11368683772E-12  0.17120000000E+03  0.17120000000E+03 0.  0.
         13    1    1    2    0    0 -0.10336656601E+02 -0.80723852648E+00  0.27971790925E+02  0.29831700510E+02  0.10566000000E+00 0.  1.
        994    1    1    2    0    0  0.12096740214E+02 -0.44825637926E+01  0.24067348386E+01  0.17170223317E+03  0.17120000000E+03 0.  0.
        998    1    1    2    0    0 -0.17600836137E+01  0.52898023191E+01  0.14696214705E+04  0.14696660663E+04  0.10000000000E+02 0.  1.
</event>
<event>
 5    1  0.9123258E-009  0.3842077E+03  0.7957747E-01  0.3433040E+00
         13   -1    0    0    0    0  0.00000000000E+00  0.00000000000E+00  0.14999999963E+04  0.15000000000E+04  0.10566000000E+00 0.  1.
        994   -1    0    0    0    0 -0.00000000000E+00 -0.00000000000E+00  0.11368683772E-12  0.17120000000E+03  0.17120000000E+03 0.  0.
         13    1    1    2    0    0  0.60499086935E+00  0.15608006960E+02  0.61846025015E+02  0.63788069961E+02  0.10566000000E+00 0.  1.
        994    1    1    2    0    0 -0.47228115330E+01 -0.44329901546E+01  0.21623826775E+01  0.17133613819E+03  0.17120000000E+03 0.  0.
        998    1    1    2    0    0  0.41178206637E+01 -0.11175016806E+02  0.14359915886E+04  0.14360757919E+04  0.10000000000E+02 0.  1.
</event>
<event>
 5    1  0.9123258E-009  0.3708067E+03  0.7957747E-01  0.3492192E+00
         13   -1    0    0    0    0  0.00000000000E+00  0.00000000000E+00  0.14999999963E+04  0.15000000000E+04  0.10566000000E+00 0.  1.
        994   -1    0    0    0    0 -0.00000000000E+00 -0.00000000000E+00  0.11368683772E-12  0.17120000000E+03  0.17120000000E+03 0.  0.
         13    1    1    2    0    0 -0.10446080780E+02  0.10772772985E+02  0.89092910384E+01  0.17451643828E+02  0.10566000000E+00 0.  1.
        994    1    1    2    0    0 -0.62081039024E+00 -0.50174955204E+01  0.89361690183E+01  0.17150759687E+03  0.17120000000E+03 0.  0.
        998    1    1    2    0    0  0.11066891170E+02 -0.57552774647E+01  0.14821545362E+04  0.14822407593E+04  0.10000000000E+02 0.  1.
</event>
<event>
 5    1  0.9123258E-009  0.3821248E+03  0.7957747E-01  0.3441959E+00
         13   -1    0    0    0    0  0.00000000000E+00  0.00000000000E+00  0.14999999963E+04  0.15000000000E+04  0.10566000000E+00 0. -1.
        994   -1    0    0    0    0 -0.00000000000E+00 -0.00000000000E+00  0.11368683772E-12  0.17120000000E+03  0.17120000000E+03 0.  0.
         13    1    1    2    0    0 -0.28841859891E+02  0.35648776627E+02  0.27017889160E+03  0.27404257477E+03  0.10566000000E+00 0. -1.
        994    1    1    2    0    0  0.30255195012E+02 -0.40682347923E+02  0.11644607619E+02  0.17892866496E+03  0.17120000000E+03 0.  0.
        998    1    1    2    0    0 -0.14133351217E+01  0.50335712961E+01  0.12181764971E+04  0.12182287603E+04  0.10000000000E+02 0. -1.
</event>
<event>
 5    1  0.9123258E-009  0.3819383E+03  0.7957747E-01  0.3442762E+00
         13   -1    0    0    0    0  0.00000000000E+00  0.00000000000E+00  0.14999999963E+04  0.15000000000E+04  0.10566000000E+00 0.  1.
        994   -1    0    0    0    0 -0.00000000000E+00 -0.00000000000E+00  0.11368683772E-12  0.17120000000E+03  0.17120000000E+03 0.  0.
         13    1    1    2    0    0  0.70770717312E+00  0.37687507822E+02  0.20345831834E+03  0.20692063107E+03  0.10566000000E+00 0.  1.
        994    1    1    2    0    0 -0.29196711270E+01 -0.33320759205E+02  0.68830276141E+01  0.17457265978E+03  0.17120000000E+03 0.  0.
        998    1    1    2    0    0  0.22119639539E+01 -0.43667486170E+01  0.12896586503E+04  0.12897067092E+04  0.10000000000E+02 0.  1.
</event>
<event>
 5    1  0.9123258E-009  0.3783738E+03  0.7957747E-01  0.3458270E+00
         13   -1    0    0    0    0  0.00000000000E+00  0.00000000000E+00  0.14999999963E+04  0.15000000000E+04  0.10566000000E+00 0. -1.
        994   -1    0    0    0    0 -0.00000000000E+00 -0.00000000000E+00  0.11368683772E-12  0.17120000000E+03  0.17120000000E+03 0.  0.
         13    1    1    2    0    0 -0.18130302991E+02 -0.30324527290E+01  0.33081578782E+02  0.37845814496E+02  0.10566000000E+00 0. -1.
        994    1    1    2    0    0  0.29319020199E+01 -0.33625248651E+01  0.50231889001E+01  0.17133176894E+03  0.17120000000E+03 0.  0.
        998    1    1    2    0    0  0.15198400971E+02  0.63949775941E+01  0.14618952286E+04  0.14620224166E+04  0.10000000000E+02 0. -1.
</event>
<event>
 5    1  0.9123258E-009  0.3834563E+03  0.7957747E-01  0.3436246E+00
         13   -1    0    0    0    0  0.00000000000E+00  0.00000000000E+00  0.14999999963E+04  0.15000000000E+04  0.10566000000E+00 0.  1.
        994   -1    0    0    0    0 -0.00000000000E+00 -0.00000000000E+00  0.11368683772E-12  0.17120000000E+03  0.17120000000E+03 0.  0.
         13    1    1    2    0    0  0.45834666029E+01  0.95465389643E+01  0.23771708046E+02  0.26024024281E+02  0.10566000000E+00 0.  1.
        994    1    1    2    0    0  0.12231422629E+02  0.29728711762E+01  0.29223847586E+01  0.17168700008E+03  0.17120000000E+03 0.  0.
        998    1    1    2    0    0 -0.16814889232E+02 -0.12519410141E+02  0.14733059035E+04  0.14734889756E+04  0.10000000000E+02 0.  1.
</event>
<event>
 5    1  0.9123258E-009  0.3361169E+03  0.7957747E-01  0.3667747E+00
         13   -1    0    0    0    0  0.00000000000E+00  0.00000000000E+00  0.14999999963E+04  0.15000000000E+04  0.10566000000E+00 0.  1.
        994   -1    0    0    0    0 -0.00000000000E+00 -0.00000000000E+00  0.11368683772E-12  0.17120000000E+03  0.17120000000E+03 0.  0.
         13    1    1    2    0    0  0.16177775596E+03  0.11423071809E+03  0.94038325688E+03  0.96101060362E+03  0.10566000000E+00 0.  1.
        994    1    1    2    0    0 -0.16386119197E+03 -0.75984747005E+02  0.13383108693E+03  0.28256746423E+03  0.17120000000E+03 0.  0.
        998    1    1    2    0    0  0.20834360150E+01 -0.38245971085E+02  0.42578565247E+03  0.42762193215E+03  0.10000000000E+02 0.  1.
</event>
<event>
 5    1  0.9123258E-009  0.3821452E+03  0.7957747E-01  0.3441871E+00
         13   -1    0    0    0    0  0.00000000000E+00  0.00000000000E+00  0.14999999963E+04  0.15000000000E+04  0.10566000000E+00 0.  1.
        994   -1    0    0    0    0 -0.00000000000E+00 -0.00000000000E+00  0.11368683772E-12  0.17120000000E+03  0.17120000000E+03 0.  0.
         13    1    1    2    0    0  0.23595685810E+02 -0.20850801025E+02  0.16007317570E+03  0.16314087482E+03  0.10566000000E+00 0.  1.
        994    1    1    2    0    0 -0.14527616910E+02  0.13184401818E+02  0.43327777517E+01  0.17237486205E+03  0.17120000000E+03 0.  0.
        998    1    1    2    0    0 -0.90680689002E+01  0.76663992072E+01  0.13355940428E+04  0.13356842631E+04  0.10000000000E+02 0.  1.
</event>
<event>
 5    1  0.9123258E-009  0.3754184E+03  0.7957747E-01  0.3471354E+00
         13   -1    0    0    0    0  0.00000000000E+00  0.00000000000E+00  0.14999999963E+04  0.15000000000E+04  0.10566000000E+00 0.  1.
        994   -1    0    0    0    0 -0.00000000000E+00 -0.00000000000E+00  0.11368683772E-12  0.17120000000E+03  0.17120000000E+03 0.  0.
         13    1    1    2    0    0 -0.93730194779E+01 -0.20318304166E+02  0.35266562897E+02  0.41766357285E+02  0.10566000000E+00 0.  1.
        994    1    1    2    0    0  0.63956861890E+01  0.22940246167E+02  0.83915953140E+01  0.17305206895E+03  0.17120000000E+03 0.  0.
        998    1    1    2    0    0  0.29773332889E+01 -0.26219420015E+01  0.14563418381E+04  0.14563815738E+04  0.10000000000E+02 0.  1.
</event>
<event>
 5    1  0.9123258E-009  0.3861709E+03  0.7957747E-01  0.3424721E+00
         13   -1    0    0    0    0  0.00000000000E+00  0.00000000000E+00  0.14999999963E+04  0.15000000000E+04  0.10566000000E+00 0.  1.
        994   -1    0    0    0    0 -0.00000000000E+00 -0.00000000000E+00  0.11368683772E-12  0.17120000000E+03  0.17120000000E+03 0.  0.
         13    1    1    2    0    0 -0.99327952604E+01  0.97888739972E+01  0.80866906920E+02  0.82060649977E+02  0.10566000000E+00 0.  1.
        994    1    1    2    0    0  0.23063845242E+02 -0.14753916054E+02  0.35096684389E+01  0.17341100533E+03  0.17120000000E+03 0.  0.
        998    1    1    2    0    0 -0.13131049981E+02  0.49650420572E+01  0.14156234209E+04  0.14157283447E+04  0.10000000000E+02 0.  1.
</event>
<event>
 5    1  0.9123258E-009  0.3736321E+03  0.7957747E-01  0.3479363E+00
         13   -1    0    0    0    0  0.00000000000E+00  0.00000000000E+00  0.14999999963E+04  0.15000000000E+04  0.10566000000E+00 0.  1.
        994   -1    0    0    0    0 -0.00000000000E+00 -0.00000000000E+00  0.11368683772E-12  0.17120000000E+03  0.17120000000E+03 0.  0.
         13    1    1    2    0    0 -0.24120463215E+01  0.11839843183E+02  0.64804573793E+01  0.13711577077E+02  0.10566000000E+00 0.  1.
        994    1    1    2    0    0  0.26383315464E+01 -0.10578106927E+02  0.77888294752E+01  0.17172350743E+03  0.17120000000E+03 0.  0.
        998    1    1    2    0    0 -0.22628522486E+00 -0.12617362560E+01  0.14857307094E+04  0.14857649155E+04  0.10000000000E+02 0.  1.
</event>
<event>
 5    1  0.9123258E-009  0.3842675E+03  0.7957747E-01  0.3432785E+00
         13   -1    0    0    0    0  0.00000000000E+00  0.00000000000E+00  0.14999999963E+04  0.15000000000E+04  0.10566000000E+00 0.  1.
        994   -1    0    0    0    0 -0.00000000000E+00 -0.00000000000E+00  0.11368683772E-12  0.17120000000E+03  0.17120000000E+03 0.  0.
         13    1    1    2    0    0  0.11793563441E+02 -0.31968090219E+00  0.33438627677E+02  0.35459037204E+02  0.10566000000E+00 0.  1.
        994    1    1    2    0    0 -0.14956581292E+02 -0.88206869790E+00  0.27345774139E+01  0.17187610446E+03  0.17120000000E+03 0.  0.
        998    1    1    2    0    0  0.31630178513E+01  0.12017496001E+01  0.14638267912E+04  0.14638648583E+04  0.10000000000E+02 0.  1.
</event>
<event>
 5    1  0.9123258E-009  0.3821642E+03  0.7957747E-01  0.3441789E+00
         13   -1    0    0    0    0  0.00000000000E+00  0.00000000000E+00  0.14999999963E+04  0.15000000000E+04  0.10566000000E+00 0.  1.
        994   -1    0    0    0    0 -0.00000000000E+00 -0.00000000000E+00  0.11368683772E-12  0.17120000000E+03  0.17120000000E+03 0.  0.
         13    1    1    2    0    0  0.75991731136E+01  0.11589782952E+02  0.30247287859E+02  0.33271310280E+02  0.10566000000E+00 0.  1.
        994    1    1    2    0    0 -0.85059851428E+01 -0.78508073165E+01  0.34895150854E+01  0.17162634901E+03  0.17120000000E+03 0.  0.
        998    1    1    2    0    0  0.90681202918E+00 -0.37389756355E+01  0.14662631933E+04  0.14663023407E+04  0.10000000000E+02 0.  1.
</event>
<event>
 5    1  0.9123258E-009  0.3813258E+03  0.7957747E-01  0.3445406E+00
         13   -1    0    0    0    0  0.00000000000E+00  0.00000000000E+00  0.14999999963E+04  0.15000000000E+04  0.10566000000E+00 0. -1.
        994   -1    0    0    0    0 -0.00000000000E+00 -0.00000000000E+00  0.11368683772E-12  0.17120000000E+03  0.17120000000E+03 0.  0.
         13    1    1    2    0    0  0.10103943540E+02  0.34101510128E+02  0.28711246784E+02  0.45709403015E+02  0.10566000000E+00 0. -1.
        994    1    1    2    0    0 -0.21243132818E+02 -0.44143822009E+02  0.25848063440E+02  0.17993751720E+03  0.17120000000E+03 0.  0.
        998    1    1    2    0    0  0.11139189279E+02  0.10042311881E+02  0.14454406861E+04  0.14455530798E+04  0.10000000000E+02 0. -1.
</event>
<event>
 5    1  0.9123258E-009  0.3773087E+03  0.7957747E-01  0.3462961E+00
         13   -1    0    0    0    0  0.00000000000E+00  0.00000000000E+00  0.14999999963E+04  0.15000000000E+04  0.10566000000E+00 0. -1.
        994   -1    0    0    0    0 -0.00000000000E+00 -0.00000000000E+00  0.11368683772E-12  0.17120000000E+03  0.17120000000E+03 0.  0.
         13    1    1    2    0    0 -0.19915290714E+02 -0.25633702216E+02  0.88540113522E+02  0.94303066547E+02  0.10566000000E+00 0. -1.
        994    1    1    2    0    0  0.18746090250E+02  0.27894700100E+02  0.93172046617E+01  0.17471628572E+03  0.17120000000E+03 0.  0.
        998    1    1    2    0    0  0.11692004649E+01 -0.22609978838E+01  0.14021426781E+04  0.14021806477E+04  0.10000000000E+02 0. -1.
</event>
<event>
 5    1  0.9123258E-009  0.3735851E+03  0.7957747E-01  0.3479575E+00
         13   -1    0    0    0    0  0.00000000000E+00  0.00000000000E+00  0.14999999963E+04  0.15000000000E+04  0.10566000000E+00 0.  1.
        994   -1    0    0    0    0 -0.00000000000E+00 -0.00000000000E+00  0.11368683772E-12  0.17120000000E+03  0.17120000000E+03 0.  0.
         13    1    1    2    0    0  0.73304624631E+01  0.61505860122E+02  0.36071831059E+03  0.36599783779E+03  0.10566000000E+00 0.  1.
        994    1    1    2    0    0  0.11411233634E+02  0.26297973527E+01  0.78756352386E+01  0.17178066747E+03  0.17120000000E+03 0.  0.
        998    1    1    2    0    0 -0.18741696097E+02 -0.64135657474E+02  0.11314060505E+04  0.11334214947E+04  0.10000000000E+02 0.  1.
</event>
<event>
 5    1  0.9123258E-009  0.3814677E+03  0.7957747E-01  0.3444793E+00
         13   -1    0    0    0    0  0.00000000000E+00  0.00000000000E+00  0.14999999963E+04  0.15000000000E+04  0.10566000000E+00 0. -1.
        994   -1    0    0    0    0 -0.00000000000E+00 -0.00000000000E+00  0.11368683772E-12  0.17120000000E+03  0.17120000000E+03 0.  0.
         13    1    1    2    0    0  0.14108198035E+02  0.68448059663E+01  0.34354363658E+02  0.37764084616E+02  0.10566000000E+00 0. -1.
        994    1    1    2    0    0 -0.13706034443E+02 -0.75962728255E+01  0.42114277282E+01  0.17196724940E+03  0.17120000000E+03 0.  0.
        998    1    1    2    0    0 -0.40216359124E+00  0.75146685922E+00  0.14614342049E+04  0.14614686660E+04  0.10000000000E+02 0. -1.
</event>
<event>
 5    1  0.9123258E-009  0.3964258E+03  0.7957747E-01  0.3382614E+00
         13   -1    0    0    0    0  0.00000000000E+00  0.00000000000E+00  0.14999999963E+04  0.15000000000E+04  0.10566000000E+00 0.  1.
        994   -1    0    0    0    0 -0.00000000000E+00 -0.00000000000E+00  0.11368683772E-12  0.17120000000E+03  0.17120000000E+03 0.  0.
         13    1    1    2    0    0 -0.16590332189E+02  0.60029406130E+02  0.71553190379E+02  0.94861156117E+02  0.10566000000E+00 0.  1.
        994    1    1    2    0    0  0.24903898646E+01 -0.21727688688E+02  0.27507624876E+02  0.17476957379E+03  0.17120000000E+03 0.  0.
        998    1    1    2    0    0  0.14099942324E+02 -0.38301717442E+02  0.14009391810E+04  0.14015692701E+04  0.10000000000E+02 0.  1.
</event>
<event>
 5    1  0.9123258E-009  0.3777119E+03  0.7957747E-01  0.3461182E+00
         13   -1    0    0    0    0  0.00000000000E+00  0.00000000000E+00  0.14999999963E+04  0.15000000000E+04  0.10566000000E+00 0.  1.
        994   -1    0    0    0    0 -0.00000000000E+00 -0.00000000000E+00  0.11368683772E-12  0.17120000000E+03  0.17120000000E+03 0.  0.
         13    1    1    2    0    0 -0.16805027903E+01 -0.44211644764E+02  0.15375904162E+03  0.15999796145E+03  0.10566000000E+00 0.  1.
        994    1    1    2    0    0 -0.40139440526E+01  0.57147594721E+02  0.16428463877E+02  0.18127684285E+03  0.17120000000E+03 0.  0.
        998    1    1    2    0    0  0.56944468428E+01 -0.12935949957E+02  0.13298124908E+04  0.13299251957E+04  0.10000000000E+02 0.  1.
</event>
<event>
 5    1  0.9123258E-009  0.3807032E+03  0.7957747E-01  0.3448102E+00
         13   -1    0    0    0    0  0.00000000000E+00  0.00000000000E+00  0.14999999963E+04  0.15000000000E+04  0.10566000000E+00 0.  1.
        994   -1    0    0    0    0 -0.00000000000E+00 -0.00000000000E+00  0.11368683772E-12  0.17120000000E+03  0.17120000000E+03 0.  0.
         13    1    1    2    0    0  0.82654387768E+01  0.61879529155E+02  0.29082413926E+03  0.29744929777E+03  0.10566000000E+00 0.  1.
        994    1    1    2    0    0 -0.13677662981E+02 -0.10008448203E+03  0.38595751957E+02  0.20249210868E+03  0.17120000000E+03 0.  0.
        998    1    1    2    0    0  0.54122242042E+01  0.38204952870E+02  0.11705801051E+04  0.11712585936E+04  0.10000000000E+02 0.  1.
</event>
<event>
 5    1  0.9123258E-009  0.3843251E+03  0.7957747E-01  0.3432540E+00
         13   -1    0    0    0    0  0.00000000000E+00  0.00000000000E+00  0.14999999963E+04  0.15000000000E+04  0.10566000000E+00 0. -1.
        994   -1    0    0    0    0 -0.00000000000E+00 -0.00000000000E+00  0.11368683772E-12  0.17120000000E+03  0.17120000000E+03 0.  0.
         13    1    1    2    0    0  0.11114414950E+02  0.83270539158E+01  0.53161105243E+02  0.54945284795E+02  0.10566000000E+00 0. -1.
        994    1    1    2    0    0  0.75630854273E+01  0.17509183479E+01  0.21642462936E+01  0.17138958527E+03  0.17120000000E+03 0.  0.
        998    1    1    2    0    0 -0.18677500378E+02 -0.10077972264E+02  0.14446746447E+04  0.14448651299E+04  0.10000000000E+02 0. -1.
</event>
<event>
 5    1  0.9123258E-009  0.3790044E+03  0.7957747E-01  0.3455505E+00
         13   -1    0    0    0    0  0.00000000000E+00  0.00000000000E+00  0.14999999963E+04  0.15000000000E+04  0.10566000000E+00 0. -1.
        994   -1    0    0    0    0 -0.00000000000E+00 -0.00000000000E+00  0.11368683772E-12  0.17120000000E+03  0.17120000000E+03 0.  0.
         13    1    1    2    0    0  0.44739655996E+02 -0.12115669977E+01  0.24639255107E+03  0.25042444988E+03  0.10566000000E+00 0. -1.
        994    1    1    2    0    0 -0.16945542030E+02 -0.62585652134E+02  0.18868652680E+02  0.18403690201E+03  0.17120000000E+03 0.  0.
        998    1    1    2    0    0 -0.27794113966E+02  0.63797219132E+02  0.12347387925E+04  0.12367386481E+04  0.10000000000E+02 0. -1.
</event>
<event>
 5    1  0.9123258E-009  0.3728655E+03  0.7957747E-01  0.3482824E+00
         13   -1    0    0    0    0  0.00000000000E+00  0.00000000000E+00  0.14999999963E+04  0.15000000000E+04  0.10566000000E+00 0.  1.
        994   -1    0    0    0    0 -0.00000000000E+00 -0.00000000000E+00  0.11368683772E-12  0.17120000000E+03  0.17120000000E+03 0.  0.
         13    1    1    2    0    0 -0.10049914291E+01 -0.23541641508E+02  0.32357786616E+02  0.40028195205E+02  0.10566000000E+00 0.  1.
        994    1    1    2    0    0 -0.83689822998E-01  0.17973809756E+02  0.88858459399E+01  0.17237013401E+03  0.17120000000E+03 0.  0.
        998    1    1    2    0    0  0.10886812521E+01  0.55678317520E+01  0.14587563637E+04  0.14588016708E+04  0.10000000000E+02 0.  1.
</event>
<event>
 5    1  0.9123258E-009  0.3815703E+03  0.7957747E-01  0.3444349E+00
         13   -1    0    0    0    0  0.00000000000E+00  0.00000000000E+00  0.14999999963E+04  0.15000000000E+04  0.10566000000E+00 0. -1.
        994   -1    0    0    0    0 -0.00000000000E+00 -0.00000000000E+00  0.11368683772E-12  0.17120000000E+03  0.17120000000E+03 0.  0.
         13    1    1    2    0    0  0.21818469448E+02 -0.44026743010E+01  0.71407545354E+02  0.74796242202E+02  0.10566000000E+00 0. -1.
        994    1    1    2    0    0 -0.17521976991E+02  0.74586386364E+01  0.45495214515E+01  0.17231595722E+03  0.17120000000E+03 0.  0.
        998    1    1    2    0    0 -0.42964924568E+01 -0.30559643353E+01  0.14240429295E+04  0.14240878006E+04  0.10000000000E+02 0. -1.
</event>
<event>
 5    1  0.9123258E-009  0.3843023E+03  0.7957747E-01  0.3432637E+00
         13   -1    0    0    0    0  0.00000000000E+00  0.00000000000E+00  0.14999999963E+04  0.15000000000E+04  0.10566000000E+00 0. -1.
        994   -1    0    0    0    0 -0.00000000000E+00 -0.00000000000E+00  0.11368683772E-12  0.17120000000E+03  0.17120000000E+03 0.  0.
         13    1    1    2    0    0  0.18616401927E+01  0.13440192353E+02  0.40875106388E+02  0.43068433463E+02  0.10566000000E+00 0. -1.
        994    1    1    2    0    0  0.23807757263E+02 -0.39734474838E+02  0.90814781887E+01  0.17758815006E+03  0.17120000000E+03 0.  0.
        998    1    1    2    0    0 -0.25669397456E+02  0.26294282485E+02  0.14500434117E+04  0.14505434165E+04  0.10000000000E+02 0. -1.
</event>
<event>
 5    1  0.9123258E-009  0.3829725E+03  0.7957747E-01  0.3438317E+00
         13   -1    0    0    0    0  0.00000000000E+00  0.00000000000E+00  0.14999999963E+04  0.15000000000E+04  0.10566000000E+00 0.  1.
        994   -1    0    0    0    0 -0.00000000000E+00 -0.00000000000E+00  0.11368683772E-12  0.17120000000E+03  0.17120000000E+03 0.  0.
         13    1    1    2    0    0  0.19238431953E+02  0.20196769438E+02  0.15293352635E+03  0.15545642929E+03  0.10566000000E+00 0.  1.
        994    1    1    2    0    0 -0.13454037641E+02 -0.28901880675E+01  0.32672241600E+01  0.17178323280E+03  0.17120000000E+03 0.  0.
        998    1    1    2    0    0 -0.57843943117E+01 -0.17306581371E+02  0.13437992458E+04  0.13439603379E+04  0.10000000000E+02 0.  1.
</event>
<event>
 5    1  0.9123258E-009  0.3771052E+03  0.7957747E-01  0.3463861E+00
         13   -1    0    0    0    0  0.00000000000E+00  0.00000000000E+00  0.14999999963E+04  0.15000000000E+04  0.10566000000E+00 0.  1.
        994   -1    0    0    0    0 -0.00000000000E+00 -0.00000000000E+00  0.11368683772E-12  0.17120000000E+03  0.17120000000E+03 0.  0.
         13    1    1    2    0    0  0.55156585501E+02  0.13219981340E+02  0.29094542678E+03  0.29642245084E+03  0.10566000000E+00 0.  1.
        994    1    1    2    0    0 -0.24808890034E+02 -0.27792006880E+02  0.10300343397E+02  0.17550901329E+03  0.17120000000E+03 0.  0.
        998    1    1    2    0    0 -0.30347695467E+02  0.14572025539E+02  0.11987542261E+04  0.11992685359E+04  0.10000000000E+02 0.  1.
</event>
<event>
 5    1  0.9123258E-009  0.3824576E+03  0.7957747E-01  0.3440527E+00
         13   -1    0    0    0    0  0.00000000000E+00  0.00000000000E+00  0.14999999963E+04  0.15000000000E+04  0.10566000000E+00 0.  1.
        994   -1    0    0    0    0 -0.00000000000E+00 -0.00000000000E+00  0.11368683772E-12  0.17120000000E+03  0.17120000000E+03 0.  0.
         13    1    1    2    0    0 -0.10525148922E+02 -0.90950049380E+01  0.32513079528E+02  0.35363955931E+02  0.10566000000E+00 0.  1.
        994    1    1    2    0    0  0.22588834647E+01  0.99629369380E+01  0.32438097551E+01  0.17153520038E+03  0.17120000000E+03 0.  0.
        998    1    1    2    0    0  0.82662654578E+01 -0.86793199999E+00  0.14642431070E+04  0.14643008437E+04  0.10000000000E+02 0.  1.
</event>
<event>
 5    1  0.9123258E-009  0.3830725E+03  0.7957747E-01  0.3437888E+00
         13   -1    0    0    0    0  0.00000000000E+00  0.00000000000E+00  0.14999999963E+04  0.15000000000E+04  0.10566000000E+00 0.  1.
        994   -1    0    0    0    0 -0.00000000000E+00 -0.00000000000E+00  0.11368683772E-12  0.17120000000E+03  0.17120000000E+03 0.  0.
         13    1    1    2    0    0 -0.10686056467E+03  0.24624238699E+03  0.10595541978E+04  0.10930277227E+04  0.10566000000E+00 0.  1.
        994    1    1    2    0    0  0.98944723311E+02 -0.25588414969E+03  0.31408998748E+03  0.45080895795E+03  0.17120000000E+03 0.  0.
        998    1    1    2    0    0  0.79158413598E+01  0.96417627067E+01  0.12635581102E+03  0.12736331933E+03  0.10000000000E+02 0. -1.
</event>
<event>
 5    1  0.9123258E-009  0.3848260E+03  0.7957747E-01  0.3430410E+00
         13   -1    0    0    0    0  0.00000000000E+00  0.00000000000E+00  0.14999999963E+04  0.15000000000E+04  0.10566000000E+00 0.  1.
        994   -1    0    0    0    0 -0.00000000000E+00 -0.00000000000E+00  0.11368683772E-12  0.17120000000E+03  0.17120000000E+03 0.  0.
         13    1    1    2    0    0  0.96890255383E+01 -0.34718096141E+01  0.31457654053E+02  0.33098728683E+02  0.10566000000E+00 0.  1.
        994    1    1    2    0    0 -0.31595434172E+01 -0.73026990324E+01  0.19248890520E+01  0.17139561641E+03  0.17120000000E+03 0.  0.
        998    1    1    2    0    0 -0.65294821211E+01  0.10774508646E+02  0.14666174532E+04  0.14667056549E+04  0.10000000000E+02 0.  1.
</event>
<event>
 5    1  0.9123258E-009  0.3849687E+03  0.7957747E-01  0.3429805E+00
         13   -1    0    0    0    0  0.00000000000E+00  0.00000000000E+00  0.14999999963E+04  0.15000000000E+04  0.10566000000E+00 0. -1.
        994   -1    0    0    0    0 -0.00000000000E+00 -0.00000000000E+00  0.11368683772E-12  0.17120000000E+03  0.17120000000E+03 0.  0.
         13    1    1    2    0    0 -0.23239774586E+01  0.13922384090E+02  0.58324484926E+02  0.60008252399E+02  0.10566000000E+00 0. -1.
        994    1    1    2    0    0  0.17413125631E+01 -0.15467753893E+02  0.24429567917E+01  0.17192350513E+03  0.17120000000E+03 0.  0.
        998    1    1    2    0    0  0.58266489549E+00  0.15453698038E+01  0.14392325546E+04  0.14392682425E+04  0.10000000000E+02 0. -1.
</event>
<event>
 5    1  0.9123258E-009  0.3831106E+03  0.7957747E-01  0.3437725E+00
         13   -1    0    0    0    0  0.00000000000E+00  0.00000000000E+00  0.14999999963E+04  0.15000000000E+04  0.10566000000E+00 0. -1.
        994   -1    0    0    0    0 -0.00000000000E+00 -0.00000000000E+00  0.11368683772E-12  0.17120000000E+03  0.17120000000E+03 0.  0.
         13    1    1    2    0    0 -0.12905874658E+02 -0.10011994954E+02  0.50012166639E+02  0.52612067243E+02  0.10566000000E+00 0. -1.
        994    1    1    2    0    0  0.14180925925E+02  0.72286564374E+01  0.34098468933E+01  0.17197214655E+03  0.17120000000E+03 0.  0.
        998    1    1    2    0    0 -0.12750512672E+01  0.27833385171E+01  0.14465779827E+04  0.14466157862E+04  0.10000000000E+02 0. -1.
</event>
<event>
 5    1  0.9123258E-009  0.3846721E+03  0.7957747E-01  0.3431064E+00
         13   -1    0    0    0    0  0.00000000000E+00  0.00000000000E+00  0.14999999963E+04  0.15000000000E+04  0.10566000000E+00 0.  1.
        994   -1    0    0    0    0 -0.00000000000E+00 -0.00000000000E+00  0.11368683772E-12  0.17120000000E+03  0.17120000000E+03 0.  0.
         13    1    1    2    0    0 -0.14436520838E+02  0.29621557991E+01  0.76715042373E+02  0.78117836576E+02  0.10566000000E+00 0.  1.
        994    1    1    2    0    0 -0.21645817769E+02  0.17942878577E+02  0.43997596443E+01  0.17354908874E+03  0.17120000000E+03 0.  0.
        998    1    1    2    0    0  0.36082338607E+02 -0.20905034376E+02  0.14188851943E+04  0.14195330747E+04  0.10000000000E+02 0.  1.
</event>
<event>
 5    1  0.9123258E-009  0.3808112E+03  0.7957747E-01  0.3447634E+00
         13   -1    0    0    0    0  0.00000000000E+00  0.00000000000E+00  0.14999999963E+04  0.15000000000E+04  0.10566000000E+00 0. -1.
        994   -1    0    0    0    0 -0.00000000000E+00 -0.00000000000E+00  0.11368683772E-12  0.17120000000E+03  0.17120000000E+03 0.  0.
         13    1    1    2    0    0  0.94437175350E+01 -0.26605808465E+02  0.10620371552E+03  0.10989218898E+03  0.10566000000E+00 0. -1.
        994    1    1    2    0    0 -0.24861429629E+02  0.89454649466E+01  0.60551748425E+01  0.17333267773E+03  0.17120000000E+03 0.  0.
        998    1    1    2    0    0  0.15417712094E+02  0.17660343518E+02  0.13877411059E+04  0.13879751333E+04  0.10000000000E+02 0. -1.
</event>
<event>
 5    1  0.9123258E-009  0.3767031E+03  0.7957747E-01  0.3465641E+00
         13   -1    0    0    0    0  0.00000000000E+00  0.00000000000E+00  0.14999999963E+04  0.15000000000E+04  0.10566000000E+00 0. -1.
        994   -1    0    0    0    0 -0.00000000000E+00 -0.00000000000E+00  0.11368683772E-12  0.17120000000E+03  0.17120000000E+03 0.  0.
         13    1    1    2    0    0  0.23434613246E+01 -0.25043160047E+02  0.50889501732E+02  0.56766224347E+02  0.10566000000E+00 0. -1.
        994    1    1    2    0    0 -0.11322820989E+02  0.23267897915E+02  0.80731623087E+01  0.17333267810E+03  0.17120000000E+03 0.  0.
        998    1    1    2    0    0  0.89793596643E+01  0.17752621322E+01  0.14410373322E+04  0.14411010976E+04  0.10000000000E+02 0. -1.
</event>
<event>
 5    1  0.9123258E-009  0.3826850E+03  0.7957747E-01  0.3439550E+00
         13   -1    0    0    0    0  0.00000000000E+00  0.00000000000E+00  0.14999999963E+04  0.15000000000E+04  0.10566000000E+00 0.  1.
        994   -1    0    0    0    0 -0.00000000000E+00 -0.00000000000E+00  0.11368683772E-12  0.17120000000E+03  0.17120000000E+03 0.  0.
         13    1    1    2    0    0  0.12714436812E+02 -0.22315894948E+02  0.12229296089E+03  0.12496093596E+03  0.10566000000E+00 0.  1.
        994    1    1    2    0    0 -0.10009398619E+02  0.57708689311E+01  0.32263370230E+01  0.17161975481E+03  0.17120000000E+03 0.  0.
        998    1    1    2    0    0 -0.27050381928E+01  0.16545026017E+02  0.13744806984E+04  0.13746193092E+04  0.10000000000E+02 0.  1.
</event>
<event>
 5    1  0.9123258E-009  0.3784162E+03  0.7957747E-01  0.3458084E+00
         13   -1    0    0    0    0  0.00000000000E+00  0.00000000000E+00  0.14999999963E+04  0.15000000000E+04  0.10566000000E+00 0. -1.
        994   -1    0    0    0    0 -0.00000000000E+00 -0.00000000000E+00  0.11368683772E-12  0.17120000000E+03  0.17120000000E+03 0.  0.
         13    1    1    2    0    0 -0.11182182005E+02  0.35247886368E+02  0.39228594358E+02  0.53910559886E+02  0.10566000000E+00 0. -1.
        994    1    1    2    0    0 -0.47283620123E+01 -0.18623252933E+02  0.16791131992E+02  0.17309120449E+03  0.17120000000E+03 0.  0.
        998    1    1    2    0    0  0.15910544017E+02 -0.16624633436E+02  0.14439802699E+04  0.14441982356E+04  0.10000000000E+02 0. -1.
</event>
<event>
 5    1  0.9123258E-009  0.3850848E+03  0.7957747E-01  0.3429313E+00
         13   -1    0    0    0    0  0.00000000000E+00  0.00000000000E+00  0.14999999963E+04  0.15000000000E+04  0.10566000000E+00 0.  1.
        994   -1    0    0    0    0 -0.00000000000E+00 -0.00000000000E+00  0.11368683772E-12  0.17120000000E+03  0.17120000000E+03 0.  0.
         13    1    1    2    0    0 -0.13075217062E+02 -0.15499685190E+01  0.53428533969E+02  0.55027112497E+02  0.10566000000E+00 0.  1.
        994    1    1    2    0    0  0.11971046032E+02  0.53456762118E+01  0.21533606114E+01  0.17171476104E+03  0.17120000000E+03 0.  0.
        998    1    1    2    0    0  0.11041710299E+01 -0.37957076929E+01  0.14444181017E+04  0.14444581265E+04  0.10000000000E+02 0.  1.
</event>
<event>
 5    1  0.9123258E-009  0.3817877E+03  0.7957747E-01  0.3443411E+00
         13   -1    0    0    0    0  0.00000000000E+00  0.00000000000E+00  0.14999999963E+04  0.15000000000E+04  0.10566000000E+00 0. -1.
        994   -1    0    0    0    0 -0.00000000000E+00 -0.00000000000E+00  0.11368683772E-12  0.17120000000E+03  0.17120000000E+03 0.  0.
         13    1    1    2    0    0 -0.47364930787E+02 -0.15238036910E+02  0.25421300835E+03  0.25903648240E+03  0.10566000000E+00 0. -1.
        994    1    1    2    0    0  0.83522531499E+02 -0.90953184131E+01  0.27057914234E+02  0.19261440447E+03  0.17120000000E+03 0.  0.
        998    1    1    2    0    0 -0.36157600712E+02  0.24333355323E+02  0.12187290737E+04  0.12195491131E+04  0.10000000000E+02 0. -1.
</event>
<event>
 5    1  0.9123258E-009  0.3786113E+03  0.7957747E-01  0.3457228E+00
         13   -1    0    0    0    0  0.00000000000E+00  0.00000000000E+00  0.14999999963E+04  0.15000000000E+04  0.10566000000E+00 0.  1.
        994   -1    0    0    0    0 -0.00000000000E+00 -0.00000000000E+00  0.11368683772E-12  0.17120000000E+03  0.17120000000E+03 0.  0.
         13    1    1    2    0    0 -0.19098087862E+00  0.17598339253E+02  0.30656460834E+02  0.35349225919E+02  0.10566000000E+00 0.  1.
        994    1    1    2    0    0 -0.47240454379E+01 -0.54594444789E+01  0.50108757533E+01  0.17142540948E+03  0.17120000000E+03 0.  0.
        998    1    1    2    0    0  0.49150263165E+01 -0.12138894774E+02  0.14643326597E+04  0.14644253646E+04  0.10000000000E+02 0.  1.
</event>
<event>
 5    1  0.9123258E-009  0.3823157E+03  0.7957747E-01  0.3441137E+00
         13   -1    0    0    0    0  0.00000000000E+00  0.00000000000E+00  0.14999999963E+04  0.15000000000E+04  0.10566000000E+00 0. -1.
        994   -1    0    0    0    0 -0.00000000000E+00 -0.00000000000E+00  0.11368683772E-12  0.17120000000E+03  0.17120000000E+03 0.  0.
         13    1    1    2    0    0  0.19887097283E+02  0.16426188236E+02  0.11959169673E+03  0.12234174017E+03  0.10566000000E+00 0. -1.
        994    1    1    2    0    0 -0.10685483126E+02  0.55392160771E+01  0.34494936817E+01  0.17165722085E+03  0.17120000000E+03 0.  0.
        998    1    1    2    0    0 -0.92016141564E+01 -0.21965404313E+02  0.13769588059E+04  0.13772010390E+04  0.10000000000E+02 0. -1.
</event>
<event>
 5    1  0.9123258E-009  0.3783455E+03  0.7957747E-01  0.3458394E+00
         13   -1    0    0    0    0  0.00000000000E+00  0.00000000000E+00  0.14999999963E+04  0.15000000000E+04  0.10566000000E+00 0. -1.
        994   -1    0    0    0    0 -0.00000000000E+00 -0.00000000000E+00  0.11368683772E-12  0.17120000000E+03  0.17120000000E+03 0.  0.
         13    1    1    2    0    0  0.65501135993E+02  0.49403979497E+02  0.43809969105E+03  0.44571571934E+03  0.10566000000E+00 0. -1.
        994    1    1    2    0    0 -0.77999944870E+02 -0.45210735358E+02  0.32796467026E+02  0.19624742098E+03  0.17120000000E+03 0.  0.
        998    1    1    2    0    0  0.12498808877E+02 -0.41932441392E+01  0.10291038382E+04  0.10292368597E+04  0.10000000000E+02 0. -1.
</event>
<event>
 5    1  0.9123258E-009  0.3825589E+03  0.7957747E-01  0.3440092E+00
         13   -1    0    0    0    0  0.00000000000E+00  0.00000000000E+00  0.14999999963E+04  0.15000000000E+04  0.10566000000E+00 0.  1.
        994   -1    0    0    0    0 -0.00000000000E+00 -0.00000000000E+00  0.11368683772E-12  0.17120000000E+03  0.17120000000E+03 0.  0.
         13    1    1    2    0    0  0.13029856586E+02 -0.16970752954E+02  0.81374254485E+02  0.84140145445E+02  0.10566000000E+00 0.  1.
        994    1    1    2    0    0  0.53941884514E+01  0.16115694006E+02  0.38049361500E+01  0.17208349834E+03  0.17120000000E+03 0.  0.
        998    1    1    2    0    0 -0.18424045037E+02  0.85505894753E+00  0.14148208056E+04  0.14149763562E+04  0.10000000000E+02 0.  1.
</event>
<event>
 5    1  0.9123258E-009  0.3851478E+03  0.7957747E-01  0.3429045E+00
         13   -1    0    0    0    0  0.00000000000E+00  0.00000000000E+00  0.14999999963E+04  0.15000000000E+04  0.10566000000E+00 0. -1.
        994   -1    0    0    0    0 -0.00000000000E+00 -0.00000000000E+00  0.11368683772E-12  0.17120000000E+03  0.17120000000E+03 0.  0.
         13    1    1    2    0    0 -0.29740912386E+01  0.11371464819E+02  0.43862734194E+02  0.45410417812E+02  0.10566000000E+00 0. -1.
        994    1    1    2    0    0  0.95068822050E+01 -0.78664645834E+01  0.20574089936E+01  0.17165644470E+03  0.17120000000E+03 0.  0.
        998    1    1    2    0    0 -0.65327909664E+01 -0.35050002356E+01  0.14540798531E+04  0.14541331375E+04  0.10000000000E+02 0. -1.
</event>
<event>
 5    1  0.9123258E-009  0.3833674E+03  0.7957747E-01  0.3436626E+00
         13   -1    0    0    0    0  0.00000000000E+00  0.00000000000E+00  0.14999999963E+04  0.15000000000E+04  0.10566000000E+00 0. -1.
        994   -1    0    0    0    0 -0.00000000000E+00 -0.00000000000E+00  0.11368683772E-12  0.17120000000E+03  0.17120000000E+03 0.  0.
         13    1    1    2    0    0 -0.11480487792E+02 -0.58518382879E+01  0.32818081193E+02  0.35257385446E+02  0.10566000000E+00 0. -1.
        994    1    1    2    0    0  0.14645681286E+02 -0.23882762837E+01  0.31712257008E+01  0.17187116255E+03  0.17120000000E+03 0.  0.
        998    1    1    2    0    0 -0.31651934942E+01  0.82401145716E+01  0.14640106894E+04  0.14640714520E+04  0.10000000000E+02 0. -1.
</event>
<event>
 5    1  0.9123258E-009  0.3746061E+03  0.7957747E-01  0.3474986E+00
         13   -1    0    0    0    0  0.00000000000E+00  0.00000000000E+00  0.14999999963E+04  0.15000000000E+04  0.10566000000E+00 0.  1.
        994   -1    0    0    0    0 -0.00000000000E+00 -0.00000000000E+00  0.11368683772E-12  0.17120000000E+03  0.17120000000E+03 0.  0.
         13    1    1    2    0    0  0.70910283684E+02 -0.27584818867E+02  0.32123645872E+03  0.33012431619E+03  0.10566000000E+00 0.  1.
        994    1    1    2    0    0 -0.66125887316E+02  0.48951041569E+02  0.30281570279E+02  0.19234149563E+03  0.17120000000E+03 0.  0.
        998    1    1    2    0    0 -0.47843963679E+01 -0.21366222702E+02  0.11484819673E+04  0.11487341882E+04  0.10000000000E+02 0.  1.
</event>
<event>
 5    1  0.9123258E-009  0.3835313E+03  0.7957747E-01  0.3435925E+00
         13   -1    0    0    0    0  0.00000000000E+00  0.00000000000E+00  0.14999999963E+04  0.15000000000E+04  0.10566000000E+00 0.  1.
        994   -1    0    0    0    0 -0.00000000000E+00 -0.00000000000E+00  0.11368683772E-12  0.17120000000E+03  0.17120000000E+03 0.  0.
         13    1    1    2    0    0 -0.23013527555E+01 -0.12762383274E+02  0.34624387289E+02  0.36973423029E+02  0.10566000000E+00 0.  1.
        994    1    1    2    0    0  0.46355623747E+01  0.10204749996E+02  0.27762816618E+01  0.17158896556E+03  0.17120000000E+03 0.  0.
        998    1    1    2    0    0 -0.23342096192E+01  0.25576332774E+01  0.14625993273E+04  0.14626376114E+04  0.10000000000E+02 0.  0.
</event>
<event>
 5    1  0.9123258E-009  0.3784310E+03  0.7957747E-01  0.3458019E+00
         13   -1    0    0    0    0  0.00000000000E+00  0.00000000000E+00  0.14999999963E+04  0.15000000000E+04  0.10566000000E+00 0.  1.
        994   -1    0    0    0    0 -0.00000000000E+00 -0.00000000000E+00  0.11368683772E-12  0.17120000000E+03  0.17120000000E+03 0.  0.
         13    1    1    2    0    0 -0.26626893750E+02 -0.19114548464E+01  0.73628633829E+02  0.78318784554E+02  0.10566000000E+00 0.  1.
        994    1    1    2    0    0  0.63174693179E+01  0.11800302855E+01  0.50660788204E+01  0.17139547265E+03  0.17120000000E+03 0.  0.
        998    1    1    2    0    0  0.20309424432E+02  0.73142456090E+00  0.14213052836E+04  0.14214857428E+04  0.10000000000E+02 0.  1.
</event>
<event>
 5    1  0.9123258E-009  0.3753383E+03  0.7957747E-01  0.3471711E+00
         13   -1    0    0    0    0  0.00000000000E+00  0.00000000000E+00  0.14999999963E+04  0.15000000000E+04  0.10566000000E+00 0. -1.
        994   -1    0    0    0    0 -0.00000000000E+00 -0.00000000000E+00  0.11368683772E-12  0.17120000000E+03  0.17120000000E+03 0.  0.
         13    1    1    2    0    0 -0.69707240514E+02  0.23364290672E+02  0.41859455635E+03  0.42500165086E+03  0.10566000000E+00 0. -1.
        994    1    1    2    0    0  0.38323323373E+02 -0.13598649505E+02  0.12140364627E+02  0.17638148666E+03  0.17120000000E+03 0.  0.
        998    1    1    2    0    0  0.31383917141E+02 -0.97656411664E+01  0.10692650753E+04  0.10698168625E+04  0.10000000000E+02 0. -1.
</event>
<event>
 5    1  0.9123258E-009  0.3815873E+03  0.7957747E-01  0.3444276E+00
         13   -1    0    0    0    0  0.00000000000E+00  0.00000000000E+00  0.14999999963E+04  0.15000000000E+04  0.10566000000E+00 0. -1.
        994   -1    0    0    0    0 -0.00000000000E+00 -0.00000000000E+00  0.11368683772E-12  0.17120000000E+03  0.17120000000E+03 0.  0.
         13    1    1    2    0    0 -0.66573937539E+01  0.95389869942E+01  0.18508491478E+02  0.21860662965E+02  0.10566000000E+00 0. -1.
        994    1    1    2    0    0  0.10141438742E+02 -0.12988819538E+02  0.42376206545E+01  0.17204347021E+03  0.17120000000E+03 0.  0.
        998    1    1    2    0    0 -0.34840449883E+01  0.34498325439E+01  0.14772538841E+04  0.14772958668E+04  0.10000000000E+02 0. -1.
</event>
<event>
 5    1  0.9123258E-009  0.3692492E+03  0.7957747E-01  0.3499348E+00
         13   -1    0    0    0    0  0.00000000000E+00  0.00000000000E+00  0.14999999963E+04  0.15000000000E+04  0.10566000000E+00 0.  1.
        994   -1    0    0    0    0 -0.00000000000E+00 -0.00000000000E+00  0.11368683772E-12  0.17120000000E+03  0.17120000000E+03 0.  0.
         13    1    1    2    0    0 -0.46937376880E+01  0.10180593724E+02  0.11142985158E+01  0.11266254359E+02  0.10566000000E+00 0.  1.
        994    1    1    2    0    0 -0.10038776680E+02 -0.56317129493E+01  0.11004479647E+02  0.17193903513E+03  0.17120000000E+03 0.  0.
        998    1    1    2    0    0  0.14732514368E+02 -0.45488807751E+01  0.14878812181E+04  0.14879947105E+04  0.10000000000E+02 0.  1.
</event>
<event>
 5    1  0.9123258E-009  0.3819381E+03  0.7957747E-01  0.3442763E+00
         13   -1    0    0    0    0  0.00000000000E+00  0.00000000000E+00  0.14999999963E+04  0.15000000000E+04  0.10566000000E+00 0.  1.
        994   -1    0    0    0    0 -0.00000000000E+00 -0.00000000000E+00  0.11368683772E-12  0.17120000000E+03  0.17120000000E+03 0.  0.
         13    1    1    2    0    0 -0.13022545111E+02  0.16400038053E+02  0.63439027947E+02  0.66806207498E+02  0.10566000000E+00 0.  1.
        994    1    1    2    0    0  0.20663486755E+02 -0.21463362020E+02  0.61120682858E+01  0.17388057100E+03  0.17120000000E+03 0.  0.
        998    1    1    2    0    0 -0.76409416438E+01  0.50633239673E+01  0.14304489000E+04  0.14305132215E+04  0.10000000000E+02 0.  1.
</event>
<event>
 5    1  0.9123258E-009  0.3740038E+03  0.7957747E-01  0.3477690E+00
         13   -1    0    0    0    0  0.00000000000E+00  0.00000000000E+00  0.14999999963E+04  0.15000000000E+04  0.10566000000E+00 0. -1.
        994   -1    0    0    0    0 -0.00000000000E+00 -0.00000000000E+00  0.11368683772E-12  0.17120000000E+03  0.17120000000E+03 0.  0.
         13    1    1    2    0    0 -0.78037135449E+02  0.22489677176E+02  0.19697558440E+03  0.21306095866E+03  0.10566000000E+00 0. -1.
        994    1    1    2    0    0  0.95809325605E+02 -0.26748695718E+02  0.49042547493E+02  0.20398414414E+03  0.17120000000E+03 0.  0.
        998    1    1    2    0    0 -0.17772190156E+02  0.42590185417E+01  0.12539818644E+04  0.12541548972E+04  0.10000000000E+02 0. -1.
</event>
<event>
 5    1  0.9123258E-009  0.3817766E+03  0.7957747E-01  0.3443459E+00
         13   -1    0    0    0    0  0.00000000000E+00  0.00000000000E+00  0.14999999963E+04  0.15000000000E+04  0.10566000000E+00 0.  1.
        994   -1    0    0    0    0 -0.00000000000E+00 -0.00000000000E+00  0.11368683772E-12  0.17120000000E+03  0.17120000000E+03 0.  0.
         13    1    1    2    0    0 -0.60358911930E+01 -0.16761389240E+02  0.48785882769E+02  0.51936977900E+02  0.10566000000E+00 0.  1.
        994    1    1    2    0    0 -0.88729765963E+01  0.10781470384E+02  0.38872310738E+01  0.17181245701E+03  0.17120000000E+03 0.  0.
        998    1    1    2    0    0  0.14908867789E+02  0.59799188557E+01  0.14473268824E+04  0.14474505651E+04  0.10000000000E+02 0.  1.
</event>
<event>
 5    1  0.9123258E-009  0.3803070E+03  0.7957747E-01  0.3449823E+00
         13   -1    0    0    0    0  0.00000000000E+00  0.00000000000E+00  0.14999999963E+04  0.15000000000E+04  0.10566000000E+00 0. -1.
        994   -1    0    0    0    0 -0.00000000000E+00 -0.00000000000E+00  0.11368683772E-12  0.17120000000E+03  0.17120000000E+03 0.  0.
         13    1    1    2    0    0  0.34089690981E+02 -0.15390039419E+01  0.15995792873E+03  0.16355740794E+03  0.10566000000E+00 0. -1.
        994    1    1    2    0    0 -0.52716086567E+01  0.78554374184E+01  0.42771801453E+01  0.17151452424E+03  0.17120000000E+03 0.  0.
        998    1    1    2    0    0 -0.28818082325E+02 -0.63164334765E+01  0.13357648874E+04  0.13361280678E+04  0.10000000000E+02 0. -1.
</event>
<event>
 5    1  0.9123258E-009  0.3725086E+03  0.7957747E-01  0.3484441E+00
         13   -1    0    0    0    0  0.00000000000E+00  0.00000000000E+00  0.14999999963E+04  0.15000000000E+04  0.10566000000E+00 0. -1.
        994   -1    0    0    0    0 -0.00000000000E+00 -0.00000000000E+00  0.11368683772E-12  0.17120000000E+03  0.17120000000E+03 0.  0.
         13    1    1    2    0    0  0.51154723735E+02  0.86185782999E+01  0.17449382880E+03  0.18204173452E+03  0.10566000000E+00 0. -1.
        994    1    1    2    0    0 -0.23474600668E+02  0.98162587902E+01  0.10186252545E+02  0.17337997449E+03  0.17120000000E+03 0.  0.
        998    1    1    2    0    0 -0.27680123067E+02 -0.18434837090E+02  0.13153199149E+04  0.13157782910E+04  0.10000000000E+02 0. -1.
</event>
<event>
 5    1  0.9123258E-009  0.3842960E+03  0.7957747E-01  0.3432663E+00
         13   -1    0    0    0    0  0.00000000000E+00  0.00000000000E+00  0.14999999963E+04  0.15000000000E+04  0.10566000000E+00 0.  1.
        994   -1    0    0    0    0 -0.00000000000E+00 -0.00000000000E+00  0.11368683772E-12  0.17120000000E+03  0.17120000000E+03 0.  0.
         13    1    1    2    0    0  0.46273207192E+01 -0.17626301414E+02  0.87556221967E+02  0.89432666111E+02  0.10566000000E+00 0.  1.
        994    1    1    2    0    0 -0.37254107134E+01  0.39436855276E+01  0.20770752235E+01  0.17129852767E+03  0.17120000000E+03 0.  0.
        998    1    1    2    0    0 -0.90191000573E+00  0.13682615886E+02  0.14103666991E+04  0.14104688062E+04  0.10000000000E+02 0.  1.
</event>
<event>
 5    1  0.9123258E-009  0.3718994E+03  0.7957747E-01  0.3487207E+00
         13   -1    0    0    0    0  0.00000000000E+00  0.00000000000E+00  0.14999999963E+04  0.15000000000E+04  0.10566000000E+00 0. -1.
        994   -1    0    0    0    0 -0.00000000000E+00 -0.00000000000E+00  0.11368683772E-12  0.17120000000E+03  0.17120000000E+03 0.  0.
         13    1    1    2    0    0 -0.10615969088E+02 -0.18956068600E+02  0.24562659318E+02  0.32792784775E+02  0.10566000000E+00 0. -1.
        994    1    1    2    0    0  0.32244447601E+01  0.24398559360E+02  0.10363081777E+02  0.17327007880E+03  0.17120000000E+03 0.  0.
        998    1    1    2    0    0  0.73915243280E+01 -0.54424907597E+01  0.14650742552E+04  0.14651371364E+04  0.10000000000E+02 0. -1.
</event>
<event>
 5    1  0.9123258E-009  0.3755661E+03  0.7957747E-01  0.3470695E+00
         13   -1    0    0    0    0  0.00000000000E+00  0.00000000000E+00  0.14999999963E+04  0.15000000000E+04  0.10566000000E+00 0. -1.
        994   -1    0    0    0    0 -0.00000000000E+00 -0.00000000000E+00  0.11368683772E-12  0.17120000000E+03  0.17120000000E+03 0.  0.
         13    1    1    2    0    0  0.78144586612E+02 -0.41561458953E+02  0.46543554905E+03  0.47377652197E+03  0.10566000000E+00 0. -1.
        994    1    1    2    0    0 -0.72818105120E+02  0.30472614174E+02  0.27830880594E+02  0.19056509272E+03  0.17120000000E+03 0.  0.
        998    1    1    2    0    0 -0.53264814922E+01  0.11088844779E+02  0.10067335666E+04  0.10068583853E+04  0.10000000000E+02 0. -1.
</event>
<event>
 5    1  0.9123258E-009  0.3795583E+03  0.7957747E-01  0.3453084E+00
         13   -1    0    0    0    0  0.00000000000E+00  0.00000000000E+00  0.14999999963E+04  0.15000000000E+04  0.10566000000E+00 0. -1.
        994   -1    0    0    0    0 -0.00000000000E+00 -0.00000000000E+00  0.11368683772E-12  0.17120000000E+03  0.17120000000E+03 0.  0.
         13    1    1    2    0    0 -0.18345311684E+02  0.18969403445E+01  0.38045870452E+02  0.42280589706E+02  0.10566000000E+00 0. -1.
        994    1    1    2    0    0  0.68733176952E+01  0.12786016080E+01  0.45199256011E+01  0.17140229592E+03  0.17120000000E+03 0.  0.
        998    1    1    2    0    0  0.11471993989E+02 -0.31755419525E+01  0.14574342002E+04  0.14575171144E+04  0.10000000000E+02 0. -1.
</event>
<event>
 5    1  0.9123258E-009  0.3900202E+03  0.7957747E-01  0.3408656E+00
         13   -1    0    0    0    0  0.00000000000E+00  0.00000000000E+00  0.14999999963E+04  0.15000000000E+04  0.10566000000E+00 0.  1.
        994   -1    0    0    0    0 -0.00000000000E+00 -0.00000000000E+00  0.11368683772E-12  0.17120000000E+03  0.17120000000E+03 0.  0.
         13    1    1    2    0    0 -0.38812610338E+02  0.10546773536E+03  0.25651115924E+03  0.28004972399E+03  0.10566000000E+00 0.  1.
        994    1    1    2    0    0  0.26941248700E+02 -0.86623123982E+02  0.53621625445E+02  0.20103262224E+03  0.17120000000E+03 0.  0.
        998    1    1    2    0    0  0.11871361638E+02 -0.18844611381E+02  0.11898672116E+04  0.11901176538E+04  0.10000000000E+02 0.  1.
</event>
<event>
 5    1  0.9123258E-009  0.4116724E+03  0.7957747E-01  0.3323872E+00
         13   -1    0    0    0    0  0.00000000000E+00  0.00000000000E+00  0.14999999963E+04  0.15000000000E+04  0.10566000000E+00 0.  1.
        994   -1    0    0    0    0 -0.00000000000E+00 -0.00000000000E+00  0.11368683772E-12  0.17120000000E+03  0.17120000000E+03 0.  0.
         13    1    1    2    0    0 -0.95007676465E+02  0.54687116323E+02  0.15545852199E+03  0.19022224502E+03  0.10566000000E+00 0.  1.
        994    1    1    2    0    0  0.10007833029E+03 -0.49037992469E+01  0.77592937206E+02  0.21300193273E+03  0.17120000000E+03 0.  0.
        998    1    1    2    0    0 -0.50706538263E+01 -0.49783317076E+02  0.12669485371E+04  0.12679758222E+04  0.10000000000E+02 0.  1.
</event>
<event>
 5    1  0.9123258E-009  0.3831471E+03  0.7957747E-01  0.3437569E+00
         13   -1    0    0    0    0  0.00000000000E+00  0.00000000000E+00  0.14999999963E+04  0.15000000000E+04  0.10566000000E+00 0.  1.
        994   -1    0    0    0    0 -0.00000000000E+00 -0.00000000000E+00  0.11368683772E-12  0.17120000000E+03  0.17120000000E+03 0.  0.
         13    1    1    2    0    0 -0.15326496924E+02 -0.32457345940E+01  0.48462953368E+02  0.50932360187E+02  0.10566000000E+00 0.  1.
        994    1    1    2    0    0  0.44056389995E+01  0.37411427697E+01  0.26633935897E+01  0.17131824033E+03  0.17120000000E+03 0.  0.
        998    1    1    2    0    0  0.10920857925E+02 -0.49540817567E+00  0.14488736493E+04  0.14489493995E+04  0.10000000000E+02 0.  1.
</event>
<event>
 5    1  0.9123258E-009  0.3759242E+03  0.7957747E-01  0.3469100E+00
         13   -1    0    0    0    0  0.00000000000E+00  0.00000000000E+00  0.14999999963E+04  0.15000000000E+04  0.10566000000E+00 0.  1.
        994   -1    0    0    0    0 -0.00000000000E+00 -0.00000000000E+00  0.11368683772E-12  0.17120000000E+03  0.17120000000E+03 0.  0.
         13    1    1    2    0    0 -0.18817438506E+02  0.55898973963E+02  0.31551183866E+03  0.32097744903E+03  0.10566000000E+00 0.  1.
        994    1    1    2    0    0 -0.27181700354E+00 -0.19518492242E+02  0.74971973608E+01  0.17247229746E+03  0.17120000000E+03 0.  0.
        998    1    1    2    0    0  0.19089255510E+02 -0.36380481721E+02  0.11769909603E+04  0.11777502535E+04  0.10000000000E+02 0.  1.
</event>
<event>
 5    1  0.9123258E-009  0.3799425E+03  0.7957747E-01  0.3451409E+00
         13   -1    0    0    0    0  0.00000000000E+00  0.00000000000E+00  0.14999999963E+04  0.15000000000E+04  0.10566000000E+00 0. -1.
        994   -1    0    0    0    0 -0.00000000000E+00 -0.00000000000E+00  0.11368683772E-12  0.17120000000E+03  0.17120000000E+03 0.  0.
         13    1    1    2    0    0  0.26414036432E+02 -0.67971938630E+01  0.82828870875E+02  0.87203991764E+02  0.10566000000E+00 0. -1.
        994    1    1    2    0    0 -0.29174856967E+02  0.54627575328E+01  0.71134658622E+01  0.17389955548E+03  0.17120000000E+03 0.  0.
        998    1    1    2    0    0  0.27608205354E+01  0.13344363302E+01  0.14100576595E+04  0.14100964528E+04  0.10000000000E+02 0. -1.
</event>
<event>
 5    1  0.9123258E-009  0.3856460E+03  0.7957747E-01  0.3426937E+00
         13   -1    0    0    0    0  0.00000000000E+00  0.00000000000E+00  0.14999999963E+04  0.15000000000E+04  0.10566000000E+00 0.  1.
        994   -1    0    0    0    0 -0.00000000000E+00 -0.00000000000E+00  0.11368683772E-12  0.17120000000E+03  0.17120000000E+03 0.  0.
         13    1    1    2    0    0 -0.61649402207E+01 -0.97132108055E+01  0.51246753578E+02  0.52522317813E+02  0.10566000000E+00 0.  1.
        994    1    1    2    0    0  0.65607687875E+01  0.35277011746E+01  0.14918544382E+01  0.17136847432E+03  0.17120000000E+03 0.  0.
        998    1    1    2    0    0 -0.39582856681E+00  0.61855096309E+01  0.14472613883E+04  0.14473092079E+04  0.10000000000E+02 0.  1.
</event>
<event>
 5    1  0.9123258E-009  0.3827718E+03  0.7957747E-01  0.3439178E+00
         13   -1    0    0    0    0  0.00000000000E+00  0.00000000000E+00  0.14999999963E+04  0.15000000000E+04  0.10566000000E+00 0.  1.
        994   -1    0    0    0    0 -0.00000000000E+00 -0.00000000000E+00  0.11368683772E-12  0.17120000000E+03  0.17120000000E+03 0.  0.
         13    1    1    2    0    0 -0.96327675706E+01 -0.13019141935E+02  0.46000899853E+02  0.48768660214E+02  0.10566000000E+00 0.  1.
        994    1    1    2    0    0  0.53459675847E+01  0.15598028388E+02  0.36416089036E+01  0.17203075067E+03  0.17120000000E+03 0.  0.
        998    1    1    2    0    0  0.42867999859E+01 -0.25788864525E+01  0.14503574875E+04  0.14504005891E+04  0.10000000000E+02 0.  1.
</event>
<event>
 5    1  0.9123258E-009  0.3836584E+03  0.7957747E-01  0.3435382E+00
         13   -1    0    0    0    0  0.00000000000E+00  0.00000000000E+00  0.14999999963E+04  0.15000000000E+04  0.10566000000E+00 0. -1.
        994   -1    0    0    0    0 -0.00000000000E+00 -0.00000000000E+00  0.11368683772E-12  0.17120000000E+03  0.17120000000E+03 0.  0.
         13    1    1    2    0    0  0.45249269009E+00 -0.25188712448E+02  0.15048515893E+03  0.15257938985E+03  0.10566000000E+00 0. -1.
        994    1    1    2    0    0  0.76468264325E+01  0.48075363649E+01  0.25672122405E+01  0.17145733271E+03  0.17120000000E+03 0.  0.
        998    1    1    2    0    0 -0.80993191225E+01  0.20381176083E+02  0.13469476251E+04  0.13471632774E+04  0.10000000000E+02 0. -1.
</event>
<event>
 5    1  0.9123258E-009  0.3774694E+03  0.7957747E-01  0.3462252E+00
         13   -1    0    0    0    0  0.00000000000E+00  0.00000000000E+00  0.14999999963E+04  0.15000000000E+04  0.10566000000E+00 0. -1.
        994   -1    0    0    0    0 -0.00000000000E+00 -0.00000000000E+00  0.11368683772E-12  0.17120000000E+03  0.17120000000E+03 0.  0.
         13    1    1    2    0    0 -0.70904339936E+01  0.25866122557E+02  0.57323147361E+02  0.63287320513E+02  0.10566000000E+00 0. -1.
        994    1    1    2    0    0  0.24815966341E+02 -0.44418844889E+02  0.14193677349E+02  0.17916407688E+03  0.17120000000E+03 0.  0.
        998    1    1    2    0    0 -0.17725532347E+02  0.18552722331E+02  0.14284831716E+04  0.14287486026E+04  0.10000000000E+02 0. -1.
</event>
<event>
 5    1  0.9123258E-009  0.3834847E+03  0.7957747E-01  0.3436124E+00
         13   -1    0    0    0    0  0.00000000000E+00  0.00000000000E+00  0.14999999963E+04  0.15000000000E+04  0.10566000000E+00 0. -1.
        994   -1    0    0    0    0 -0.00000000000E+00 -0.00000000000E+00  0.11368683772E-12  0.17120000000E+03  0.17120000000E+03 0.  0.
         13    1    1    2    0    0  0.70871931088E+01  0.16545233496E+02  0.65615136303E+02  0.68039182341E+02  0.10566000000E+00 0. -1.
        994    1    1    2    0    0 -0.20461837077E+01 -0.17077374124E+02  0.33626159289E+01  0.17209465640E+03  0.17120000000E+03 0.  0.
        998    1    1    2    0    0 -0.50410094012E+01  0.53214062776E+00  0.14310222440E+04  0.14310661613E+04  0.10000000000E+02 0. -1.
</event>
<event>
 5    1  0.9123258E-009  0.3842144E+03  0.7957747E-01  0.3433011E+00
         13   -1    0    0    0    0  0.00000000000E+00  0.00000000000E+00  0.14999999963E+04  0.15000000000E+04  0.10566000000E+00 0.  1.
        994   -1    0    0    0    0 -0.00000000000E+00 -0.00000000000E+00  0.11368683772E-12  0.17120000000E+03  0.17120000000E+03 0.  0.
         13    1    1    2    0    0  0.51130010084E+01  0.15567850204E+02  0.62329996604E+02  0.64447966454E+02  0.10566000000E+00 0.  1.
        994    1    1    2    0    0 -0.20583185979E+01 -0.21679842747E+02  0.35858829246E+01  0.17261677443E+03  0.17120000000E+03 0.  0.
        998    1    1    2    0    0 -0.30546824106E+01  0.61119925425E+01  0.14340841167E+04  0.14341352591E+04  0.10000000000E+02 0.  1.
</event>
<event>
 5    1  0.9123258E-009  0.3808293E+03  0.7957747E-01  0.3447555E+00
         13   -1    0    0    0    0  0.00000000000E+00  0.00000000000E+00  0.14999999963E+04  0.15000000000E+04  0.10566000000E+00 0. -1.
        994   -1    0    0    0    0 -0.00000000000E+00 -0.00000000000E+00  0.11368683772E-12  0.17120000000E+03  0.17120000000E+03 0.  0.
         13    1    1    2    0    0 -0.24008337418E+02  0.19525901214E+02  0.11522482119E+03  0.11930813747E+03  0.10566000000E+00 0. -1.
        994    1    1    2    0    0  0.38149513304E+02 -0.11272302241E+02  0.90086939444E+01  0.17599160983E+03  0.17120000000E+03 0.  0.
        998    1    1    2    0    0 -0.14141175886E+02 -0.82535989726E+01  0.13757664811E+04  0.13759002527E+04  0.10000000000E+02 0. -1.
</event>
<event>
 5    1  0.9123258E-009  0.3759520E+03  0.7957747E-01  0.3468976E+00
         13   -1    0    0    0    0  0.00000000000E+00  0.00000000000E+00  0.14999999963E+04  0.15000000000E+04  0.10566000000E+00 0. -1.
        994   -1    0    0    0    0 -0.00000000000E+00 -0.00000000000E+00  0.11368683772E-12  0.17120000000E+03  0.17120000000E+03 0.  0.
         13    1    1    2    0    0  0.51432334362E+02  0.14066200254E+02  0.19789432359E+03  0.20495198823E+03  0.10566000000E+00 0. -1.
        994    1    1    2    0    0 -0.52437402389E+02 -0.12886708830E+02  0.16134882030E+02  0.18023740692E+03  0.17120000000E+03 0.  0.
        998    1    1    2    0    0  0.10050680269E+01 -0.11794914241E+01  0.12859707907E+04  0.12860106049E+04  0.10000000000E+02 0. -1.
</event>
<event>
 5    1  0.9123258E-009  0.3744116E+03  0.7957747E-01  0.3475859E+00
         13   -1    0    0    0    0  0.00000000000E+00  0.00000000000E+00  0.14999999963E+04  0.15000000000E+04  0.10566000000E+00 0.  1.
        994   -1    0    0    0    0 -0.00000000000E+00 -0.00000000000E+00  0.11368683772E-12  0.17120000000E+03  0.17120000000E+03 0.  0.
         13    1    1    2    0    0 -0.21612213506E+02  0.27093780397E+02  0.39722566694E+02  0.52716735271E+02  0.10566000000E+00 0.  1.
        994    1    1    2    0    0  0.58606868518E+02  0.14738783899E+02  0.26374637360E+02  0.18345860101E+03  0.17120000000E+03 0.  0.
        998    1    1    2    0    0 -0.36994655011E+02 -0.41832564295E+02  0.14339027922E+04  0.14350246637E+04  0.10000000000E+02 0.  1.
</event>
<event>
 5    1  0.1641212E-008  0.3858717E+03  0.7957747E-01  0.3425984E+00
         13   -1    0    0    0    0  0.00000000000E+00  0.00000000000E+00  0.14999999963E+04  0.15000000000E+04  0.10566000000E+00 0.  1.
        994   -1    0    0    0    0 -0.00000000000E+00 -0.00000000000E+00  0.11368683772E-12  0.17120000000E+03  0.17120000000E+03 0.  0.
         13    1    1    2    0    0  0.96596123093E+01  0.77278038493E+01  0.53838624703E+02  0.55241612361E+02  0.10566000000E+00 0.  1.
        994    1    1    2    0    0 -0.32882854634E+02 -0.16855080080E+02  0.56884169850E+01  0.17523462541E+03  0.17120000000E+03 0.  0.
        998    1    1    2    0    0  0.23223242325E+02  0.91272762311E+01  0.14404729546E+04  0.14407237622E+04  0.10000000000E+02 0.  1.
</event>
<event>
 5    1  0.9123258E-009  0.3834129E+03  0.7957747E-01  0.3436431E+00
         13   -1    0    0    0    0  0.00000000000E+00  0.00000000000E+00  0.14999999963E+04  0.15000000000E+04  0.10566000000E+00 0.  1.
        994   -1    0    0    0    0 -0.00000000000E+00 -0.00000000000E+00  0.11368683772E-12  0.17120000000E+03  0.17120000000E+03 0.  0.
         13    1    1    2    0    0  0.16721954221E+02  0.13496280558E+02  0.97289804500E+02  0.99634785922E+02  0.10566000000E+00 0.  1.
        994    1    1    2    0    0 -0.68845535627E+01 -0.64271515768E+01  0.27134423323E+01  0.17148034326E+03  0.17120000000E+03 0.  0.
        998    1    1    2    0    0 -0.98374006586E+01 -0.70691289816E+01  0.13999967494E+04  0.14000848708E+04  0.10000000000E+02 0.  1.
</event>
<event>
 5    1  0.9123258E-009  0.3858459E+03  0.7957747E-01  0.3426093E+00
         13   -1    0    0    0    0  0.00000000000E+00  0.00000000000E+00  0.14999999963E+04  0.15000000000E+04  0.10566000000E+00 0. -1.
        994   -1    0    0    0    0 -0.00000000000E+00 -0.00000000000E+00  0.11368683772E-12  0.17120000000E+03  0.17120000000E+03 0.  0.
         13    1    1    2    0    0  0.11799471327E+02  0.57461690455E+01  0.63779847453E+02  0.65116250564E+02  0.10566000000E+00 0. -1.
        994    1    1    2    0    0 -0.25239858676E+02 -0.63690733552E+01  0.34362679843E+01  0.17320179993E+03  0.17120000000E+03 0.  0.
        998    1    1    2    0    0  0.13440387349E+02  0.62290430977E+00  0.14327838808E+04  0.14328819495E+04  0.10000000000E+02 0. -1.
</event>
<event>
 5    1  0.9123258E-009  0.3746899E+03  0.7957747E-01  0.3474611E+00
         13   -1    0    0    0    0  0.00000000000E+00  0.00000000000E+00  0.14999999963E+04  0.15000000000E+04  0.10566000000E+00 0.  1.
        994   -1    0    0    0    0 -0.00000000000E+00 -0.00000000000E+00  0.11368683772E-12  0.17120000000E+03  0.17120000000E+03 0.  0.
         13    1    1    2    0    0 -0.29220778673E+02 -0.51948906089E+02  0.22656294523E+03  0.23427189773E+03  0.10566000000E+00 0.  1.
        994    1    1    2    0    0  0.20993002408E+02  0.51187272639E+02  0.17325649753E+02  0.18074971969E+03  0.17120000000E+03 0.  0.
        998    1    1    2    0    0  0.82277762648E+01  0.76163344982E+00  0.12561114013E+04  0.12561783826E+04  0.10000000000E+02 0.  1.
</event>
<event>
 5    1  0.9123258E-009  0.3841464E+03  0.7957747E-01  0.3433300E+00
         13   -1    0    0    0    0  0.00000000000E+00  0.00000000000E+00  0.14999999963E+04  0.15000000000E+04  0.10566000000E+00 0.  1.
        994   -1    0    0    0    0 -0.00000000000E+00 -0.00000000000E+00  0.11368683772E-12  0.17120000000E+03  0.17120000000E+03 0.  0.
         13    1    1    2    0    0  0.10828578431E+02  0.10315495706E+02  0.58172804415E+02  0.60064581078E+02  0.10566000000E+00 0.  1.
        994    1    1    2    0    0 -0.10339996335E+01  0.63346545589E+01  0.21903749102E+01  0.17133427779E+03  0.17120000000E+03 0.  0.
        998    1    1    2    0    0 -0.97945787977E+01 -0.16650150265E+02  0.14396368170E+04  0.14398011411E+04  0.10000000000E+02 0.  1.
</event>
<event>
 5    1  0.9123258E-009  0.3758414E+03  0.7957747E-01  0.3469468E+00
         13   -1    0    0    0    0  0.00000000000E+00  0.00000000000E+00  0.14999999963E+04  0.15000000000E+04  0.10566000000E+00 0.  1.
        994   -1    0    0    0    0 -0.00000000000E+00 -0.00000000000E+00  0.11368683772E-12  0.17120000000E+03  0.17120000000E+03 0.  0.
         13    1    1    2    0    0  0.17419937584E+02 -0.57872032934E+02  0.31868778766E+03  0.32436791394E+03  0.10566000000E+00 0.  1.
        994    1    1    2    0    0 -0.30794652973E+02  0.15890978282E+02  0.10328410728E+02  0.17497699823E+03  0.17120000000E+03 0.  0.
        998    1    1    2    0    0  0.13374715389E+02  0.41981054652E+02  0.11709837979E+04  0.11718550878E+04  0.10000000000E+02 0.  1.
</event>
<event>
 5    1  0.9123258E-009  0.3787016E+03  0.7957747E-01  0.3456831E+00
         13   -1    0    0    0    0  0.00000000000E+00  0.00000000000E+00  0.14999999963E+04  0.15000000000E+04  0.10566000000E+00 0. -1.
        994   -1    0    0    0    0 -0.00000000000E+00 -0.00000000000E+00  0.11368683772E-12  0.17120000000E+03  0.17120000000E+03 0.  0.
         13    1    1    2    0    0  0.19860019497E+02 -0.68607779458E+02  0.36096780233E+03  0.36796632082E+03  0.10566000000E+00 0. -1.
        994    1    1    2    0    0 -0.33496852131E+02  0.76412858472E+02  0.28527297767E+02  0.19257261166E+03  0.17120000000E+03 0.  0.
        998    1    1    2    0    0  0.13636832633E+02 -0.78050790140E+01  0.11105048962E+04  0.11106610675E+04  0.10000000000E+02 0. -1.
</event>
<event>
 5    1  0.9123258E-009  0.3833102E+03  0.7957747E-01  0.3436870E+00
         13   -1    0    0    0    0  0.00000000000E+00  0.00000000000E+00  0.14999999963E+04  0.15000000000E+04  0.10566000000E+00 0. -1.
        994   -1    0    0    0    0 -0.00000000000E+00 -0.00000000000E+00  0.11368683772E-12  0.17120000000E+03  0.17120000000E+03 0.  0.
         13    1    1    2    0    0 -0.40172771057E+01 -0.17546541781E+02  0.70565329036E+02  0.72825108786E+02  0.10566000000E+00 0. -1.
        994    1    1    2    0    0  0.24737170093E+01 -0.42210943169E+01  0.25505600490E+01  0.17128888542E+03  0.17120000000E+03 0.  0.
        998    1    1    2    0    0  0.15435600964E+01  0.21767636098E+02  0.14268841072E+04  0.14270860058E+04  0.10000000000E+02 0. -1.
</event>
<event>
 5    1  0.9123258E-009  0.3943185E+03  0.7957747E-01  0.3391088E+00
         13   -1    0    0    0    0  0.00000000000E+00  0.00000000000E+00  0.14999999963E+04  0.15000000000E+04  0.10566000000E+00 0. -1.
        994   -1    0    0    0    0 -0.00000000000E+00 -0.00000000000E+00  0.11368683772E-12  0.17120000000E+03  0.17120000000E+03 0.  0.
         13    1    1    2    0    0  0.42824713298E+02 -0.25783764087E+02  0.41168811593E+02  0.64758325886E+02  0.10566000000E+00 0. -1.
        994    1    1    2    0    0 -0.46960745528E+02  0.16002878429E+02  0.33903704603E+02  0.18143953517E+03  0.17120000000E+03 0.  0.
        998    1    1    2    0    0  0.41360322302E+01  0.97808856580E+01  0.14249274801E+04  0.14250021389E+04  0.10000000000E+02 0. -1.
</event>
<event>
 5    1  0.9123258E-009  0.3772917E+03  0.7957747E-01  0.3463036E+00
         13   -1    0    0    0    0  0.00000000000E+00  0.00000000000E+00  0.14999999963E+04  0.15000000000E+04  0.10566000000E+00 0. -1.
        994   -1    0    0    0    0 -0.00000000000E+00 -0.00000000000E+00  0.11368683772E-12  0.17120000000E+03  0.17120000000E+03 0.  0.
         13    1    1    2    0    0 -0.58627919759E+02  0.37804218483E+01  0.10382604551E+03  0.11929536225E+03  0.10566000000E+00 0. -1.
        994    1    1    2    0    0  0.58257477880E+02 -0.16577991901E+02  0.28130665081E+02  0.18376489834E+03  0.17120000000E+03 0.  0.
        998    1    1    2    0    0  0.37044187960E+00  0.12797570053E+02  0.13680432857E+04  0.13681397394E+04  0.10000000000E+02 0. -1.
</event>
<event>
 5    1  0.9123258E-009  0.3761366E+03  0.7957747E-01  0.3468155E+00
         13   -1    0    0    0    0  0.00000000000E+00  0.00000000000E+00  0.14999999963E+04  0.15000000000E+04  0.10566000000E+00 0. -1.
        994   -1    0    0    0    0 -0.00000000000E+00 -0.00000000000E+00  0.11368683772E-12  0.17120000000E+03  0.17120000000E+03 0.  0.
         13    1    1    2    0    0  0.33090531171E+01  0.15304808975E+02  0.17554217741E+02  0.23523365721E+02  0.10566000000E+00 0. -1.
        994    1    1    2    0    0  0.57094486103E-01 -0.94259738100E+01  0.63971629733E+01  0.17157859988E+03  0.17120000000E+03 0.  0.
        998    1    1    2    0    0 -0.33661476032E+01 -0.58788351654E+01  0.14760486156E+04  0.14760980344E+04  0.10000000000E+02 0. -1.
</event>
<event>
 5    1  0.9123258E-009  0.3117489E+03  0.7957747E-01  0.3815555E+00
         13   -1    0    0    0    0  0.00000000000E+00  0.00000000000E+00  0.14999999963E+04  0.15000000000E+04  0.10566000000E+00 0.  1.
        994   -1    0    0    0    0 -0.00000000000E+00 -0.00000000000E+00  0.11368683772E-12  0.17120000000E+03  0.17120000000E+03 0.  0.
         13    1    1    2    0    0  0.13958434046E+03  0.18214730638E+03  0.65550452478E+03  0.69451250708E+03  0.10566000000E+00 0.  1.
        994    1    1    2    0    0 -0.12907602375E+03 -0.17003574020E+03  0.21789089312E+03  0.34979801909E+03  0.17120000000E+03 0.  0.
        998    1    1    2    0    0 -0.10508316709E+02 -0.12111566176E+02  0.62660457838E+03  0.62688947383E+03  0.10000000000E+02 0.  1.
</event>
<event>
 5    1  0.9123258E-009  0.3894046E+03  0.7957747E-01  0.3411204E+00
         13   -1    0    0    0    0  0.00000000000E+00  0.00000000000E+00  0.14999999963E+04  0.15000000000E+04  0.10566000000E+00 0. -1.
        994   -1    0    0    0    0 -0.00000000000E+00 -0.00000000000E+00  0.11368683772E-12  0.17120000000E+03  0.17120000000E+03 0.  0.
         13    1    1    2    0    0 -0.10274979362E+03 -0.53966733607E+02  0.28955814848E+03  0.31195169648E+03  0.10566000000E+00 0. -1.
        994    1    1    2    0    0  0.95962114732E+02 -0.32158992149E+01  0.57095634662E+02  0.20442216360E+03  0.17120000000E+03 0.  0.
        998    1    1    2    0    0  0.67876788903E+01  0.57182632822E+02  0.11533462131E+04  0.11548261399E+04  0.10000000000E+02 0. -1.
</event>
<event>
 5    1  0.9123258E-009  0.3842001E+03  0.7957747E-01  0.3433072E+00
         13   -1    0    0    0    0  0.00000000000E+00  0.00000000000E+00  0.14999999963E+04  0.15000000000E+04  0.10566000000E+00 0.  1.
        994   -1    0    0    0    0 -0.00000000000E+00 -0.00000000000E+00  0.11368683772E-12  0.17120000000E+03  0.17120000000E+03 0.  0.
         13    1    1    2    0    0 -0.14913360754E+02  0.15454871002E+02  0.11835582978E+03  0.12028871507E+03  0.10566000000E+00 0.  1.
        994    1    1    2    0    0  0.12935075164E+02  0.13489920898E+01  0.25856575700E+01  0.17171272980E+03  0.17120000000E+03 0.  0.
        998    1    1    2    0    0  0.19782855899E+01 -0.16803863092E+02  0.13790585089E+04  0.13791985551E+04  0.10000000000E+02 0.  1.
</event>
<event>
 5    1  0.9123258E-009  0.3016407E+03  0.7957747E-01  0.3884375E+00
         13   -1    0    0    0    0  0.00000000000E+00  0.00000000000E+00  0.14999999963E+04  0.15000000000E+04  0.10566000000E+00 0. -1.
        994   -1    0    0    0    0 -0.00000000000E+00 -0.00000000000E+00  0.11368683772E-12  0.17120000000E+03  0.17120000000E+03 0.  0.
         13    1    1    2    0    0  0.16099328508E+02  0.14153501467E+03  0.81160944550E+03  0.82401532264E+03  0.10566000000E+00 0. -1.
        994    1    1    2    0    0 -0.24815852515E+02 -0.62952636564E+02  0.33068154596E+02  0.18703423172E+03  0.17120000000E+03 0.  0.
        998    1    1    2    0    0  0.87165240071E+01 -0.78582378110E+02  0.65532239619E+03  0.66015044564E+03  0.10000000000E+02 0. -1.
</event>
<event>
 5    1  0.9123258E-009  0.3765685E+03  0.7957747E-01  0.3466237E+00
         13   -1    0    0    0    0  0.00000000000E+00  0.00000000000E+00  0.14999999963E+04  0.15000000000E+04  0.10566000000E+00 0.  1.
        994   -1    0    0    0    0 -0.00000000000E+00 -0.00000000000E+00  0.11368683772E-12  0.17120000000E+03  0.17120000000E+03 0.  0.
         13    1    1    2    0    0 -0.22522406594E+02 -0.24365350523E+01  0.45141091525E+02  0.50506680844E+02  0.10566000000E+00 0.  1.
        994    1    1    2    0    0 -0.17146222989E+02  0.40501703368E+02  0.12444318539E+02  0.17719673248E+03  0.17120000000E+03 0.  0.
        998    1    1    2    0    0  0.39668629583E+02 -0.38065168315E+02  0.14424145862E+04  0.14434965867E+04  0.10000000000E+02 0.  1.
</event>
<event>
 5    1  0.9123258E-009  0.3824958E+03  0.7957747E-01  0.3440363E+00
         13   -1    0    0    0    0  0.00000000000E+00  0.00000000000E+00  0.14999999963E+04  0.15000000000E+04  0.10566000000E+00 0. -1.
        994   -1    0    0    0    0 -0.00000000000E+00 -0.00000000000E+00  0.11368683772E-12  0.17120000000E+03  0.17120000000E+03 0.  0.
         13    1    1    2    0    0 -0.98974860149E+01  0.11926184489E+02  0.39655561821E+02  0.42576623319E+02  0.10566000000E+00 0. -1.
        994    1    1    2    0    0  0.12285707802E+02 -0.12338031256E+02  0.38843739562E+01  0.17212697056E+03  0.17120000000E+03 0.  0.
        998    1    1    2    0    0 -0.23882217872E+01  0.41184676691E+00  0.14564600605E+04  0.14564964061E+04  0.10000000000E+02 0. -1.
</event>
<event>
 5    1  0.9123258E-009  0.3838773E+03  0.7957747E-01  0.3434448E+00
         13   -1    0    0    0    0  0.00000000000E+00  0.00000000000E+00  0.14999999963E+04  0.15000000000E+04  0.10566000000E+00 0.  1.
        994   -1    0    0    0    0 -0.00000000000E+00 -0.00000000000E+00  0.11368683772E-12  0.17120000000E+03  0.17120000000E+03 0.  0.
         13    1    1    2    0    0 -0.77571319001E+01  0.14602667492E+02  0.71462932382E+02  0.73351024955E+02  0.10566000000E+00 0.  1.
        994    1    1    2    0    0 -0.57274698723E+01  0.11933893662E+02  0.27671108649E+01  0.17173327759E+03  0.17120000000E+03 0.  0.
        998    1    1    2    0    0  0.13484601772E+02 -0.26536561154E+02  0.14257699530E+04  0.14261156975E+04  0.10000000000E+02 0.  1.
</event>
<event>
 5    1  0.1560497E-008  0.3862794E+03  0.7957747E-01  0.3424264E+00
         13   -1    0    0    0    0  0.00000000000E+00  0.00000000000E+00  0.14999999963E+04  0.15000000000E+04  0.10566000000E+00 0. -1.
        994   -1    0    0    0    0 -0.00000000000E+00 -0.00000000000E+00  0.11368683772E-12  0.17120000000E+03  0.17120000000E+03 0.  0.
         13    1    1    2    0    0  0.90417704411E+01 -0.49059553881E+01  0.54284627151E+02  0.55250827323E+02  0.10566000000E+00 0. -1.
        994    1    1    2    0    0 -0.63229127124E+01  0.14559863916E+01  0.11341490782E+01  0.17132666289E+03  0.17120000000E+03 0.  0.
        998    1    1    2    0    0 -0.27188577287E+01  0.34499689965E+01  0.14445812200E+04  0.14446225098E+04  0.10000000000E+02 0. -1.
</event>
<event>
 5    1  0.9123258E-009  0.3773105E+03  0.7957747E-01  0.3462953E+00
         13   -1    0    0    0    0  0.00000000000E+00  0.00000000000E+00  0.14999999963E+04  0.15000000000E+04  0.10566000000E+00 0. -1.
        994   -1    0    0    0    0 -0.00000000000E+00 -0.00000000000E+00  0.11368683772E-12  0.17120000000E+03  0.17120000000E+03 0.  0.
         13    1    1    2    0    0 -0.23285336202E+02  0.53984385030E+01  0.44355161642E+02  0.50385926097E+02  0.10566000000E+00 0. -1.
        994    1    1    2    0    0  0.40270612373E+02 -0.53090983166E+02  0.20623559179E+02  0.18486521011E+03  0.17120000000E+03 0.  0.
        998    1    1    2    0    0 -0.16985276170E+02  0.47692544663E+02  0.14350212755E+04  0.14359488638E+04  0.10000000000E+02 0. -1.
</event>
<event>
 5    1  0.9123258E-009  0.3684287E+03  0.7957747E-01  0.3503144E+00
         13   -1    0    0    0    0  0.00000000000E+00  0.00000000000E+00  0.14999999963E+04  0.15000000000E+04  0.10566000000E+00 0. -1.
        994   -1    0    0    0    0 -0.00000000000E+00 -0.00000000000E+00  0.11368683772E-12  0.17120000000E+03  0.17120000000E+03 0.  0.
         13    1    1    2    0    0 -0.51767277858E+02 -0.49976445111E+02  0.30740524842E+03  0.31571426012E+03  0.10566000000E+00 0. -1.
        994    1    1    2    0    0  0.14201056793E+02  0.28540130142E+01  0.10840172147E+02  0.17215331753E+03  0.17120000000E+03 0.  0.
        998    1    1    2    0    0  0.37566221065E+02  0.47122432096E+02  0.11817545757E+04  0.11833324224E+04  0.10000000000E+02 0. -1.
</event>
<event>
 5    1  0.9123258E-009  0.3704618E+03  0.7957747E-01  0.3493771E+00
         13   -1    0    0    0    0  0.00000000000E+00  0.00000000000E+00  0.14999999963E+04  0.15000000000E+04  0.10566000000E+00 0. -1.
        994   -1    0    0    0    0 -0.00000000000E+00 -0.00000000000E+00  0.11368683772E-12  0.17120000000E+03  0.17120000000E+03 0.  0.
         13    1    1    2    0    0 -0.12885636779E+01  0.14943768951E+02  0.86583511269E+01  0.17319204228E+02  0.10566000000E+00 0. -1.
        994    1    1    2    0    0  0.44169341707E+01  0.23649856524E+01  0.91145891057E+01  0.17151565001E+03  0.17120000000E+03 0.  0.
        998    1    1    2    0    0 -0.31283704928E+01 -0.17308754604E+02  0.14822270560E+04  0.14823651458E+04  0.10000000000E+02 0. -1.
</event>
<event>
 5    1  0.9123258E-009  0.3829352E+03  0.7957747E-01  0.3438477E+00
         13   -1    0    0    0    0  0.00000000000E+00  0.00000000000E+00  0.14999999963E+04  0.15000000000E+04  0.10566000000E+00 0.  1.
        994   -1    0    0    0    0 -0.00000000000E+00 -0.00000000000E+00  0.11368683772E-12  0.17120000000E+03  0.17120000000E+03 0.  0.
         13    1    1    2    0    0 -0.65285079153E+01  0.10700933876E+02  0.28804743783E+02  0.31414261568E+02  0.10566000000E+00 0.  1.
        994    1    1    2    0    0  0.94001240031E+01 -0.23727137814E+01  0.29700046829E+01  0.17150000883E+03  0.17120000000E+03 0.  0.
        998    1    1    2    0    0 -0.28716160878E+01 -0.83282200946E+01  0.14682252478E+04  0.14682857296E+04  0.10000000000E+02 0.  1.
</event>
<event>
 5    1  0.9123258E-009  0.3826846E+03  0.7957747E-01  0.3439552E+00
         13   -1    0    0    0    0  0.00000000000E+00  0.00000000000E+00  0.14999999963E+04  0.15000000000E+04  0.10566000000E+00 0.  1.
        994   -1    0    0    0    0 -0.00000000000E+00 -0.00000000000E+00  0.11368683772E-12  0.17120000000E+03  0.17120000000E+03 0.  0.
         13    1    1    2    0    0 -0.28153614256E+02  0.22192028290E+00  0.14459057768E+03  0.14730621698E+03  0.10566000000E+00 0.  1.
        994    1    1    2    0    0  0.15066404369E+02 -0.30049470460E+02  0.65372712745E+01  0.17459136041E+03  0.17120000000E+03 0.  0.
        998    1    1    2    0    0  0.13087209887E+02  0.29827550177E+02  0.13488721473E+04  0.13493024226E+04  0.10000000000E+02 0.  1.
</event>
<event>
 5    1  0.9123258E-009  0.2837412E+03  0.7957747E-01  0.4019396E+00
         13   -1    0    0    0    0  0.00000000000E+00  0.00000000000E+00  0.14999999963E+04  0.15000000000E+04  0.10566000000E+00 0.  1.
        994   -1    0    0    0    0 -0.00000000000E+00 -0.00000000000E+00  0.11368683772E-12  0.17120000000E+03  0.17120000000E+03 0.  0.
         13    1    1    2    0    0 -0.17074224829E+03 -0.11503389200E+03  0.49137598825E+03  0.53276269075E+03  0.10566000000E+00 0.  1.
        994    1    1    2    0    0  0.11409928022E+03  0.17163664903E+03  0.22275303498E+03  0.34843383824E+03  0.17120000000E+03 0.  0.
        998    1    1    2    0    0  0.56642968069E+02 -0.56602757027E+02  0.78587097304E+03  0.79000347101E+03  0.10000000000E+02 0.  1.
</event>
<event>
 5    1  0.9123258E-009  0.3850896E+03  0.7957747E-01  0.3429292E+00
         13   -1    0    0    0    0  0.00000000000E+00  0.00000000000E+00  0.14999999963E+04  0.15000000000E+04  0.10566000000E+00 0.  1.
        994   -1    0    0    0    0 -0.00000000000E+00 -0.00000000000E+00  0.11368683772E-12  0.17120000000E+03  0.17120000000E+03 0.  0.
         13    1    1    2    0    0 -0.10324773143E+02  0.12517116399E+01  0.33393325198E+02  0.34975606561E+02  0.10566000000E+00 0.  1.
        994    1    1    2    0    0  0.10617763234E+02 -0.80772473199E+00  0.19585333135E+01  0.17154202158E+03  0.17120000000E+03 0.  0.
        998    1    1    2    0    0 -0.29299009149E+00 -0.44398690790E+00  0.14646481378E+04  0.14646823719E+04  0.10000000000E+02 0.  0.
</event>
<event>
 5    1  0.9123258E-009  0.3577786E+03  0.7957747E-01  0.3554015E+00
         13   -1    0    0    0    0  0.00000000000E+00  0.00000000000E+00  0.14999999963E+04  0.15000000000E+04  0.10566000000E+00 0. -1.
        994   -1    0    0    0    0 -0.00000000000E+00 -0.00000000000E+00  0.11368683772E-12  0.17120000000E+03  0.17120000000E+03 0.  0.
         13    1    1    2    0    0  0.10942196119E+03 -0.30201931829E+03  0.73891600227E+03  0.80572061150E+03  0.10566000000E+00 0. -1.
        994    1    1    2    0    0 -0.61491257262E+02  0.29191943866E+03  0.55112906376E+03  0.64965438374E+03  0.17120000000E+03 0.  0.
        998    1    1    2    0    0 -0.47930703930E+02  0.10099879636E+02  0.20995493024E+03  0.21582500476E+03  0.10000000000E+02 0. -1.
</event>
<event>
 5    1  0.9123258E-009  0.3828618E+03  0.7957747E-01  0.3438791E+00
         13   -1    0    0    0    0  0.00000000000E+00  0.00000000000E+00  0.14999999963E+04  0.15000000000E+04  0.10566000000E+00 0.  1.
        994   -1    0    0    0    0 -0.00000000000E+00 -0.00000000000E+00  0.11368683772E-12  0.17120000000E+03  0.17120000000E+03 0.  0.
         13    1    1    2    0    0  0.26807651588E+02 -0.24842879927E+01  0.14745086301E+03  0.14988859209E+03  0.10566000000E+00 0.  1.
        994    1    1    2    0    0 -0.78330992354E+01 -0.30214324910E+02  0.59284981480E+01  0.17412308854E+03  0.17120000000E+03 0.  0.
        998    1    1    2    0    0 -0.18974552352E+02  0.32698612903E+02  0.13466206351E+04  0.13471883194E+04  0.10000000000E+02 0.  1.
</event>
<event>
 5    1  0.9123258E-009  0.3738720E+03  0.7957747E-01  0.3478283E+00
         13   -1    0    0    0    0  0.00000000000E+00  0.00000000000E+00  0.14999999963E+04  0.15000000000E+04  0.10566000000E+00 0. -1.
        994   -1    0    0    0    0 -0.00000000000E+00 -0.00000000000E+00  0.11368683772E-12  0.17120000000E+03  0.17120000000E+03 0.  0.
         13    1    1    2    0    0  0.10839422708E+03  0.74399104672E+00  0.60876840797E+03  0.61834363237E+03  0.10566000000E+00 0. -1.
        994    1    1    2    0    0 -0.89124918272E+02  0.17439977105E+02  0.35945157931E+02  0.19710123855E+03  0.17120000000E+03 0.  0.
        998    1    1    2    0    0 -0.19269308811E+02 -0.18183968152E+02  0.85528643038E+03  0.85575512908E+03  0.10000000000E+02 0. -1.
</event>
<event>
 5    1  0.9123258E-009  0.3839267E+03  0.7957747E-01  0.3434237E+00
         13   -1    0    0    0    0  0.00000000000E+00  0.00000000000E+00  0.14999999963E+04  0.15000000000E+04  0.10566000000E+00 0.  1.
        994   -1    0    0    0    0 -0.00000000000E+00 -0.00000000000E+00  0.11368683772E-12  0.17120000000E+03  0.17120000000E+03 0.  0.
         13    1    1    2    0    0 -0.73471611508E+01 -0.17285805148E+02  0.90903812724E+02  0.92823995650E+02  0.10566000000E+00 0.  1.
        994    1    1    2    0    0 -0.10180009582E+02 -0.11557755211E+01  0.25104604536E+01  0.17152466535E+03  0.17120000000E+03 0.  0.
        998    1    1    2    0    0  0.17527170733E+02  0.18441580670E+02  0.14065857231E+04  0.14068513390E+04  0.10000000000E+02 0.  1.
</event>
<event>
 5    1  0.9123258E-009  0.3779552E+03  0.7957747E-01  0.3460111E+00
         13   -1    0    0    0    0  0.00000000000E+00  0.00000000000E+00  0.14999999963E+04  0.15000000000E+04  0.10566000000E+00 0.  1.
        994   -1    0    0    0    0 -0.00000000000E+00 -0.00000000000E+00  0.11368683772E-12  0.17120000000E+03  0.17120000000E+03 0.  0.
         13    1    1    2    0    0 -0.12550483880E+02  0.50397319571E+01  0.15393085213E+02  0.20490773051E+02  0.10566000000E+00 0.  1.
        994    1    1    2    0    0  0.10559038858E+02 -0.35152034577E+01  0.55858569976E+01  0.17165224075E+03  0.17120000000E+03 0.  0.
        998    1    1    2    0    0  0.19914450212E+01 -0.15245284995E+01  0.14790210541E+04  0.14790569862E+04  0.10000000000E+02 0.  1.
</event>
<event>
 5    1  0.9123258E-009  0.3861449E+03  0.7957747E-01  0.3424831E+00
         13   -1    0    0    0    0  0.00000000000E+00  0.00000000000E+00  0.14999999963E+04  0.15000000000E+04  0.10566000000E+00 0. -1.
        994   -1    0    0    0    0 -0.00000000000E+00 -0.00000000000E+00  0.11368683772E-12  0.17120000000E+03  0.17120000000E+03 0.  0.
         13    1    1    2    0    0  0.55376334539E+01 -0.88076603911E+01  0.52404436992E+02  0.53427300571E+02  0.10566000000E+00 0. -1.
        994    1    1    2    0    0 -0.57776687632E+00  0.54941404218E+01  0.11627832554E+01  0.17129305724E+03  0.17120000000E+03 0.  0.
        998    1    1    2    0    0 -0.49598665776E+01  0.33135199693E+01  0.14464327760E+04  0.14464796422E+04  0.10000000000E+02 0. -1.
</event>
<event>
 5    1  0.9123258E-009  0.3840790E+03  0.7957747E-01  0.3433588E+00
         13   -1    0    0    0    0  0.00000000000E+00  0.00000000000E+00  0.14999999963E+04  0.15000000000E+04  0.10566000000E+00 0. -1.
        994   -1    0    0    0    0 -0.00000000000E+00 -0.00000000000E+00  0.11368683772E-12  0.17120000000E+03  0.17120000000E+03 0.  0.
         13    1    1    2    0    0  0.20524892144E+01  0.14763908682E+02  0.51887395056E+02  0.53986096740E+02  0.10566000000E+00 0. -1.
        994    1    1    2    0    0 -0.29459642418E+01 -0.12922416774E+02  0.26677413583E+01  0.17173300325E+03  0.17120000000E+03 0.  0.
        998    1    1    2    0    0  0.89347502738E+00 -0.18414919071E+01  0.14454448599E+04  0.14454809000E+04  0.10000000000E+02 0. -1.
</event>
<event>
 5    1  0.9716123E-009  0.3859453E+03  0.7957747E-01  0.3425673E+00
         13   -1    0    0    0    0  0.00000000000E+00  0.00000000000E+00  0.14999999963E+04  0.15000000000E+04  0.10566000000E+00 0.  1.
        994   -1    0    0    0    0 -0.00000000000E+00 -0.00000000000E+00  0.11368683772E-12  0.17120000000E+03  0.17120000000E+03 0.  0.
         13    1    1    2    0    0  0.10279971426E+02  0.38929813163E+01  0.52079733837E+02  0.53227276434E+02  0.10566000000E+00 0.  1.
        994    1    1    2    0    0 -0.91309220691E+01 -0.82670791106E+00  0.14371530824E+01  0.17145134176E+03  0.17120000000E+03 0.  0.
        998    1    1    2    0    0 -0.11490493565E+01 -0.30662734053E+01  0.14464831094E+04  0.14465213818E+04  0.10000000000E+02 0.  0.
</event>
<event>
 5    1  0.9123258E-009  0.3745809E+03  0.7957747E-01  0.3475099E+00
         13   -1    0    0    0    0  0.00000000000E+00  0.00000000000E+00  0.14999999963E+04  0.15000000000E+04  0.10566000000E+00 0. -1.
        994   -1    0    0    0    0 -0.00000000000E+00 -0.00000000000E+00  0.11368683772E-12  0.17120000000E+03  0.17120000000E+03 0.  0.
         13    1    1    2    0    0  0.21071290961E+02  0.51959086177E+02  0.20971334570E+03  0.21707935062E+03  0.10566000000E+00 0. -1.
        994    1    1    2    0    0 -0.11781061316E+02 -0.43504397341E+02  0.13840711668E+02  0.17757373481E+03  0.17120000000E+03 0.  0.
        998    1    1    2    0    0 -0.92902296441E+01 -0.84546888360E+01  0.12764459389E+04  0.12765469146E+04  0.10000000000E+02 0. -1.
</event>
<event>
 5    1  0.9123258E-009  0.3843177E+03  0.7957747E-01  0.3432571E+00
         13   -1    0    0    0    0  0.00000000000E+00  0.00000000000E+00  0.14999999963E+04  0.15000000000E+04  0.10566000000E+00 0. -1.
        994   -1    0    0    0    0 -0.00000000000E+00 -0.00000000000E+00  0.11368683772E-12  0.17120000000E+03  0.17120000000E+03 0.  0.
         13    1    1    2    0    0 -0.11799763557E+02 -0.18171042282E+02  0.11158975714E+03  0.11367368324E+03  0.10566000000E+00 0. -1.
        994    1    1    2    0    0  0.24899353085E+02  0.10373291087E+02  0.43710372456E+01  0.17336703527E+03  0.17120000000E+03 0.  0.
        998    1    1    2    0    0 -0.13099589527E+02  0.77977511951E+01  0.13840392019E+04  0.13841592815E+04  0.10000000000E+02 0. -1.
</event>
<event>
 5    1  0.9123258E-009  0.3851197E+03  0.7957747E-01  0.3429165E+00
         13   -1    0    0    0    0  0.00000000000E+00  0.00000000000E+00  0.14999999963E+04  0.15000000000E+04  0.10566000000E+00 0. -1.
        994   -1    0    0    0    0 -0.00000000000E+00 -0.00000000000E+00  0.11368683772E-12  0.17120000000E+03  0.17120000000E+03 0.  0.
         13    1    1    2    0    0 -0.19557352897E+01 -0.11320120958E+02  0.41356314188E+02  0.42922324335E+02  0.10566000000E+00 0. -1.
        994    1    1    2    0    0  0.42655247038E+01  0.99256748218E+01  0.19544940673E+01  0.17155166501E+03  0.17120000000E+03 0.  0.
        998    1    1    2    0    0 -0.23097894141E+01  0.13944461364E+01  0.14566891880E+04  0.14567260107E+04  0.10000000000E+02 0. -1.
</event>
<event>
 5    1  0.9123258E-009  0.3755968E+03  0.7957747E-01  0.3470558E+00
         13   -1    0    0    0    0  0.00000000000E+00  0.00000000000E+00  0.14999999963E+04  0.15000000000E+04  0.10566000000E+00 0.  1.
        994   -1    0    0    0    0 -0.00000000000E+00 -0.00000000000E+00  0.11368683772E-12  0.17120000000E+03  0.17120000000E+03 0.  0.
         13    1    1    2    0    0 -0.19504468730E+02  0.24726817365E+01  0.28705640532E+02  0.34793151881E+02  0.10566000000E+00 0.  1.
        994    1    1    2    0    0  0.44958947791E+00  0.38855113288E+01  0.64245080289E+01  0.17136514708E+03  0.17120000000E+03 0.  0.
        998    1    1    2    0    0  0.19054879252E+02 -0.63581930653E+01  0.14648698477E+04  0.14650417010E+04  0.10000000000E+02 0.  1.
</event>
<event>
 5    1  0.9123258E-009  0.3843634E+03  0.7957747E-01  0.3432376E+00
         13   -1    0    0    0    0  0.00000000000E+00  0.00000000000E+00  0.14999999963E+04  0.15000000000E+04  0.10566000000E+00 0.  1.
        994   -1    0    0    0    0 -0.00000000000E+00 -0.00000000000E+00  0.11368683772E-12  0.17120000000E+03  0.17120000000E+03 0.  0.
         13    1    1    2    0    0 -0.51753351721E+01 -0.11801442251E+02  0.40580358225E+02  0.42577397420E+02  0.10566000000E+00 0.  1.
        994    1    1    2    0    0  0.52079414711E+01  0.16798710899E+02  0.29665183922E+01  0.17212658009E+03  0.17120000000E+03 0.  0.
        998    1    1    2    0    0 -0.32606298947E-01 -0.49972686485E+01  0.14564531197E+04  0.14564960225E+04  0.10000000000E+02 0.  1.
</event>
<event>
 5    1  0.9123258E-009  0.3765649E+03  0.7957747E-01  0.3466253E+00
         13   -1    0    0    0    0  0.00000000000E+00  0.00000000000E+00  0.14999999963E+04  0.15000000000E+04  0.10566000000E+00 0.  1.
        994   -1    0    0    0    0 -0.00000000000E+00 -0.00000000000E+00  0.11368683772E-12  0.17120000000E+03  0.17120000000E+03 0.  0.
         13    1    1    2    0    0  0.21639741155E+02  0.63444666587E+02  0.35970180549E+03  0.36589466265E+03  0.10566000000E+00 0.  1.
        994    1    1    2    0    0 -0.75185614737E+01 -0.44491332077E+02  0.12792939417E+02  0.17750804685E+03  0.17120000000E+03 0.  0.
        998    1    1    2    0    0 -0.14121179682E+02 -0.18953334510E+02  0.11275052514E+04  0.11277972905E+04  0.10000000000E+02 0.  1.
</event>
<event>
 5    1  0.9123258E-009  0.3826748E+03  0.7957747E-01  0.3439594E+00
         13   -1    0    0    0    0  0.00000000000E+00  0.00000000000E+00  0.14999999963E+04  0.15000000000E+04  0.10566000000E+00 0. -1.
        994   -1    0    0    0    0 -0.00000000000E+00 -0.00000000000E+00  0.11368683772E-12  0.17120000000E+03  0.17120000000E+03 0.  0.
         13    1    1    2    0    0 -0.13372558823E+02  0.10808839693E+02  0.53022676051E+02  0.55741113056E+02  0.10566000000E+00 0. -1.
        994    1    1    2    0    0  0.30658781739E+01 -0.81888736983E+01  0.30423680466E+01  0.17145014805E+03  0.17120000000E+03 0.  0.
        998    1    1    2    0    0  0.10306680649E+02 -0.26199659951E+01  0.14439349522E+04  0.14440087389E+04  0.10000000000E+02 0. -1.
</event>
<event>
 5    1  0.9123258E-009  0.3835000E+03  0.7957747E-01  0.3436059E+00
         13   -1    0    0    0    0  0.00000000000E+00  0.00000000000E+00  0.14999999963E+04  0.15000000000E+04  0.10566000000E+00 0. -1.
        994   -1    0    0    0    0 -0.00000000000E+00 -0.00000000000E+00  0.11368683772E-12  0.17120000000E+03  0.17120000000E+03 0.  0.
         13    1    1    2    0    0  0.10018935715E+02  0.25567454314E+01  0.21447907299E+02  0.23810500029E+02  0.10566000000E+00 0. -1.
        994    1    1    2    0    0 -0.10834495583E+02  0.59397951252E+00  0.27658732731E+01  0.17156581583E+03  0.17120000000E+03 0.  0.
        998    1    1    2    0    0  0.81555986777E+00 -0.31507249440E+01  0.14757862157E+04  0.14758236841E+04  0.10000000000E+02 0. -1.
</event>
<event>
 5    1  0.9123258E-009  0.3753653E+03  0.7957747E-01  0.3471591E+00
         13   -1    0    0    0    0  0.00000000000E+00  0.00000000000E+00  0.14999999963E+04  0.15000000000E+04  0.10566000000E+00 0. -1.
        994   -1    0    0    0    0 -0.00000000000E+00 -0.00000000000E+00  0.11368683772E-12  0.17120000000E+03  0.17120000000E+03 0.  0.
         13    1    1    2    0    0  0.63786252342E+02 -0.61445460576E+02  0.45464846657E+03  0.46319485093E+03  0.10566000000E+00 0. -1.
        994    1    1    2    0    0 -0.36467283108E+02  0.80760589813E+02  0.33634431369E+02  0.19568559113E+03  0.17120000000E+03 0.  0.
        998    1    1    2    0    0 -0.27318969234E+02 -0.19315129237E+02  0.10117170983E+04  0.10123195579E+04  0.10000000000E+02 0. -1.
</event>
<event>
 5    1  0.9123258E-009  0.3854450E+03  0.7957747E-01  0.3427787E+00
         13   -1    0    0    0    0  0.00000000000E+00  0.00000000000E+00  0.14999999963E+04  0.15000000000E+04  0.10566000000E+00 0. -1.
        994   -1    0    0    0    0 -0.00000000000E+00 -0.00000000000E+00  0.11368683772E-12  0.17120000000E+03  0.17120000000E+03 0.  0.
         13    1    1    2    0    0  0.64832531882E+01  0.12760899700E+02  0.72132955707E+02  0.73539428854E+02  0.10566000000E+00 0. -1.
        994    1    1    2    0    0 -0.50597310041E+01 -0.98918761457E+01  0.18148912826E+01  0.17156976401E+03  0.17120000000E+03 0.  0.
        998    1    1    2    0    0 -0.14235221841E+01 -0.28690235543E+01  0.14260521493E+04  0.14260908071E+04  0.10000000000E+02 0. -1.
</event>
<event>
 5    1  0.9123258E-009  0.3856348E+03  0.7957747E-01  0.3426984E+00
         13   -1    0    0    0    0  0.00000000000E+00  0.00000000000E+00  0.14999999963E+04  0.15000000000E+04  0.10566000000E+00 0.  1.
        994   -1    0    0    0    0 -0.00000000000E+00 -0.00000000000E+00  0.11368683772E-12  0.17120000000E+03  0.17120000000E+03 0.  0.
         13    1    1    2    0    0 -0.10925449628E+01  0.14711945515E+02  0.80957749983E+02  0.82290968166E+02  0.10566000000E+00 0.  1.
        994    1    1    2    0    0 -0.65185290786E+01 -0.13864325578E+02  0.20859721762E+01  0.17189677724E+03  0.17120000000E+03 0.  0.
        998    1    1    2    0    0  0.76110740414E+01 -0.84761993734E+00  0.14169562741E+04  0.14170122546E+04  0.10000000000E+02 0.  1.
</event>
<event>
 5    1  0.9123258E-009  0.3758339E+03  0.7957747E-01  0.3469501E+00
         13   -1    0    0    0    0  0.00000000000E+00  0.00000000000E+00  0.14999999963E+04  0.15000000000E+04  0.10566000000E+00 0. -1.
        994   -1    0    0    0    0 -0.00000000000E+00 -0.00000000000E+00  0.11368683772E-12  0.17120000000E+03  0.17120000000E+03 0.  0.
         13    1    1    2    0    0 -0.28901594577E+02 -0.15687479856E+02  0.82338579592E+02  0.88662574103E+02  0.10566000000E+00 0. -1.
        994    1    1    2    0    0  0.35366118384E+02 -0.98760069052E+01  0.10835049403E+02  0.17542843594E+03  0.17120000000E+03 0.  0.
        998    1    1    2    0    0 -0.64645238075E+01  0.25563486761E+02  0.14068263673E+04  0.14071089900E+04  0.10000000000E+02 0. -1.
</event>
<event>
 5    1  0.9123258E-009  0.3857257E+03  0.7957747E-01  0.3426600E+00
         13   -1    0    0    0    0  0.00000000000E+00  0.00000000000E+00  0.14999999963E+04  0.15000000000E+04  0.10566000000E+00 0. -1.
        994   -1    0    0    0    0 -0.00000000000E+00 -0.00000000000E+00  0.11368683772E-12  0.17120000000E+03  0.17120000000E+03 0.  0.
         13    1    1    2    0    0 -0.10864236076E+02  0.21711389990E+00  0.49977669525E+02  0.51145453162E+02  0.10566000000E+00 0. -1.
        994    1    1    2    0    0 -0.26730284137E+01  0.99347736281E+01  0.16176095161E+01  0.17151647579E+03  0.17120000000E+03 0.  0.
        998    1    1    2    0    0  0.13537264490E+02 -0.10151887528E+02  0.14484047172E+04  0.14485380710E+04  0.10000000000E+02 0. -1.
</event>
<event>
 5    1  0.9123258E-009  0.3833460E+03  0.7957747E-01  0.3436717E+00
         13   -1    0    0    0    0  0.00000000000E+00  0.00000000000E+00  0.14999999963E+04  0.15000000000E+04  0.10566000000E+00 0.  1.
        994   -1    0    0    0    0 -0.00000000000E+00 -0.00000000000E+00  0.11368683772E-12  0.17120000000E+03  0.17120000000E+03 0.  0.
         13    1    1    2    0    0  0.25098147287E+02  0.23330230336E+01  0.14016031828E+03  0.14240886902E+03  0.10566000000E+00 0.  1.
        994    1    1    2    0    0 -0.34830723962E+01 -0.15488195452E+02  0.32872437726E+01  0.17196587441E+03  0.17120000000E+03 0.  0.
        998    1    1    2    0    0 -0.21615074891E+02  0.13155172418E+02  0.13565524342E+04  0.13568252566E+04  0.10000000000E+02 0.  1.
</event>
<event>
 5    1  0.9123258E-009  0.3834530E+03  0.7957747E-01  0.3436260E+00
         13   -1    0    0    0    0  0.00000000000E+00  0.00000000000E+00  0.14999999963E+04  0.15000000000E+04  0.10566000000E+00 0.  1.
        994   -1    0    0    0    0 -0.00000000000E+00 -0.00000000000E+00  0.11368683772E-12  0.17120000000E+03  0.17120000000E+03 0.  0.
         13    1    1    2    0    0  0.61163320140E+01 -0.13597921952E+02  0.46446713672E+02  0.48781362975E+02  0.10566000000E+00 0.  1.
        994    1    1    2    0    0 -0.39219729235E+01  0.49197650936E+01  0.25309820577E+01  0.17133426928E+03  0.17120000000E+03 0.  0.
        998    1    1    2    0    0 -0.21943590905E+01  0.86781568586E+01  0.14510223005E+04  0.14510843677E+04  0.10000000000E+02 0.  1.
</event>
<event>
 5    1  0.9123258E-009  0.3783097E+03  0.7957747E-01  0.3458552E+00
         13   -1    0    0    0    0  0.00000000000E+00  0.00000000000E+00  0.14999999963E+04  0.15000000000E+04  0.10566000000E+00 0. -1.
        994   -1    0    0    0    0 -0.00000000000E+00 -0.00000000000E+00  0.11368683772E-12  0.17120000000E+03  0.17120000000E+03 0.  0.
         13    1    1    2    0    0 -0.51800651329E+01 -0.32408907276E+02  0.15005587696E+03  0.15360321520E+03  0.10566000000E+00 0. -1.
        994    1    1    2    0    0 -0.32084272367E+02 -0.31017617307E+02  0.11713024655E+02  0.17730800338E+03  0.17120000000E+03 0.  0.
        998    1    1    2    0    0  0.37264337500E+02  0.63426524583E+02  0.13382310947E+04  0.13402887814E+04  0.10000000000E+02 0. -1.
</event>
<event>
 5    1  0.9123258E-009  0.3758839E+03  0.7957747E-01  0.3469279E+00
         13   -1    0    0    0    0  0.00000000000E+00  0.00000000000E+00  0.14999999963E+04  0.15000000000E+04  0.10566000000E+00 0.  1.
        994   -1    0    0    0    0 -0.00000000000E+00 -0.00000000000E+00  0.11368683772E-12  0.17120000000E+03  0.17120000000E+03 0.  0.
         13    1    1    2    0    0  0.64842944742E+02 -0.71033994562E+01  0.20410782942E+03  0.21427805059E+03  0.10566000000E+00 0.  1.
        994    1    1    2    0    0  0.34902714141E+02  0.38494297774E+02  0.23786067891E+02  0.18048608656E+03  0.17120000000E+03 0.  0.
        998    1    1    2    0    0 -0.99745658883E+02 -0.31390898318E+02  0.12721060990E+04  0.12764358629E+04  0.10000000000E+02 0.  1.
</event>
<event>
 5    1  0.9123258E-009  0.3837762E+03  0.7957747E-01  0.3434879E+00
         13   -1    0    0    0    0  0.00000000000E+00  0.00000000000E+00  0.14999999963E+04  0.15000000000E+04  0.10566000000E+00 0.  1.
        994   -1    0    0    0    0 -0.00000000000E+00 -0.00000000000E+00  0.11368683772E-12  0.17120000000E+03  0.17120000000E+03 0.  0.
         13    1    1    2    0    0 -0.74890224799E+01  0.21773719706E+02  0.11621317720E+03  0.11847233452E+03  0.10566000000E+00 0.  1.
        994    1    1    2    0    0  0.76732767165E+01 -0.14442456654E+02  0.31225587984E+01  0.17200771524E+03  0.17120000000E+03 0.  0.
        998    1    1    2    0    0 -0.18425423661E+00 -0.73312630520E+01  0.13806642603E+04  0.13807199502E+04  0.10000000000E+02 0.  1.
</event>
<event>
 5    1  0.9123258E-009  0.4269212E+03  0.7957747E-01  0.3269265E+00
         13   -1    0    0    0    0  0.00000000000E+00  0.00000000000E+00  0.14999999963E+04  0.15000000000E+04  0.10566000000E+00 0. -1.
        994   -1    0    0    0    0 -0.00000000000E+00 -0.00000000000E+00  0.11368683772E-12  0.17120000000E+03  0.17120000000E+03 0.  0.
         13    1    1    2    0    0 -0.43437193284E+02  0.46285620477E+02  0.29219890402E+02  0.69878191036E+02  0.10566000000E+00 0. -1.
        994    1    1    2    0    0  0.36308140271E+02 -0.45368381054E+02  0.60001345715E+02  0.19048929770E+03  0.17120000000E+03 0.  0.
        998    1    1    2    0    0  0.71290530133E+01 -0.91723942287E+00  0.14107787602E+04  0.14108325113E+04  0.10000000000E+02 0. -1.
</event>
<event>
 5    1  0.2080346E-008  0.3863056E+03  0.7957747E-01  0.3424154E+00
         13   -1    0    0    0    0  0.00000000000E+00  0.00000000000E+00  0.14999999963E+04  0.15000000000E+04  0.10566000000E+00 0. -1.
        994   -1    0    0    0    0 -0.00000000000E+00 -0.00000000000E+00  0.11368683772E-12  0.17120000000E+03  0.17120000000E+03 0.  0.
         13    1    1    2    0    0 -0.11410956186E+02  0.11334997006E+01  0.61517587634E+02  0.62577308147E+02  0.10566000000E+00 0. -1.
        994    1    1    2    0    0  0.19182154601E+02 -0.24491757981E+02  0.41590698767E+01  0.17405326520E+03  0.17120000000E+03 0.  0.
        998    1    1    2    0    0 -0.77711984147E+01  0.23358258281E+02  0.14343233388E+04  0.14345694267E+04  0.10000000000E+02 0. -1.
</event>
<event>
 5    1  0.9123258E-009  0.3838216E+03  0.7957747E-01  0.3434685E+00
         13   -1    0    0    0    0  0.00000000000E+00  0.00000000000E+00  0.14999999963E+04  0.15000000000E+04  0.10566000000E+00 0.  1.
        994   -1    0    0    0    0 -0.00000000000E+00 -0.00000000000E+00  0.11368683772E-12  0.17120000000E+03  0.17120000000E+03 0.  0.
         13    1    1    2    0    0  0.99327080464E+01 -0.14544079972E+02  0.79801412209E+02  0.81721878992E+02  0.10566000000E+00 0.  1.
        994    1    1    2    0    0  0.27006885160E+01 -0.11305874388E+02  0.26625084873E+01  0.17161481715E+03  0.17120000000E+03 0.  0.
        998    1    1    2    0    0 -0.12633396562E+02  0.25849954360E+02  0.14175360756E+04  0.14178633039E+04  0.10000000000E+02 0.  1.
</event>
<event>
 5    1  0.9123258E-009  0.3846726E+03  0.7957747E-01  0.3431062E+00
         13   -1    0    0    0    0  0.00000000000E+00  0.00000000000E+00  0.14999999963E+04  0.15000000000E+04  0.10566000000E+00 0.  1.
        994   -1    0    0    0    0 -0.00000000000E+00 -0.00000000000E+00  0.11368683772E-12  0.17120000000E+03  0.17120000000E+03 0.  0.
         13    1    1    2    0    0 -0.13247129149E+02  0.11701556855E+02  0.84687572889E+02  0.86512479038E+02  0.10566000000E+00 0.  1.
        994    1    1    2    0    0  0.11997586371E+02 -0.95177370308E+01  0.25652685561E+01  0.17190273413E+03  0.17120000000E+03 0.  0.
        998    1    1    2    0    0  0.12495427779E+01 -0.21838198238E+01  0.14127471548E+04  0.14127847868E+04  0.10000000000E+02 0.  1.
</event>
<event>
 5    1  0.9123258E-009  0.3843258E+03  0.7957747E-01  0.3432537E+00
         13   -1    0    0    0    0  0.00000000000E+00  0.00000000000E+00  0.14999999963E+04  0.15000000000E+04  0.10566000000E+00 0.  1.
        994   -1    0    0    0    0 -0.00000000000E+00 -0.00000000000E+00  0.11368683772E-12  0.17120000000E+03  0.17120000000E+03 0.  0.
         13    1    1    2    0    0 -0.77121336129E+01 -0.10813040569E+02  0.44564813808E+02  0.46501963883E+02  0.10566000000E+00 0.  1.
        994    1    1    2    0    0  0.12017207249E+02  0.20749187023E+01  0.24555669209E+01  0.17165135702E+03  0.17120000000E+03 0.  0.
        998    1    1    2    0    0 -0.43050736365E+01  0.87381218670E+01  0.14529796155E+04  0.14530466791E+04  0.10000000000E+02 0.  1.
</event>
<event>
 5    1  0.9123258E-009  0.3802939E+03  0.7957747E-01  0.3449880E+00
         13   -1    0    0    0    0  0.00000000000E+00  0.00000000000E+00  0.14999999963E+04  0.15000000000E+04  0.10566000000E+00 0. -1.
        994   -1    0    0    0    0 -0.00000000000E+00 -0.00000000000E+00  0.11368683772E-12  0.17120000000E+03  0.17120000000E+03 0.  0.
         13    1    1    2    0    0  0.99690086768E+01  0.24140241752E+02  0.81181475786E+02  0.85279397164E+02  0.10566000000E+00 0. -1.
        994    1    1    2    0    0 -0.13013929588E+02 -0.20549951743E+02  0.59632974964E+01  0.17302214828E+03  0.17120000000E+03 0.  0.
        998    1    1    2    0    0  0.30449209112E+01 -0.35902900094E+01  0.14128552230E+04  0.14128984546E+04  0.10000000000E+02 0. -1.
</event>
<event>
 5    1  0.9123258E-009  0.3838618E+03  0.7957747E-01  0.3434514E+00
         13   -1    0    0    0    0  0.00000000000E+00  0.00000000000E+00  0.14999999963E+04  0.15000000000E+04  0.10566000000E+00 0. -1.
        994   -1    0    0    0    0 -0.00000000000E+00 -0.00000000000E+00  0.11368683772E-12  0.17120000000E+03  0.17120000000E+03 0.  0.
         13    1    1    2    0    0 -0.14152957524E+02 -0.14140040300E+02  0.10455593635E+03  0.10645281554E+03  0.10566000000E+00 0. -1.
        994    1    1    2    0    0 -0.13377554554E+02  0.33600171565E+01  0.28245393508E+01  0.17177795756E+03  0.17120000000E+03 0.  0.
        998    1    1    2    0    0  0.27530512078E+02  0.10780023143E+02  0.13926195206E+04  0.13929692269E+04  0.10000000000E+02 0. -1.
</event>
<event>
 5    1  0.9123258E-009  0.3790010E+03  0.7957747E-01  0.3455520E+00
         13   -1    0    0    0    0  0.00000000000E+00  0.00000000000E+00  0.14999999963E+04  0.15000000000E+04  0.10566000000E+00 0. -1.
        994   -1    0    0    0    0 -0.00000000000E+00 -0.00000000000E+00  0.11368683772E-12  0.17120000000E+03  0.17120000000E+03 0.  0.
         13    1    1    2    0    0 -0.19892617547E+02  0.61792899580E+02  0.31920387723E+03  0.32573793926E+03  0.10566000000E+00 0. -1.
        994    1    1    2    0    0  0.28247908015E+02 -0.71862928099E+02  0.24902709899E+02  0.18945133861E+03  0.17120000000E+03 0.  0.
        998    1    1    2    0    0 -0.83552904680E+01  0.10070028519E+02  0.11558934092E+04  0.11560107221E+04  0.10000000000E+02 0. -1.
</event>
<event>
 5    1  0.9123258E-009  0.3848553E+03  0.7957747E-01  0.3430286E+00
         13   -1    0    0    0    0  0.00000000000E+00  0.00000000000E+00  0.14999999963E+04  0.15000000000E+04  0.10566000000E+00 0.  1.
        994   -1    0    0    0    0 -0.00000000000E+00 -0.00000000000E+00  0.11368683772E-12  0.17120000000E+03  0.17120000000E+03 0.  0.
         13    1    1    2    0    0 -0.18622346456E+02  0.15954818418E+01  0.98936718229E+02  0.10068675547E+03  0.10566000000E+00 0.  1.
        994    1    1    2    0    0  0.16661715168E+02 -0.82144742735E+00  0.26181349820E+01  0.17203075934E+03  0.17120000000E+03 0.  0.
        998    1    1    2    0    0  0.19606312874E+01 -0.77403441446E+00  0.13984451431E+04  0.13984824852E+04  0.10000000000E+02 0.  1.
</event>
<event>
 5    1  0.9123258E-009  0.3810918E+03  0.7957747E-01  0.3446418E+00
         13   -1    0    0    0    0  0.00000000000E+00  0.00000000000E+00  0.14999999963E+04  0.15000000000E+04  0.10566000000E+00 0. -1.
        994   -1    0    0    0    0 -0.00000000000E+00 -0.00000000000E+00  0.11368683772E-12  0.17120000000E+03  0.17120000000E+03 0.  0.
         13    1    1    2    0    0 -0.27317789098E+01  0.32391983270E+02  0.16459071942E+03  0.16777013822E+03  0.10566000000E+00 0. -1.
        994    1    1    2    0    0  0.10795415758E+02 -0.20625016464E+01  0.39854887744E+01  0.17159871513E+03  0.17120000000E+03 0.  0.
        998    1    1    2    0    0 -0.80636368486E+01 -0.30329481624E+02  0.13314237881E+04  0.13318311466E+04  0.10000000000E+02 0. -1.
</event>
<event>
 5    1  0.9123258E-009  0.3803507E+03  0.7957747E-01  0.3449633E+00
         13   -1    0    0    0    0  0.00000000000E+00  0.00000000000E+00  0.14999999963E+04  0.15000000000E+04  0.10566000000E+00 0.  1.
        994   -1    0    0    0    0 -0.00000000000E+00 -0.00000000000E+00  0.11368683772E-12  0.17120000000E+03  0.17120000000E+03 0.  0.
         13    1    1    2    0    0 -0.22364628778E+02 -0.22647613708E+02  0.11177567936E+03  0.11621920963E+03  0.10566000000E+00 0.  1.
        994    1    1    2    0    0  0.33183515488E+02  0.26362171430E+02  0.99768899378E+01  0.17664961963E+03  0.17120000000E+03 0.  0.
        998    1    1    2    0    0 -0.10818886710E+02 -0.37145577222E+01  0.13782474270E+04  0.13783311707E+04  0.10000000000E+02 0.  1.
</event>
<event>
 5    1  0.9123258E-009  0.3852581E+03  0.7957747E-01  0.3428578E+00
         13   -1    0    0    0    0  0.00000000000E+00  0.00000000000E+00  0.14999999963E+04  0.15000000000E+04  0.10566000000E+00 0. -1.
        994   -1    0    0    0    0 -0.00000000000E+00 -0.00000000000E+00  0.11368683772E-12  0.17120000000E+03  0.17120000000E+03 0.  0.
         13    1    1    2    0    0 -0.87187676649E+01  0.88189405989E+01  0.50561032087E+02  0.52059770962E+02  0.10566000000E+00 0. -1.
        994    1    1    2    0    0  0.12557251081E+02 -0.27446511330E+01  0.20451459022E+01  0.17169403102E+03  0.17120000000E+03 0.  0.
        998    1    1    2    0    0 -0.38384834160E+01 -0.60742894659E+01  0.14473938183E+04  0.14474461980E+04  0.10000000000E+02 0. -1.
</event>
<event>
 5    1  0.9123258E-009  0.3843494E+03  0.7957747E-01  0.3432436E+00
         13   -1    0    0    0    0  0.00000000000E+00  0.00000000000E+00  0.14999999963E+04  0.15000000000E+04  0.10566000000E+00 0.  1.
        994   -1    0    0    0    0 -0.00000000000E+00 -0.00000000000E+00  0.11368683772E-12  0.17120000000E+03  0.17120000000E+03 0.  0.
         13    1    1    2    0    0 -0.14152236509E+02  0.41779131370E+01  0.54047073000E+02  0.56025333737E+02  0.10566000000E+00 0.  1.
        994    1    1    2    0    0  0.12632245780E+02 -0.83198185037E+01  0.27078801820E+01  0.17188823586E+03  0.17120000000E+03 0.  0.
        998    1    1    2    0    0  0.15199907287E+01  0.41419053667E+01  0.14432450431E+04  0.14432864304E+04  0.10000000000E+02 0.  1.
</event>
<event>
 5    1  0.9123258E-009  0.3849562E+03  0.7957747E-01  0.3429858E+00
         13   -1    0    0    0    0  0.00000000000E+00  0.00000000000E+00  0.14999999963E+04  0.15000000000E+04  0.10566000000E+00 0.  1.
        994   -1    0    0    0    0 -0.00000000000E+00 -0.00000000000E+00  0.11368683772E-12  0.17120000000E+03  0.17120000000E+03 0.  0.
         13    1    1    2    0    0  0.99983296845E+01  0.59952780256E+01  0.40035738500E+02  0.41698698737E+02  0.10566000000E+00 0.  1.
        994    1    1    2    0    0 -0.13197776841E+02 -0.25556593448E+01  0.22464900739E+01  0.17174166479E+03  0.17120000000E+03 0.  0.
        998    1    1    2    0    0  0.31994471568E+01 -0.34396186808E+01  0.14577177677E+04  0.14577596365E+04  0.10000000000E+02 0.  1.
</event>
<event>
 5    1  0.9123258E-009  0.3835594E+03  0.7957747E-01  0.3435805E+00
         13   -1    0    0    0    0  0.00000000000E+00  0.00000000000E+00  0.14999999963E+04  0.15000000000E+04  0.10566000000E+00 0. -1.
        994   -1    0    0    0    0 -0.00000000000E+00 -0.00000000000E+00  0.11368683772E-12  0.17120000000E+03  0.17120000000E+03 0.  0.
         13    1    1    2    0    0  0.78543754404E+01 -0.12960972522E+02  0.49011769790E+02  0.51301488909E+02  0.10566000000E+00 0. -1.
        994    1    1    2    0    0 -0.10645806034E+02  0.17419573559E+01  0.27316524759E+01  0.17156127047E+03  0.17120000000E+03 0.  0.
        998    1    1    2    0    0  0.27914305936E+01  0.11219015166E+02  0.14482565740E+04  0.14483372406E+04  0.10000000000E+02 0. -1.
</event>
<event>
 5    1  0.9123258E-009  0.3818238E+03  0.7957747E-01  0.3443255E+00
         13   -1    0    0    0    0  0.00000000000E+00  0.00000000000E+00  0.14999999963E+04  0.15000000000E+04  0.10566000000E+00 0.  1.
        994   -1    0    0    0    0 -0.00000000000E+00 -0.00000000000E+00  0.11368683772E-12  0.17120000000E+03  0.17120000000E+03 0.  0.
         13    1    1    2    0    0 -0.18148233657E+02 -0.97929495320E+01  0.68320157481E+02  0.71364664419E+02  0.10566000000E+00 0.  1.
        994    1    1    2    0    0 -0.11823833542E+01  0.86051671004E+01  0.34660578222E+01  0.17145524340E+03  0.17120000000E+03 0.  0.
        998    1    1    2    0    0  0.19330617011E+02  0.11877824316E+01  0.14282137810E+04  0.14283800922E+04  0.10000000000E+02 0.  1.
</event>
<event>
 5    1  0.9123258E-009  0.3778693E+03  0.7957747E-01  0.3460489E+00
         13   -1    0    0    0    0  0.00000000000E+00  0.00000000000E+00  0.14999999963E+04  0.15000000000E+04  0.10566000000E+00 0.  1.
        994   -1    0    0    0    0 -0.00000000000E+00 -0.00000000000E+00  0.11368683772E-12  0.17120000000E+03  0.17120000000E+03 0.  0.
         13    1    1    2    0    0  0.42381086764E+02  0.50354037331E+01  0.13738748619E+03  0.14386397857E+03  0.10566000000E+00 0.  1.
        994    1    1    2    0    0 -0.70001190352E+02  0.86727326012E+01  0.22150154013E+02  0.18648177462E+03  0.17120000000E+03 0.  0.
        998    1    1    2    0    0  0.27620103588E+02 -0.13708136334E+02  0.13404623561E+04  0.13408542468E+04  0.10000000000E+02 0.  1.
</event>
<event>
 5    1  0.9123258E-009  0.3830794E+03  0.7957747E-01  0.3437859E+00
         13   -1    0    0    0    0  0.00000000000E+00  0.00000000000E+00  0.14999999963E+04  0.15000000000E+04  0.10566000000E+00 0. -1.
        994   -1    0    0    0    0 -0.00000000000E+00 -0.00000000000E+00  0.11368683772E-12  0.17120000000E+03  0.17120000000E+03 0.  0.
         13    1    1    2    0    0  0.12821739297E+02 -0.15278474326E+02  0.76775460542E+02  0.79324090174E+02  0.10566000000E+00 0. -1.
        994    1    1    2    0    0 -0.76400017497E+01  0.83104140288E+01  0.30085235645E+01  0.17159814632E+03  0.17120000000E+03 0.  0.
        998    1    1    2    0    0 -0.51817375478E+01  0.69680602968E+01  0.14202160122E+04  0.14202777635E+04  0.10000000000E+02 0. -1.
</event>
<event>
 5    1  0.9123258E-009  0.3812172E+03  0.7957747E-01  0.3445876E+00
         13   -1    0    0    0    0  0.00000000000E+00  0.00000000000E+00  0.14999999963E+04  0.15000000000E+04  0.10566000000E+00 0. -1.
        994   -1    0    0    0    0 -0.00000000000E+00 -0.00000000000E+00  0.11368683772E-12  0.17120000000E+03  0.17120000000E+03 0.  0.
         13    1    1    2    0    0  0.17545377439E+02 -0.72824510812E+01  0.48881007139E+02  0.52442715282E+02  0.10566000000E+00 0. -1.
        994    1    1    2    0    0 -0.15285617594E+02  0.10586091678E+02  0.46718937819E+01  0.17227008456E+03  0.17120000000E+03 0.  0.
        998    1    1    2    0    0 -0.22597598453E+01 -0.33036405973E+01  0.14464470954E+04  0.14464872002E+04  0.10000000000E+02 0. -1.
</event>
<event>
 5    1  0.9123259E-009  0.3860233E+03  0.7957747E-01  0.3425344E+00
         13   -1    0    0    0    0  0.00000000000E+00  0.00000000000E+00  0.14999999963E+04  0.15000000000E+04  0.10566000000E+00 0.  1.
        994   -1    0    0    0    0 -0.00000000000E+00 -0.00000000000E+00  0.11368683772E-12  0.17120000000E+03  0.17120000000E+03 0.  0.
         13    1    1    2    0    0 -0.10908280098E+02 -0.16902136082E+01  0.54771617624E+02  0.55872968937E+02  0.10566000000E+00 0.  1.
        994    1    1    2    0    0  0.79645659167E+01 -0.49412484424E+00  0.13316779968E+01  0.17139104946E+03  0.17120000000E+03 0.  0.
        998    1    1    2    0    0  0.29437141810E+01  0.21843384525E+01  0.14438967007E+04  0.14439359816E+04  0.10000000000E+02 0.  1.
</event>
<event>
 5    1  0.9123258E-009  0.3783851E+03  0.7957747E-01  0.3458220E+00
         13   -1    0    0    0    0  0.00000000000E+00  0.00000000000E+00  0.14999999963E+04  0.15000000000E+04  0.10566000000E+00 0. -1.
        994   -1    0    0    0    0 -0.00000000000E+00 -0.00000000000E+00  0.11368683772E-12  0.17120000000E+03  0.17120000000E+03 0.  0.
         13    1    1    2    0    0  0.27313313813E+02 -0.10044224042E+02  0.84165333788E+02  0.89054579465E+02  0.10566000000E+00 0. -1.
        994    1    1    2    0    0 -0.17244495953E+02  0.21099205440E+01  0.59655976721E+01  0.17218261457E+03  0.17120000000E+03 0.  0.
        998    1    1    2    0    0 -0.10068817860E+02  0.79343034979E+01  0.14098690648E+04  0.14099628060E+04  0.10000000000E+02 0. -1.
</event>
<event>
 5    1  0.9123258E-009  0.3803165E+03  0.7957747E-01  0.3449781E+00
         13   -1    0    0    0    0  0.00000000000E+00  0.00000000000E+00  0.14999999963E+04  0.15000000000E+04  0.10566000000E+00 0.  1.
        994   -1    0    0    0    0 -0.00000000000E+00 -0.00000000000E+00  0.11368683772E-12  0.17120000000E+03  0.17120000000E+03 0.  0.
         13    1    1    2    0    0  0.13276363417E+02  0.31185570221E+02  0.86016400935E+02  0.92453415347E+02  0.10566000000E+00 0.  1.
        994    1    1    2    0    0 -0.23107219552E+02 -0.12939498079E+03  0.64006805386E+02  0.22512955333E+03  0.17120000000E+03 0.  0.
        998    1    1    2    0    0  0.98308561348E+01  0.98209410565E+02  0.13499767900E+04  0.13536170313E+04  0.10000000000E+02 0.  1.
</event>
<event>
 5    1  0.9123258E-009  0.3820496E+03  0.7957747E-01  0.3442283E+00
         13   -1    0    0    0    0  0.00000000000E+00  0.00000000000E+00  0.14999999963E+04  0.15000000000E+04  0.10566000000E+00 0. -1.
        994   -1    0    0    0    0 -0.00000000000E+00 -0.00000000000E+00  0.11368683772E-12  0.17120000000E+03  0.17120000000E+03 0.  0.
         13    1    1    2    0    0  0.27824062432E+02  0.26108955376E+02  0.22904017834E+03  0.23219662026E+03  0.10566000000E+00 0. -1.
        994    1    1    2    0    0 -0.12852642384E+02 -0.21781851890E+02  0.52288728480E+01  0.17313699951E+03  0.17120000000E+03 0.  0.
        998    1    1    2    0    0 -0.14971420048E+02 -0.43271034860E+01  0.12657309451E+04  0.12658663802E+04  0.10000000000E+02 0. -1.
</event>
<event>
 5    1  0.9123258E-009  0.3851276E+03  0.7957747E-01  0.3429131E+00
         13   -1    0    0    0    0  0.00000000000E+00  0.00000000000E+00  0.14999999963E+04  0.15000000000E+04  0.10566000000E+00 0. -1.
        994   -1    0    0    0    0 -0.00000000000E+00 -0.00000000000E+00  0.11368683772E-12  0.17120000000E+03  0.17120000000E+03 0.  0.
         13    1    1    2    0    0  0.10544735689E+02  0.12547826899E+02  0.82065582403E+02  0.83686381149E+02  0.10566000000E+00 0. -1.
        994    1    1    2    0    0 -0.12289096034E+02 -0.11793412820E+02  0.25210531878E+01  0.17206365734E+03  0.17120000000E+03 0.  0.
        998    1    1    2    0    0  0.17443603451E+01 -0.75441407933E+00  0.14154133607E+04  0.14154499615E+04  0.10000000000E+02 0. -1.
</event>
<event>
 5    1  0.9123258E-009  0.3780332E+03  0.7957747E-01  0.3459767E+00
         13   -1    0    0    0    0  0.00000000000E+00  0.00000000000E+00  0.14999999963E+04  0.15000000000E+04  0.10566000000E+00 0.  1.
        994   -1    0    0    0    0 -0.00000000000E+00 -0.00000000000E+00  0.11368683772E-12  0.17120000000E+03  0.17120000000E+03 0.  0.
         13    1    1    2    0    0 -0.10321377568E+02  0.30294039330E+02  0.93307486369E+02  0.98643589910E+02  0.10566000000E+00 0.  1.
        994    1    1    2    0    0  0.18376465734E+02 -0.25953937771E+02  0.85395924306E+01  0.17433779286E+03  0.17120000000E+03 0.  0.
        998    1    1    2    0    0 -0.80550881662E+01 -0.43401015582E+01  0.13981529175E+04  0.13982186172E+04  0.10000000000E+02 0.  1.
</event>
<event>
 5    1  0.9123258E-009  0.3841975E+03  0.7957747E-01  0.3433083E+00
         13   -1    0    0    0    0  0.00000000000E+00  0.00000000000E+00  0.14999999963E+04  0.15000000000E+04  0.10566000000E+00 0. -1.
        994   -1    0    0    0    0 -0.00000000000E+00 -0.00000000000E+00  0.11368683772E-12  0.17120000000E+03  0.17120000000E+03 0.  0.
         13    1    1    2    0    0 -0.12420413082E+02 -0.10542194956E+02  0.63656215194E+02  0.65707909969E+02  0.10566000000E+00 0. -1.
        994    1    1    2    0    0  0.92995566254E+01  0.11404959210E+02  0.27434209978E+01  0.17185319667E+03  0.17120000000E+03 0.  0.
        998    1    1    2    0    0  0.31208564571E+01 -0.86276425414E+00  0.14336003601E+04  0.14336388934E+04  0.10000000000E+02 0. -1.
</event>
<event>
 5    1  0.9123258E-009  0.3893130E+03  0.7957747E-01  0.3411584E+00
         13   -1    0    0    0    0  0.00000000000E+00  0.00000000000E+00  0.14999999963E+04  0.15000000000E+04  0.10566000000E+00 0.  1.
        994   -1    0    0    0    0 -0.00000000000E+00 -0.00000000000E+00  0.11368683772E-12  0.17120000000E+03  0.17120000000E+03 0.  0.
         13    1    1    2    0    0  0.49710973808E+02 -0.13861491432E+02  0.52411383253E+02  0.73554647169E+02  0.10566000000E+00 0.  1.
        994    1    1    2    0    0 -0.48061510695E+02  0.15782065478E+02  0.31204907526E+02  0.18122408409E+03  0.17120000000E+03 0.  0.
        998    1    1    2    0    0 -0.16494631132E+01 -0.19205740465E+01  0.14163837055E+04  0.14164212687E+04  0.10000000000E+02 0.  1.
</event>
<event>
 5    1  0.9123258E-009  0.3811417E+03  0.7957747E-01  0.3446202E+00
         13   -1    0    0    0    0  0.00000000000E+00  0.00000000000E+00  0.14999999963E+04  0.15000000000E+04  0.10566000000E+00 0. -1.
        994   -1    0    0    0    0 -0.00000000000E+00 -0.00000000000E+00  0.11368683772E-12  0.17120000000E+03  0.17120000000E+03 0.  0.
         13    1    1    2    0    0 -0.12111937132E+02 -0.13463528993E+02  0.47951985331E+02  0.51257874470E+02  0.10566000000E+00 0. -1.
        994    1    1    2    0    0  0.95518331754E+01 -0.15677811410E+02  0.46811529002E+01  0.17224512905E+03  0.17120000000E+03 0.  0.
        998    1    1    2    0    0  0.25601039564E+01  0.29141340403E+02  0.14473668580E+04  0.14476969965E+04  0.10000000000E+02 0. -1.
</event>
<event>
 5    1  0.9123258E-009  0.3817351E+03  0.7957747E-01  0.3443638E+00
         13   -1    0    0    0    0  0.00000000000E+00  0.00000000000E+00  0.14999999963E+04  0.15000000000E+04  0.10566000000E+00 0.  1.
        994   -1    0    0    0    0 -0.00000000000E+00 -0.00000000000E+00  0.11368683772E-12  0.17120000000E+03  0.17120000000E+03 0.  0.
         13    1    1    2    0    0  0.21507947713E+02 -0.97373200067E+01  0.81366951687E+02  0.84723073638E+02  0.10566000000E+00 0.  1.
        994    1    1    2    0    0 -0.21599387948E+02  0.54525745741E+01  0.49111050119E+01  0.17271312365E+03  0.17120000000E+03 0.  0.
        998    1    1    2    0    0  0.91440235043E-01  0.42847454327E+01  0.14137219396E+04  0.14137638027E+04  0.10000000000E+02 0.  1.
</event>
<event>
 5    1  0.9123258E-009  0.3845118E+03  0.7957747E-01  0.3431745E+00
         13   -1    0    0    0    0  0.00000000000E+00  0.00000000000E+00  0.14999999963E+04  0.15000000000E+04  0.10566000000E+00 0.  1.
        994   -1    0    0    0    0 -0.00000000000E+00 -0.00000000000E+00  0.11368683772E-12  0.17120000000E+03  0.17120000000E+03 0.  0.
         13    1    1    2    0    0 -0.95224753569E+01  0.91121231691E+01  0.45435540914E+02  0.47308644746E+02  0.10566000000E+00 0.  1.
        994    1    1    2    0    0  0.10353313185E+02 -0.60483868555E+01  0.23464261256E+01  0.17163542698E+03  0.17120000000E+03 0.  0.
        998    1    1    2    0    0 -0.83083782826E+00 -0.30637363136E+01  0.14522180292E+04  0.14522559283E+04  0.10000000000E+02 0.  1.
</event>
<event>
 5    1  0.9123258E-009  0.3857392E+03  0.7957747E-01  0.3426543E+00
         13   -1    0    0    0    0  0.00000000000E+00  0.00000000000E+00  0.14999999963E+04  0.15000000000E+04  0.10566000000E+00 0. -1.
        994   -1    0    0    0    0 -0.00000000000E+00 -0.00000000000E+00  0.11368683772E-12  0.17120000000E+03  0.17120000000E+03 0.  0.
         13    1    1    2    0    0 -0.63699527311E+01 -0.95735640536E+01  0.53614697223E+02  0.54834080177E+02  0.10566000000E+00 0. -1.
        994    1    1    2    0    0 -0.72534053239E+01  0.11259455845E+02  0.18523155829E+01  0.17173310196E+03  0.17120000000E+03 0.  0.
        998    1    1    2    0    0  0.13623358055E+02 -0.16858917909E+01  0.14445329835E+04  0.14446328179E+04  0.10000000000E+02 0. -1.
</event>
<event>
 5    1  0.9123258E-009  0.3938726E+03  0.7957747E-01  0.3392893E+00
         13   -1    0    0    0    0  0.00000000000E+00  0.00000000000E+00  0.14999999963E+04  0.15000000000E+04  0.10566000000E+00 0. -1.
        994   -1    0    0    0    0 -0.00000000000E+00 -0.00000000000E+00  0.11368683772E-12  0.17120000000E+03  0.17120000000E+03 0.  0.
         13    1    1    2    0    0 -0.52752506706E+02  0.12070682549E+02  0.49065206035E+02  0.73047477358E+02  0.10566000000E+00 0. -1.
        994    1    1    2    0    0  0.71291695635E+02  0.45665766564E+02  0.52100982145E+02  0.19796924115E+03  0.17120000000E+03 0.  0.
        998    1    1    2    0    0 -0.18539188929E+02 -0.57736449113E+02  0.13988338081E+04  0.14001832815E+04  0.10000000000E+02 0. -1.
</event>
<event>
 5    1  0.9123258E-009  0.3775233E+03  0.7957747E-01  0.3462014E+00
         13   -1    0    0    0    0  0.00000000000E+00  0.00000000000E+00  0.14999999963E+04  0.15000000000E+04  0.10566000000E+00 0. -1.
        994   -1    0    0    0    0 -0.00000000000E+00 -0.00000000000E+00  0.11368683772E-12  0.17120000000E+03  0.17120000000E+03 0.  0.
         13    1    1    2    0    0 -0.19884369322E+02  0.40189402468E+02  0.17696201539E+03  0.18255449123E+03  0.10566000000E+00 0. -1.
        994    1    1    2    0    0  0.10568395702E+02 -0.31722808683E+02  0.91662064386E+01  0.17467537582E+03  0.17120000000E+03 0.  0.
        998    1    1    2    0    0  0.93159736203E+01 -0.84665937854E+01  0.13138717745E+04  0.13139701329E+04  0.10000000000E+02 0. -1.
</event>
<event>
 5    1  0.9123258E-009  0.3837170E+03  0.7957747E-01  0.3435132E+00
         13   -1    0    0    0    0  0.00000000000E+00  0.00000000000E+00  0.14999999963E+04  0.15000000000E+04  0.10566000000E+00 0.  1.
        994   -1    0    0    0    0 -0.00000000000E+00 -0.00000000000E+00  0.11368683772E-12  0.17120000000E+03  0.17120000000E+03 0.  0.
         13    1    1    2    0    0 -0.73948687469E+01 -0.12504875947E+02  0.43881238095E+02  0.46223697678E+02  0.10566000000E+00 0.  1.
        994    1    1    2    0    0  0.11617277895E+02  0.16168326196E+02  0.35785327892E+01  0.17239089829E+03  0.17120000000E+03 0.  0.
        998    1    1    2    0    0 -0.42224091485E+01 -0.36634502496E+01  0.14525402254E+04  0.14525854040E+04  0.10000000000E+02 0.  1.
</event>
<event>
 5    1  0.9123258E-009  0.3832306E+03  0.7957747E-01  0.3437211E+00
         13   -1    0    0    0    0  0.00000000000E+00  0.00000000000E+00  0.14999999963E+04  0.15000000000E+04  0.10566000000E+00 0.  1.
        994   -1    0    0    0    0 -0.00000000000E+00 -0.00000000000E+00  0.11368683772E-12  0.17120000000E+03  0.17120000000E+03 0.  0.
         13    1    1    2    0    0 -0.22387180493E+01  0.27783031194E+02  0.14223025603E+03  0.14493572912E+03  0.10566000000E+00 0.  1.
        994    1    1    2    0    0  0.82512400338E+01 -0.26616112254E+02  0.50837743553E+01  0.17352747666E+03  0.17120000000E+03 0.  0.
        998    1    1    2    0    0 -0.60125219845E+01 -0.11669189396E+01  0.13526859659E+04  0.13527367942E+04  0.10000000000E+02 0.  1.
</event>
<event>
 5    1  0.9123258E-009  0.3831013E+03  0.7957747E-01  0.3437765E+00
         13   -1    0    0    0    0  0.00000000000E+00  0.00000000000E+00  0.14999999963E+04  0.15000000000E+04  0.10566000000E+00 0.  1.
        994   -1    0    0    0    0 -0.00000000000E+00 -0.00000000000E+00  0.11368683772E-12  0.17120000000E+03  0.17120000000E+03 0.  0.
         13    1    1    2    0    0 -0.12733772715E+02  0.21181233411E+02  0.12025317118E+03  0.12276656694E+03  0.10566000000E+00 0.  1.
        994    1    1    2    0    0  0.18610946488E+02 -0.33584165506E+01  0.37600963571E+01  0.17228239787E+03  0.17120000000E+03 0.  0.
        998    1    1    2    0    0 -0.58771737729E+01 -0.17822816861E+02  0.13759867287E+04  0.13761510352E+04  0.10000000000E+02 0. -1.
</event>
<event>
 5    1  0.9123258E-009  0.3823992E+03  0.7957747E-01  0.3440778E+00
         13   -1    0    0    0    0  0.00000000000E+00  0.00000000000E+00  0.14999999963E+04  0.15000000000E+04  0.10566000000E+00 0.  1.
        994   -1    0    0    0    0 -0.00000000000E+00 -0.00000000000E+00  0.11368683772E-12  0.17120000000E+03  0.17120000000E+03 0.  0.
         13    1    1    2    0    0 -0.96637936140E+01 -0.22893282933E+02  0.10912474600E+03  0.11191833033E+03  0.10566000000E+00 0.  1.
        994    1    1    2    0    0  0.70507828437E+01  0.62387664029E+01  0.32209303524E+01  0.17148892133E+03  0.17120000000E+03 0.  0.
        998    1    1    2    0    0  0.26130107703E+01  0.16654516530E+02  0.13876543199E+04  0.13877927483E+04  0.10000000000E+02 0.  1.
</event>
<event>
 5    1  0.9655122E-009  0.3850415E+03  0.7957747E-01  0.3429496E+00
         13   -1    0    0    0    0  0.00000000000E+00  0.00000000000E+00  0.14999999963E+04  0.15000000000E+04  0.10566000000E+00 0. -1.
        994   -1    0    0    0    0 -0.00000000000E+00 -0.00000000000E+00  0.11368683772E-12  0.17120000000E+03  0.17120000000E+03 0.  0.
         13    1    1    2    0    0 -0.18594975116E+02  0.15807839533E+02  0.14650813952E+03  0.14852712547E+03  0.10566000000E+00 0. -1.
        994    1    1    2    0    0  0.29073829674E+02 -0.27940704385E+02  0.69744212470E+01  0.17602287660E+03  0.17120000000E+03 0.  0.
        998    1    1    2    0    0 -0.10478854558E+02  0.12132864851E+02  0.13465174355E+04  0.13466499979E+04  0.10000000000E+02 0. -1.
</event>
<event>
 5    1  0.9123258E-009  0.3702797E+03  0.7957747E-01  0.3494606E+00
         13   -1    0    0    0    0  0.00000000000E+00  0.00000000000E+00  0.14999999963E+04  0.15000000000E+04  0.10566000000E+00 0.  1.
        994   -1    0    0    0    0 -0.00000000000E+00 -0.00000000000E+00  0.11368683772E-12  0.17120000000E+03  0.17120000000E+03 0.  0.
         13    1    1    2    0    0 -0.27061755481E+03 -0.10326627959E+03  0.10223554937E+04  0.10625951967E+04  0.10566000000E+00 0.  1.
        994    1    1    2    0    0  0.25316122464E+03  0.96554260973E+02  0.33213792390E+03  0.46156079932E+03  0.17120000000E+03 0.  0.
        998    1    1    2    0    0  0.17456330165E+02  0.67120186159E+01  0.14550657868E+03  0.14704400394E+03  0.10000000000E+02 0. -1.
</event>
<event>
 5    1  0.9123258E-009  0.3713833E+03  0.7957747E-01  0.3489557E+00
         13   -1    0    0    0    0  0.00000000000E+00  0.00000000000E+00  0.14999999963E+04  0.15000000000E+04  0.10566000000E+00 0. -1.
        994   -1    0    0    0    0 -0.00000000000E+00 -0.00000000000E+00  0.11368683772E-12  0.17120000000E+03  0.17120000000E+03 0.  0.
         13    1    1    2    0    0  0.14089717510E+02 -0.25367549076E+02  0.44485562499E+02  0.53113172759E+02  0.10566000000E+00 0. -1.
        994    1    1    2    0    0 -0.10737145397E+02  0.28905516908E+02  0.11826792760E+02  0.17435632545E+03  0.17120000000E+03 0.  0.
        998    1    1    2    0    0 -0.33525721134E+01 -0.35379678321E+01  0.14436876410E+04  0.14437305018E+04  0.10000000000E+02 0. -1.
</event>
<event>
 5    1  0.9123258E-009  0.3818825E+03  0.7957747E-01  0.3443002E+00
         13   -1    0    0    0    0  0.00000000000E+00  0.00000000000E+00  0.14999999963E+04  0.15000000000E+04  0.10566000000E+00 0. -1.
        994   -1    0    0    0    0 -0.00000000000E+00 -0.00000000000E+00  0.11368683772E-12  0.17120000000E+03  0.17120000000E+03 0.  0.
         13    1    1    2    0    0 -0.50258272247E+01  0.10773601249E+02  0.20708257877E+02  0.23878285774E+02  0.10566000000E+00 0. -1.
        994    1    1    2    0    0  0.57443840222E+01 -0.10376843190E+02  0.36533828051E+01  0.17164924710E+03  0.17120000000E+03 0.  0.
        998    1    1    2    0    0 -0.71855679744E+00 -0.39675805908E+00  0.14756383556E+04  0.14756724671E+04  0.10000000000E+02 0. -1.
</event>
<event>
 5    1  0.9123258E-009  0.3805509E+03  0.7957747E-01  0.3448763E+00
         13   -1    0    0    0    0  0.00000000000E+00  0.00000000000E+00  0.14999999963E+04  0.15000000000E+04  0.10566000000E+00 0. -1.
        994   -1    0    0    0    0 -0.00000000000E+00 -0.00000000000E+00  0.11368683772E-12  0.17120000000E+03  0.17120000000E+03 0.  0.
         13    1    1    2    0    0 -0.31588167658E+02 -0.29087265718E+01  0.12444637020E+03  0.12842578886E+03  0.10566000000E+00 0. -1.
        994    1    1    2    0    0  0.24822113017E+02  0.65178285432E+01  0.60561457504E+01  0.17321875269E+03  0.17120000000E+03 0.  0.
        998    1    1    2    0    0  0.67660546411E+01 -0.36091019714E+01  0.13694974803E+04  0.13695554584E+04  0.10000000000E+02 0. -1.
</event>
<event>
 5    1  0.9123258E-009  0.3707892E+03  0.7957747E-01  0.3492272E+00
         13   -1    0    0    0    0  0.00000000000E+00  0.00000000000E+00  0.14999999963E+04  0.15000000000E+04  0.10566000000E+00 0. -1.
        994   -1    0    0    0    0 -0.00000000000E+00 -0.00000000000E+00  0.11368683772E-12  0.17120000000E+03  0.17120000000E+03 0.  0.
         13    1    1    2    0    0 -0.29833537249E+02  0.49044211219E+02  0.16955510065E+03  0.17900926770E+03  0.10566000000E+00 0. -1.
        994    1    1    2    0    0  0.25171482193E+02 -0.43119335630E+02  0.17502809776E+02  0.17918891978E+03  0.17120000000E+03 0.  0.
        998    1    1    2    0    0  0.46620550562E+01 -0.59248755893E+01  0.13129420858E+04  0.13130018125E+04  0.10000000000E+02 0. -1.
</event>
<event>
 5    1  0.9123258E-009  0.3797756E+03  0.7957747E-01  0.3452136E+00
         13   -1    0    0    0    0  0.00000000000E+00  0.00000000000E+00  0.14999999963E+04  0.15000000000E+04  0.10566000000E+00 0.  1.
        994   -1    0    0    0    0 -0.00000000000E+00 -0.00000000000E+00  0.11368683772E-12  0.17120000000E+03  0.17120000000E+03 0.  0.
         13    1    1    2    0    0  0.34265745134E+02 -0.14744977677E+02  0.14758596424E+03  0.15222740772E+03  0.10566000000E+00 0.  1.
        994    1    1    2    0    0 -0.38031343762E+02  0.68390508542E+01  0.92578980773E+01  0.17575068820E+03  0.17120000000E+03 0.  0.
        998    1    1    2    0    0  0.37655986279E+01  0.79059268231E+01  0.13431561340E+04  0.13432219041E+04  0.10000000000E+02 0.  1.
</event>
<event>
 5    1  0.9123258E-009  0.3757862E+03  0.7957747E-01  0.3469714E+00
         13   -1    0    0    0    0  0.00000000000E+00  0.00000000000E+00  0.14999999963E+04  0.15000000000E+04  0.10566000000E+00 0.  1.
        994   -1    0    0    0    0 -0.00000000000E+00 -0.00000000000E+00  0.11368683772E-12  0.17120000000E+03  0.17120000000E+03 0.  0.
         13    1    1    2    0    0 -0.30831348612E+02  0.41618905009E+02  0.20249391448E+03  0.20901316197E+03  0.10566000000E+00 0.  1.
        994    1    1    2    0    0  0.32535963693E+02 -0.22350260765E+02  0.11576239346E+02  0.17607263390E+03  0.17120000000E+03 0.  0.
        998    1    1    2    0    0 -0.17046150810E+01 -0.19268644244E+02  0.12859298425E+04  0.12861142041E+04  0.10000000000E+02 0.  1.
</event>
<event>
 5    1  0.9123258E-009  0.4158479E+03  0.7957747E-01  0.3308528E+00
         13   -1    0    0    0    0  0.00000000000E+00  0.00000000000E+00  0.14999999963E+04  0.15000000000E+04  0.10566000000E+00 0.  1.
        994   -1    0    0    0    0 -0.00000000000E+00 -0.00000000000E+00  0.11368683772E-12  0.17120000000E+03  0.17120000000E+03 0.  0.
         13    1    1    2    0    0 -0.35108173269E+02  0.71627328169E+02  0.81138239271E+02  0.11378261294E+03  0.10566000000E+00 0.  1.
        994    1    1    2    0    0 -0.64575752105E+02 -0.51048711325E+02  0.66607303969E+02  0.20130069953E+03  0.17120000000E+03 0.  0.
        998    1    1    2    0    0  0.99683925374E+02 -0.20578616844E+02  0.13522544530E+04  0.13561166875E+04  0.10000000000E+02 0.  1.
</event>
<event>
 5    1  0.9123258E-009  0.3737281E+03  0.7957747E-01  0.3478931E+00
         13   -1    0    0    0    0  0.00000000000E+00  0.00000000000E+00  0.14999999963E+04  0.15000000000E+04  0.10566000000E+00 0. -1.
        994   -1    0    0    0    0 -0.00000000000E+00 -0.00000000000E+00  0.11368683772E-12  0.17120000000E+03  0.17120000000E+03 0.  0.
         13    1    1    2    0    0 -0.42694098508E+02  0.18018782199E+02  0.15389229467E+03  0.16071811373E+03  0.10566000000E+00 0. -1.
        994    1    1    2    0    0  0.15200697954E+02 -0.72157779676E+00  0.81243198567E+01  0.17206692438E+03  0.17120000000E+03 0.  0.
        998    1    1    2    0    0  0.27493400554E+02 -0.17297204402E+02  0.13379833818E+04  0.13384149619E+04  0.10000000000E+02 0. -1.
</event>
<event>
 5    1  0.9123258E-009  0.3848666E+03  0.7957747E-01  0.3430238E+00
         13   -1    0    0    0    0  0.00000000000E+00  0.00000000000E+00  0.14999999963E+04  0.15000000000E+04  0.10566000000E+00 0. -1.
        994   -1    0    0    0    0 -0.00000000000E+00 -0.00000000000E+00  0.11368683772E-12  0.17120000000E+03  0.17120000000E+03 0.  0.
         13    1    1    2    0    0 -0.72729324098E+01  0.73059541042E+01  0.31140456325E+02  0.32802617203E+02  0.10566000000E+00 0. -1.
        994    1    1    2    0    0  0.88615136726E+01 -0.16477514259E+00  0.19548970720E+01  0.17144041297E+03  0.17120000000E+03 0.  0.
        998    1    1    2    0    0 -0.15885812628E+01 -0.71411789616E+01  0.14669046429E+04  0.14669569698E+04  0.10000000000E+02 0. -1.
</event>
<event>
 5    1  0.9123258E-009  0.3767718E+03  0.7957747E-01  0.3465337E+00
         13   -1    0    0    0    0  0.00000000000E+00  0.00000000000E+00  0.14999999963E+04  0.15000000000E+04  0.10566000000E+00 0.  1.
        994   -1    0    0    0    0 -0.00000000000E+00 -0.00000000000E+00  0.11368683772E-12  0.17120000000E+03  0.17120000000E+03 0.  0.
         13    1    1    2    0    0 -0.40720246970E+02  0.79942490968E+00  0.12517679543E+03  0.13163593306E+03  0.10566000000E+00 0.  1.
        994    1    1    2    0    0  0.49544316543E+02  0.58473011895E+01  0.14228153619E+02  0.17888742434E+03  0.17120000000E+03 0.  0.
        998    1    1    2    0    0 -0.88240695736E+01 -0.66467260991E+01  0.13605950472E+04  0.13606766426E+04  0.10000000000E+02 0.  1.
</event>
<event>
 5    1  0.9123258E-009  0.3813467E+03  0.7957747E-01  0.3445315E+00
         13   -1    0    0    0    0  0.00000000000E+00  0.00000000000E+00  0.14999999963E+04  0.15000000000E+04  0.10566000000E+00 0.  1.
        994   -1    0    0    0    0 -0.00000000000E+00 -0.00000000000E+00  0.11368683772E-12  0.17120000000E+03  0.17120000000E+03 0.  0.
         13    1    1    2    0    0 -0.30162468405E+02 -0.26046493152E+02  0.20256543987E+03  0.20644845095E+03  0.10566000000E+00 0.  1.
        994    1    1    2    0    0  0.15118915338E+02  0.42383427036E+02  0.10223583904E+02  0.17731017499E+03  0.17120000000E+03 0.  0.
        998    1    1    2    0    0  0.15043553067E+02 -0.16336933884E+02  0.12872109725E+04  0.12874413741E+04  0.10000000000E+02 0.  1.
</event>
<event>
 5    1  0.9123258E-009  0.3799836E+03  0.7957747E-01  0.3451230E+00
         13   -1    0    0    0    0  0.00000000000E+00  0.00000000000E+00  0.14999999963E+04  0.15000000000E+04  0.10566000000E+00 0.  1.
        994   -1    0    0    0    0 -0.00000000000E+00 -0.00000000000E+00  0.11368683772E-12  0.17120000000E+03  0.17120000000E+03 0.  0.
         13    1    1    2    0    0  0.20805678956E+02 -0.86479125639E+01  0.58680837636E+02  0.62857891615E+02  0.10566000000E+00 0.  1.
        994    1    1    2    0    0 -0.12294344684E+02  0.20292034032E+02  0.60255697258E+01  0.17294121847E+03  0.17120000000E+03 0.  0.
        998    1    1    2    0    0 -0.85113342719E+01 -0.11644121468E+02  0.14352935889E+04  0.14354008899E+04  0.10000000000E+02 0.  1.
</event>
<event>
 5    1  0.9123258E-009  0.3809348E+03  0.7957747E-01  0.3447098E+00
         13   -1    0    0    0    0  0.00000000000E+00  0.00000000000E+00  0.14999999963E+04  0.15000000000E+04  0.10566000000E+00 0.  1.
        994   -1    0    0    0    0 -0.00000000000E+00 -0.00000000000E+00  0.11368683772E-12  0.17120000000E+03  0.17120000000E+03 0.  0.
         13    1    1    2    0    0 -0.70190353440E+01 -0.26649894137E+02  0.10491271930E+03  0.10847199431E+03  0.10566000000E+00 0.  1.
        994    1    1    2    0    0 -0.13650652937E+00  0.13001445510E+02  0.42256074081E+01  0.17174502024E+03  0.17120000000E+03 0.  0.
        998    1    1    2    0    0  0.71555418734E+01  0.13648448627E+02  0.13908616696E+04  0.13909829855E+04  0.10000000000E+02 0.  1.
</event>
<event>
 5    1  0.9123258E-009  0.3841526E+03  0.7957747E-01  0.3433274E+00
         13   -1    0    0    0    0  0.00000000000E+00  0.00000000000E+00  0.14999999963E+04  0.15000000000E+04  0.10566000000E+00 0.  1.
        994   -1    0    0    0    0 -0.00000000000E+00 -0.00000000000E+00  0.11368683772E-12  0.17120000000E+03  0.17120000000E+03 0.  0.
         13    1    1    2    0    0  0.15891433139E+02  0.91911841154E+01  0.84637052607E+02  0.86605180853E+02  0.10566000000E+00 0.  1.
        994    1    1    2    0    0 -0.11463018289E+02  0.65350945711E+01  0.26257991336E+01  0.17172781682E+03  0.17120000000E+03 0.  0.
        998    1    1    2    0    0 -0.44284148506E+01 -0.15726278687E+02  0.14127371445E+04  0.14128670023E+04  0.10000000000E+02 0.  1.
</event>
<event>
 5    1  0.9123258E-009  0.3827898E+03  0.7957747E-01  0.3439100E+00
         13   -1    0    0    0    0  0.00000000000E+00  0.00000000000E+00  0.14999999963E+04  0.15000000000E+04  0.10566000000E+00 0. -1.
        994   -1    0    0    0    0 -0.00000000000E+00 -0.00000000000E+00  0.11368683772E-12  0.17120000000E+03  0.17120000000E+03 0.  0.
         13    1    1    2    0    0  0.10224425987E+02 -0.35245274192E+01  0.20146023392E+02  0.22865576810E+02  0.10566000000E+00 0. -1.
        994    1    1    2    0    0 -0.11918623270E+02  0.28848791488E+00  0.32024212934E+01  0.17164449396E+03  0.17120000000E+03 0.  0.
        998    1    1    2    0    0  0.16941972826E+01  0.32360395043E+01  0.14766515516E+04  0.14766899292E+04  0.10000000000E+02 0. -1.
</event>
<event>
 5    1  0.9123258E-009  0.3740165E+03  0.7957747E-01  0.3477633E+00
         13   -1    0    0    0    0  0.00000000000E+00  0.00000000000E+00  0.14999999963E+04  0.15000000000E+04  0.10566000000E+00 0.  1.
        994   -1    0    0    0    0 -0.00000000000E+00 -0.00000000000E+00  0.11368683772E-12  0.17120000000E+03  0.17120000000E+03 0.  0.
         13    1    1    2    0    0 -0.10512032719E+02  0.21460129757E+01  0.45706660197E+01  0.11662347769E+02  0.10566000000E+00 0.  1.
        994    1    1    2    0    0  0.15206410512E+02 -0.12119816866E+02  0.84752783207E+01  0.17250911635E+03  0.17120000000E+03 0.  0.
        998    1    1    2    0    0 -0.46943777932E+01  0.99738038905E+01  0.14869540519E+04  0.14870285359E+04  0.10000000000E+02 0.  1.
</event>
<event>
 5    1  0.9123258E-009  0.3787940E+03  0.7957747E-01  0.3456427E+00
         13   -1    0    0    0    0  0.00000000000E+00  0.00000000000E+00  0.14999999963E+04  0.15000000000E+04  0.10566000000E+00 0. -1.
        994   -1    0    0    0    0 -0.00000000000E+00 -0.00000000000E+00  0.11368683772E-12  0.17120000000E+03  0.17120000000E+03 0.  0.
         13    1    1    2    0    0 -0.15194896184E+02  0.14995346729E+03  0.51496813773E+03  0.53657163666E+03  0.10566000000E+00 0. -1.
        994    1    1    2    0    0  0.48140790837E+02 -0.13040447475E+03  0.89139618259E+02  0.23786167056E+03  0.17120000000E+03 0.  0.
        998    1    1    2    0    0 -0.32945894652E+02 -0.19548992539E+02  0.89589224029E+03  0.89676669279E+03  0.10000000000E+02 0. -1.
</event>
<event>
 5    1  0.1079800E-008  0.3862009E+03  0.7957747E-01  0.3424595E+00
         13   -1    0    0    0    0  0.00000000000E+00  0.00000000000E+00  0.14999999963E+04  0.15000000000E+04  0.10566000000E+00 0. -1.
        994   -1    0    0    0    0 -0.00000000000E+00 -0.00000000000E+00  0.11368683772E-12  0.17120000000E+03  0.17120000000E+03 0.  0.
         13    1    1    2    0    0 -0.10160555996E+02 -0.43688066259E+01  0.59344433943E+02  0.60366351335E+02  0.10566000000E+00 0. -1.
        994    1    1    2    0    0  0.12382064427E+02 -0.59285497138E+01  0.16527041687E+01  0.17175748791E+03  0.17120000000E+03 0.  0.
        998    1    1    2    0    0 -0.22215084305E+01  0.10297356340E+02  0.14390028582E+04  0.14390761608E+04  0.10000000000E+02 0. -1.
</event>
<event>
 5    1  0.9123258E-009  0.3853669E+03  0.7957747E-01  0.3428117E+00
         13   -1    0    0    0    0  0.00000000000E+00  0.00000000000E+00  0.14999999963E+04  0.15000000000E+04  0.10566000000E+00 0.  1.
        994   -1    0    0    0    0 -0.00000000000E+00 -0.00000000000E+00  0.11368683772E-12  0.17120000000E+03  0.17120000000E+03 0.  0.
         13    1    1    2    0    0  0.14768630702E+02 -0.26294945980E+01  0.72640134059E+02  0.74172952852E+02  0.10566000000E+00 0.  1.
        994    1    1    2    0    0 -0.26450566264E+02 -0.26733841844E+02  0.61076300872E+01  0.17538835167E+03  0.17120000000E+03 0.  0.
        998    1    1    2    0    0  0.11681935563E+02  0.29363336442E+02  0.14212522321E+04  0.14216386955E+04  0.10000000000E+02 0.  1.
</event>
<event>
 5    1  0.9123258E-009  0.3788169E+03  0.7957747E-01  0.3456326E+00
         13   -1    0    0    0    0  0.00000000000E+00  0.00000000000E+00  0.14999999963E+04  0.15000000000E+04  0.10566000000E+00 0. -1.
        994   -1    0    0    0    0 -0.00000000000E+00 -0.00000000000E+00  0.11368683772E-12  0.17120000000E+03  0.17120000000E+03 0.  0.
         13    1    1    2    0    0 -0.18494178240E+02  0.67744519745E+01  0.39989258867E+02  0.44576673464E+02  0.10566000000E+00 0. -1.
        994    1    1    2    0    0  0.95094088597E+01  0.68697088174E+01  0.51935354514E+01  0.17168003543E+03  0.17120000000E+03 0.  0.
        998    1    1    2    0    0  0.89847693800E+01 -0.13644160792E+02  0.14548172020E+04  0.14549432911E+04  0.10000000000E+02 0. -1.
</event>
<event>
 5    1  0.9154954E-009  0.3837061E+03  0.7957747E-01  0.3435178E+00
         13   -1    0    0    0    0  0.00000000000E+00  0.00000000000E+00  0.14999999963E+04  0.15000000000E+04  0.10566000000E+00 0. -1.
        994   -1    0    0    0    0 -0.00000000000E+00 -0.00000000000E+00  0.11368683772E-12  0.17120000000E+03  0.17120000000E+03 0.  0.
         13    1    1    2    0    0 -0.12614741230E+02  0.28484189598E+01  0.42957317669E+02  0.44861871252E+02  0.10566000000E+00 0. -1.
        994    1    1    2    0    0 -0.27255193096E+02  0.10661450792E+02  0.51076773460E+01  0.17375856943E+03  0.17120000000E+03 0.  0.
        998    1    1    2    0    0  0.39869934326E+02 -0.13509869752E+02  0.14519350013E+04  0.14525795593E+04  0.10000000000E+02 0. -1.
</event>
<event>
 5    1  0.9123258E-009  0.3809640E+03  0.7957747E-01  0.3446972E+00
         13   -1    0    0    0    0  0.00000000000E+00  0.00000000000E+00  0.14999999963E+04  0.15000000000E+04  0.10566000000E+00 0. -1.
        994   -1    0    0    0    0 -0.00000000000E+00 -0.00000000000E+00  0.11368683772E-12  0.17120000000E+03  0.17120000000E+03 0.  0.
         13    1    1    2    0    0  0.26242692096E+01  0.34608435296E+02  0.15136596281E+03  0.15529422540E+03  0.10566000000E+00 0. -1.
        994    1    1    2    0    0  0.45948250810E+01 -0.32899246614E+02  0.73331445306E+01  0.17454709351E+03  0.17120000000E+03 0.  0.
        998    1    1    2    0    0 -0.72190942906E+01 -0.17091886821E+01  0.13413008889E+04  0.13413586811E+04  0.10000000000E+02 0. -1.
</event>
<event>
 5    1  0.9123258E-009  0.3769797E+03  0.7957747E-01  0.3464416E+00
         13   -1    0    0    0    0  0.00000000000E+00  0.00000000000E+00  0.14999999963E+04  0.15000000000E+04  0.10566000000E+00 0. -1.
        994   -1    0    0    0    0 -0.00000000000E+00 -0.00000000000E+00  0.11368683772E-12  0.17120000000E+03  0.17120000000E+03 0.  0.
         13    1    1    2    0    0 -0.88084840522E+02  0.13456066712E+01  0.52822489376E+03  0.53552058722E+03  0.10566000000E+00 0. -1.
        994    1    1    2    0    0  0.74553737691E+02  0.16758950055E+02  0.25643605771E+02  0.18922514824E+03  0.17120000000E+03 0.  0.
        998    1    1    2    0    0  0.13531102831E+02 -0.18104556727E+02  0.94613149675E+03  0.94645426453E+03  0.10000000000E+02 0. -1.
</event>
<event>
 5    1  0.9123258E-009  0.3859083E+03  0.7957747E-01  0.3425829E+00
         13   -1    0    0    0    0  0.00000000000E+00  0.00000000000E+00  0.14999999963E+04  0.15000000000E+04  0.10566000000E+00 0. -1.
        994   -1    0    0    0    0 -0.00000000000E+00 -0.00000000000E+00  0.11368683772E-12  0.17120000000E+03  0.17120000000E+03 0.  0.
         13    1    1    2    0    0  0.22035968164E+01  0.10723454820E+02  0.51956715689E+02  0.53097643934E+02  0.10566000000E+00 0. -1.
        994    1    1    2    0    0 -0.61403026722E+01 -0.43583954599E+01  0.13657995343E+01  0.17137095535E+03  0.17120000000E+03 0.  0.
        998    1    1    2    0    0  0.39367058558E+01 -0.63650593599E+01  0.14466774811E+04  0.14467314007E+04  0.10000000000E+02 0. -1.
</event>
<event>
 5    1  0.9123258E-009  0.3822952E+03  0.7957747E-01  0.3441225E+00
         13   -1    0    0    0    0  0.00000000000E+00  0.00000000000E+00  0.14999999963E+04  0.15000000000E+04  0.10566000000E+00 0. -1.
        994   -1    0    0    0    0 -0.00000000000E+00 -0.00000000000E+00  0.11368683772E-12  0.17120000000E+03  0.17120000000E+03 0.  0.
         13    1    1    2    0    0  0.22181803537E+03  0.17618543236E+03  0.81292421962E+03  0.86086604382E+03  0.10566000000E+00 0. -1.
        994    1    1    2    0    0 -0.24288330001E+03 -0.19613312923E+03  0.46251702500E+03  0.58368822176E+03  0.17120000000E+03 0.  0.
        998    1    1    2    0    0  0.21065264638E+02  0.19947696866E+02  0.22455875166E+03  0.22664573442E+03  0.10000000000E+02 0. -1.
</event>
<event>
 5    1  0.9123258E-009  0.3751708E+03  0.7957747E-01  0.3472459E+00
         13   -1    0    0    0    0  0.00000000000E+00  0.00000000000E+00  0.14999999963E+04  0.15000000000E+04  0.10566000000E+00 0. -1.
        994   -1    0    0    0    0 -0.00000000000E+00 -0.00000000000E+00  0.11368683772E-12  0.17120000000E+03  0.17120000000E+03 0.  0.
         13    1    1    2    0    0  0.12267264876E+03  0.33465691169E+01  0.62171932842E+03  0.63371500911E+03  0.10566000000E+00 0. -1.
        994    1    1    2    0    0 -0.12483812294E+03 -0.22055856251E+02  0.63310146279E+02  0.22223553352E+03  0.17120000000E+03 0.  0.
        998    1    1    2    0    0  0.21654741831E+01  0.18709287134E+02  0.81497052158E+03  0.81524945737E+03  0.10000000000E+02 0. -1.
</event>
<event>
 5    1  0.9123258E-009  0.3740556E+03  0.7957747E-01  0.3477457E+00
         13   -1    0    0    0    0  0.00000000000E+00  0.00000000000E+00  0.14999999963E+04  0.15000000000E+04  0.10566000000E+00 0. -1.
        994   -1    0    0    0    0 -0.00000000000E+00 -0.00000000000E+00  0.11368683772E-12  0.17120000000E+03  0.17120000000E+03 0.  0.
         13    1    1    2    0    0  0.10243813763E+02 -0.22106626278E+02  0.40056886707E+02  0.46885008078E+02  0.10566000000E+00 0. -1.
        994    1    1    2    0    0 -0.33814353589E+01  0.18574102148E+01  0.72152582261E+01  0.17139540259E+03  0.17120000000E+03 0.  0.
        998    1    1    2    0    0 -0.68623784044E+01  0.20249216063E+02  0.14527278513E+04  0.14529195893E+04  0.10000000000E+02 0. -1.
</event>
<event>
 5    1  0.9123258E-009  0.3845285E+03  0.7957747E-01  0.3431675E+00
         13   -1    0    0    0    0  0.00000000000E+00  0.00000000000E+00  0.14999999963E+04  0.15000000000E+04  0.10566000000E+00 0. -1.
        994   -1    0    0    0    0 -0.00000000000E+00 -0.00000000000E+00  0.11368683772E-12  0.17120000000E+03  0.17120000000E+03 0.  0.
         13    1    1    2    0    0  0.13723778012E+02 -0.58707599402E+01  0.60526367808E+02  0.62339877039E+02  0.10566000000E+00 0. -1.
        994    1    1    2    0    0 -0.60769473439E+01  0.34272944609E+01  0.20247687287E+01  0.17135406422E+03  0.17120000000E+03 0.  0.
        998    1    1    2    0    0 -0.76468306679E+01  0.24434654793E+01  0.14374488597E+04  0.14375060587E+04  0.10000000000E+02 0. -1.
</event>
<event>
 5    1  0.9123258E-009  0.3833812E+03  0.7957747E-01  0.3436567E+00
         13   -1    0    0    0    0  0.00000000000E+00  0.00000000000E+00  0.14999999963E+04  0.15000000000E+04  0.10566000000E+00 0.  1.
        994   -1    0    0    0    0 -0.00000000000E+00 -0.00000000000E+00  0.11368683772E-12  0.17120000000E+03  0.17120000000E+03 0.  0.
         13    1    1    2    0    0  0.22570975168E+02 -0.60144496297E+01  0.12024643250E+03  0.12249423748E+03  0.10566000000E+00 0.  1.
        994    1    1    2    0    0 -0.10249765105E+01  0.11449428076E+02  0.28729442387E+01  0.17160953875E+03  0.17120000000E+03 0.  0.
        998    1    1    2    0    0 -0.21545998658E+02 -0.54349784466E+01  0.13768806195E+04  0.13770962238E+04  0.10000000000E+02 0.  1.
</event>
<event>
 5    1  0.9123258E-009  0.3822863E+03  0.7957747E-01  0.3441263E+00
         13   -1    0    0    0    0  0.00000000000E+00  0.00000000000E+00  0.14999999963E+04  0.15000000000E+04  0.10566000000E+00 0.  1.
        994   -1    0    0    0    0 -0.00000000000E+00 -0.00000000000E+00  0.11368683772E-12  0.17120000000E+03  0.17120000000E+03 0.  0.
         13    1    1    2    0    0  0.10306998826E+03 -0.23534341530E+02  0.62102067041E+03  0.62995553172E+03  0.10566000000E+00 0.  1.
        994    1    1    2    0    0 -0.14250280116E+03  0.41331209015E+01  0.73634298867E+02  0.23463925715E+03  0.17120000000E+03 0.  0.
        998    1    1    2    0    0  0.39432812899E+02  0.19401220629E+02  0.80534502700E+03  0.80660521113E+03  0.10000000000E+02 0.  1.
</event>
<event>
 5    1  0.9123258E-009  0.3860119E+03  0.7957747E-01  0.3425392E+00
         13   -1    0    0    0    0  0.00000000000E+00  0.00000000000E+00  0.14999999963E+04  0.15000000000E+04  0.10566000000E+00 0.  1.
        994   -1    0    0    0    0 -0.00000000000E+00 -0.00000000000E+00  0.11368683772E-12  0.17120000000E+03  0.17120000000E+03 0.  0.
         13    1    1    2    0    0  0.97340628766E+01  0.26034312871E+01  0.49830659250E+02  0.50839311559E+02  0.10566000000E+00 0.  1.
        994    1    1    2    0    0  0.50865993509E+01  0.65857323270E+01  0.13555746376E+01  0.17140747634E+03  0.17120000000E+03 0.  0.
        998    1    1    2    0    0 -0.14820662227E+02 -0.91891636142E+01  0.14488137624E+04  0.14489532121E+04  0.10000000000E+02 0.  1.
</event>
<event>
 5    1  0.9123258E-009  0.3767411E+03  0.7957747E-01  0.3465472E+00
         13   -1    0    0    0    0  0.00000000000E+00  0.00000000000E+00  0.14999999963E+04  0.15000000000E+04  0.10566000000E+00 0.  1.
        994   -1    0    0    0    0 -0.00000000000E+00 -0.00000000000E+00  0.11368683772E-12  0.17120000000E+03  0.17120000000E+03 0.  0.
         13    1    1    2    0    0  0.41094909127E+02  0.24137158256E+01  0.13061552733E+03  0.13694905886E+03  0.10566000000E+00 0.  1.
        994    1    1    2    0    0 -0.44142628488E+02 -0.53229440479E+01  0.12497330052E+02  0.17732041237E+03  0.17120000000E+03 0.  0.
        998    1    1    2    0    0  0.30477193613E+01  0.29092282223E+01  0.13568871389E+04  0.13569305288E+04  0.10000000000E+02 0.  1.
</event>
<event>
 5    1  0.9123258E-009  0.3823392E+03  0.7957747E-01  0.3441036E+00
         13   -1    0    0    0    0  0.00000000000E+00  0.00000000000E+00  0.14999999963E+04  0.15000000000E+04  0.10566000000E+00 0.  1.
        994   -1    0    0    0    0 -0.00000000000E+00 -0.00000000000E+00  0.11368683772E-12  0.17120000000E+03  0.17120000000E+03 0.  0.
         13    1    1    2    0    0  0.36056720527E+00 -0.33698220586E+02  0.16420373717E+03  0.16762630624E+03  0.10566000000E+00 0.  1.
        994    1    1    2    0    0 -0.66946933724E+00  0.39913510751E+02  0.82612468773E+01  0.17598643337E+03  0.17120000000E+03 0.  0.
        998    1    1    2    0    0  0.30890213197E+00 -0.62152901648E+01  0.13275350122E+04  0.13275872604E+04  0.10000000000E+02 0.  1.
</event>
<event>
 5    1  0.9123258E-009  0.3745440E+03  0.7957747E-01  0.3475265E+00
         13   -1    0    0    0    0  0.00000000000E+00  0.00000000000E+00  0.14999999963E+04  0.15000000000E+04  0.10566000000E+00 0.  1.
        994   -1    0    0    0    0 -0.00000000000E+00 -0.00000000000E+00  0.11368683772E-12  0.17120000000E+03  0.17120000000E+03 0.  0.
         13    1    1    2    0    0 -0.79267511882E+01 -0.24265824028E+02  0.43839207831E+02  0.50730177482E+02  0.10566000000E+00 0.  1.
        994    1    1    2    0    0 -0.57893922763E+01  0.24241144629E+02  0.90306460550E+01  0.17324013024E+03  0.17120000000E+03 0.  0.
        998    1    1    2    0    0  0.13716143464E+02  0.24679398787E-01  0.14471301424E+04  0.14472296923E+04  0.10000000000E+02 0.  1.
</event>
<event>
 5    1  0.9123258E-009  0.4205032E+03  0.7957747E-01  0.3291775E+00
         13   -1    0    0    0    0  0.00000000000E+00  0.00000000000E+00  0.14999999963E+04  0.15000000000E+04  0.10566000000E+00 0. -1.
        994   -1    0    0    0    0 -0.00000000000E+00 -0.00000000000E+00  0.11368683772E-12  0.17120000000E+03  0.17120000000E+03 0.  0.
         13    1    1    2    0    0  0.13605152211E+03  0.60090485473E+02  0.21219081485E+03  0.25912513615E+03  0.10566000000E+00 0. -1.
        994    1    1    2    0    0 -0.13452544289E+03 -0.71403806872E+02  0.14935105279E+03  0.27351558528E+03  0.17120000000E+03 0.  0.
        998    1    1    2    0    0 -0.15260792222E+01  0.11313321399E+02  0.11384581286E+04  0.11385592786E+04  0.10000000000E+02 0. -1.
</event>
<event>
 5    1  0.9123258E-009  0.3838841E+03  0.7957747E-01  0.3434419E+00
         13   -1    0    0    0    0  0.00000000000E+00  0.00000000000E+00  0.14999999963E+04  0.15000000000E+04  0.10566000000E+00 0. -1.
        994   -1    0    0    0    0 -0.00000000000E+00 -0.00000000000E+00  0.11368683772E-12  0.17120000000E+03  0.17120000000E+03 0.  0.
         13    1    1    2    0    0 -0.37701190347E+01 -0.11385451424E+02  0.32404896497E+02  0.34553303498E+02  0.10566000000E+00 0.  1.
        994    1    1    2    0    0  0.27362460902E+01  0.68883236638E+01  0.23665021550E+01  0.17137670897E+03  0.17120000000E+03 0.  0.
        998    1    1    2    0    0  0.10338729445E+01  0.44971277601E+01  0.14652285976E+04  0.14652699875E+04  0.10000000000E+02 0. -1.
</event>
<event>
 5    1  0.9123258E-009  0.3705723E+03  0.7957747E-01  0.3493265E+00
         13   -1    0    0    0    0  0.00000000000E+00  0.00000000000E+00  0.14999999963E+04  0.15000000000E+04  0.10566000000E+00 0. -1.
        994   -1    0    0    0    0 -0.00000000000E+00 -0.00000000000E+00  0.11368683772E-12  0.17120000000E+03  0.17120000000E+03 0.  0.
         13    1    1    2    0    0  0.12369647027E+02  0.36600883311E+01  0.51848261142E+01  0.13903165109E+02  0.10566000000E+00 0. -1.
        994    1    1    2    0    0 -0.66816834756E+01 -0.62962164049E+01  0.92611616733E+01  0.17169594157E+03  0.17120000000E+03 0.  0.
        998    1    1    2    0    0 -0.56879635518E+01  0.26361280738E+01  0.14855540085E+04  0.14856008933E+04  0.10000000000E+02 0. -1.
</event>
<event>
 5    1  0.9123258E-009  0.3763250E+03  0.7957747E-01  0.3467318E+00
         13   -1    0    0    0    0  0.00000000000E+00  0.00000000000E+00  0.14999999963E+04  0.15000000000E+04  0.10566000000E+00 0.  1.
        994   -1    0    0    0    0 -0.00000000000E+00 -0.00000000000E+00  0.11368683772E-12  0.17120000000E+03  0.17120000000E+03 0.  0.
         13    1    1    2    0    0  0.37654788162E+02  0.32596668763E+02  0.27154509945E+03  0.27607458790E+03  0.10566000000E+00 0.  1.
        994    1    1    2    0    0 -0.67613832053E+01  0.18503196230E+02  0.73143052873E+01  0.17248485045E+03  0.17120000000E+03 0.  0.
        998    1    1    2    0    0 -0.30893404956E+02 -0.51099864993E+02  0.12211405915E+04  0.12226405616E+04  0.10000000000E+02 0.  1.
</event>
<event>
 5    1  0.9123258E-009  0.3791066E+03  0.7957747E-01  0.3455058E+00
         13   -1    0    0    0    0  0.00000000000E+00  0.00000000000E+00  0.14999999963E+04  0.15000000000E+04  0.10566000000E+00 0. -1.
        994   -1    0    0    0    0 -0.00000000000E+00 -0.00000000000E+00  0.11368683772E-12  0.17120000000E+03  0.17120000000E+03 0.  0.
         13    1    1    2    0    0  0.17020159402E+00  0.11644337312E+02  0.12674636550E+02  0.17212702743E+02  0.10566000000E+00 0. -1.
        994    1    1    2    0    0 -0.25555852650E+00 -0.11863325126E+02  0.50570406302E+01  0.17168522782E+03  0.17120000000E+03 0.  0.
        998    1    1    2    0    0  0.85356932490E-01  0.21898781475E+00  0.14822683191E+04  0.14823020694E+04  0.10000000000E+02 0. -1.
</event>
<event>
 5    1  0.9123258E-009  0.3862668E+03  0.7957747E-01  0.3424317E+00
         13   -1    0    0    0    0  0.00000000000E+00  0.00000000000E+00  0.14999999963E+04  0.15000000000E+04  0.10566000000E+00 0. -1.
        994   -1    0    0    0    0 -0.00000000000E+00 -0.00000000000E+00  0.11368683772E-12  0.17120000000E+03  0.17120000000E+03 0.  0.
         13    1    1    2    0    0 -0.52050086370E+01 -0.10671027365E+02  0.69692905054E+02  0.70697065843E+02  0.10566000000E+00 0. -1.
        994    1    1    2    0    0  0.73521862082E+01  0.85651848064E+01  0.14199149320E+01  0.17157760108E+03  0.17120000000E+03 0.  0.
        998    1    1    2    0    0 -0.21471775713E+01  0.21058425591E+01  0.14288871763E+04  0.14289253331E+04  0.10000000000E+02 0. -1.
</event>
<event>
 5    1  0.9123258E-009  0.3856906E+03  0.7957747E-01  0.3426749E+00
         13   -1    0    0    0    0  0.00000000000E+00  0.00000000000E+00  0.14999999963E+04  0.15000000000E+04  0.10566000000E+00 0. -1.
        994   -1    0    0    0    0 -0.00000000000E+00 -0.00000000000E+00  0.11368683772E-12  0.17120000000E+03  0.17120000000E+03 0.  0.
         13    1    1    2    0    0  0.13196804007E+02 -0.37634174561E+01  0.72650804465E+02  0.73935576689E+02  0.10566000000E+00 0. -1.
        994    1    1    2    0    0 -0.91550260222E+01  0.77276141933E+01  0.17587716762E+01  0.17162768949E+03  0.17120000000E+03 0.  0.
        998    1    1    2    0    0 -0.40417779844E+01 -0.39641967372E+01  0.14255904201E+04  0.14256367338E+04  0.10000000000E+02 0. -1.
</event>
<event>
 5    1  0.9123258E-009  0.3737830E+03  0.7957747E-01  0.3478684E+00
         13   -1    0    0    0    0  0.00000000000E+00  0.00000000000E+00  0.14999999963E+04  0.15000000000E+04  0.10566000000E+00 0.  1.
        994   -1    0    0    0    0 -0.00000000000E+00 -0.00000000000E+00  0.11368683772E-12  0.17120000000E+03  0.17120000000E+03 0.  0.
         13    1    1    2    0    0  0.65160188615E+01 -0.54828945602E+02  0.19605347327E+03  0.20368025756E+03  0.10566000000E+00 0.  1.
        994    1    1    2    0    0  0.16631097767E+02  0.43799071884E+02  0.14834100083E+02  0.17811356668E+03  0.17120000000E+03 0.  0.
        998    1    1    2    0    0 -0.23147116628E+02  0.11029873718E+02  0.12891124229E+04  0.12894061758E+04  0.10000000000E+02 0.  1.
</event>
<event>
 5    1  0.9123258E-009  0.3815762E+03  0.7957747E-01  0.3444324E+00
         13   -1    0    0    0    0  0.00000000000E+00  0.00000000000E+00  0.14999999963E+04  0.15000000000E+04  0.10566000000E+00 0. -1.
        994   -1    0    0    0    0 -0.00000000000E+00 -0.00000000000E+00  0.11368683772E-12  0.17120000000E+03  0.17120000000E+03 0.  0.
         13    1    1    2    0    0 -0.21514772305E+02  0.14658057051E+02  0.96059789578E+02  0.99525064188E+02  0.10566000000E+00 0. -1.
        994    1    1    2    0    0  0.18983491806E+02 -0.14664506997E+02  0.52555612788E+01  0.17295225252E+03  0.17120000000E+03 0.  0.
        998    1    1    2    0    0  0.25312804989E+01  0.64499460988E-02  0.13986846454E+04  0.13987226833E+04  0.10000000000E+02 0. -1.
</event>
<event>
 5    1  0.9123258E-009  0.3824434E+03  0.7957747E-01  0.3440588E+00
         13   -1    0    0    0    0  0.00000000000E+00  0.00000000000E+00  0.14999999963E+04  0.15000000000E+04  0.10566000000E+00 0.  1.
        994   -1    0    0    0    0 -0.00000000000E+00 -0.00000000000E+00  0.11368683772E-12  0.17120000000E+03  0.17120000000E+03 0.  0.
         13    1    1    2    0    0  0.21595036509E+02  0.17563406826E+02  0.15929696215E+03  0.16171070520E+03  0.10566000000E+00 0.  1.
        994    1    1    2    0    0  0.33539440023E+01  0.63664547054E+01  0.30765302395E+01  0.17137877851E+03  0.17120000000E+03 0.  0.
        998    1    1    2    0    0 -0.24948980511E+02 -0.23929861531E+02  0.13376265039E+04  0.13381105163E+04  0.10000000000E+02 0.  1.
</event>
<event>
 5    1  0.9123258E-009  0.3779796E+03  0.7957747E-01  0.3460003E+00
         13   -1    0    0    0    0  0.00000000000E+00  0.00000000000E+00  0.14999999963E+04  0.15000000000E+04  0.10566000000E+00 0.  1.
        994   -1    0    0    0    0 -0.00000000000E+00 -0.00000000000E+00  0.11368683772E-12  0.17120000000E+03  0.17120000000E+03 0.  0.
         13    1    1    2    0    0  0.15305314338E+02  0.49674279481E+02  0.25296761066E+03  0.25825260869E+03  0.10566000000E+00 0.  1.
        994    1    1    2    0    0 -0.45137240091E+02 -0.23159236760E+02  0.13867498995E+02  0.17909625406E+03  0.17120000000E+03 0.  0.
        998    1    1    2    0    0  0.29831925753E+02 -0.26515042721E+02  0.12331648866E+04  0.12338511372E+04  0.10000000000E+02 0.  1.
</event>
<event>
 5    1  0.9123258E-009  0.3855797E+03  0.7957747E-01  0.3427217E+00
         13   -1    0    0    0    0  0.00000000000E+00  0.00000000000E+00  0.14999999963E+04  0.15000000000E+04  0.10566000000E+00 0. -1.
        994   -1    0    0    0    0 -0.00000000000E+00 -0.00000000000E+00  0.11368683772E-12  0.17120000000E+03  0.17120000000E+03 0.  0.
         13    1    1    2    0    0  0.52499672494E+01  0.13184872182E+02  0.77447341578E+02  0.78736934739E+02  0.10566000000E+00 0. -1.
        994    1    1    2    0    0  0.17127732174E+02 -0.13924980124E+02  0.29436772553E+01  0.17264231670E+03  0.17120000000E+03 0.  0.
        998    1    1    2    0    0 -0.22377699423E+02  0.74010794197E+00  0.14196089774E+04  0.14198207486E+04  0.10000000000E+02 0. -1.
</event>
<event>
 5    1  0.9123258E-009  0.3859728E+03  0.7957747E-01  0.3425557E+00
         13   -1    0    0    0    0  0.00000000000E+00  0.00000000000E+00  0.14999999963E+04  0.15000000000E+04  0.10566000000E+00 0. -1.
        994   -1    0    0    0    0 -0.00000000000E+00 -0.00000000000E+00  0.11368683772E-12  0.17120000000E+03  0.17120000000E+03 0.  0.
         13    1    1    2    0    0  0.94342183215E+01  0.91257096200E+01  0.76638898925E+02  0.77754839360E+02  0.10566000000E+00 0. -1.
        994    1    1    2    0    0 -0.10364709464E+02 -0.78381793640E-01  0.15002288114E+01  0.17152003974E+03  0.17120000000E+03 0.  0.
        998    1    1    2    0    0  0.93049114293E+00 -0.90473278264E+01  0.14218608685E+04  0.14219251209E+04  0.10000000000E+02 0. -1.
</event>
<event>
 5    1  0.9123258E-009  0.3853156E+03  0.7957747E-01  0.3428335E+00
         13   -1    0    0    0    0  0.00000000000E+00  0.00000000000E+00  0.14999999963E+04  0.15000000000E+04  0.10566000000E+00 0.  1.
        994   -1    0    0    0    0 -0.00000000000E+00 -0.00000000000E+00  0.11368683772E-12  0.17120000000E+03  0.17120000000E+03 0.  0.
         13    1    1    2    0    0  0.64792412947E+02  0.74236702143E+02  0.25962785867E+03  0.27769728281E+03  0.10566000000E+00 0.  1.
        994    1    1    2    0    0 -0.19359875043E+02 -0.48495592129E+02  0.29424777826E+02  0.18138876693E+03  0.17120000000E+03 0.  0.
        998    1    1    2    0    0 -0.45432537904E+02 -0.25741110014E+02  0.12109473598E+04  0.12121139503E+04  0.10000000000E+02 0.  1.
</event>
<event>
 5    1  0.9123258E-009  0.3713249E+03  0.7957747E-01  0.3489824E+00
         13   -1    0    0    0    0  0.00000000000E+00  0.00000000000E+00  0.14999999963E+04  0.15000000000E+04  0.10566000000E+00 0.  1.
        994   -1    0    0    0    0 -0.00000000000E+00 -0.00000000000E+00  0.11368683772E-12  0.17120000000E+03  0.17120000000E+03 0.  0.
         13    1    1    2    0    0  0.63030704028E+02  0.16818339433E+02  0.28545872341E+03  0.29281806660E+03  0.10566000000E+00 0.  1.
        994    1    1    2    0    0 -0.17567666791E+02  0.67319005765E+01  0.97973457369E+01  0.17250904146E+03  0.17120000000E+03 0.  0.
        998    1    1    2    0    0 -0.45463037237E+02 -0.23550240009E+02  0.12047439271E+04  0.12058728919E+04  0.10000000000E+02 0.  1.
</event>
<event>
 5    1  0.9123258E-009  0.3851941E+03  0.7957747E-01  0.3428849E+00
         13   -1    0    0    0    0  0.00000000000E+00  0.00000000000E+00  0.14999999963E+04  0.15000000000E+04  0.10566000000E+00 0.  1.
        994   -1    0    0    0    0 -0.00000000000E+00 -0.00000000000E+00  0.11368683772E-12  0.17120000000E+03  0.17120000000E+03 0.  0.
         13    1    1    2    0    0  0.33674762173E+01 -0.17388830373E+02  0.97454818092E+02  0.99051320290E+02  0.10566000000E+00 0.  1.
        994    1    1    2    0    0 -0.93349992085E+01  0.16261749580E+02  0.26901674581E+01  0.17224477847E+03  0.17120000000E+03 0.  0.
        998    1    1    2    0    0  0.59675229912E+01  0.11270807931E+01  0.13998550107E+04  0.13999039012E+04  0.10000000000E+02 0.  1.
</event>
<event>
 5    1  0.9123258E-009  0.3855683E+03  0.7957747E-01  0.3427265E+00
         13   -1    0    0    0    0  0.00000000000E+00  0.00000000000E+00  0.14999999963E+04  0.15000000000E+04  0.10566000000E+00 0.  1.
        994   -1    0    0    0    0 -0.00000000000E+00 -0.00000000000E+00  0.11368683772E-12  0.17120000000E+03  0.17120000000E+03 0.  0.
         13    1    1    2    0    0 -0.11138638105E+02 -0.37530426376E+01  0.51899412336E+02  0.53213858653E+02  0.10566000000E+00 0.  1.
        994    1    1    2    0    0  0.66199961643E+01  0.12649738368E+01  0.14973592133E+01  0.17133915662E+03  0.17120000000E+03 0.  0.
        998    1    1    2    0    0  0.45186419403E+01  0.24880688008E+01  0.14466032247E+04  0.14466469847E+04  0.10000000000E+02 0.  1.
</event>
<event>
 5    1  0.9123258E-009  0.3749683E+03  0.7957747E-01  0.3473364E+00
         13   -1    0    0    0    0  0.00000000000E+00  0.00000000000E+00  0.14999999963E+04  0.15000000000E+04  0.10566000000E+00 0. -1.
        994   -1    0    0    0    0 -0.00000000000E+00 -0.00000000000E+00  0.11368683772E-12  0.17120000000E+03  0.17120000000E+03 0.  0.
         13    1    1    2    0    0 -0.14865963603E+02 -0.34933598549E+01  0.14609792903E+02  0.21134276653E+02  0.10566000000E+00 0. -1.
        994    1    1    2    0    0  0.68675193980E+01  0.14691801623E+01  0.68626791873E+01  0.17148136248E+03  0.17120000000E+03 0.  0.
        998    1    1    2    0    0  0.79984442055E+01  0.20241796927E+01  0.14785275242E+04  0.14785843609E+04  0.10000000000E+02 0. -1.
</event>
<event>
 5    1  0.9123258E-009  0.3753094E+03  0.7957747E-01  0.3471840E+00
         13   -1    0    0    0    0  0.00000000000E+00  0.00000000000E+00  0.14999999963E+04  0.15000000000E+04  0.10566000000E+00 0. -1.
        994   -1    0    0    0    0 -0.00000000000E+00 -0.00000000000E+00  0.11368683772E-12  0.17120000000E+03  0.17120000000E+03 0.  0.
         13    1    1    2    0    0 -0.41334148549E+02  0.41341459663E+02  0.23215811544E+03  0.23940557607E+03  0.10566000000E+00 0. -1.
        994    1    1    2    0    0  0.36303773867E+02 -0.35946074132E+02  0.15434957284E+02  0.17932585466E+03  0.17120000000E+03 0.  0.
        998    1    1    2    0    0  0.50303746820E+01 -0.53953855310E+01  0.12524069235E+04  0.12524685693E+04  0.10000000000E+02 0. -1.
</event>
<event>
 5    1  0.9123258E-009  0.3704401E+03  0.7957747E-01  0.3493871E+00
         13   -1    0    0    0    0  0.00000000000E+00  0.00000000000E+00  0.14999999963E+04  0.15000000000E+04  0.10566000000E+00 0. -1.
        994   -1    0    0    0    0 -0.00000000000E+00 -0.00000000000E+00  0.11368683772E-12  0.17120000000E+03  0.17120000000E+03 0.  0.
         13    1    1    2    0    0 -0.99855044052E+02  0.11869466662E+03  0.63414948736E+03  0.65284380766E+03  0.10566000000E+00 0. -1.
        994    1    1    2    0    0  0.10724213012E+03 -0.12219738116E+03  0.10668939144E+03  0.25908519966E+03  0.17120000000E+03 0.  0.
        998    1    1    2    0    0 -0.73870860691E+01  0.35027145380E+01  0.75916111747E+03  0.75927099269E+03  0.10000000000E+02 0.  0.
</event>
<event>
 5    1  0.9123258E-009  0.3799231E+03  0.7957747E-01  0.3451493E+00
         13   -1    0    0    0    0  0.00000000000E+00  0.00000000000E+00  0.14999999963E+04  0.15000000000E+04  0.10566000000E+00 0. -1.
        994   -1    0    0    0    0 -0.00000000000E+00 -0.00000000000E+00  0.11368683772E-12  0.17120000000E+03  0.17120000000E+03 0.  0.
         13    1    1    2    0    0  0.14507858048E+02  0.16742813904E+02  0.58918045200E+02  0.62945587429E+02  0.10566000000E+00 0. -1.
        994    1    1    2    0    0 -0.17833086867E+02  0.56747209985E+01  0.53439069040E+01  0.17230269524E+03  0.17120000000E+03 0.  0.
        998    1    1    2    0    0  0.33252288186E+01 -0.22417534902E+02  0.14357380442E+04  0.14359517173E+04  0.10000000000E+02 0. -1.
</event>
<event>
 5    1  0.9123258E-009  0.3796961E+03  0.7957747E-01  0.3452483E+00
         13   -1    0    0    0    0  0.00000000000E+00  0.00000000000E+00  0.14999999963E+04  0.15000000000E+04  0.10566000000E+00 0. -1.
        994   -1    0    0    0    0 -0.00000000000E+00 -0.00000000000E+00  0.11368683772E-12  0.17120000000E+03  0.17120000000E+03 0.  0.
         13    1    1    2    0    0 -0.24205135765E+01 -0.20335520273E+02  0.48090582354E+02  0.52269566154E+02  0.10566000000E+00 0. -1.
        994    1    1    2    0    0 -0.61119672887E+01  0.96795497467E+01  0.47252766708E+01  0.17164736545E+03  0.17120000000E+03 0.  0.
        998    1    1    2    0    0  0.85324808652E+01  0.10655970526E+02  0.14471841373E+04  0.14472830684E+04  0.10000000000E+02 0. -1.
</event>
<event>
 5    1  0.9123258E-009  0.3793153E+03  0.7957747E-01  0.3454145E+00
         13   -1    0    0    0    0  0.00000000000E+00  0.00000000000E+00  0.14999999963E+04  0.15000000000E+04  0.10566000000E+00 0. -1.
        994   -1    0    0    0    0 -0.00000000000E+00 -0.00000000000E+00  0.11368683772E-12  0.17120000000E+03  0.17120000000E+03 0.  0.
         13    1    1    2    0    0  0.20183928927E+01  0.44512009718E+02  0.20419846742E+03  0.20900339275E+03  0.10566000000E+00 0. -1.
        994    1    1    2    0    0 -0.15641991617E+02 -0.35775302006E+02  0.96041459306E+01  0.17585853336E+03  0.17120000000E+03 0.  0.
        998    1    1    2    0    0  0.13623598724E+02 -0.87367077119E+01  0.12861973829E+04  0.12863380739E+04  0.10000000000E+02 0. -1.
</event>
<event>
 5    1  0.9123258E-009  0.3845610E+03  0.7957747E-01  0.3431536E+00
         13   -1    0    0    0    0  0.00000000000E+00  0.00000000000E+00  0.14999999963E+04  0.15000000000E+04  0.10566000000E+00 0. -1.
        994   -1    0    0    0    0 -0.00000000000E+00 -0.00000000000E+00  0.11368683772E-12  0.17120000000E+03  0.17120000000E+03 0.  0.
         13    1    1    2    0    0  0.19163243650E+02 -0.58872427219E+00  0.98281173295E+02  0.10013379395E+03  0.10566000000E+00 0. -1.
        994    1    1    2    0    0 -0.13718669370E+02 -0.52277270501E+01  0.25583982303E+01  0.17184736373E+03  0.17120000000E+03 0.  0.
        998    1    1    2    0    0 -0.54445742796E+01  0.58164513223E+01  0.13991604248E+04  0.13992188423E+04  0.10000000000E+02 0. -1.
</event>
<event>
 5    1  0.9123258E-009  0.3836833E+03  0.7957747E-01  0.3435276E+00
         13   -1    0    0    0    0  0.00000000000E+00  0.00000000000E+00  0.14999999963E+04  0.15000000000E+04  0.10566000000E+00 0. -1.
        994   -1    0    0    0    0 -0.00000000000E+00 -0.00000000000E+00  0.11368683772E-12  0.17120000000E+03  0.17120000000E+03 0.  0.
         13    1    1    2    0    0 -0.70281010348E+01 -0.22541432752E+02  0.11039243955E+03  0.11288938068E+03  0.10566000000E+00 0. -1.
        994    1    1    2    0    0  0.93376899958E+01  0.26701211370E+02  0.49324539146E+01  0.17359123320E+03  0.17120000000E+03 0.  0.
        998    1    1    2    0    0 -0.23095889610E+01 -0.41597786176E+01  0.13846751028E+04  0.13847193861E+04  0.10000000000E+02 0. -1.
</event>
<event>
 5    1  0.9123258E-009  0.3738569E+03  0.7957747E-01  0.3478351E+00
         13   -1    0    0    0    0  0.00000000000E+00  0.00000000000E+00  0.14999999963E+04  0.15000000000E+04  0.10566000000E+00 0.  1.
        994   -1    0    0    0    0 -0.00000000000E+00 -0.00000000000E+00  0.11368683772E-12  0.17120000000E+03  0.17120000000E+03 0.  0.
         13    1    1    2    0    0 -0.23930476012E+01  0.42136660250E+02  0.11766011939E+03  0.12500055869E+03  0.10566000000E+00 0.  1.
        994    1    1    2    0    0  0.56662858809E+01 -0.29839626835E+02  0.10421293620E+02  0.17418539975E+03  0.17120000000E+03 0.  0.
        998    1    1    2    0    0 -0.32732382797E+01 -0.12297033415E+02  0.13719185833E+04  0.13720140416E+04  0.10000000000E+02 0.  1.
</event>
<event>
 5    1  0.9123258E-009  0.3073399E+03  0.7957747E-01  0.3844973E+00
         13   -1    0    0    0    0  0.00000000000E+00  0.00000000000E+00  0.14999999963E+04  0.15000000000E+04  0.10566000000E+00 0.  1.
        994   -1    0    0    0    0 -0.00000000000E+00 -0.00000000000E+00  0.11368683772E-12  0.17120000000E+03  0.17120000000E+03 0.  0.
         13    1    1    2    0    0 -0.24550322128E+03 -0.49508629113E+02  0.49692230101E+03  0.55646627968E+03  0.10566000000E+00 0.  1.
        994    1    1    2    0    0  0.23182292387E+03  0.84489894097E+02  0.35286878665E+03  0.46336403705E+03  0.17120000000E+03 0.  0.
        998    1    1    2    0    0  0.13680297408E+02 -0.34981264984E+02  0.65020890862E+03  0.65136968327E+03  0.10000000000E+02 0. -1.
</event>
<event>
 5    1  0.9123258E-009  0.3804000E+03  0.7957747E-01  0.3449418E+00
         13   -1    0    0    0    0  0.00000000000E+00  0.00000000000E+00  0.14999999963E+04  0.15000000000E+04  0.10566000000E+00 0. -1.
        994   -1    0    0    0    0 -0.00000000000E+00 -0.00000000000E+00  0.11368683772E-12  0.17120000000E+03  0.17120000000E+03 0.  0.
         13    1    1    2    0    0 -0.10824884035E+02  0.35468368078E+01  0.14844488084E+02  0.18711711740E+02  0.10566000000E+00 0. -1.
        994    1    1    2    0    0  0.85565306053E+01  0.17993296899E+01  0.41866211651E+01  0.17147425346E+03  0.17120000000E+03 0.  0.
        998    1    1    2    0    0  0.22683534293E+01 -0.53461664977E+01  0.14809688870E+04  0.14810140348E+04  0.10000000000E+02 0. -1.
</event>
<event>
 5    1  0.9123258E-009  0.3753710E+03  0.7957747E-01  0.3471565E+00
         13   -1    0    0    0    0  0.00000000000E+00  0.00000000000E+00  0.14999999963E+04  0.15000000000E+04  0.10566000000E+00 0. -1.
        994   -1    0    0    0    0 -0.00000000000E+00 -0.00000000000E+00  0.11368683772E-12  0.17120000000E+03  0.17120000000E+03 0.  0.
         13    1    1    2    0    0 -0.20187816961E+02 -0.27419441309E+02  0.89379687867E+02  0.95645770855E+02  0.10566000000E+00 0. -1.
        994    1    1    2    0    0 -0.10125496414E+01  0.18777927682E+02  0.76898019059E+01  0.17240130185E+03  0.17120000000E+03 0.  0.
        998    1    1    2    0    0  0.21200366603E+02  0.86415136268E+01  0.14029305065E+04  0.14031529273E+04  0.10000000000E+02 0. -1.
</event>
<event>
 5    1  0.9123258E-009  0.3279916E+03  0.7957747E-01  0.3714452E+00
         13   -1    0    0    0    0  0.00000000000E+00  0.00000000000E+00  0.14999999963E+04  0.15000000000E+04  0.10566000000E+00 0. -1.
        994   -1    0    0    0    0 -0.00000000000E+00 -0.00000000000E+00  0.11368683772E-12  0.17120000000E+03  0.17120000000E+03 0.  0.
         13    1    1    2    0    0 -0.84436714745E+02  0.19785239464E+03  0.82166997361E+03  0.84936251716E+03  0.10566000000E+00 0. -1.
        994    1    1    2    0    0  0.74244125591E+02 -0.18851034663E+03  0.17402084507E+03  0.31723971298E+03  0.17120000000E+03 0.  0.
        998    1    1    2    0    0  0.10192589154E+02 -0.93420480070E+01  0.50430917760E+03  0.50459776986E+03  0.10000000000E+02 0.  0.
</event>
<event>
 5    1  0.9123258E-009  0.3839781E+03  0.7957747E-01  0.3434018E+00
         13   -1    0    0    0    0  0.00000000000E+00  0.00000000000E+00  0.14999999963E+04  0.15000000000E+04  0.10566000000E+00 0.  1.
        994   -1    0    0    0    0 -0.00000000000E+00 -0.00000000000E+00  0.11368683772E-12  0.17120000000E+03  0.17120000000E+03 0.  0.
         13    1    1    2    0    0  0.86405957087E+01  0.99822588458E+01  0.39781681337E+02  0.41915375698E+02  0.10566000000E+00 0.  1.
        994    1    1    2    0    0 -0.45933047291E+01 -0.11141317652E+02  0.26176557127E+01  0.17164358284E+03  0.17120000000E+03 0.  0.
        998    1    1    2    0    0 -0.40472909796E+01  0.11590588057E+01  0.14576006592E+04  0.14576410415E+04  0.10000000000E+02 0.  1.
</event>
<event>
 5    1  0.9123258E-009  0.3817226E+03  0.7957747E-01  0.3443692E+00
         13   -1    0    0    0    0  0.00000000000E+00  0.00000000000E+00  0.14999999963E+04  0.15000000000E+04  0.10566000000E+00 0.  1.
        994   -1    0    0    0    0 -0.00000000000E+00 -0.00000000000E+00  0.11368683772E-12  0.17120000000E+03  0.17120000000E+03 0.  0.
         13    1    1    2    0    0 -0.36130445219E+02 -0.11622443796E+02  0.22154549378E+03  0.22477301273E+03  0.10566000000E+00 0.  1.
        994    1    1    2    0    0  0.33283286455E+02 -0.27434433720E+02  0.94749571749E+01  0.17680395958E+03  0.17120000000E+03 0.  0.
        998    1    1    2    0    0  0.28471587645E+01  0.39056877515E+02  0.12689795453E+04  0.12696230277E+04  0.10000000000E+02 0.  1.
</event>
<event>
 5    1  0.9123258E-009  0.3721892E+03  0.7957747E-01  0.3485890E+00
         13   -1    0    0    0    0  0.00000000000E+00  0.00000000000E+00  0.14999999963E+04  0.15000000000E+04  0.10566000000E+00 0. -1.
        994   -1    0    0    0    0 -0.00000000000E+00 -0.00000000000E+00  0.11368683772E-12  0.17120000000E+03  0.17120000000E+03 0.  0.
         13    1    1    2    0    0  0.44128414638E+02 -0.72062238101E+01  0.12862744847E+03  0.13617737809E+03  0.10566000000E+00 0. -1.
        994    1    1    2    0    0 -0.59375816204E+01  0.41578582987E+02  0.14207306767E+02  0.17684829941E+03  0.17120000000E+03 0.  0.
        998    1    1    2    0    0 -0.38190833017E+02 -0.34372359177E+02  0.13571652410E+04  0.13581743225E+04  0.10000000000E+02 0. -1.
</event>
<event>
 5    1  0.9123258E-009  0.3764182E+03  0.7957747E-01  0.3466904E+00
         13   -1    0    0    0    0  0.00000000000E+00  0.00000000000E+00  0.14999999963E+04  0.15000000000E+04  0.10566000000E+00 0.  1.
        994   -1    0    0    0    0 -0.00000000000E+00 -0.00000000000E+00  0.11368683772E-12  0.17120000000E+03  0.17120000000E+03 0.  0.
         13    1    1    2    0    0 -0.44267155033E+02 -0.30853880595E+02  0.29452868793E+03  0.29943062993E+03  0.10566000000E+00 0.  1.
        994    1    1    2    0    0  0.12547299776E+02 -0.54947501761E+01  0.65872375959E+01  0.17187337988E+03  0.17120000000E+03 0.  0.
        998    1    1    2    0    0  0.31719855257E+02  0.36348630772E+02  0.11988840708E+04  0.11998959902E+04  0.10000000000E+02 0.  1.
</event>
<event>
 5    1  0.9123258E-009  0.3835390E+03  0.7957747E-01  0.3435892E+00
         13   -1    0    0    0    0  0.00000000000E+00  0.00000000000E+00  0.14999999963E+04  0.15000000000E+04  0.10566000000E+00 0. -1.
        994   -1    0    0    0    0 -0.00000000000E+00 -0.00000000000E+00  0.11368683772E-12  0.17120000000E+03  0.17120000000E+03 0.  0.
         13    1    1    2    0    0 -0.11400781438E+02 -0.32794106129E+01  0.33544472403E+02  0.35580544461E+02  0.10566000000E+00 0. -1.
        994    1    1    2    0    0 -0.27387605292E+02 -0.29977690574E+01  0.48694326134E+01  0.17347108957E+03  0.17120000000E+03 0.  0.
        998    1    1    2    0    0  0.38788386729E+02  0.62771796704E+01  0.14615860913E+04  0.14621483660E+04  0.10000000000E+02 0. -1.
</event>
<event>
 5    1  0.9123258E-009  0.3847489E+03  0.7957747E-01  0.3430738E+00
         13   -1    0    0    0    0  0.00000000000E+00  0.00000000000E+00  0.14999999963E+04  0.15000000000E+04  0.10566000000E+00 0.  1.
        994   -1    0    0    0    0 -0.00000000000E+00 -0.00000000000E+00  0.11368683772E-12  0.17120000000E+03  0.17120000000E+03 0.  0.
         13    1    1    2    0    0  0.14559200250E+02 -0.13105835744E+02  0.10347564501E+03  0.10531359607E+03  0.10566000000E+00 0.  1.
        994    1    1    2    0    0 -0.13509436710E+02  0.14106285167E+02  0.30114644601E+01  0.17233688253E+03  0.17120000000E+03 0.  0.
        998    1    1    2    0    0 -0.10497635402E+01 -0.10004494229E+01  0.13935128868E+04  0.13935495214E+04  0.10000000000E+02 0.  0.
</event>
<event>
 5    1  0.9123258E-009  0.3844468E+03  0.7957747E-01  0.3432022E+00
         13   -1    0    0    0    0  0.00000000000E+00  0.00000000000E+00  0.14999999963E+04  0.15000000000E+04  0.10566000000E+00 0. -1.
        994   -1    0    0    0    0 -0.00000000000E+00 -0.00000000000E+00  0.11368683772E-12  0.17120000000E+03  0.17120000000E+03 0.  0.
         13    1    1    2    0    0 -0.14263526085E+02  0.11337809276E+02  0.83105355816E+02  0.85079406586E+02  0.10566000000E+00 0. -1.
        994    1    1    2    0    0  0.15414058700E+02 -0.10268723153E+02  0.30359988792E+01  0.17222571576E+03  0.17120000000E+03 0.  0.
        998    1    1    2    0    0 -0.11505326150E+01 -0.10690861233E+01  0.14138586416E+04  0.14138948777E+04  0.10000000000E+02 0. -1.
</event>
<event>
 5    1  0.9123258E-009  0.3839606E+03  0.7957747E-01  0.3434092E+00
         13   -1    0    0    0    0  0.00000000000E+00  0.00000000000E+00  0.14999999963E+04  0.15000000000E+04  0.10566000000E+00 0.  1.
        994   -1    0    0    0    0 -0.00000000000E+00 -0.00000000000E+00  0.11368683772E-12  0.17120000000E+03  0.17120000000E+03 0.  0.
         13    1    1    2    0    0  0.19675132578E+02 -0.38463935956E+00  0.10221831155E+03  0.10409540417E+03  0.10566000000E+00 0.  1.
        994    1    1    2    0    0  0.54209226871E+01 -0.10147180177E+02  0.25839111339E+01  0.17160556012E+03  0.17120000000E+03 0.  0.
        998    1    1    2    0    0 -0.25096055265E+02  0.10531819536E+02  0.13951977736E+04  0.13954990357E+04  0.10000000000E+02 0.  1.
</event>
<event>
 5    1  0.9123258E-009  0.3726951E+03  0.7957747E-01  0.3483596E+00
         13   -1    0    0    0    0  0.00000000000E+00  0.00000000000E+00  0.14999999963E+04  0.15000000000E+04  0.10566000000E+00 0.  1.
        994   -1    0    0    0    0 -0.00000000000E+00 -0.00000000000E+00  0.11368683772E-12  0.17120000000E+03  0.17120000000E+03 0.  0.
         13    1    1    2    0    0  0.18820160513E+02 -0.48150325940E+02  0.18127485325E+03  0.18850261514E+03  0.10566000000E+00 0.  1.
        994    1    1    2    0    0 -0.14670762460E+02  0.10853063321E+02  0.90088372455E+01  0.17240539262E+03  0.17120000000E+03 0.  0.
        998    1    1    2    0    0 -0.41493980526E+01  0.37297262619E+02  0.13097163058E+04  0.13102919922E+04  0.10000000000E+02 0.  1.
</event>
<event>
 5    1  0.9123258E-009  0.3861750E+03  0.7957747E-01  0.3424704E+00
         13   -1    0    0    0    0  0.00000000000E+00  0.00000000000E+00  0.14999999963E+04  0.15000000000E+04  0.10566000000E+00 0.  1.
        994   -1    0    0    0    0 -0.00000000000E+00 -0.00000000000E+00  0.11368683772E-12  0.17120000000E+03  0.17120000000E+03 0.  0.
         13    1    1    2    0    0 -0.12639467407E+02 -0.33328849004E+01  0.75889279964E+02  0.77006871353E+02  0.10566000000E+00 0.  1.
        994    1    1    2    0    0  0.16850491869E+02  0.10495355051E+02  0.23400415942E+01  0.17236301038E+03  0.17120000000E+03 0.  0.
        998    1    1    2    0    0 -0.42110244620E+01 -0.71624701506E+01  0.14217706747E+04  0.14218301183E+04  0.10000000000E+02 0.  1.
</event>
<event>
 5    1  0.9123258E-009  0.3847956E+03  0.7957747E-01  0.3430539E+00
         13   -1    0    0    0    0  0.00000000000E+00  0.00000000000E+00  0.14999999963E+04  0.15000000000E+04  0.10566000000E+00 0.  1.
        994   -1    0    0    0    0 -0.00000000000E+00 -0.00000000000E+00  0.11368683772E-12  0.17120000000E+03  0.17120000000E+03 0.  0.
         13    1    1    2    0    0  0.33401651776E+01  0.94938425323E+01  0.28140434792E+02  0.29886200557E+02  0.10566000000E+00 0.  1.
        994    1    1    2    0    0 -0.70025437302E+01 -0.11766665926E+02  0.23488722616E+01  0.17176276444E+03  0.17120000000E+03 0.  0.
        998    1    1    2    0    0  0.36623785526E+01  0.22728233938E+01  0.14695106892E+04  0.14695510350E+04  0.10000000000E+02 0.  1.
</event>
<event>
 5    1  0.9123258E-009  0.3814914E+03  0.7957747E-01  0.3444690E+00
         13   -1    0    0    0    0  0.00000000000E+00  0.00000000000E+00  0.14999999963E+04  0.15000000000E+04  0.10566000000E+00 0. -1.
        994   -1    0    0    0    0 -0.00000000000E+00 -0.00000000000E+00  0.11368683772E-12  0.17120000000E+03  0.17120000000E+03 0.  0.
         13    1    1    2    0    0  0.29190883384E+01 -0.23548286023E+02  0.90720329244E+02  0.93772235515E+02  0.10566000000E+00 0. -1.
        994    1    1    2    0    0  0.12230036827E+02 -0.19897856922E+01  0.38930785562E+01  0.17169195994E+03  0.17120000000E+03 0.  0.
        998    1    1    2    0    0 -0.15149125166E+02  0.25538071715E+02  0.14053865885E+04  0.14057358045E+04  0.10000000000E+02 0. -1.
</event>
<event>
 5    1  0.9123258E-009  0.3726218E+03  0.7957747E-01  0.3483927E+00
         13   -1    0    0    0    0  0.00000000000E+00  0.00000000000E+00  0.14999999963E+04  0.15000000000E+04  0.10566000000E+00 0.  1.
        994   -1    0    0    0    0 -0.00000000000E+00 -0.00000000000E+00  0.11368683772E-12  0.17120000000E+03  0.17120000000E+03 0.  0.
         13    1    1    2    0    0  0.14162857651E+02  0.20296760721E+02  0.38088163830E+02  0.45423170526E+02  0.10566000000E+00 0.  1.
        994    1    1    2    0    0 -0.42134842087E+01  0.13248908816E+02  0.85676626962E+01  0.17197712603E+03  0.17120000000E+03 0.  0.
        998    1    1    2    0    0 -0.99493734427E+01 -0.33545669538E+02  0.14533441698E+04  0.14537997034E+04  0.10000000000E+02 0.  1.
</event>
<event>
 5    1  0.9123258E-009  0.3759237E+03  0.7957747E-01  0.3469102E+00
         13   -1    0    0    0    0  0.00000000000E+00  0.00000000000E+00  0.14999999963E+04  0.15000000000E+04  0.10566000000E+00 0. -1.
        994   -1    0    0    0    0 -0.00000000000E+00 -0.00000000000E+00  0.11368683772E-12  0.17120000000E+03  0.17120000000E+03 0.  0.
         13    1    1    2    0    0  0.49688972262E+01  0.15041273895E+02  0.17323231640E+02  0.23474142764E+02  0.10566000000E+00 0. -1.
        994    1    1    2    0    0 -0.10596345637E+02 -0.13621468941E+02  0.72150341138E+01  0.17221882497E+03  0.17120000000E+03 0.  0.
        998    1    1    2    0    0  0.56274484103E+01 -0.14198049537E+01  0.14754617305E+04  0.14755070323E+04  0.10000000000E+02 0. -1.
</event>
<event>
 5    1  0.9123258E-009  0.3856016E+03  0.7957747E-01  0.3427125E+00
         13   -1    0    0    0    0  0.00000000000E+00  0.00000000000E+00  0.14999999963E+04  0.15000000000E+04  0.10566000000E+00 0.  1.
        994   -1    0    0    0    0 -0.00000000000E+00 -0.00000000000E+00  0.11368683772E-12  0.17120000000E+03  0.17120000000E+03 0.  0.
         13    1    1    2    0    0 -0.39647784249E+01 -0.14701209404E+02  0.88247491556E+02  0.89551526820E+02  0.10566000000E+00 0.  1.
        994    1    1    2    0    0  0.42535056220E+01  0.81248379713E+01  0.16078502599E+01  0.17145299789E+03  0.17120000000E+03 0.  0.
        998    1    1    2    0    0 -0.28872719707E+00  0.65763714326E+01  0.14101446545E+04  0.14101954753E+04  0.10000000000E+02 0.  1.
</event>
<event>
 5    1  0.9123258E-009  0.3779045E+03  0.7957747E-01  0.3460334E+00
         13   -1    0    0    0    0  0.00000000000E+00  0.00000000000E+00  0.14999999963E+04  0.15000000000E+04  0.10566000000E+00 0. -1.
        994   -1    0    0    0    0 -0.00000000000E+00 -0.00000000000E+00  0.11368683772E-12  0.17120000000E+03  0.17120000000E+03 0.  0.
         13    1    1    2    0    0 -0.95763362405E+00 -0.29168291759E+02  0.78646107924E+02  0.83886397956E+02  0.10566000000E+00 0. -1.
        994    1    1    2    0    0  0.66191543042E+01  0.22344916499E+02  0.70250879718E+01  0.17292165960E+03  0.17120000000E+03 0.  0.
        998    1    1    2    0    0 -0.56615206802E+01  0.68233752603E+01  0.14143288004E+04  0.14143919424E+04  0.10000000000E+02 0. -1.
</event>
<event>
 5    1  0.9123258E-009  0.3843882E+03  0.7957747E-01  0.3432271E+00
         13   -1    0    0    0    0  0.00000000000E+00  0.00000000000E+00  0.14999999963E+04  0.15000000000E+04  0.10566000000E+00 0.  1.
        994   -1    0    0    0    0 -0.00000000000E+00 -0.00000000000E+00  0.11368683772E-12  0.17120000000E+03  0.17120000000E+03 0.  0.
         13    1    1    2    0    0  0.39998689270E+01  0.15035054305E+02  0.62030438031E+02  0.63951842942E+02  0.10566000000E+00 0.  1.
        994    1    1    2    0    0 -0.80493914213E+01 -0.92076804583E+01  0.24272154166E+01  0.17165344580E+03  0.17120000000E+03 0.  0.
        998    1    1    2    0    0  0.40495224943E+01 -0.58273738466E+01  0.14355423428E+04  0.14355947113E+04  0.10000000000E+02 0.  1.
</event>
<event>
 5    1  0.9123258E-009  0.3843491E+03  0.7957747E-01  0.3432437E+00
         13   -1    0    0    0    0  0.00000000000E+00  0.00000000000E+00  0.14999999963E+04  0.15000000000E+04  0.10566000000E+00 0.  1.
        994   -1    0    0    0    0 -0.00000000000E+00 -0.00000000000E+00  0.11368683772E-12  0.17120000000E+03  0.17120000000E+03 0.  0.
         13    1    1    2    0    0  0.10938954190E+02  0.32232014285E+01  0.32450179942E+02  0.34395858595E+02  0.10566000000E+00 0.  1.
        994    1    1    2    0    0 -0.96612100707E+01 -0.45306412576E+01  0.23289789416E+01  0.17154803943E+03  0.17120000000E+03 0.  0.
        998    1    1    2    0    0 -0.12777441198E+01  0.13074398291E+01  0.14652208374E+04  0.14652561020E+04  0.10000000000E+02 0.  1.
</event>
<event>
 5    1  0.9123258E-009  0.3791287E+03  0.7957747E-01  0.3454961E+00
         13   -1    0    0    0    0  0.00000000000E+00  0.00000000000E+00  0.14999999963E+04  0.15000000000E+04  0.10566000000E+00 0.  1.
        994   -1    0    0    0    0 -0.00000000000E+00 -0.00000000000E+00  0.11368683772E-12  0.17120000000E+03  0.17120000000E+03 0.  0.
         13    1    1    2    0    0  0.12960527690E+02  0.37896669497E+01  0.17976171790E+02  0.22483121888E+02  0.10566000000E+00 0.  1.
        994    1    1    2    0    0 -0.11205128005E+02  0.35169808057E+01  0.50361407743E+01  0.17167622655E+03  0.17120000000E+03 0.  0.
        998    1    1    2    0    0 -0.17553996847E+01 -0.73066477554E+01  0.14769876837E+04  0.14770406516E+04  0.10000000000E+02 0.  1.
</event>
<event>
 5    1  0.9123258E-009  0.3000245E+03  0.7957747E-01  0.3895844E+00
         13   -1    0    0    0    0  0.00000000000E+00  0.00000000000E+00  0.14999999963E+04  0.15000000000E+04  0.10566000000E+00 0.  1.
        994   -1    0    0    0    0 -0.00000000000E+00 -0.00000000000E+00  0.11368683772E-12  0.17120000000E+03  0.17120000000E+03 0.  0.
         13    1    1    2    0    0 -0.26131184938E+03 -0.26673881426E+02  0.47039654036E+03  0.53876552871E+03  0.10566000000E+00 0.  1.
        994    1    1    2    0    0  0.22108631724E+03 -0.17839294308E+02  0.34188652542E+03  0.44203307156E+03  0.17120000000E+03 0.  0.
        998    1    1    2    0    0  0.40225532136E+02  0.44513175734E+02  0.68771693050E+03  0.69040139973E+03  0.10000000000E+02 0.  1.
</event>
<event>
 5    1  0.9123258E-009  0.3806201E+03  0.7957747E-01  0.3448463E+00
         13   -1    0    0    0    0  0.00000000000E+00  0.00000000000E+00  0.14999999963E+04  0.15000000000E+04  0.10566000000E+00 0.  1.
        994   -1    0    0    0    0 -0.00000000000E+00 -0.00000000000E+00  0.11368683772E-12  0.17120000000E+03  0.17120000000E+03 0.  0.
         13    1    1    2    0    0 -0.45045263536E+01 -0.19893380116E+02  0.53156151646E+02  0.56935269841E+02  0.10566000000E+00 0.  1.
        994    1    1    2    0    0  0.30999602505E+02  0.63897391001E+01  0.71697498054E+01  0.17424881473E+03  0.17120000000E+03 0.  0.
        998    1    1    2    0    0 -0.26495076151E+02  0.13503641015E+02  0.14396740948E+04  0.14400159154E+04  0.10000000000E+02 0.  1.
</event>
<event>
 5    1  0.9123258E-009  0.3842040E+03  0.7957747E-01  0.3433055E+00
         13   -1    0    0    0    0  0.00000000000E+00  0.00000000000E+00  0.14999999963E+04  0.15000000000E+04  0.10566000000E+00 0. -1.
        994   -1    0    0    0    0 -0.00000000000E+00 -0.00000000000E+00  0.11368683772E-12  0.17120000000E+03  0.17120000000E+03 0.  0.
         13    1    1    2    0    0 -0.10176265443E+02  0.11691078746E+02  0.59402109727E+02  0.61391037658E+02  0.10566000000E+00 0. -1.
        994    1    1    2    0    0  0.45537763256E+01 -0.76159856558E+01  0.22854939406E+01  0.17144504542E+03  0.17120000000E+03 0.  0.
        998    1    1    2    0    0  0.56224891176E+01 -0.40750930903E+01  0.14383123926E+04  0.14383639169E+04  0.10000000000E+02 0. -1.
</event>
<event>
 5    1  0.9123258E-009  0.3821146E+03  0.7957747E-01  0.3442002E+00
         13   -1    0    0    0    0  0.00000000000E+00  0.00000000000E+00  0.14999999963E+04  0.15000000000E+04  0.10566000000E+00 0. -1.
        994   -1    0    0    0    0 -0.00000000000E+00 -0.00000000000E+00  0.11368683772E-12  0.17120000000E+03  0.17120000000E+03 0.  0.
         13    1    1    2    0    0 -0.11199602231E+02  0.41036786348E+01  0.22173552995E+02  0.25178341584E+02  0.10566000000E+00 0. -1.
        994    1    1    2    0    0  0.46788478339E+01 -0.33701967386E+01  0.31798830992E+01  0.17132659309E+03  0.17120000000E+03 0.  0.
        998    1    1    2    0    0  0.65207543976E+01 -0.73348189622E+00  0.14746465602E+04  0.14746950653E+04  0.10000000000E+02 0. -1.
</event>
<event>
 5    1  0.9123258E-009  0.3733593E+03  0.7957747E-01  0.3480593E+00
         13   -1    0    0    0    0  0.00000000000E+00  0.00000000000E+00  0.14999999963E+04  0.15000000000E+04  0.10566000000E+00 0. -1.
        994   -1    0    0    0    0 -0.00000000000E+00 -0.00000000000E+00  0.11368683772E-12  0.17120000000E+03  0.17120000000E+03 0.  0.
         13    1    1    2    0    0 -0.21449525419E+02 -0.30770374196E+02  0.89252418433E+02  0.96813756404E+02  0.10566000000E+00 0. -1.
        994    1    1    2    0    0  0.16980703563E+02  0.22104747309E+02  0.10184007859E+02  0.17375303785E+03  0.17120000000E+03 0.  0.
        998    1    1    2    0    0  0.44688218558E+01  0.86656268866E+01  0.14005635700E+04  0.14006332057E+04  0.10000000000E+02 0. -1.
</event>
<event>
 5    1  0.9123258E-009  0.3838730E+03  0.7957747E-01  0.3434466E+00
         13   -1    0    0    0    0  0.00000000000E+00  0.00000000000E+00  0.14999999963E+04  0.15000000000E+04  0.10566000000E+00 0. -1.
        994   -1    0    0    0    0 -0.00000000000E+00 -0.00000000000E+00  0.11368683772E-12  0.17120000000E+03  0.17120000000E+03 0.  0.
         13    1    1    2    0    0  0.42675533537E+01 -0.14742040053E+02  0.51496618148E+02  0.53735022111E+02  0.10566000000E+00 0. -1.
        994    1    1    2    0    0 -0.13084047677E+02  0.13912941655E+02  0.33956106204E+01  0.17229547998E+03  0.17120000000E+03 0.  0.
        998    1    1    2    0    0  0.88164943232E+01  0.82909839756E+00  0.14451077675E+04  0.14451694979E+04  0.10000000000E+02 0. -1.
</event>
<event>
 5    1  0.1076264E-008  0.3861677E+03  0.7957747E-01  0.3424735E+00
         13   -1    0    0    0    0  0.00000000000E+00  0.00000000000E+00  0.14999999963E+04  0.15000000000E+04  0.10566000000E+00 0.  1.
        994   -1    0    0    0    0 -0.00000000000E+00 -0.00000000000E+00  0.11368683772E-12  0.17120000000E+03  0.17120000000E+03 0.  0.
         13    1    1    2    0    0 -0.13246180535E+02 -0.19446149377E+01  0.79295361083E+02  0.80417711229E+02  0.10566000000E+00 0.  1.
        994    1    1    2    0    0  0.20424045220E+02 -0.75528665492E+01  0.26065921656E+01  0.17259902010E+03  0.17120000000E+03 0.  0.
        998    1    1    2    0    0 -0.71778646848E+01  0.94974814870E+01  0.14180980430E+04  0.14181832687E+04  0.10000000000E+02 0.  1.
</event>
<event>
 5    1  0.9123258E-009  0.3784850E+03  0.7957747E-01  0.3457782E+00
         13   -1    0    0    0    0  0.00000000000E+00  0.00000000000E+00  0.14999999963E+04  0.15000000000E+04  0.10566000000E+00 0. -1.
        994   -1    0    0    0    0 -0.00000000000E+00 -0.00000000000E+00  0.11368683772E-12  0.17120000000E+03  0.17120000000E+03 0.  0.
         13    1    1    2    0    0 -0.49684577201E+01 -0.97900099216E+01  0.10112416520E+02  0.14926553463E+02  0.10566000000E+00 0. -1.
        994    1    1    2    0    0  0.41937111087E+01  0.66928913876E+01  0.51094823107E+01  0.17145824220E+03  0.17120000000E+03 0.  0.
        998    1    1    2    0    0  0.77474661131E+00  0.30971185340E+01  0.14847780974E+04  0.14848152043E+04  0.10000000000E+02 0. -1.
</event>
<event>
 5    1  0.9123258E-009  0.3752744E+03  0.7957747E-01  0.3471997E+00
         13   -1    0    0    0    0  0.00000000000E+00  0.00000000000E+00  0.14999999963E+04  0.15000000000E+04  0.10566000000E+00 0. -1.
        994   -1    0    0    0    0 -0.00000000000E+00 -0.00000000000E+00  0.11368683772E-12  0.17120000000E+03  0.17120000000E+03 0.  0.
         13    1    1    2    0    0 -0.29117775628E+02  0.17893784347E+01  0.58909537966E+02  0.65737292005E+02  0.10566000000E+00 0. -1.
        994    1    1    2    0    0  0.36696129894E+02 -0.72826492966E+00  0.11126562082E+02  0.17544337178E+03  0.17120000000E+03 0.  0.
        998    1    1    2    0    0 -0.75783542665E+01 -0.10611135050E+01  0.14299638962E+04  0.14300193362E+04  0.10000000000E+02 0. -1.
</event>
<event>
 5    1  0.9123258E-009  0.3729128E+03  0.7957747E-01  0.3482611E+00
         13   -1    0    0    0    0  0.00000000000E+00  0.00000000000E+00  0.14999999963E+04  0.15000000000E+04  0.10566000000E+00 0. -1.
        994   -1    0    0    0    0 -0.00000000000E+00 -0.00000000000E+00  0.11368683772E-12  0.17120000000E+03  0.17120000000E+03 0.  0.
         13    1    1    2    0    0  0.41735195472E+02  0.21849383932E+02  0.12802319647E+03  0.13641543944E+03  0.10566000000E+00 0. -1.
        994    1    1    2    0    0 -0.50387795733E+02 -0.99094300803E+01  0.16836618849E+02  0.17952726394E+03  0.17120000000E+03 0.  0.
        998    1    1    2    0    0  0.86526002609E+01 -0.11939953852E+02  0.13551401810E+04  0.13552572966E+04  0.10000000000E+02 0. -1.
</event>
<event>
 5    1  0.9123258E-009  0.3829226E+03  0.7957747E-01  0.3438531E+00
         13   -1    0    0    0    0  0.00000000000E+00  0.00000000000E+00  0.14999999963E+04  0.15000000000E+04  0.10566000000E+00 0.  1.
        994   -1    0    0    0    0 -0.00000000000E+00 -0.00000000000E+00  0.11368683772E-12  0.17120000000E+03  0.17120000000E+03 0.  0.
         13    1    1    2    0    0 -0.14247367734E+01 -0.15786941607E+02  0.45666229562E+02  0.48339146524E+02  0.10566000000E+00 0.  1.
        994    1    1    2    0    0 -0.17353454790E+01  0.14005281398E+02  0.33247502216E+01  0.17181284380E+03  0.17120000000E+03 0.  0.
        998    1    1    2    0    0  0.31600822524E+01  0.17816602096E+01  0.14510090165E+04  0.14510480097E+04  0.10000000000E+02 0.  1.
</event>
<event>
 5    1  0.9123258E-009  0.3851641E+03  0.7957747E-01  0.3428977E+00
         13   -1    0    0    0    0  0.00000000000E+00  0.00000000000E+00  0.14999999963E+04  0.15000000000E+04  0.10566000000E+00 0.  1.
        994   -1    0    0    0    0 -0.00000000000E+00 -0.00000000000E+00  0.11368683772E-12  0.17120000000E+03  0.17120000000E+03 0.  0.
         13    1    1    2    0    0 -0.12080979589E+02  0.12411653403E+02  0.95094983470E+02  0.96659537828E+02  0.10566000000E+00 0.  1.
        994    1    1    2    0    0  0.12180999239E+02 -0.72869240991E+01  0.22112063790E+01  0.17180164562E+03  0.17120000000E+03 0.  0.
        998    1    1    2    0    0 -0.10001965008E+00 -0.51247293035E+01  0.14026938064E+04  0.14027388165E+04  0.10000000000E+02 0.  1.
</event>
<event>
 5    1  0.9123258E-009  0.3813138E+03  0.7957747E-01  0.3445458E+00
         13   -1    0    0    0    0  0.00000000000E+00  0.00000000000E+00  0.14999999963E+04  0.15000000000E+04  0.10566000000E+00 0.  1.
        994   -1    0    0    0    0 -0.00000000000E+00 -0.00000000000E+00  0.11368683772E-12  0.17120000000E+03  0.17120000000E+03 0.  0.
         13    1    1    2    0    0 -0.45055148190E+01 -0.26008302278E+02  0.99569495369E+02  0.10300886866E+03  0.10566000000E+00 0.  1.
        994    1    1    2    0    0 -0.54123639696E+00  0.15807593204E+02  0.43045375698E+01  0.17198297004E+03  0.17120000000E+03 0.  0.
        998    1    1    2    0    0  0.50467512160E+01  0.10200709074E+02  0.13961259633E+04  0.13962081613E+04  0.10000000000E+02 0.  1.
</event>
<event>
 5    1  0.9123258E-009  0.4446357E+03  0.7957747E-01  0.3210429E+00
         13   -1    0    0    0    0  0.00000000000E+00  0.00000000000E+00  0.14999999963E+04  0.15000000000E+04  0.10566000000E+00 0.  1.
        994   -1    0    0    0    0 -0.00000000000E+00 -0.00000000000E+00  0.11368683772E-12  0.17120000000E+03  0.17120000000E+03 0.  0.
         13    1    1    2    0    0  0.52675533158E+02  0.89474831957E+02  0.83870232401E+02  0.13347166139E+03  0.10566000000E+00 0.  1.
        994    1    1    2    0    0 -0.62830127751E+02 -0.33635163914E+02  0.82686821499E+02  0.20304063548E+03  0.17120000000E+03 0.  0.
        998    1    1    2    0    0  0.10154594594E+02 -0.55839668043E+02  0.13334429424E+04  0.13346877031E+04  0.10000000000E+02 0.  1.
</event>
<event>
 5    1  0.9123258E-009  0.3794167E+03  0.7957747E-01  0.3453702E+00
         13   -1    0    0    0    0  0.00000000000E+00  0.00000000000E+00  0.14999999963E+04  0.15000000000E+04  0.10566000000E+00 0. -1.
        994   -1    0    0    0    0 -0.00000000000E+00 -0.00000000000E+00  0.11368683772E-12  0.17120000000E+03  0.17120000000E+03 0.  0.
         13    1    1    2    0    0 -0.33804523242E+02  0.24864339456E+02  0.22679782792E+03  0.23064745193E+03  0.10566000000E+00 0. -1.
        994    1    1    2    0    0  0.51492835506E+01 -0.39410973489E+01  0.45687511546E+01  0.17138366566E+03  0.17120000000E+03 0.  0.
        998    1    1    2    0    0  0.28655239691E+02 -0.20923242107E+02  0.12686334172E+04  0.12691688824E+04  0.10000000000E+02 0. -1.
</event>
<event>
 5    1  0.9123258E-009  0.3692831E+03  0.7957747E-01  0.3499192E+00
         13   -1    0    0    0    0  0.00000000000E+00  0.00000000000E+00  0.14999999963E+04  0.15000000000E+04  0.10566000000E+00 0. -1.
        994   -1    0    0    0    0 -0.00000000000E+00 -0.00000000000E+00  0.11368683772E-12  0.17120000000E+03  0.17120000000E+03 0.  0.
         13    1    1    2    0    0 -0.25352425024E+02 -0.81766646702E+01  0.32439339488E+02  0.41975292854E+02  0.10566000000E+00 0. -1.
        994    1    1    2    0    0  0.24290831802E+02  0.19458814281E+01  0.11705351276E+02  0.17332133802E+03  0.17120000000E+03 0.  0.
        998    1    1    2    0    0  0.10615932223E+01  0.62307832422E+01  0.14558553055E+04  0.14559033691E+04  0.10000000000E+02 0. -1.
</event>
<event>
 5    1  0.9123258E-009  0.3739894E+03  0.7957747E-01  0.3477755E+00
         13   -1    0    0    0    0  0.00000000000E+00  0.00000000000E+00  0.14999999963E+04  0.15000000000E+04  0.10566000000E+00 0. -1.
        994   -1    0    0    0    0 -0.00000000000E+00 -0.00000000000E+00  0.11368683772E-12  0.17120000000E+03  0.17120000000E+03 0.  0.
         13    1    1    2    0    0  0.31178039040E+02 -0.65802583625E+01  0.67917922139E+02  0.75021498454E+02  0.10566000000E+00 0. -1.
        994    1    1    2    0    0 -0.26829036423E+02 -0.29707315369E+02  0.12683540109E+02  0.17627431455E+03  0.17120000000E+03 0.  0.
        998    1    1    2    0    0 -0.43490026172E+01  0.36287573731E+02  0.14193985340E+04  0.14199041870E+04  0.10000000000E+02 0. -1.
</event>
<event>
 5    1  0.9123258E-009  0.3832934E+03  0.7957747E-01  0.3436942E+00
         13   -1    0    0    0    0  0.00000000000E+00  0.00000000000E+00  0.14999999963E+04  0.15000000000E+04  0.10566000000E+00 0.  1.
        994   -1    0    0    0    0 -0.00000000000E+00 -0.00000000000E+00  0.11368683772E-12  0.17120000000E+03  0.17120000000E+03 0.  0.
         13    1    1    2    0    0 -0.80107481321E+01 -0.14407106118E+02  0.58618700839E+02  0.60892528642E+02  0.10566000000E+00 0.  1.
        994    1    1    2    0    0 -0.24852811694E+01 -0.44719197560E+01  0.25663566935E+01  0.17129565341E+03  0.17120000000E+03 0.  0.
        998    1    1    2    0    0  0.10496029301E+02  0.18879025874E+02  0.14388149387E+04  0.14390118180E+04  0.10000000000E+02 0.  1.
</event>
<event>
 5    1  0.9123258E-009  0.3745289E+03  0.7957747E-01  0.3475332E+00
         13   -1    0    0    0    0  0.00000000000E+00  0.00000000000E+00  0.14999999963E+04  0.15000000000E+04  0.10566000000E+00 0. -1.
        994   -1    0    0    0    0 -0.00000000000E+00 -0.00000000000E+00  0.11368683772E-12  0.17120000000E+03  0.17120000000E+03 0.  0.
         13    1    1    2    0    0  0.35541575815E+02 -0.16120190100E+00  0.94132146623E+02  0.10061859564E+03  0.10566000000E+00 0. -1.
        994    1    1    2    0    0 -0.75920819480E+01  0.31861176782E+01  0.71516869614E+01  0.17154701303E+03  0.17120000000E+03 0.  0.
        998    1    1    2    0    0 -0.27949493867E+02 -0.30249157773E+01  0.13987161627E+04  0.13990343913E+04  0.10000000000E+02 0. -1.
</event>
<event>
 5    1  0.9123258E-009  0.2519206E+03  0.7957747E-01  0.4313042E+00
         13   -1    0    0    0    0  0.00000000000E+00  0.00000000000E+00  0.14999999963E+04  0.15000000000E+04  0.10566000000E+00 0.  1.
        994   -1    0    0    0    0 -0.00000000000E+00 -0.00000000000E+00  0.11368683772E-12  0.17120000000E+03  0.17120000000E+03 0.  0.
         13    1    1    2    0    0  0.15078775709E+03  0.24706017756E+02  0.15232969761E+03  0.21575839019E+03  0.10566000000E+00 0.  1.
        994    1    1    2    0    0 -0.23353034580E+03 -0.24977209579E+02  0.35284711229E+03  0.45713324979E+03  0.17120000000E+03 0.  0.
        998    1    1    2    0    0  0.82742588707E+02  0.27119182357E+00  0.99482318638E+03  0.99830836002E+03  0.10000000000E+02 0.  1.
</event>
<event>
 5    1  0.9123258E-009  0.3856620E+03  0.7957747E-01  0.3426870E+00
         13   -1    0    0    0    0  0.00000000000E+00  0.00000000000E+00  0.14999999963E+04  0.15000000000E+04  0.10566000000E+00 0. -1.
        994   -1    0    0    0    0 -0.00000000000E+00 -0.00000000000E+00  0.11368683772E-12  0.17120000000E+03  0.17120000000E+03 0.  0.
         13    1    1    2    0    0  0.95549539250E+01 -0.78919705235E+01  0.54388767524E+02  0.55782878557E+02  0.10566000000E+00 0. -1.
        994    1    1    2    0    0 -0.14256273329E+02  0.17512258809E+02  0.29769928297E+01  0.17270849147E+03  0.17120000000E+03 0.  0.
        998    1    1    2    0    0  0.47013194038E+01 -0.96202882860E+01  0.14426342359E+04  0.14427086300E+04  0.10000000000E+02 0. -1.
</event>
<event>
 5    1  0.9123258E-009  0.3809780E+03  0.7957747E-01  0.3446911E+00
         13   -1    0    0    0    0  0.00000000000E+00  0.00000000000E+00  0.14999999963E+04  0.15000000000E+04  0.10566000000E+00 0. -1.
        994   -1    0    0    0    0 -0.00000000000E+00 -0.00000000000E+00  0.11368683772E-12  0.17120000000E+03  0.17120000000E+03 0.  0.
         13    1    1    2    0    0  0.87235825599E+01  0.13900271560E+02  0.36408803384E+02  0.39936581852E+02  0.10566000000E+00 0. -1.
        994    1    1    2    0    0 -0.10297710956E+01 -0.48875069136E+01  0.37234327001E+01  0.17131331560E+03  0.17120000000E+03 0.  0.
        998    1    1    2    0    0 -0.76938114643E+01 -0.90127646465E+01  0.14598677602E+04  0.14599501025E+04  0.10000000000E+02 0. -1.
</event>
<event>
 5    1  0.9123258E-009  0.3800726E+03  0.7957747E-01  0.3450843E+00
         13   -1    0    0    0    0  0.00000000000E+00  0.00000000000E+00  0.14999999963E+04  0.15000000000E+04  0.10566000000E+00 0. -1.
        994   -1    0    0    0    0 -0.00000000000E+00 -0.00000000000E+00  0.11368683772E-12  0.17120000000E+03  0.17120000000E+03 0.  0.
         13    1    1    2    0    0  0.26667600633E+02 -0.11455956851E+02  0.13049992053E+03  0.13368859447E+03  0.10566000000E+00 0. -1.
        994    1    1    2    0    0  0.35542967154E+02  0.27731537513E+02  0.10918904999E+02  0.17737249836E+03  0.17120000000E+03 0.  0.
        998    1    1    2    0    0 -0.62210567787E+02 -0.16275580662E+02  0.13585811708E+04  0.13601389072E+04  0.10000000000E+02 0. -1.
</event>
<event>
 5    1  0.9123258E-009  0.4425189E+03  0.7957747E-01  0.3217218E+00
         13   -1    0    0    0    0  0.00000000000E+00  0.00000000000E+00  0.14999999963E+04  0.15000000000E+04  0.10566000000E+00 0. -1.
        994   -1    0    0    0    0 -0.00000000000E+00 -0.00000000000E+00  0.11368683772E-12  0.17120000000E+03  0.17120000000E+03 0.  0.
         13    1    1    2    0    0  0.10815512353E+03 -0.89266554787E+02  0.30689992029E+03  0.33742202179E+03  0.10566000000E+00 0. -1.
        994    1    1    2    0    0  0.53778382436E+02 -0.37133597881E+02  0.76804584665E+02  0.19869424434E+03  0.17120000000E+03 0.  0.
        998    1    1    2    0    0 -0.16193350597E+03  0.12640015267E+03  0.11162954913E+04  0.11350837339E+04  0.10000000000E+02 0. -1.
</event>
<event>
 5    1  0.9123258E-009  0.3773046E+03  0.7957747E-01  0.3462979E+00
         13   -1    0    0    0    0  0.00000000000E+00  0.00000000000E+00  0.14999999963E+04  0.15000000000E+04  0.10566000000E+00 0.  1.
        994   -1    0    0    0    0 -0.00000000000E+00 -0.00000000000E+00  0.11368683772E-12  0.17120000000E+03  0.17120000000E+03 0.  0.
         13    1    1    2    0    0  0.52207133177E+02  0.11767464323E+02  0.22141208486E+03  0.22778801649E+03  0.10566000000E+00 0.  1.
        994    1    1    2    0    0 -0.51303896495E+02 -0.16883338945E+02  0.15403446600E+02  0.18017725466E+03  0.17120000000E+03 0.  0.
        998    1    1    2    0    0 -0.90323668217E+00  0.51158746216E+01  0.12631844648E+04  0.12632347288E+04  0.10000000000E+02 0.  1.
</event>
<event>
 5    1  0.9123258E-009  0.3836064E+03  0.7957747E-01  0.3435604E+00
         13   -1    0    0    0    0  0.00000000000E+00  0.00000000000E+00  0.14999999963E+04  0.15000000000E+04  0.10566000000E+00 0.  1.
        994   -1    0    0    0    0 -0.00000000000E+00 -0.00000000000E+00  0.11368683772E-12  0.17120000000E+03  0.17120000000E+03 0.  0.
         13    1    1    2    0    0  0.54043816567E+01 -0.11113313432E+02  0.34235476864E+02  0.36397693837E+02  0.10566000000E+00 0.  1.
        994    1    1    2    0    0  0.30826030002E+01 -0.62882868570E+01  0.24856656484E+01  0.17136120776E+03  0.17120000000E+03 0.  0.
        998    1    1    2    0    0 -0.84869846569E+01  0.17401600289E+02  0.14632788538E+04  0.14634410984E+04  0.10000000000E+02 0.  1.
</event>
<event>
 5    1  0.1190609E-008  0.3857635E+03  0.7957747E-01  0.3426440E+00
         13   -1    0    0    0    0  0.00000000000E+00  0.00000000000E+00  0.14999999963E+04  0.15000000000E+04  0.10566000000E+00 0.  1.
        994   -1    0    0    0    0 -0.00000000000E+00 -0.00000000000E+00  0.11368683772E-12  0.17120000000E+03  0.17120000000E+03 0.  0.
         13    1    1    2    0    0 -0.11031884933E+02  0.12570239405E+01  0.49546340158E+02  0.50775324533E+02  0.10566000000E+00 0.  1.
        994    1    1    2    0    0  0.72401006342E+01 -0.53902628573E+01  0.15188574023E+01  0.17144451265E+03  0.17120000000E+03 0.  0.
        998    1    1    2    0    0  0.37917842989E+01  0.41332389168E+01  0.14489347987E+04  0.14489801628E+04  0.10000000000E+02 0.  1.
</event>
<event>
 5    1  0.9123258E-009  0.3853920E+03  0.7957747E-01  0.3428011E+00
         13   -1    0    0    0    0  0.00000000000E+00  0.00000000000E+00  0.14999999963E+04  0.15000000000E+04  0.10566000000E+00 0.  1.
        994   -1    0    0    0    0 -0.00000000000E+00 -0.00000000000E+00  0.11368683772E-12  0.17120000000E+03  0.17120000000E+03 0.  0.
         13    1    1    2    0    0 -0.44288954052E+01  0.14878008191E+02  0.82440655773E+02  0.83889469724E+02  0.10566000000E+00 0.  1.
        994    1    1    2    0    0  0.13380036033E+02 -0.97358286383E+01  0.23354680219E+01  0.17201368008E+03  0.17120000000E+03 0.  0.
        998    1    1    2    0    0 -0.89511406279E+01 -0.51421795528E+01  0.14152238725E+04  0.14152968502E+04  0.10000000000E+02 0.  1.
</event>
<event>
 5    1  0.9123258E-009  0.3769307E+03  0.7957747E-01  0.3464633E+00
         13   -1    0    0    0    0  0.00000000000E+00  0.00000000000E+00  0.14999999963E+04  0.15000000000E+04  0.10566000000E+00 0.  1.
        994   -1    0    0    0    0 -0.00000000000E+00 -0.00000000000E+00  0.11368683772E-12  0.17120000000E+03  0.17120000000E+03 0.  0.
         13    1    1    2    0    0  0.12613882485E+02  0.20755705513E+02  0.49005112401E+02  0.54693889496E+02  0.10566000000E+00 0.  1.
        994    1    1    2    0    0 -0.90748587584E+01 -0.17556883962E+02  0.70108103990E+01  0.17247953124E+03  0.17120000000E+03 0.  0.
        998    1    1    2    0    0 -0.35390237268E+01 -0.31988215509E+01  0.14439840735E+04  0.14440265793E+04  0.10000000000E+02 0.  1.
</event>
<event>
 5    1  0.9123258E-009  0.3723998E+03  0.7957747E-01  0.3484934E+00
         13   -1    0    0    0    0  0.00000000000E+00  0.00000000000E+00  0.14999999963E+04  0.15000000000E+04  0.10566000000E+00 0.  1.
        994   -1    0    0    0    0 -0.00000000000E+00 -0.00000000000E+00  0.11368683772E-12  0.17120000000E+03  0.17120000000E+03 0.  0.
         13    1    1    2    0    0  0.19438656481E+00  0.62948433852E+02  0.18672553564E+03  0.19705070397E+03  0.10566000000E+00 0.  1.
        994    1    1    2    0    0 -0.30333864497E+02 -0.26354814109E+01  0.15488935657E+02  0.17457501604E+03  0.17120000000E+03 0.  0.
        998    1    1    2    0    0  0.30139477932E+02 -0.60312952442E+02  0.12977855250E+04  0.12995742800E+04  0.10000000000E+02 0.  1.
</event>
<event>
 5    1  0.9123258E-009  0.4096681E+03  0.7957747E-01  0.3331347E+00
         13   -1    0    0    0    0  0.00000000000E+00  0.00000000000E+00  0.14999999963E+04  0.15000000000E+04  0.10566000000E+00 0.  1.
        994   -1    0    0    0    0 -0.00000000000E+00 -0.00000000000E+00  0.11368683772E-12  0.17120000000E+03  0.17120000000E+03 0.  0.
         13    1    1    2    0    0 -0.15921253810E+01 -0.44575814191E+02  0.14958599322E+02  0.47045817367E+02  0.10566000000E+00 0.  1.
        994    1    1    2    0    0  0.20306021125E+02  0.65421181482E+02  0.53079147316E+02  0.19188304084E+03  0.17120000000E+03 0.  0.
        998    1    1    2    0    0 -0.18713895744E+02 -0.20845367291E+02  0.14319622496E+04  0.14322711418E+04  0.10000000000E+02 0.  1.
</event>
<event>
 5    1  0.9123258E-009  0.3777112E+03  0.7957747E-01  0.3461185E+00
         13   -1    0    0    0    0  0.00000000000E+00  0.00000000000E+00  0.14999999963E+04  0.15000000000E+04  0.10566000000E+00 0. -1.
        994   -1    0    0    0    0 -0.00000000000E+00 -0.00000000000E+00  0.11368683772E-12  0.17120000000E+03  0.17120000000E+03 0.  0.
         13    1    1    2    0    0 -0.16045135611E+03 -0.92853832758E+02  0.87445209288E+03  0.89388642782E+03  0.10566000000E+00 0. -1.
        994    1    1    2    0    0  0.16966847767E+03  0.95719256777E+02  0.14610067316E+03  0.29766493769E+03  0.17120000000E+03 0.  0.
        998    1    1    2    0    0 -0.92171215602E+01 -0.28654240193E+01  0.47944723024E+03  0.47964863449E+03  0.10000000000E+02 0. -1.
</event>
<event>
 5    1  0.9123258E-009  0.3825315E+03  0.7957747E-01  0.3440210E+00
         13   -1    0    0    0    0  0.00000000000E+00  0.00000000000E+00  0.14999999963E+04  0.15000000000E+04  0.10566000000E+00 0.  1.
        994   -1    0    0    0    0 -0.00000000000E+00 -0.00000000000E+00  0.11368683772E-12  0.17120000000E+03  0.17120000000E+03 0.  0.
         13    1    1    2    0    0  0.64163481572E+00 -0.31516475982E+02  0.18560186503E+03  0.18825982955E+03  0.10566000000E+00 0.  1.
        994    1    1    2    0    0 -0.85021534242E+00  0.10069348195E+02  0.31993089226E+01  0.17152781179E+03  0.17120000000E+03 0.  0.
        998    1    1    2    0    0  0.20858052670E+00  0.21447127787E+02  0.13111988223E+04  0.13114123587E+04  0.10000000000E+02 0.  1.
</event>
<event>
 5    1  0.9123258E-009  0.3696282E+03  0.7957747E-01  0.3497601E+00
         13   -1    0    0    0    0  0.00000000000E+00  0.00000000000E+00  0.14999999963E+04  0.15000000000E+04  0.10566000000E+00 0. -1.
        994   -1    0    0    0    0 -0.00000000000E+00 -0.00000000000E+00  0.11368683772E-12  0.17120000000E+03  0.17120000000E+03 0.  0.
         13    1    1    2    0    0 -0.22932149923E+02  0.89707700784E+01  0.24718897358E+02  0.34891163158E+02  0.10566000000E+00 0. -1.
        994    1    1    2    0    0 -0.26119085884E+01 -0.77641413616E+01  0.10976682752E+02  0.17174699858E+03  0.17120000000E+03 0.  0.
        998    1    1    2    0    0  0.25544058512E+02 -0.12066287168E+01  0.14643044162E+04  0.14645618383E+04  0.10000000000E+02 0. -1.
</event>
<event>
 5    1  0.9123258E-009  0.3802768E+03  0.7957747E-01  0.3449954E+00
         13   -1    0    0    0    0  0.00000000000E+00  0.00000000000E+00  0.14999999963E+04  0.15000000000E+04  0.10566000000E+00 0. -1.
        994   -1    0    0    0    0 -0.00000000000E+00 -0.00000000000E+00  0.11368683772E-12  0.17120000000E+03  0.17120000000E+03 0.  0.
         13    1    1    2    0    0  0.25639846619E+01 -0.11255118773E+03  0.66139382919E+03  0.67090696250E+03  0.10566000000E+00 0. -1.
        994    1    1    2    0    0 -0.63077588329E-01  0.12756700843E+03  0.60409228482E+02  0.22188298832E+03  0.17120000000E+03 0.  0.
        998    1    1    2    0    0 -0.25009070736E+01 -0.15015820703E+02  0.77819693861E+03  0.77841004918E+03  0.10000000000E+02 0.  0.
</event>
<event>
 5    1  0.9123258E-009  0.3713516E+03  0.7957747E-01  0.3489702E+00
         13   -1    0    0    0    0  0.00000000000E+00  0.00000000000E+00  0.14999999963E+04  0.15000000000E+04  0.10566000000E+00 0.  1.
        994   -1    0    0    0    0 -0.00000000000E+00 -0.00000000000E+00  0.11368683772E-12  0.17120000000E+03  0.17120000000E+03 0.  0.
         13    1    1    2    0    0 -0.61476981092E+01 -0.73048127328E+02  0.31316739671E+03  0.32163279159E+03  0.10566000000E+00 0.  1.
        994    1    1    2    0    0  0.11828524832E+03  0.49057166767E+02  0.67304589307E+02  0.22413690754E+03  0.17120000000E+03 0.  0.
        998    1    1    2    0    0 -0.11213755021E+03  0.23990960561E+02  0.11195280103E+04  0.11254303009E+04  0.10000000000E+02 0.  1.
</event>
<event>
 5    1  0.9123258E-009  0.3788682E+03  0.7957747E-01  0.3456102E+00
         13   -1    0    0    0    0  0.00000000000E+00  0.00000000000E+00  0.14999999963E+04  0.15000000000E+04  0.10566000000E+00 0. -1.
        994   -1    0    0    0    0 -0.00000000000E+00 -0.00000000000E+00  0.11368683772E-12  0.17120000000E+03  0.17120000000E+03 0.  0.
         13    1    1    2    0    0 -0.21678382950E+02 -0.42575398611E+02  0.20663789305E+03  0.21208924269E+03  0.10566000000E+00 0. -1.
        994    1    1    2    0    0  0.24694972833E+02  0.43112728687E+02  0.13033727054E+02  0.17873966292E+03  0.17120000000E+03 0.  0.
        998    1    1    2    0    0 -0.30165898836E+01 -0.53733007633E+00  0.12803283762E+04  0.12803710944E+04  0.10000000000E+02 0.  0.
</event>
<event>
 5    1  0.9123258E-009  0.3764329E+03  0.7957747E-01  0.3466839E+00
         13   -1    0    0    0    0  0.00000000000E+00  0.00000000000E+00  0.14999999963E+04  0.15000000000E+04  0.10566000000E+00 0. -1.
        994   -1    0    0    0    0 -0.00000000000E+00 -0.00000000000E+00  0.11368683772E-12  0.17120000000E+03  0.17120000000E+03 0.  0.
         13    1    1    2    0    0  0.44826408837E+02 -0.24749863637E+02  0.26402111748E+03  0.26894074500E+03  0.10566000000E+00 0. -1.
        994    1    1    2    0    0 -0.10765890740E+01  0.73758231648E+01  0.61327039959E+01  0.17147189819E+03  0.17120000000E+03 0.  0.
        998    1    1    2    0    0 -0.43749819763E+02  0.17374040473E+02  0.12298461748E+04  0.12307873568E+04  0.10000000000E+02 0. -1.
</event>
<event>
 5    1  0.9123258E-009  0.3805839E+03  0.7957747E-01  0.3448620E+00
         13   -1    0    0    0    0  0.00000000000E+00  0.00000000000E+00  0.14999999963E+04  0.15000000000E+04  0.10566000000E+00 0.  1.
        994   -1    0    0    0    0 -0.00000000000E+00 -0.00000000000E+00  0.11368683772E-12  0.17120000000E+03  0.17120000000E+03 0.  0.
         13    1    1    2    0    0 -0.51843129745E+01 -0.58712726748E+02  0.33096035618E+03  0.33616785973E+03  0.10566000000E+00 0.  1.
        994    1    1    2    0    0  0.15910681542E+02  0.64418801285E+02  0.18671315468E+02  0.18455619677E+03  0.17120000000E+03 0.  0.
        998    1    1    2    0    0 -0.10726368568E+02 -0.57060745377E+01  0.11503683246E+04  0.11504759435E+04  0.10000000000E+02 0. -1.
</event>
<event>
 5    1  0.9123258E-009  0.3847689E+03  0.7957747E-01  0.3430653E+00
         13   -1    0    0    0    0  0.00000000000E+00  0.00000000000E+00  0.14999999963E+04  0.15000000000E+04  0.10566000000E+00 0. -1.
        994   -1    0    0    0    0 -0.00000000000E+00 -0.00000000000E+00  0.11368683772E-12  0.17120000000E+03  0.17120000000E+03 0.  0.
         13    1    1    2    0    0  0.10414493682E+02 -0.15295126348E+01  0.31715523146E+02  0.33416861911E+02  0.10566000000E+00 0. -1.
        994    1    1    2    0    0 -0.47007143918E+01  0.37600961014E+01  0.18641960175E+01  0.17131593699E+03  0.17120000000E+03 0.  0.
        998    1    1    2    0    0 -0.57137792898E+01 -0.22305834666E+01  0.14664202771E+04  0.14664672011E+04  0.10000000000E+02 0. -1.
</event>
<event>
 5    1  0.9123258E-009  0.3708892E+03  0.7957747E-01  0.3491814E+00
         13   -1    0    0    0    0  0.00000000000E+00  0.00000000000E+00  0.14999999963E+04  0.15000000000E+04  0.10566000000E+00 0. -1.
        994   -1    0    0    0    0 -0.00000000000E+00 -0.00000000000E+00  0.11368683772E-12  0.17120000000E+03  0.17120000000E+03 0.  0.
         13    1    1    2    0    0  0.10378340929E+02 -0.32321990267E+01  0.26196813850E+01  0.11181724625E+02  0.10566000000E+00 0. -1.
        994    1    1    2    0    0 -0.74961506709E+01  0.15203979903E+01  0.90067055005E+01  0.17160729771E+03  0.17120000000E+03 0.  0.
        998    1    1    2    0    0 -0.28821902580E+01  0.17118010363E+01  0.14883736094E+04  0.14884109777E+04  0.10000000000E+02 0. -1.
</event>
<event>
 5    1  0.9123258E-009  0.3743215E+03  0.7957747E-01  0.3476263E+00
         13   -1    0    0    0    0  0.00000000000E+00  0.00000000000E+00  0.14999999963E+04  0.15000000000E+04  0.10566000000E+00 0. -1.
        994   -1    0    0    0    0 -0.00000000000E+00 -0.00000000000E+00  0.11368683772E-12  0.17120000000E+03  0.17120000000E+03 0.  0.
         13    1    1    2    0    0 -0.32096420489E+02  0.85850509871E+02  0.41214384261E+03  0.42221208938E+03  0.10566000000E+00 0. -1.
        994    1    1    2    0    0 -0.58484405036E+01 -0.18857169179E+02  0.14627194669E+02  0.17295430584E+03  0.17120000000E+03 0.  0.
        998    1    1    2    0    0  0.37944860992E+02 -0.66993340693E+02  0.10732289590E+04  0.10760336048E+04  0.10000000000E+02 0. -1.
</event>
<event>
 5    1  0.9123258E-009  0.3856527E+03  0.7957747E-01  0.3426909E+00
         13   -1    0    0    0    0  0.00000000000E+00  0.00000000000E+00  0.14999999963E+04  0.15000000000E+04  0.10566000000E+00 0.  1.
        994   -1    0    0    0    0 -0.00000000000E+00 -0.00000000000E+00  0.11368683772E-12  0.17120000000E+03  0.17120000000E+03 0.  0.
         13    1    1    2    0    0 -0.11744257828E+02 -0.95659423217E+01  0.90149579210E+02  0.91413306691E+02  0.10566000000E+00 0.  1.
        994    1    1    2    0    0  0.81151548474E+01  0.18963810019E+01  0.15343719938E+01  0.17140958636E+03  0.17120000000E+03 0.  0.
        998    1    1    2    0    0  0.36291029802E+01  0.76695613198E+01  0.14083160451E+04  0.14083771069E+04  0.10000000000E+02 0.  1.
</event>
<event>
 5    1  0.9123258E-009  0.3721436E+03  0.7957747E-01  0.3486097E+00
         13   -1    0    0    0    0  0.00000000000E+00  0.00000000000E+00  0.14999999963E+04  0.15000000000E+04  0.10566000000E+00 0. -1.
        994   -1    0    0    0    0 -0.00000000000E+00 -0.00000000000E+00  0.11368683772E-12  0.17120000000E+03  0.17120000000E+03 0.  0.
         13    1    1    2    0    0  0.67042511726E+01 -0.73205201947E+02  0.41939422454E+03  0.42578806385E+03  0.10566000000E+00 0. -1.
        994    1    1    2    0    0 -0.18456766433E+01  0.14870668513E+02  0.89239819630E+01  0.17208608531E+03  0.17120000000E+03 0.  0.
        998    1    1    2    0    0 -0.48585745293E+01  0.58334533434E+02  0.10716817898E+04  0.10733258508E+04  0.10000000000E+02 0. -1.
</event>
<event>
 5    1  0.9123258E-009  0.3849281E+03  0.7957747E-01  0.3429977E+00
         13   -1    0    0    0    0  0.00000000000E+00  0.00000000000E+00  0.14999999963E+04  0.15000000000E+04  0.10566000000E+00 0.  1.
        994   -1    0    0    0    0 -0.00000000000E+00 -0.00000000000E+00  0.11368683772E-12  0.17120000000E+03  0.17120000000E+03 0.  0.
         13    1    1    2    0    0 -0.17265594603E+01  0.18414609531E+02  0.10864765248E+03  0.11021071820E+03  0.10566000000E+00 0.  1.
        994    1    1    2    0    0 -0.19985679018E+01 -0.50973943742E+01  0.17644633437E+01  0.17129661711E+03  0.17120000000E+03 0.  0.
        998    1    1    2    0    0  0.37251273621E+01 -0.13317215156E+02  0.13895878805E+04  0.13896926647E+04  0.10000000000E+02 0.  1.
</event>
<event>
 5    1  0.9123258E-009  0.3829894E+03  0.7957747E-01  0.3438244E+00
         13   -1    0    0    0    0  0.00000000000E+00  0.00000000000E+00  0.14999999963E+04  0.15000000000E+04  0.10566000000E+00 0.  1.
        994   -1    0    0    0    0 -0.00000000000E+00 -0.00000000000E+00  0.11368683772E-12  0.17120000000E+03  0.17120000000E+03 0.  0.
         13    1    1    2    0    0 -0.40948042525E+00  0.20020184596E+02  0.76855548199E+02  0.79421419772E+02  0.10566000000E+00 0.  1.
        994    1    1    2    0    0 -0.75437121056E+01 -0.95703190632E+01  0.31233655710E+01  0.17166156824E+03  0.17120000000E+03 0.  0.
        998    1    1    2    0    0  0.79531925309E+01 -0.10449865533E+02  0.14200210825E+04  0.14201170120E+04  0.10000000000E+02 0.  1.
</event>
<event>
 5    1  0.9123258E-009  0.3741942E+03  0.7957747E-01  0.3476835E+00
         13   -1    0    0    0    0  0.00000000000E+00  0.00000000000E+00  0.14999999963E+04  0.15000000000E+04  0.10566000000E+00 0.  1.
        994   -1    0    0    0    0 -0.00000000000E+00 -0.00000000000E+00  0.11368683772E-12  0.17120000000E+03  0.17120000000E+03 0.  0.
         13    1    1    2    0    0 -0.43635457640E+01  0.92529757123E+01  0.41154235790E+01  0.11027509530E+02  0.10566000000E+00 0.  1.
        994    1    1    2    0    0 -0.10459984690E+01 -0.59756614007E+01  0.72185766418E+01  0.17145947186E+03  0.17120000000E+03 0.  0.
        998    1    1    2    0    0  0.54095442330E+01 -0.32773143117E+01  0.14886659961E+04  0.14887130186E+04  0.10000000000E+02 0.  1.
</event>
<event>
 5    1  0.9123258E-009  0.3813039E+03  0.7957747E-01  0.3445501E+00
         13   -1    0    0    0    0  0.00000000000E+00  0.00000000000E+00  0.14999999963E+04  0.15000000000E+04  0.10566000000E+00 0. -1.
        994   -1    0    0    0    0 -0.00000000000E+00 -0.00000000000E+00  0.11368683772E-12  0.17120000000E+03  0.17120000000E+03 0.  0.
         13    1    1    2    0    0  0.30859976785E+02 -0.11466712973E+02  0.13708483546E+03  0.14098257676E+03  0.10566000000E+00 0. -1.
        994    1    1    2    0    0 -0.38681047197E+02  0.63655602601E+01  0.86085075328E+01  0.17584166222E+03  0.17120000000E+03 0.  0.
        998    1    1    2    0    0  0.78210704117E+01  0.51011527129E+01  0.13543066533E+04  0.13543757610E+04  0.10000000000E+02 0. -1.
</event>
<event>
 5    1  0.9123258E-009  0.3739193E+03  0.7957747E-01  0.3478070E+00
         13   -1    0    0    0    0  0.00000000000E+00  0.00000000000E+00  0.14999999963E+04  0.15000000000E+04  0.10566000000E+00 0.  1.
        994   -1    0    0    0    0 -0.00000000000E+00 -0.00000000000E+00  0.11368683772E-12  0.17120000000E+03  0.17120000000E+03 0.  0.
         13    1    1    2    0    0 -0.82009597152E+00 -0.38553786229E+02  0.49525304726E+02  0.62768096691E+02  0.10566000000E+00 0.  1.
        994    1    1    2    0    0  0.34643373879E+01  0.45696171114E+02  0.20508140008E+02  0.17841010480E+03  0.17120000000E+03 0.  0.
        998    1    1    2    0    0 -0.26442414163E+01 -0.71423848854E+01  0.14299665515E+04  0.14300217985E+04  0.10000000000E+02 0.  1.
</event>
<event>
 5    1  0.9123258E-009  0.3818361E+03  0.7957747E-01  0.3443202E+00
         13   -1    0    0    0    0  0.00000000000E+00  0.00000000000E+00  0.14999999963E+04  0.15000000000E+04  0.10566000000E+00 0. -1.
        994   -1    0    0    0    0 -0.00000000000E+00 -0.00000000000E+00  0.11368683772E-12  0.17120000000E+03  0.17120000000E+03 0.  0.
         13    1    1    2    0    0 -0.36776353409E+01 -0.24279733503E+02  0.90880971532E+02  0.94140281555E+02  0.10566000000E+00 0. -1.
        994    1    1    2    0    0 -0.77155961990E+01  0.20720278730E+02  0.48351840879E+01  0.17268954624E+03  0.17120000000E+03 0.  0.
        998    1    1    2    0    0  0.11393231540E+02  0.35594547729E+01  0.14042838407E+04  0.14043701722E+04  0.10000000000E+02 0. -1.
</event>
<event>
 5    1  0.9123258E-009  0.3739671E+03  0.7957747E-01  0.3477855E+00
         13   -1    0    0    0    0  0.00000000000E+00  0.00000000000E+00  0.14999999963E+04  0.15000000000E+04  0.10566000000E+00 0. -1.
        994   -1    0    0    0    0 -0.00000000000E+00 -0.00000000000E+00  0.11368683772E-12  0.17120000000E+03  0.17120000000E+03 0.  0.
         13    1    1    2    0    0 -0.93175303063E+01 -0.11259316185E+02  0.11331443621E+02  0.18493278524E+02  0.10566000000E+00 0. -1.
        994    1    1    2    0    0  0.21919627512E+02  0.85164348806E+01  0.90987241534E+01  0.17304689109E+03  0.17120000000E+03 0.  0.
        998    1    1    2    0    0 -0.12602097205E+02  0.27428813048E+01  0.14795698285E+04  0.14796598304E+04  0.10000000000E+02 0. -1.
</event>
<event>
 5    1  0.1139223E-008  0.3859386E+03  0.7957747E-01  0.3425701E+00
         13   -1    0    0    0    0  0.00000000000E+00  0.00000000000E+00  0.14999999963E+04  0.15000000000E+04  0.10566000000E+00 0.  1.
        994   -1    0    0    0    0 -0.00000000000E+00 -0.00000000000E+00  0.11368683772E-12  0.17120000000E+03  0.17120000000E+03 0.  0.
         13    1    1    2    0    0 -0.92434188681E+01 -0.95295076545E+01  0.77066817900E+02  0.78202032542E+02  0.10566000000E+00 0.  1.
        994    1    1    2    0    0  0.52257848148E+01  0.57353096925E+01  0.13622726956E+01  0.17138114946E+03  0.17120000000E+03 0.  0.
        998    1    1    2    0    0  0.40176340534E+01  0.37941979620E+01  0.14215709057E+04  0.14216168180E+04  0.10000000000E+02 0.  1.
</event>
<event>
 5    1  0.9123258E-009  0.3746417E+03  0.7957747E-01  0.3474827E+00
         13   -1    0    0    0    0  0.00000000000E+00  0.00000000000E+00  0.14999999963E+04  0.15000000000E+04  0.10566000000E+00 0. -1.
        994   -1    0    0    0    0 -0.00000000000E+00 -0.00000000000E+00  0.11368683772E-12  0.17120000000E+03  0.17120000000E+03 0.  0.
         13    1    1    2    0    0 -0.16720105555E+02  0.57178809022E+02  0.20037797848E+03  0.20904622349E+03  0.10566000000E+00 0. -1.
        994    1    1    2    0    0  0.43453290294E+02 -0.68124272799E+02  0.29418962706E+02  0.19158293334E+03  0.17120000000E+03 0.  0.
        998    1    1    2    0    0 -0.26733184739E+02  0.10945463778E+02  0.12702030551E+04  0.12705708432E+04  0.10000000000E+02 0. -1.
</event>
<event>
 5    1  0.9123258E-009  0.3782718E+03  0.7957747E-01  0.3458718E+00
         13   -1    0    0    0    0  0.00000000000E+00  0.00000000000E+00  0.14999999963E+04  0.15000000000E+04  0.10566000000E+00 0. -1.
        994   -1    0    0    0    0 -0.00000000000E+00 -0.00000000000E+00  0.11368683772E-12  0.17120000000E+03  0.17120000000E+03 0.  0.
         13    1    1    2    0    0 -0.11782392752E+02 -0.23108531720E+02  0.74486336513E+02  0.78873661690E+02  0.10566000000E+00 0. -1.
        994    1    1    2    0    0 -0.29247973608E+01 -0.15319805927E+02  0.58263375588E+01  0.17200766583E+03  0.17120000000E+03 0.  0.
        998    1    1    2    0    0  0.14707190112E+02  0.38428337647E+02  0.14196873222E+04  0.14203186725E+04  0.10000000000E+02 0. -1.
</event>
<event>
 5    1  0.9123258E-009  0.3727461E+03  0.7957747E-01  0.3483365E+00
         13   -1    0    0    0    0  0.00000000000E+00  0.00000000000E+00  0.14999999963E+04  0.15000000000E+04  0.10566000000E+00 0. -1.
        994   -1    0    0    0    0 -0.00000000000E+00 -0.00000000000E+00  0.11368683772E-12  0.17120000000E+03  0.17120000000E+03 0.  0.
         13    1    1    2    0    0  0.11530827746E+02 -0.37111496644E+02  0.91983580588E+02  0.99855963435E+02  0.10566000000E+00 0. -1.
        994    1    1    2    0    0 -0.21178517692E+02  0.23293102607E+02  0.11243050369E+02  0.17443320906E+03  0.17120000000E+03 0.  0.
        998    1    1    2    0    0  0.96476899453E+01  0.13818394037E+02  0.13967733653E+04  0.13969108275E+04  0.10000000000E+02 0. -1.
</event>
<event>
 5    1  0.9123258E-009  0.3830935E+03  0.7957747E-01  0.3437798E+00
         13   -1    0    0    0    0  0.00000000000E+00  0.00000000000E+00  0.14999999963E+04  0.15000000000E+04  0.10566000000E+00 0.  1.
        994   -1    0    0    0    0 -0.00000000000E+00 -0.00000000000E+00  0.11368683772E-12  0.17120000000E+03  0.17120000000E+03 0.  0.
         13    1    1    2    0    0 -0.23513630106E+02 -0.12587144671E+02  0.13957215915E+03  0.14209759247E+03  0.10566000000E+00 0.  1.
        994    1    1    2    0    0  0.17811877231E+02 -0.37490794848E+01  0.36767781108E+01  0.17220417319E+03  0.17120000000E+03 0.  0.
        998    1    1    2    0    0  0.57017528755E+01  0.16336224156E+02  0.13567510590E+04  0.13568982343E+04  0.10000000000E+02 0.  1.
</event>
<event>
 5    1  0.9123258E-009  0.3757519E+03  0.7957747E-01  0.3469867E+00
         13   -1    0    0    0    0  0.00000000000E+00  0.00000000000E+00  0.14999999963E+04  0.15000000000E+04  0.10566000000E+00 0.  1.
        994   -1    0    0    0    0 -0.00000000000E+00 -0.00000000000E+00  0.11368683772E-12  0.17120000000E+03  0.17120000000E+03 0.  0.
         13    1    1    2    0    0 -0.15600459194E+01 -0.10873278425E+02  0.65952931146E+01  0.12812922472E+02  0.10566000000E+00 0.  1.
        994    1    1    2    0    0 -0.17016347067E+01  0.15506534516E+02  0.71186361234E+01  0.17205656963E+03  0.17120000000E+03 0.  0.
        998    1    1    2    0    0  0.32616806262E+01 -0.46332560910E+01  0.14862860670E+04  0.14863305079E+04  0.10000000000E+02 0.  1.
</event>
<event>
 5    1  0.9123258E-009  0.3784881E+03  0.7957747E-01  0.3457768E+00
         13   -1    0    0    0    0  0.00000000000E+00  0.00000000000E+00  0.14999999963E+04  0.15000000000E+04  0.10566000000E+00 0. -1.
        994   -1    0    0    0    0 -0.00000000000E+00 -0.00000000000E+00  0.11368683772E-12  0.17120000000E+03  0.17120000000E+03 0.  0.
         13    1    1    2    0    0  0.18098362582E+02  0.19490107985E+02  0.70942078021E+02  0.75764138188E+02  0.10566000000E+00 0. -1.
        994    1    1    2    0    0 -0.28009851368E+02  0.53347542295E+01  0.76345838397E+01  0.17372604366E+03  0.17120000000E+03 0.  0.
        998    1    1    2    0    0  0.99114887859E+01 -0.24824862214E+02  0.14214233344E+04  0.14217098181E+04  0.10000000000E+02 0. -1.
</event>
<event>
 5    1  0.9123258E-009  0.3787903E+03  0.7957747E-01  0.3456443E+00
         13   -1    0    0    0    0  0.00000000000E+00  0.00000000000E+00  0.14999999963E+04  0.15000000000E+04  0.10566000000E+00 0. -1.
        994   -1    0    0    0    0 -0.00000000000E+00 -0.00000000000E+00  0.11368683772E-12  0.17120000000E+03  0.17120000000E+03 0.  0.
         13    1    1    2    0    0  0.42906889527E+00 -0.10966530168E+02  0.10388998974E+02  0.15112622134E+02  0.10566000000E+00 0. -1.
        994    1    1    2    0    0 -0.43917303709E+01  0.15623868145E+02  0.56295649536E+01  0.17205965405E+03  0.17120000000E+03 0.  0.
        998    1    1    2    0    0  0.39626614756E+01 -0.46573379772E+01  0.14839814324E+04  0.14840277238E+04  0.10000000000E+02 0. -1.
</event>
<event>
 5    1  0.9123258E-009  0.3958655E+03  0.7957747E-01  0.3384858E+00
         13   -1    0    0    0    0  0.00000000000E+00  0.00000000000E+00  0.14999999963E+04  0.15000000000E+04  0.10566000000E+00 0.  1.
        994   -1    0    0    0    0 -0.00000000000E+00 -0.00000000000E+00  0.11368683772E-12  0.17120000000E+03  0.17120000000E+03 0.  0.
         13    1    1    2    0    0 -0.32666598924E+02  0.31138287914E+02  0.29946310454E+02  0.54161723877E+02  0.10566000000E+00 0.  1.
        994    1    1    2    0    0  0.60661581856E+02  0.32694989332E+01  0.39680085355E+02  0.18594210473E+03  0.17120000000E+03 0.  0.
        998    1    1    2    0    0 -0.27994982931E+02 -0.34407786847E+02  0.14303736005E+04  0.14310961714E+04  0.10000000000E+02 0.  1.
</event>
<event>
 5    1  0.9123258E-009  0.3756635E+03  0.7957747E-01  0.3470261E+00
         13   -1    0    0    0    0  0.00000000000E+00  0.00000000000E+00  0.14999999963E+04  0.15000000000E+04  0.10566000000E+00 0. -1.
        994   -1    0    0    0    0 -0.00000000000E+00 -0.00000000000E+00  0.11368683772E-12  0.17120000000E+03  0.17120000000E+03 0.  0.
         13    1    1    2    0    0 -0.17902336272E+02  0.63171951404E+01  0.25976237404E+02  0.32174161561E+02  0.10566000000E+00 0. -1.
        994    1    1    2    0    0  0.10613431612E+02 -0.79507544331E+00  0.67226926469E+01  0.17166220222E+03  0.17120000000E+03 0.  0.
        998    1    1    2    0    0  0.72889046603E+01 -0.55221196971E+01  0.14673010662E+04  0.14673636362E+04  0.10000000000E+02 0. -1.
</event>
<event>
 5    1  0.9123258E-009  0.3690050E+03  0.7957747E-01  0.3500476E+00
         13   -1    0    0    0    0  0.00000000000E+00  0.00000000000E+00  0.14999999963E+04  0.15000000000E+04  0.10566000000E+00 0. -1.
        994   -1    0    0    0    0 -0.00000000000E+00 -0.00000000000E+00  0.11368683772E-12  0.17120000000E+03  0.17120000000E+03 0.  0.
         13    1    1    2    0    0  0.14187182076E+02 -0.18437658511E+02  0.22663344790E+02  0.32478635250E+02  0.10566000000E+00 0. -1.
        994    1    1    2    0    0 -0.17855742560E+02  0.26652505486E+02  0.13369273433E+02  0.17469218947E+03  0.17120000000E+03 0.  0.
        998    1    1    2    0    0  0.36685604840E+01 -0.82148469751E+01  0.14639673781E+04  0.14640291753E+04  0.10000000000E+02 0. -1.
</event>
<event>
 5    1  0.9123258E-009  0.3841250E+03  0.7957747E-01  0.3433392E+00
         13   -1    0    0    0    0  0.00000000000E+00  0.00000000000E+00  0.14999999963E+04  0.15000000000E+04  0.10566000000E+00 0.  1.
        994   -1    0    0    0    0 -0.00000000000E+00 -0.00000000000E+00  0.11368683772E-12  0.17120000000E+03  0.17120000000E+03 0.  0.
         13    1    1    2    0    0 -0.33259998423E+01 -0.11996756969E+02  0.38589884568E+02  0.40548425465E+02  0.10566000000E+00 0.  1.
        994    1    1    2    0    0  0.54412441895E+01 -0.23194568376E+01  0.21805873975E+01  0.17131602955E+03  0.17120000000E+03 0.  0.
        998    1    1    2    0    0 -0.21152443473E+01  0.14316213807E+02  0.14592295243E+04  0.14593355450E+04  0.10000000000E+02 0.  1.
</event>
<event>
 5    1  0.9123258E-009  0.3685010E+03  0.7957747E-01  0.3502809E+00
         13   -1    0    0    0    0  0.00000000000E+00  0.00000000000E+00  0.14999999963E+04  0.15000000000E+04  0.10566000000E+00 0. -1.
        994   -1    0    0    0    0 -0.00000000000E+00 -0.00000000000E+00  0.11368683772E-12  0.17120000000E+03  0.17120000000E+03 0.  0.
         13    1    1    2    0    0 -0.14694182363E+01  0.28225427152E+02  0.36285567433E+02  0.45994428966E+02  0.10566000000E+00 0. -1.
        994    1    1    2    0    0  0.95218684610E+01 -0.12651225853E+02  0.10926601477E+02  0.17227753804E+03  0.17120000000E+03 0.  0.
        998    1    1    2    0    0 -0.80524502246E+01 -0.15574201299E+02  0.14527878274E+04  0.14529280330E+04  0.10000000000E+02 0. -1.
</event>
<event>
 5    1  0.9123258E-009  0.3786678E+03  0.7957747E-01  0.3456980E+00
         13   -1    0    0    0    0  0.00000000000E+00  0.00000000000E+00  0.14999999963E+04  0.15000000000E+04  0.10566000000E+00 0.  1.
        994   -1    0    0    0    0 -0.00000000000E+00 -0.00000000000E+00  0.11368683772E-12  0.17120000000E+03  0.17120000000E+03 0.  0.
         13    1    1    2    0    0  0.38786883041E+02 -0.53299852792E+02  0.35880135333E+03  0.36480641294E+03  0.10566000000E+00 0.  1.
        994    1    1    2    0    0 -0.33147185054E+02  0.52153046012E+02  0.17737887171E+02  0.18287358674E+03  0.17120000000E+03 0.  0.
        998    1    1    2    0    0 -0.56396979876E+01  0.11468067805E+01  0.11234607558E+04  0.11235200003E+04  0.10000000000E+02 0.  1.
</event>
<event>
 5    1  0.9123258E-009  0.3799229E+03  0.7957747E-01  0.3451494E+00
         13   -1    0    0    0    0  0.00000000000E+00  0.00000000000E+00  0.14999999963E+04  0.15000000000E+04  0.10566000000E+00 0. -1.
        994   -1    0    0    0    0 -0.00000000000E+00 -0.00000000000E+00  0.11368683772E-12  0.17120000000E+03  0.17120000000E+03 0.  0.
         13    1    1    2    0    0  0.25237693928E+02 -0.35974342648E+02  0.25623496746E+03  0.25997589165E+03  0.10566000000E+00 0. -1.
        994    1    1    2    0    0 -0.25641695544E+02 -0.14616106111E+01  0.63808764685E+01  0.17323333525E+03  0.17120000000E+03 0.  0.
        998    1    1    2    0    0  0.40400161587E+00  0.37435953259E+02  0.12373841523E+04  0.12379907731E+04  0.10000000000E+02 0. -1.
</event>
<event>
 5    1  0.9123258E-009  0.3734878E+03  0.7957747E-01  0.3480014E+00
         13   -1    0    0    0    0  0.00000000000E+00  0.00000000000E+00  0.14999999963E+04  0.15000000000E+04  0.10566000000E+00 0.  1.
        994   -1    0    0    0    0 -0.00000000000E+00 -0.00000000000E+00  0.11368683772E-12  0.17120000000E+03  0.17120000000E+03 0.  0.
         13    1    1    2    0    0 -0.12803791166E+03  0.65814647542E+02  0.70104471091E+03  0.71567378917E+03  0.10566000000E+00 0.  1.
        994    1    1    2    0    0  0.12704649286E+03 -0.63329783800E+02  0.79777476626E+02  0.23627390596E+03  0.17120000000E+03 0.  0.
        998    1    1    2    0    0  0.99141880263E+00 -0.24848637417E+01  0.71917780874E+03  0.71925230486E+03  0.10000000000E+02 0.  1.
</event>
<event>
 5    1  0.9123258E-009  0.3856820E+03  0.7957747E-01  0.3426785E+00
         13   -1    0    0    0    0  0.00000000000E+00  0.00000000000E+00  0.14999999963E+04  0.15000000000E+04  0.10566000000E+00 0. -1.
        994   -1    0    0    0    0 -0.00000000000E+00 -0.00000000000E+00  0.11368683772E-12  0.17120000000E+03  0.17120000000E+03 0.  0.
         13    1    1    2    0    0 -0.88033211201E+01 -0.57272758092E+01  0.39938178401E+02  0.41296118570E+02  0.10566000000E+00 0. -1.
        994    1    1    2    0    0  0.26021747577E+02 -0.24516351843E+01  0.35367697376E+01  0.17321977544E+03  0.17120000000E+03 0.  0.
        998    1    1    2    0    0 -0.17218426457E+02  0.81789109934E+01  0.14565250481E+04  0.14566841060E+04  0.10000000000E+02 0. -1.
</event>
<event>
 5    1  0.9123258E-009  0.3710498E+03  0.7957747E-01  0.3491080E+00
         13   -1    0    0    0    0  0.00000000000E+00  0.00000000000E+00  0.14999999963E+04  0.15000000000E+04  0.10566000000E+00 0.  1.
        994   -1    0    0    0    0 -0.00000000000E+00 -0.00000000000E+00  0.11368683772E-12  0.17120000000E+03  0.17120000000E+03 0.  0.
         13    1    1    2    0    0 -0.23144631969E+02 -0.46329689203E+02  0.16317940486E+03  0.17120059412E+03  0.10566000000E+00 0.  1.
        994    1    1    2    0    0  0.41296135703E+01  0.14410899789E+02  0.94959541050E+01  0.17211723007E+03  0.17120000000E+03 0.  0.
        998    1    1    2    0    0  0.19015018399E+02  0.31918789413E+02  0.13273246373E+04  0.13278821758E+04  0.10000000000E+02 0.  1.
</event>
<event>
 5    1  0.1056811E-008  0.3852418E+03  0.7957747E-01  0.3428647E+00
         13   -1    0    0    0    0  0.00000000000E+00  0.00000000000E+00  0.14999999963E+04  0.15000000000E+04  0.10566000000E+00 0.  1.
        994   -1    0    0    0    0 -0.00000000000E+00 -0.00000000000E+00  0.11368683772E-12  0.17120000000E+03  0.17120000000E+03 0.  0.
         13    1    1    2    0    0 -0.10451121019E+02 -0.24717942661E+01  0.36957150653E+02  0.38486073402E+02  0.10566000000E+00 0.  1.
        994    1    1    2    0    0  0.13221075475E+02  0.33041888906E+01  0.21206327041E+01  0.17175462609E+03  0.17120000000E+03 0.  0.
        998    1    1    2    0    0 -0.27699544552E+01 -0.83239462448E+00  0.14609222129E+04  0.14609593005E+04  0.10000000000E+02 0.  1.
</event>
<event>
 5    1  0.9123258E-009  0.3815289E+03  0.7957747E-01  0.3444528E+00
         13   -1    0    0    0    0  0.00000000000E+00  0.00000000000E+00  0.14999999963E+04  0.15000000000E+04  0.10566000000E+00 0. -1.
        994   -1    0    0    0    0 -0.00000000000E+00 -0.00000000000E+00  0.11368683772E-12  0.17120000000E+03  0.17120000000E+03 0.  0.
         13    1    1    2    0    0 -0.15121808497E+02  0.29467425751E+02  0.15924242811E+03  0.16265042375E+03  0.10566000000E+00 0. -1.
        994    1    1    2    0    0  0.13625117741E+02 -0.17584804774E+02  0.50110694420E+01  0.17271195676E+03  0.17120000000E+03 0.  0.
        998    1    1    2    0    0  0.14966907558E+01 -0.11882620978E+02  0.13357464987E+04  0.13358376195E+04  0.10000000000E+02 0. -1.
</event>
<event>
 5    1  0.9123258E-009  0.3847607E+03  0.7957747E-01  0.3430688E+00
         13   -1    0    0    0    0  0.00000000000E+00  0.00000000000E+00  0.14999999963E+04  0.15000000000E+04  0.10566000000E+00 0. -1.
        994   -1    0    0    0    0 -0.00000000000E+00 -0.00000000000E+00  0.11368683772E-12  0.17120000000E+03  0.17120000000E+03 0.  0.
         13    1    1    2    0    0 -0.28339612297E+02  0.26210431795E+02  0.31866771703E+02  0.50056195049E+02  0.10566000000E+00 0. -1.
        994    1    1    2    0    0  0.23235543985E+02 -0.18474844528E+02  0.22223746631E+02  0.17517004681E+03  0.17120000000E+03 0.  0.
        998    1    1    2    0    0  0.51040683117E+01 -0.77355872672E+01  0.14459094779E+04  0.14459737581E+04  0.10000000000E+02 0. -1.
</event>
<event>
 5    1  0.9123258E-009  0.3811056E+03  0.7957747E-01  0.3446358E+00
         13   -1    0    0    0    0  0.00000000000E+00  0.00000000000E+00  0.14999999963E+04  0.15000000000E+04  0.10566000000E+00 0. -1.
        994   -1    0    0    0    0 -0.00000000000E+00 -0.00000000000E+00  0.11368683772E-12  0.17120000000E+03  0.17120000000E+03 0.  0.
         13    1    1    2    0    0  0.28171567419E+02  0.39531019619E+02  0.25971080379E+03  0.26420834864E+03  0.10566000000E+00 0. -1.
        994    1    1    2    0    0 -0.15877687900E+02 -0.56290877984E+02  0.15054859844E+02  0.18154022343E+03  0.17120000000E+03 0.  0.
        998    1    1    2    0    0 -0.12293879519E+02  0.16759858364E+02  0.12252343326E+04  0.12254514279E+04  0.10000000000E+02 0. -1.
</event>
<event>
 5    1  0.9123258E-009  0.3840898E+03  0.7957747E-01  0.3433542E+00
         13   -1    0    0    0    0  0.00000000000E+00  0.00000000000E+00  0.14999999963E+04  0.15000000000E+04  0.10566000000E+00 0.  1.
        994   -1    0    0    0    0 -0.00000000000E+00 -0.00000000000E+00  0.11368683772E-12  0.17120000000E+03  0.17120000000E+03 0.  0.
         13    1    1    2    0    0  0.15561654281E+02 -0.51301328753E+01  0.64212635898E+02  0.66270333637E+02  0.10566000000E+00 0.  1.
        994    1    1    2    0    0 -0.12016848101E+02 -0.35191410979E+01  0.26000538625E+01  0.17167699110E+03  0.17120000000E+03 0.  0.
        998    1    1    2    0    0 -0.35448061805E+01  0.86492739731E+01  0.14331873065E+04  0.14332526753E+04  0.10000000000E+02 0.  1.
</event>
<event>
 5    1  0.9123258E-009  0.3766203E+03  0.7957747E-01  0.3466008E+00
         13   -1    0    0    0    0  0.00000000000E+00  0.00000000000E+00  0.14999999963E+04  0.15000000000E+04  0.10566000000E+00 0.  1.
        994   -1    0    0    0    0 -0.00000000000E+00 -0.00000000000E+00  0.11368683772E-12  0.17120000000E+03  0.17120000000E+03 0.  0.
         13    1    1    2    0    0  0.19198575673E+02  0.64240443733E+02  0.15530798801E+03  0.16916265020E+03  0.10566000000E+00 0.  1.
        994    1    1    2    0    0 -0.28058833102E+02 -0.27327277174E+02  0.19993873115E+02  0.17675766788E+03  0.17120000000E+03 0.  0.
        998    1    1    2    0    0  0.88602574284E+01 -0.36913166558E+02  0.13246981352E+04  0.13252796819E+04  0.10000000000E+02 0.  1.
</event>
<event>
 5    1  0.9123258E-009  0.3729345E+03  0.7957747E-01  0.3482512E+00
         13   -1    0    0    0    0  0.00000000000E+00  0.00000000000E+00  0.14999999963E+04  0.15000000000E+04  0.10566000000E+00 0. -1.
        994   -1    0    0    0    0 -0.00000000000E+00 -0.00000000000E+00  0.11368683772E-12  0.17120000000E+03  0.17120000000E+03 0.  0.
         13    1    1    2    0    0 -0.20445793066E+01  0.28134491782E+02  0.53653804280E+02  0.60617421672E+02  0.10566000000E+00 0. -1.
        994    1    1    2    0    0  0.97128579252E+01  0.15740911725E+02  0.89151861859E+01  0.17242690178E+03  0.17120000000E+03 0.  0.
        998    1    1    2    0    0 -0.76682786186E+01 -0.43875403507E+02  0.14374310058E+04  0.14381556766E+04  0.10000000000E+02 0. -1.
</event>
<event>
 5    1  0.9123258E-009  0.3802840E+03  0.7957747E-01  0.3449923E+00
         13   -1    0    0    0    0  0.00000000000E+00  0.00000000000E+00  0.14999999963E+04  0.15000000000E+04  0.10566000000E+00 0. -1.
        994   -1    0    0    0    0 -0.00000000000E+00 -0.00000000000E+00  0.11368683772E-12  0.17120000000E+03  0.17120000000E+03 0.  0.
         13    1    1    2    0    0  0.29788818828E+02  0.39562096887E+02  0.27261830408E+03  0.27707992370E+03  0.10566000000E+00 0. -1.
        994    1    1    2    0    0 -0.93635136857E+01 -0.45635894895E+02  0.11272471744E+02  0.17778306700E+03  0.17120000000E+03 0.  0.
        998    1    1    2    0    0 -0.20425305143E+02  0.60737980084E+01  0.12161092205E+04  0.12163370093E+04  0.10000000000E+02 0. -1.
</event>
<event>
 5    1  0.9123258E-009  0.3729931E+03  0.7957747E-01  0.3482247E+00
         13   -1    0    0    0    0  0.00000000000E+00  0.00000000000E+00  0.14999999963E+04  0.15000000000E+04  0.10566000000E+00 0. -1.
        994   -1    0    0    0    0 -0.00000000000E+00 -0.00000000000E+00  0.11368683772E-12  0.17120000000E+03  0.17120000000E+03 0.  0.
         13    1    1    2    0    0  0.84847327632E+01 -0.14937969597E+02  0.15991452805E+02  0.23470648747E+02  0.10566000000E+00 0. -1.
        994    1    1    2    0    0 -0.26157511278E+01  0.57558846372E+01  0.78497316001E+01  0.17149644500E+03  0.17120000000E+03 0.  0.
        998    1    1    2    0    0 -0.58689816354E+01  0.91820849595E+01  0.14761588119E+04  0.14762329063E+04  0.10000000000E+02 0. -1.
</event>
<event>
 5    1  0.9123258E-009  0.3856652E+03  0.7957747E-01  0.3426856E+00
         13   -1    0    0    0    0  0.00000000000E+00  0.00000000000E+00  0.14999999963E+04  0.15000000000E+04  0.10566000000E+00 0.  1.
        994   -1    0    0    0    0 -0.00000000000E+00 -0.00000000000E+00  0.11368683772E-12  0.17120000000E+03  0.17120000000E+03 0.  0.
         13    1    1    2    0    0  0.17277780090E+00  0.12077452540E+02  0.56720607403E+02  0.57992526935E+02  0.10566000000E+00 0.  1.
        994    1    1    2    0    0 -0.10753530547E+02 -0.74515422623E+01  0.18621228256E+01  0.17170926417E+03  0.17120000000E+03 0.  0.
        998    1    1    2    0    0  0.10580752746E+02 -0.46259102778E+01  0.14414172660E+04  0.14414982089E+04  0.10000000000E+02 0.  1.
</event>
<event>
 5    1  0.9123258E-009  0.3830646E+03  0.7957747E-01  0.3437922E+00
         13   -1    0    0    0    0  0.00000000000E+00  0.00000000000E+00  0.14999999963E+04  0.15000000000E+04  0.10566000000E+00 0.  1.
        994   -1    0    0    0    0 -0.00000000000E+00 -0.00000000000E+00  0.11368683772E-12  0.17120000000E+03  0.17120000000E+03 0.  0.
         13    1    1    2    0    0 -0.11530484023E+02  0.11520486025E+02  0.60782917082E+02  0.62930500023E+02  0.10566000000E+00 0.  1.
        994    1    1    2    0    0 -0.23567996720E+01  0.33602001539E+02  0.63581774503E+01  0.17459815415E+03  0.17120000000E+03 0.  0.
        998    1    1    2    0    0  0.13887283695E+02 -0.45122487565E+02  0.14328589017E+04  0.14336713458E+04  0.10000000000E+02 0.  1.
</event>
<event>
 5    1  0.9123258E-009  0.3800486E+03  0.7957747E-01  0.3450947E+00
         13   -1    0    0    0    0  0.00000000000E+00  0.00000000000E+00  0.14999999963E+04  0.15000000000E+04  0.10566000000E+00 0.  1.
        994   -1    0    0    0    0 -0.00000000000E+00 -0.00000000000E+00  0.11368683772E-12  0.17120000000E+03  0.17120000000E+03 0.  0.
         13    1    1    2    0    0 -0.14051176573E+02  0.18882325160E+02  0.68172185197E+02  0.72120980062E+02  0.10566000000E+00 0.  1.
        994    1    1    2    0    0 -0.10839486920E+02 -0.17277817835E+02  0.55003466432E+01  0.17249843848E+03  0.17120000000E+03 0.  0.
        998    1    1    2    0    0  0.24890663493E+02 -0.16045073251E+01  0.14263274644E+04  0.14265805815E+04  0.10000000000E+02 0.  1.
</event>
<event>
 5    1  0.9123258E-009  0.3731173E+03  0.7957747E-01  0.3481686E+00
         13   -1    0    0    0    0  0.00000000000E+00  0.00000000000E+00  0.14999999963E+04  0.15000000000E+04  0.10566000000E+00 0. -1.
        994   -1    0    0    0    0 -0.00000000000E+00 -0.00000000000E+00  0.11368683772E-12  0.17120000000E+03  0.17120000000E+03 0.  0.
         13    1    1    2    0    0 -0.41497640078E+02  0.80603597420E+01  0.12308617086E+03  0.13014315253E+03  0.10566000000E+00 0. -1.
        994    1    1    2    0    0  0.80976040769E+01 -0.40562125421E+01  0.79293903851E+01  0.17162266541E+03  0.17120000000E+03 0.  0.
        998    1    1    2    0    0  0.33400036001E+02 -0.40041471999E+01  0.13689844350E+04  0.13694341821E+04  0.10000000000E+02 0. -1.
</event>
<event>
 5    1  0.9123258E-009  0.3735899E+03  0.7957747E-01  0.3479553E+00
         13   -1    0    0    0    0  0.00000000000E+00  0.00000000000E+00  0.14999999963E+04  0.15000000000E+04  0.10566000000E+00 0.  1.
        994   -1    0    0    0    0 -0.00000000000E+00 -0.00000000000E+00  0.11368683772E-12  0.17120000000E+03  0.17120000000E+03 0.  0.
         13    1    1    2    0    0 -0.71503465077E+02 -0.20951580516E+02  0.26519401241E+03  0.27546250131E+03  0.10566000000E+00 0.  1.
        994    1    1    2    0    0  0.93353533427E+02  0.20518607994E+02  0.39280829063E+02  0.19997079539E+03  0.17120000000E+03 0.  0.
        998    1    1    2    0    0 -0.21850068350E+02  0.43297252213E+00  0.11955251548E+04  0.11957667033E+04  0.10000000000E+02 0.  1.
</event>
<event>
 5    1  0.9123258E-009  0.3833847E+03  0.7957747E-01  0.3436552E+00
         13   -1    0    0    0    0  0.00000000000E+00  0.00000000000E+00  0.14999999963E+04  0.15000000000E+04  0.10566000000E+00 0.  1.
        994   -1    0    0    0    0 -0.00000000000E+00 -0.00000000000E+00  0.11368683772E-12  0.17120000000E+03  0.17120000000E+03 0.  0.
         13    1    1    2    0    0 -0.19064126941E+02 -0.24933453507E+01  0.74129309810E+02  0.76582135279E+02  0.10566000000E+00 0.  1.
        994    1    1    2    0    0  0.15350996462E+02 -0.10187999944E+01  0.32171318021E+01  0.17191998425E+03  0.17120000000E+03 0.  0.
        998    1    1    2    0    0  0.37131304795E+01  0.35121453451E+01  0.14226535547E+04  0.14226978805E+04  0.10000000000E+02 0.  1.
</event>
<event>
 5    1  0.9123258E-009  0.3824862E+03  0.7957747E-01  0.3440404E+00
         13   -1    0    0    0    0  0.00000000000E+00  0.00000000000E+00  0.14999999963E+04  0.15000000000E+04  0.10566000000E+00 0.  1.
        994   -1    0    0    0    0 -0.00000000000E+00 -0.00000000000E+00  0.11368683772E-12  0.17120000000E+03  0.17120000000E+03 0.  0.
         13    1    1    2    0    0  0.13813988178E+02 -0.26220434346E+02  0.15198498441E+03  0.15484761573E+03  0.10566000000E+00 0.  1.
        994    1    1    2    0    0 -0.24041253018E+02  0.72085130927E+01  0.49748584534E+01  0.17310151277E+03  0.17120000000E+03 0.  0.
        998    1    1    2    0    0  0.10227264840E+02  0.19011921253E+02  0.13430401534E+04  0.13432508715E+04  0.10000000000E+02 0.  1.
</event>
<event>
 5    1  0.9123258E-009  0.3725753E+03  0.7957747E-01  0.3484138E+00
         13   -1    0    0    0    0  0.00000000000E+00  0.00000000000E+00  0.14999999963E+04  0.15000000000E+04  0.10566000000E+00 0. -1.
        994   -1    0    0    0    0 -0.00000000000E+00 -0.00000000000E+00  0.11368683772E-12  0.17120000000E+03  0.17120000000E+03 0.  0.
         13    1    1    2    0    0  0.49656615076E+02 -0.59707851731E+02  0.40109445679E+03  0.40854324302E+03  0.10566000000E+00 0. -1.
        994    1    1    2    0    0 -0.20060251377E+02  0.32065840996E+02  0.12848159647E+02  0.17579859798E+03  0.17120000000E+03 0.  0.
        998    1    1    2    0    0 -0.29596363699E+02  0.27642010735E+02  0.10860573798E+04  0.10868581590E+04  0.10000000000E+02 0. -1.
</event>
<event>
 5    1  0.9123258E-009  0.3892263E+03  0.7957747E-01  0.3411943E+00
         13   -1    0    0    0    0  0.00000000000E+00  0.00000000000E+00  0.14999999963E+04  0.15000000000E+04  0.10566000000E+00 0.  1.
        994   -1    0    0    0    0 -0.00000000000E+00 -0.00000000000E+00  0.11368683772E-12  0.17120000000E+03  0.17120000000E+03 0.  0.
         13    1    1    2    0    0 -0.53418648745E+02  0.92074127014E+02  0.22133209341E+03  0.24559947809E+03  0.10566000000E+00 0.  1.
        994    1    1    2    0    0  0.45817437255E+02 -0.92050454604E+02  0.62341197262E+02  0.20920895924E+03  0.17120000000E+03 0.  0.
        998    1    1    2    0    0  0.76012114900E+01 -0.23672409334E-01  0.12163267056E+04  0.12163915627E+04  0.10000000000E+02 0.  1.
</event>
<event>
 5    1  0.9123258E-009  0.2964214E+03  0.7957747E-01  0.3921903E+00
         13   -1    0    0    0    0  0.00000000000E+00  0.00000000000E+00  0.14999999963E+04  0.15000000000E+04  0.10566000000E+00 0.  1.
        994   -1    0    0    0    0 -0.00000000000E+00 -0.00000000000E+00  0.11368683772E-12  0.17120000000E+03  0.17120000000E+03 0.  0.
         13    1    1    2    0    0 -0.16309501291E+03 -0.30469337046E+02  0.66602754880E+03  0.68638259787E+03  0.10566000000E+00 0.  1.
        994    1    1    2    0    0  0.17889296586E+03 -0.54647009822E+02  0.14855592980E+03  0.29388312847E+03  0.17120000000E+03 0.  0.
        998    1    1    2    0    0 -0.15797952947E+02  0.85116346867E+02  0.68541651768E+03  0.69093427367E+03  0.10000000000E+02 0.  1.
</event>
<event>
 5    1  0.9123258E-009  0.3775595E+03  0.7957747E-01  0.3461854E+00
         13   -1    0    0    0    0  0.00000000000E+00  0.00000000000E+00  0.14999999963E+04  0.15000000000E+04  0.10566000000E+00 0.  1.
        994   -1    0    0    0    0 -0.00000000000E+00 -0.00000000000E+00  0.11368683772E-12  0.17120000000E+03  0.17120000000E+03 0.  0.
         13    1    1    2    0    0  0.39889586292E+02 -0.19300660362E+01  0.16186983941E+03  0.16672360458E+03  0.10566000000E+00 0.  1.
        994    1    1    2    0    0 -0.66098861695E+01  0.55400833014E+01  0.56209151755E+01  0.17150923534E+03  0.17120000000E+03 0.  0.
        998    1    1    2    0    0 -0.33279700123E+02 -0.36100172652E+01  0.13325092417E+04  0.13329671601E+04  0.10000000000E+02 0.  1.
</event>
<event>
 5    1  0.9123258E-009  0.3847028E+03  0.7957747E-01  0.3430934E+00
         13   -1    0    0    0    0  0.00000000000E+00  0.00000000000E+00  0.14999999963E+04  0.15000000000E+04  0.10566000000E+00 0. -1.
        994   -1    0    0    0    0 -0.00000000000E+00 -0.00000000000E+00  0.11368683772E-12  0.17120000000E+03  0.17120000000E+03 0.  0.
         13    1    1    2    0    0  0.52919672107E+01 -0.86956426441E+01  0.28556906184E+02  0.30317110231E+02  0.10566000000E+00 0. -1.
        994    1    1    2    0    0 -0.22462330191E+02 -0.31060443698E+01  0.34722443615E+01  0.17273013712E+03  0.17120000000E+03 0.  0.
        998    1    1    2    0    0  0.17170362980E+02  0.11801687014E+02  0.14679708457E+04  0.14681527526E+04  0.10000000000E+02 0. -1.
</event>
<event>
 5    1  0.9123258E-009  0.3807377E+03  0.7957747E-01  0.3447953E+00
         13   -1    0    0    0    0  0.00000000000E+00  0.00000000000E+00  0.14999999963E+04  0.15000000000E+04  0.10566000000E+00 0.  1.
        994   -1    0    0    0    0 -0.00000000000E+00 -0.00000000000E+00  0.11368683772E-12  0.17120000000E+03  0.17120000000E+03 0.  0.
         13    1    1    2    0    0  0.79117305633E+02 -0.12352359710E+02  0.17649678143E+03  0.19381241926E+03  0.10566000000E+00 0.  1.
        994    1    1    2    0    0 -0.63240880990E+02  0.94498309513E+01  0.31743088857E+02  0.18548792959E+03  0.17120000000E+03 0.  0.
        998    1    1    2    0    0 -0.15876424643E+02  0.29025287590E+01  0.12917601260E+04  0.12918996511E+04  0.10000000000E+02 0.  1.
</event>
<event>
 5    1  0.9123258E-009  0.3837917E+03  0.7957747E-01  0.3434813E+00
         13   -1    0    0    0    0  0.00000000000E+00  0.00000000000E+00  0.14999999963E+04  0.15000000000E+04  0.10566000000E+00 0. -1.
        994   -1    0    0    0    0 -0.00000000000E+00 -0.00000000000E+00  0.11368683772E-12  0.17120000000E+03  0.17120000000E+03 0.  0.
         13    1    1    2    0    0 -0.13263726366E+02  0.14187638450E+02  0.89673209832E+02  0.91752445458E+02  0.10566000000E+00 0. -1.
        994    1    1    2    0    0 -0.24032730363E+01 -0.54822414173E+01  0.23495396464E+01  0.17132072563E+03  0.17120000000E+03 0.  0.
        998    1    1    2    0    0  0.15666999402E+02 -0.87053970326E+01  0.14079772468E+04  0.14081268289E+04  0.10000000000E+02 0. -1.
</event>
<event>
 5    1  0.9123258E-009  0.3823349E+03  0.7957747E-01  0.3441054E+00
         13   -1    0    0    0    0  0.00000000000E+00  0.00000000000E+00  0.14999999963E+04  0.15000000000E+04  0.10566000000E+00 0.  1.
        994   -1    0    0    0    0 -0.00000000000E+00 -0.00000000000E+00  0.11368683772E-12  0.17120000000E+03  0.17120000000E+03 0.  0.
         13    1    1    2    0    0  0.57833545553E+02 -0.62010340632E+01  0.34719717732E+03  0.35203559894E+03  0.10566000000E+00 0.  1.
        994    1    1    2    0    0 -0.78305031362E+02  0.85170790177E+01  0.23820899294E+02  0.18995024036E+03  0.17120000000E+03 0.  0.
        998    1    1    2    0    0  0.20471485809E+02 -0.23160449545E+01  0.11289819197E+04  0.11292141607E+04  0.10000000000E+02 0.  1.
</event>
<event>
 5    1  0.9123258E-009  0.3826080E+03  0.7957747E-01  0.3439881E+00
         13   -1    0    0    0    0  0.00000000000E+00  0.00000000000E+00  0.14999999963E+04  0.15000000000E+04  0.10566000000E+00 0. -1.
        994   -1    0    0    0    0 -0.00000000000E+00 -0.00000000000E+00  0.11368683772E-12  0.17120000000E+03  0.17120000000E+03 0.  0.
         13    1    1    2    0    0  0.17889283768E+02 -0.12300760150E+02  0.80802309224E+02  0.83668151133E+02  0.10566000000E+00 0. -1.
        994    1    1    2    0    0 -0.14422726451E+02  0.10415305489E+02  0.38720710078E+01  0.17216540466E+03  0.17120000000E+03 0.  0.
        998    1    1    2    0    0 -0.34665573178E+01  0.18854546607E+01  0.14153256160E+04  0.14153664442E+04  0.10000000000E+02 0. -1.
</event>
<event>
 5    1  0.9123258E-009  0.3827961E+03  0.7957747E-01  0.3439073E+00
         13   -1    0    0    0    0  0.00000000000E+00  0.00000000000E+00  0.14999999963E+04  0.15000000000E+04  0.10566000000E+00 0. -1.
        994   -1    0    0    0    0 -0.00000000000E+00 -0.00000000000E+00  0.11368683772E-12  0.17120000000E+03  0.17120000000E+03 0.  0.
         13    1    1    2    0    0 -0.13050505667E+02 -0.24715306979E+02  0.13939590881E+03  0.14217029455E+03  0.10566000000E+00 0. -1.
        994    1    1    2    0    0  0.17549516918E+02  0.13042757740E+02  0.43134978330E+01  0.17264456359E+03  0.17120000000E+03 0.  0.
        998    1    1    2    0    0 -0.44990112514E+01  0.11672549240E+02  0.13562905896E+04  0.13563851419E+04  0.10000000000E+02 0. -1.
</event>
<event>
 5    1  0.9123258E-009  0.3753544E+03  0.7957747E-01  0.3471639E+00
         13   -1    0    0    0    0  0.00000000000E+00  0.00000000000E+00  0.14999999963E+04  0.15000000000E+04  0.10566000000E+00 0. -1.
        994   -1    0    0    0    0 -0.00000000000E+00 -0.00000000000E+00  0.11368683772E-12  0.17120000000E+03  0.17120000000E+03 0.  0.
         13    1    1    2    0    0  0.23025641026E+01 -0.17668096322E+02  0.21692274135E+02  0.28071860471E+02  0.10566000000E+00 0. -1.
        994    1    1    2    0    0  0.35953994729E+01  0.12661347668E+02  0.70852310958E+01  0.17185132272E+03  0.17120000000E+03 0.  0.
        998    1    1    2    0    0 -0.58979635755E+01  0.50067486537E+01  0.14712224910E+04  0.14712768168E+04  0.10000000000E+02 0. -1.
</event>
<event>
 5    1  0.9123258E-009  0.3774509E+03  0.7957747E-01  0.3462333E+00
         13   -1    0    0    0    0  0.00000000000E+00  0.00000000000E+00  0.14999999963E+04  0.15000000000E+04  0.10566000000E+00 0. -1.
        994   -1    0    0    0    0 -0.00000000000E+00 -0.00000000000E+00  0.11368683772E-12  0.17120000000E+03  0.17120000000E+03 0.  0.
         13    1    1    2    0    0 -0.49766147462E+01  0.16508942389E+02  0.25255984714E+02  0.30580840424E+02  0.10566000000E+00 0. -1.
        994    1    1    2    0    0 -0.20831230843E+01 -0.11296305574E+02  0.58704210101E+01  0.17168531610E+03  0.17120000000E+03 0.  0.
        998    1    1    2    0    0  0.70597378305E+01 -0.52126368153E+01  0.14688735906E+04  0.14689338435E+04  0.10000000000E+02 0. -1.
</event>
<event>
 5    1  0.9123258E-009  0.3836977E+03  0.7957747E-01  0.3435214E+00
         13   -1    0    0    0    0  0.00000000000E+00  0.00000000000E+00  0.14999999963E+04  0.15000000000E+04  0.10566000000E+00 0.  1.
        994   -1    0    0    0    0 -0.00000000000E+00 -0.00000000000E+00  0.11368683772E-12  0.17120000000E+03  0.17120000000E+03 0.  0.
         13    1    1    2    0    0  0.43091616819E+01 -0.16151242524E+02  0.59299111927E+02  0.61610286063E+02  0.10566000000E+00 0.  1.
        994    1    1    2    0    0 -0.48215366945E+01  0.14959076574E+02  0.30943065425E+01  0.17194777091E+03  0.17120000000E+03 0.  0.
        998    1    1    2    0    0  0.51237501260E+00  0.11921659506E+01  0.14376065778E+04  0.14376419430E+04  0.10000000000E+02 0.  1.
</event>
<event>
 5    1  0.9123258E-009  0.3775550E+03  0.7957747E-01  0.3461874E+00
         13   -1    0    0    0    0  0.00000000000E+00  0.00000000000E+00  0.14999999963E+04  0.15000000000E+04  0.10566000000E+00 0.  1.
        994   -1    0    0    0    0 -0.00000000000E+00 -0.00000000000E+00  0.11368683772E-12  0.17120000000E+03  0.17120000000E+03 0.  0.
         13    1    1    2    0    0 -0.30473842203E+01  0.37922391002E+02  0.13645516776E+03  0.14165951525E+03  0.10566000000E+00 0.  1.
        994    1    1    2    0    0  0.16945001659E+02 -0.16499641429E+02  0.72599466623E+01  0.17297837458E+03  0.17120000000E+03 0.  0.
        998    1    1    2    0    0 -0.13897617438E+02 -0.21422749573E+02  0.13562848819E+04  0.13565621102E+04  0.10000000000E+02 0.  1.
</event>
<event>
 5    1  0.9123258E-009  0.3830337E+03  0.7957747E-01  0.3438055E+00
         13   -1    0    0    0    0  0.00000000000E+00  0.00000000000E+00  0.14999999963E+04  0.15000000000E+04  0.10566000000E+00 0.  1.
        994   -1    0    0    0    0 -0.00000000000E+00 -0.00000000000E+00  0.11368683772E-12  0.17120000000E+03  0.17120000000E+03 0.  0.
         13    1    1    2    0    0 -0.18371503343E+02  0.20057469355E+02  0.16382666271E+03  0.16606926504E+03  0.10566000000E+00 0.  1.
        994    1    1    2    0    0  0.24890170172E+01  0.43598522687E+01  0.26929460505E+01  0.17129476196E+03  0.17120000000E+03 0.  0.
        998    1    1    2    0    0  0.15882486326E+02 -0.24417321623E+02  0.13334803875E+04  0.13338359730E+04  0.10000000000E+02 0.  1.
</event>
<event>
 5    1  0.9123258E-009  0.3834603E+03  0.7957747E-01  0.3436229E+00
         13   -1    0    0    0    0  0.00000000000E+00  0.00000000000E+00  0.14999999963E+04  0.15000000000E+04  0.10566000000E+00 0.  1.
        994   -1    0    0    0    0 -0.00000000000E+00 -0.00000000000E+00  0.11368683772E-12  0.17120000000E+03  0.17120000000E+03 0.  0.
         13    1    1    2    0    0  0.85588854702E+01 -0.92328573467E+01  0.33042155463E+02  0.35359516074E+02  0.10566000000E+00 0.  1.
        994    1    1    2    0    0  0.19811484961E+01  0.59587014110E+01  0.25268444442E+01  0.17133375620E+03  0.17120000000E+03 0.  0.
        998    1    1    2    0    0 -0.10540033966E+02  0.32741559357E+01  0.14644309964E+04  0.14645067277E+04  0.10000000000E+02 0.  1.
</event>
<event>
 5    1  0.9123258E-009  0.3839850E+03  0.7957747E-01  0.3433988E+00
         13   -1    0    0    0    0  0.00000000000E+00  0.00000000000E+00  0.14999999963E+04  0.15000000000E+04  0.10566000000E+00 0.  1.
        994   -1    0    0    0    0 -0.00000000000E+00 -0.00000000000E+00  0.11368683772E-12  0.17120000000E+03  0.17120000000E+03 0.  0.
         13    1    1    2    0    0 -0.73979687990E+01 -0.67930154848E+01  0.22678819063E+02  0.24803527972E+02  0.10566000000E+00 0.  1.
        994    1    1    2    0    0  0.50678635843E+01  0.99674193660E+01  0.25475554929E+01  0.17158369016E+03  0.17120000000E+03 0.  0.
        998    1    1    2    0    0  0.23301052148E+01 -0.31744038812E+01  0.14747736217E+04  0.14748127819E+04  0.10000000000E+02 0.  1.
</event>
<event>
 5    1  0.9123258E-009  0.3974571E+03  0.7957747E-01  0.3378499E+00
         13   -1    0    0    0    0  0.00000000000E+00  0.00000000000E+00  0.14999999963E+04  0.15000000000E+04  0.10566000000E+00 0.  1.
        994   -1    0    0    0    0 -0.00000000000E+00 -0.00000000000E+00  0.11368683772E-12  0.17120000000E+03  0.17120000000E+03 0.  0.
         13    1    1    2    0    0 -0.34329486207E+02  0.92313136874E+02  0.19790958165E+03  0.22106207846E+03  0.10566000000E+00 0.  1.
        994    1    1    2    0    0  0.57900659916E+02 -0.16076371654E+02  0.40395012995E+02  0.18588204114E+03  0.17120000000E+03 0.  0.
        998    1    1    2    0    0 -0.23571173709E+02 -0.76236765220E+02  0.12616954016E+04  0.12642558804E+04  0.10000000000E+02 0.  1.
</event>
<event>
 5    1  0.9123258E-009  0.3847730E+03  0.7957747E-01  0.3430635E+00
         13   -1    0    0    0    0  0.00000000000E+00  0.00000000000E+00  0.14999999963E+04  0.15000000000E+04  0.10566000000E+00 0. -1.
        994   -1    0    0    0    0 -0.00000000000E+00 -0.00000000000E+00  0.11368683772E-12  0.17120000000E+03  0.17120000000E+03 0.  0.
         13    1    1    2    0    0  0.14636573627E+02 -0.14996040015E+02  0.12452579148E+03  0.12627665822E+03  0.10566000000E+00 0. -1.
        994    1    1    2    0    0 -0.66387356179E+01  0.13603600218E+02  0.24973094069E+01  0.17188602998E+03  0.17120000000E+03 0.  0.
        998    1    1    2    0    0 -0.79978380088E+01  0.13924397971E+01  0.13729768954E+04  0.13730373118E+04  0.10000000000E+02 0. -1.
</event>
<event>
 5    1  0.9123258E-009  0.3763473E+03  0.7957747E-01  0.3467219E+00
         13   -1    0    0    0    0  0.00000000000E+00  0.00000000000E+00  0.14999999963E+04  0.15000000000E+04  0.10566000000E+00 0.  1.
        994   -1    0    0    0    0 -0.00000000000E+00 -0.00000000000E+00  0.11368683772E-12  0.17120000000E+03  0.17120000000E+03 0.  0.
         13    1    1    2    0    0 -0.43412232882E+02  0.17148894235E+02  0.26169219431E+03  0.26582235094E+03  0.10566000000E+00 0.  1.
        994    1    1    2    0    0 -0.21904131252E+02  0.20102176666E+01  0.76274142401E+01  0.17277571991E+03  0.17120000000E+03 0.  0.
        998    1    1    2    0    0  0.65316364134E+02 -0.19159111901E+02  0.12306803877E+04  0.12326019291E+04  0.10000000000E+02 0.  1.
</event>
<event>
 5    1  0.9123258E-009  0.3833653E+03  0.7957747E-01  0.3436635E+00
         13   -1    0    0    0    0  0.00000000000E+00  0.00000000000E+00  0.14999999963E+04  0.15000000000E+04  0.10566000000E+00 0.  1.
        994   -1    0    0    0    0 -0.00000000000E+00 -0.00000000000E+00  0.11368683772E-12  0.17120000000E+03  0.17120000000E+03 0.  0.
         13    1    1    2    0    0 -0.88582598799E+01  0.19301046171E+02  0.11412822698E+03  0.11608730554E+03  0.10566000000E+00 0.  1.
        994    1    1    2    0    0 -0.63898809369E+01  0.15805660396E+02  0.34054367204E+01  0.17208046513E+03  0.17120000000E+03 0.  0.
        998    1    1    2    0    0  0.15248140817E+02 -0.35106706567E+02  0.13824663326E+04  0.13830322293E+04  0.10000000000E+02 0.  1.
</event>
<event>
 5    1  0.9123258E-009  0.3712035E+03  0.7957747E-01  0.3490378E+00
         13   -1    0    0    0    0  0.00000000000E+00  0.00000000000E+00  0.14999999963E+04  0.15000000000E+04  0.10566000000E+00 0.  1.
        994   -1    0    0    0    0 -0.00000000000E+00 -0.00000000000E+00  0.11368683772E-12  0.17120000000E+03  0.17120000000E+03 0.  0.
         13    1    1    2    0    0 -0.50638568114E+02 -0.22018152365E+02  0.16696940169E+03  0.17586317375E+03  0.10566000000E+00 0.  1.
        994    1    1    2    0    0  0.39216546306E+02  0.12011549344E+02  0.14456137031E+02  0.17663701401E+03  0.17120000000E+03 0.  0.
        998    1    1    2    0    0  0.11422021808E+02  0.10006603020E+02  0.13185744576E+04  0.13186998122E+04  0.10000000000E+02 0.  1.
</event>
<event>
 5    1  0.9123258E-009  0.3771682E+03  0.7957747E-01  0.3463582E+00
         13   -1    0    0    0    0  0.00000000000E+00  0.00000000000E+00  0.14999999963E+04  0.15000000000E+04  0.10566000000E+00 0.  1.
        994   -1    0    0    0    0 -0.00000000000E+00 -0.00000000000E+00  0.11368683772E-12  0.17120000000E+03  0.17120000000E+03 0.  0.
         13    1    1    2    0    0  0.18481797618E+02 -0.25476140351E+01  0.28031982803E+02  0.33672992210E+02  0.10566000000E+00 0.  1.
        994    1    1    2    0    0 -0.24046361545E+02  0.50182726585E+01  0.76083951899E+01  0.17312058873E+03  0.17120000000E+03 0.  0.
        998    1    1    2    0    0  0.55645639277E+01 -0.24706586234E+01  0.14643596183E+04  0.14644064191E+04  0.10000000000E+02 0.  1.
</event>
<event>
 5    1  0.9123258E-009  0.3221928E+03  0.7957747E-01  0.3749304E+00
         13   -1    0    0    0    0  0.00000000000E+00  0.00000000000E+00  0.14999999963E+04  0.15000000000E+04  0.10566000000E+00 0.  1.
        994   -1    0    0    0    0 -0.00000000000E+00 -0.00000000000E+00  0.11368683772E-12  0.17120000000E+03  0.17120000000E+03 0.  0.
         13    1    1    2    0    0  0.19826256950E+03  0.12163998837E+02  0.89859659322E+03  0.92028900778E+03  0.10566000000E+00 0.  1.
        994    1    1    2    0    0 -0.15560517733E+03  0.67710690144E+02  0.13619994898E+03  0.27687104376E+03  0.17120000000E+03 0.  0.
        998    1    1    2    0    0 -0.42657392167E+02 -0.79874688980E+02  0.46520345408E+03  0.47403994846E+03  0.10000000000E+02 0.  1.
</event>
<event>
 5    1  0.9123258E-009  0.3851533E+03  0.7957747E-01  0.3429022E+00
         13   -1    0    0    0    0  0.00000000000E+00  0.00000000000E+00  0.14999999963E+04  0.15000000000E+04  0.10566000000E+00 0.  1.
        994   -1    0    0    0    0 -0.00000000000E+00 -0.00000000000E+00  0.11368683772E-12  0.17120000000E+03  0.17120000000E+03 0.  0.
         13    1    1    2    0    0  0.76451568670E+01 -0.10097865202E+02  0.51133776322E+02  0.52679118730E+02  0.10566000000E+00 0.  1.
        994    1    1    2    0    0 -0.30610787836E+01  0.10486205913E+02  0.19464082577E+01  0.17155920034E+03  0.17120000000E+03 0.  0.
        998    1    1    2    0    0 -0.45840780834E+01 -0.38834071096E+00  0.14469198117E+04  0.14469616809E+04  0.10000000000E+02 0.  1.
</event>
<event>
 5    1  0.9123258E-009  0.3862148E+03  0.7957747E-01  0.3424536E+00
         13   -1    0    0    0    0  0.00000000000E+00  0.00000000000E+00  0.14999999963E+04  0.15000000000E+04  0.10566000000E+00 0. -1.
        994   -1    0    0    0    0 -0.00000000000E+00 -0.00000000000E+00  0.11368683772E-12  0.17120000000E+03  0.17120000000E+03 0.  0.
         13    1    1    2    0    0  0.11654264379E+02 -0.69035121801E+00  0.69231166049E+02  0.70208717262E+02  0.10566000000E+00 0. -1.
        994    1    1    2    0    0 -0.47889769342E+01 -0.63244471428E+01  0.12343643907E+01  0.17138814599E+03  0.17120000000E+03 0.  0.
        998    1    1    2    0    0 -0.68652874450E+01  0.70147983608E+01  0.14295344658E+04  0.14296031367E+04  0.10000000000E+02 0. -1.
</event>
<event>
 5    1  0.9123258E-009  0.3797721E+03  0.7957747E-01  0.3452151E+00
         13   -1    0    0    0    0  0.00000000000E+00  0.00000000000E+00  0.14999999963E+04  0.15000000000E+04  0.10566000000E+00 0. -1.
        994   -1    0    0    0    0 -0.00000000000E+00 -0.00000000000E+00  0.11368683772E-12  0.17120000000E+03  0.17120000000E+03 0.  0.
         13    1    1    2    0    0 -0.97808830544E+01  0.92895135025E+01  0.18583568218E+02  0.22963468949E+02  0.10566000000E+00 0. -1.
        994    1    1    2    0    0  0.12396645681E+02 -0.30638290938E+02  0.79113666527E+01  0.17454057241E+03  0.17120000000E+03 0.  0.
        998    1    1    2    0    0 -0.26157626261E+01  0.21348777435E+02  0.14735050614E+04  0.14736959586E+04  0.10000000000E+02 0. -1.
</event>
<event>
 5    1  0.9123258E-009  0.3854033E+03  0.7957747E-01  0.3427964E+00
         13   -1    0    0    0    0  0.00000000000E+00  0.00000000000E+00  0.14999999963E+04  0.15000000000E+04  0.10566000000E+00 0.  1.
        994   -1    0    0    0    0 -0.00000000000E+00 -0.00000000000E+00  0.11368683772E-12  0.17120000000E+03  0.17120000000E+03 0.  0.
         13    1    1    2    0    0 -0.53566679347E+01  0.19906160150E+02  0.12378107288E+03  0.12548591264E+03  0.10566000000E+00 0.  1.
        994    1    1    2    0    0  0.35961760572E+02 -0.26591443397E+02  0.80277016447E+01  0.17712774226E+03  0.17120000000E+03 0.  0.
        998    1    1    2    0    0 -0.30605092637E+02  0.66852832467E+01  0.13681912218E+04  0.13685863451E+04  0.10000000000E+02 0.  1.
</event>
<event>
 5    1  0.9123258E-009  0.3824436E+03  0.7957747E-01  0.3440587E+00
         13   -1    0    0    0    0  0.00000000000E+00  0.00000000000E+00  0.14999999963E+04  0.15000000000E+04  0.10566000000E+00 0. -1.
        994   -1    0    0    0    0 -0.00000000000E+00 -0.00000000000E+00  0.11368683772E-12  0.17120000000E+03  0.17120000000E+03 0.  0.
         13    1    1    2    0    0  0.13010544858E+02  0.19567541081E+01  0.28477063267E+02  0.31369690156E+02  0.10566000000E+00 0. -1.
        994    1    1    2    0    0 -0.10971730300E+02 -0.63488397018E+01  0.34377373981E+01  0.17170307123E+03  0.17120000000E+03 0.  0.
        998    1    1    2    0    0 -0.20388145586E+01  0.43920855938E+01  0.14680851956E+04  0.14681272386E+04  0.10000000000E+02 0. -1.
</event>
<event>
 5    1  0.9123258E-009  0.3751368E+03  0.7957747E-01  0.3472611E+00
         13   -1    0    0    0    0  0.00000000000E+00  0.00000000000E+00  0.14999999963E+04  0.15000000000E+04  0.10566000000E+00 0.  1.
        994   -1    0    0    0    0 -0.00000000000E+00 -0.00000000000E+00  0.11368683772E-12  0.17120000000E+03  0.17120000000E+03 0.  0.
         13    1    1    2    0    0  0.52052691868E+02 -0.12920533483E+02  0.88849687898E+02  0.10378198842E+03  0.10566000000E+00 0.  1.
        994    1    1    2    0    0 -0.65015315789E+02  0.40425122977E+02  0.34854107068E+02  0.19074965435E+03  0.17120000000E+03 0.  0.
        998    1    1    2    0    0  0.12962623922E+02 -0.27504589494E+02  0.13762962013E+04  0.13766683572E+04  0.10000000000E+02 0.  1.
</event>
<event>
 5    1  0.9123258E-009  0.3747722E+03  0.7957747E-01  0.3474242E+00
         13   -1    0    0    0    0  0.00000000000E+00  0.00000000000E+00  0.14999999963E+04  0.15000000000E+04  0.10566000000E+00 0. -1.
        994   -1    0    0    0    0 -0.00000000000E+00 -0.00000000000E+00  0.11368683772E-12  0.17120000000E+03  0.17120000000E+03 0.  0.
         13    1    1    2    0    0  0.25890756575E+03  0.18905481983E+03  0.81980272874E+03  0.88025642725E+03  0.10566000000E+00 0. -1.
        994    1    1    2    0    0 -0.25412712210E+03 -0.21251307756E+03  0.59789829368E+03  0.70465183737E+03  0.17120000000E+03 0.  0.
        998    1    1    2    0    0 -0.47804436589E+01  0.23458257724E+02  0.82298973857E+02  0.86291735380E+02  0.10000000000E+02 0. -1.
</event>
<event>
 5    1  0.9123258E-009  0.3838000E+03  0.7957747E-01  0.3434778E+00
         13   -1    0    0    0    0  0.00000000000E+00  0.00000000000E+00  0.14999999963E+04  0.15000000000E+04  0.10566000000E+00 0.  1.
        994   -1    0    0    0    0 -0.00000000000E+00 -0.00000000000E+00  0.11368683772E-12  0.17120000000E+03  0.17120000000E+03 0.  0.
         13    1    1    2    0    0  0.62167930024E+01 -0.80799605898E+01  0.23110042368E+02  0.25259047897E+02  0.10566000000E+00 0.  1.
        994    1    1    2    0    0 -0.57009075797E+01 -0.33697866601E+01  0.23719069595E+01  0.17134445352E+03  0.17120000000E+03 0.  0.
        998    1    1    2    0    0 -0.51588542274E+00  0.11449747250E+02  0.14745180470E+04  0.14745964986E+04  0.10000000000E+02 0.  1.
</event>
<event>
 5    1  0.1099948E-008  0.3854265E+03  0.7957747E-01  0.3427865E+00
         13   -1    0    0    0    0  0.00000000000E+00  0.00000000000E+00  0.14999999963E+04  0.15000000000E+04  0.10566000000E+00 0. -1.
        994   -1    0    0    0    0 -0.00000000000E+00 -0.00000000000E+00  0.11368683772E-12  0.17120000000E+03  0.17120000000E+03 0.  0.
         13    1    1    2    0    0 -0.75722132826E+01  0.13477928104E+02  0.79597105979E+02  0.81084544793E+02  0.10566000000E+00 0. -1.
        994    1    1    2    0    0  0.12005173003E+02 -0.14282301567E+02  0.25625930469E+01  0.17223273556E+03  0.17120000000E+03 0.  0.
        998    1    1    2    0    0 -0.44329597200E+01  0.80437346323E+00  0.14178402973E+04  0.14178827196E+04  0.10000000000E+02 0. -1.
</event>
<event>
 5    1  0.9123258E-009  0.3824777E+03  0.7957747E-01  0.3440440E+00
         13   -1    0    0    0    0  0.00000000000E+00  0.00000000000E+00  0.14999999963E+04  0.15000000000E+04  0.10566000000E+00 0. -1.
        994   -1    0    0    0    0 -0.00000000000E+00 -0.00000000000E+00  0.11368683772E-12  0.17120000000E+03  0.17120000000E+03 0.  0.
         13    1    1    2    0    0 -0.34968898074E+01 -0.23186095819E+02  0.10350262994E+03  0.10612553343E+03  0.10566000000E+00 0. -1.
        994    1    1    2    0    0 -0.71179559926E+01  0.69906562126E+00  0.30572391041E+01  0.17137660488E+03  0.17120000000E+03 0.  0.
        998    1    1    2    0    0  0.10614845800E+02  0.22487030198E+02  0.13934401272E+04  0.13936978617E+04  0.10000000000E+02 0. -1.
</event>
<event>
 5    1  0.9123258E-009  0.3838238E+03  0.7957747E-01  0.3434676E+00
         13   -1    0    0    0    0  0.00000000000E+00  0.00000000000E+00  0.14999999963E+04  0.15000000000E+04  0.10566000000E+00 0.  1.
        994   -1    0    0    0    0 -0.00000000000E+00 -0.00000000000E+00  0.11368683772E-12  0.17120000000E+03  0.17120000000E+03 0.  0.
         13    1    1    2    0    0  0.15286789869E+02 -0.18173402706E+02  0.14176330200E+03  0.14373866379E+03  0.10566000000E+00 0.  1.
        994    1    1    2    0    0 -0.46413766147E+01 -0.24052188297E+01  0.23054678369E+01  0.17129530827E+03  0.17120000000E+03 0.  0.
        998    1    1    2    0    0 -0.10645413254E+02  0.20578621535E+02  0.13559312264E+04  0.13561660279E+04  0.10000000000E+02 0.  1.
</event>
<event>
 5    1  0.9123258E-009  0.3785698E+03  0.7957747E-01  0.3457410E+00
         13   -1    0    0    0    0  0.00000000000E+00  0.00000000000E+00  0.14999999963E+04  0.15000000000E+04  0.10566000000E+00 0.  1.
        994   -1    0    0    0    0 -0.00000000000E+00 -0.00000000000E+00  0.11368683772E-12  0.17120000000E+03  0.17120000000E+03 0.  0.
         13    1    1    2    0    0  0.83150984350E+01 -0.15963360068E+02  0.31436226328E+02  0.36224538871E+02  0.10566000000E+00 0.  1.
        994    1    1    2    0    0 -0.71877173304E+01  0.95319029203E+01  0.53357088788E+01  0.17169866116E+03  0.17120000000E+03 0.  0.
        998    1    1    2    0    0 -0.11273811046E+01  0.64314571478E+01  0.14632280611E+04  0.14632768000E+04  0.10000000000E+02 0.  1.
</event>
<event>
 5    1  0.9123258E-009  0.3803149E+03  0.7957747E-01  0.3449788E+00
         13   -1    0    0    0    0  0.00000000000E+00  0.00000000000E+00  0.14999999963E+04  0.15000000000E+04  0.10566000000E+00 0.  1.
        994   -1    0    0    0    0 -0.00000000000E+00 -0.00000000000E+00  0.11368683772E-12  0.17120000000E+03  0.17120000000E+03 0.  0.
         13    1    1    2    0    0 -0.41303858452E+01 -0.10732965315E+02  0.15267300107E+02  0.19114346661E+02  0.10566000000E+00 0.  1.
        994    1    1    2    0    0 -0.40631290984E+01  0.11830933667E+01  0.40340769899E+01  0.17129980299E+03  0.17120000000E+03 0.  0.
        998    1    1    2    0    0  0.81935149437E+01  0.95498719479E+01  0.14806986192E+04  0.14807858503E+04  0.10000000000E+02 0.  1.
</event>
<event>
 5    1  0.9123258E-009  0.3769415E+03  0.7957747E-01  0.3464585E+00
         13   -1    0    0    0    0  0.00000000000E+00  0.00000000000E+00  0.14999999963E+04  0.15000000000E+04  0.10566000000E+00 0. -1.
        994   -1    0    0    0    0 -0.00000000000E+00 -0.00000000000E+00  0.11368683772E-12  0.17120000000E+03  0.17120000000E+03 0.  0.
         13    1    1    2    0    0  0.82183720188E+02 -0.19731933575E+02  0.43675665487E+03  0.44485941578E+03  0.10566000000E+00 0. -1.
        994    1    1    2    0    0 -0.80364424121E+02  0.32193046205E+02  0.31430008021E+02  0.19440195033E+03  0.17120000000E+03 0.  0.
        998    1    1    2    0    0 -0.18192960667E+01 -0.12461112630E+02  0.10318133334E+04  0.10319386339E+04  0.10000000000E+02 0. -1.
</event>
<event>
 5    1  0.9734333E-009  0.3860297E+03  0.7957747E-01  0.3425317E+00
         13   -1    0    0    0    0  0.00000000000E+00  0.00000000000E+00  0.14999999963E+04  0.15000000000E+04  0.10566000000E+00 0. -1.
        994   -1    0    0    0    0 -0.00000000000E+00 -0.00000000000E+00  0.11368683772E-12  0.17120000000E+03  0.17120000000E+03 0.  0.
         13    1    1    2    0    0  0.10038686528E+02  0.30535262776E+01  0.49474735505E+02  0.50575289098E+02  0.10566000000E+00 0. -1.
        994    1    1    2    0    0 -0.85508692965E+01  0.77952908328E+00  0.13614748651E+01  0.17142058991E+03  0.17120000000E+03 0.  0.
        998    1    1    2    0    0 -0.14878172314E+01 -0.38330553609E+01  0.14491637859E+04  0.14492041210E+04  0.10000000000E+02 0. -1.
</event>
<event>
 5    1  0.9123258E-009  0.3767165E+03  0.7957747E-01  0.3465581E+00
         13   -1    0    0    0    0  0.00000000000E+00  0.00000000000E+00  0.14999999963E+04  0.15000000000E+04  0.10566000000E+00 0.  1.
        994   -1    0    0    0    0 -0.00000000000E+00 -0.00000000000E+00  0.11368683772E-12  0.17120000000E+03  0.17120000000E+03 0.  0.
         13    1    1    2    0    0  0.26566374836E+02  0.64340276560E+02  0.32103865120E+03  0.32849850866E+03  0.10566000000E+00 0.  1.
        994    1    1    2    0    0 -0.31156382572E+02 -0.64796765847E+02  0.23474975686E+02  0.18716264457E+03  0.17120000000E+03 0.  0.
        998    1    1    2    0    0  0.45900077357E+01  0.45648928676E+00  0.11554863694E+04  0.11555388468E+04  0.10000000000E+02 0.  0.
</event>
<event>
 5    1  0.9123258E-009  0.3849520E+03  0.7957747E-01  0.3429876E+00
         13   -1    0    0    0    0  0.00000000000E+00  0.00000000000E+00  0.14999999963E+04  0.15000000000E+04  0.10566000000E+00 0.  1.
        994   -1    0    0    0    0 -0.00000000000E+00 -0.00000000000E+00  0.11368683772E-12  0.17120000000E+03  0.17120000000E+03 0.  0.
         13    1    1    2    0    0 -0.10574618953E+02 -0.61934272754E+01  0.44276595935E+02  0.45941367187E+02  0.10566000000E+00 0.  1.
        994    1    1    2    0    0  0.92703975456E+01  0.90545681377E+01  0.22064813260E+01  0.17170391386E+03  0.17120000000E+03 0.  0.
        998    1    1    2    0    0  0.13042214074E+01 -0.28611408623E+01  0.14535169190E+04  0.14535547190E+04  0.10000000000E+02 0.  1.
</event>
<event>
 5    1  0.9123258E-009  0.3764883E+03  0.7957747E-01  0.3466593E+00
         13   -1    0    0    0    0  0.00000000000E+00  0.00000000000E+00  0.14999999963E+04  0.15000000000E+04  0.10566000000E+00 0.  1.
        994   -1    0    0    0    0 -0.00000000000E+00 -0.00000000000E+00  0.11368683772E-12  0.17120000000E+03  0.17120000000E+03 0.  0.
         13    1    1    2    0    0 -0.32799202444E+02 -0.63749877213E+01  0.94135102780E+02  0.99889223087E+02  0.10566000000E+00 0.  1.
        994    1    1    2    0    0  0.17216004090E+02 -0.55983528642E+01  0.70256941053E+01  0.17229780245E+03  0.17120000000E+03 0.  0.
        998    1    1    2    0    0  0.15583198354E+02  0.11973340585E+02  0.13988391994E+04  0.13990129745E+04  0.10000000000E+02 0.  1.
</event>
<event>
 5    1  0.9123258E-009  0.3685537E+03  0.7957747E-01  0.3502564E+00
         13   -1    0    0    0    0  0.00000000000E+00  0.00000000000E+00  0.14999999963E+04  0.15000000000E+04  0.10566000000E+00 0. -1.
        994   -1    0    0    0    0 -0.00000000000E+00 -0.00000000000E+00  0.11368683772E-12  0.17120000000E+03  0.17120000000E+03 0.  0.
         13    1    1    2    0    0 -0.29717027459E+00 -0.62508071126E+02  0.22775765018E+03  0.23617981634E+03  0.10566000000E+00 0. -1.
        994    1    1    2    0    0 -0.25092453724E+02  0.62648832127E+01  0.12354836816E+02  0.17358272376E+03  0.17120000000E+03 0.  0.
        998    1    1    2    0    0  0.25389623999E+02  0.56243187913E+02  0.12598875093E+04  0.12614374599E+04  0.10000000000E+02 0. -1.
</event>
<event>
 5    1  0.9123258E-009  0.3721487E+03  0.7957747E-01  0.3486074E+00
         13   -1    0    0    0    0  0.00000000000E+00  0.00000000000E+00  0.14999999963E+04  0.15000000000E+04  0.10566000000E+00 0. -1.
        994   -1    0    0    0    0 -0.00000000000E+00 -0.00000000000E+00  0.11368683772E-12  0.17120000000E+03  0.17120000000E+03 0.  0.
         13    1    1    2    0    0 -0.91053551926E+01 -0.47088517839E+02  0.15048540353E+03  0.15794335645E+03  0.10566000000E+00 0. -1.
        994    1    1    2    0    0 -0.14302246998E+01  0.11649544927E+02  0.86232163739E+01  0.17181838464E+03  0.17120000000E+03 0.  0.
        998    1    1    2    0    0  0.10535579892E+02  0.35438972912E+02  0.13408913764E+04  0.13414382589E+04  0.10000000000E+02 0. -1.
</event>
<event>
 5    1  0.9123258E-009  0.3763336E+03  0.7957747E-01  0.3467280E+00
         13   -1    0    0    0    0  0.00000000000E+00  0.00000000000E+00  0.14999999963E+04  0.15000000000E+04  0.10566000000E+00 0. -1.
        994   -1    0    0    0    0 -0.00000000000E+00 -0.00000000000E+00  0.11368683772E-12  0.17120000000E+03  0.17120000000E+03 0.  0.
         13    1    1    2    0    0 -0.32067204473E+02 -0.86309717584E+02  0.47957864040E+03  0.48833733878E+03  0.10566000000E+00 0. -1.
        994    1    1    2    0    0  0.32321080094E+02  0.84972967144E+02  0.34497572300E+02  0.19688722624E+03  0.17120000000E+03 0.  0.
        998    1    1    2    0    0 -0.25387562119E+00  0.13367504406E+01  0.98592378358E+03  0.98597543498E+03  0.10000000000E+02 0.  0.
</event>
<event>
 5    1  0.9123258E-009  0.3771019E+03  0.7957747E-01  0.3463875E+00
         13   -1    0    0    0    0  0.00000000000E+00  0.00000000000E+00  0.14999999963E+04  0.15000000000E+04  0.10566000000E+00 0.  1.
        994   -1    0    0    0    0 -0.00000000000E+00 -0.00000000000E+00  0.11368683772E-12  0.17120000000E+03  0.17120000000E+03 0.  0.
         13    1    1    2    0    0 -0.44969107125E+02  0.70704463640E+02  0.23941570692E+03  0.25365573847E+03  0.10566000000E+00 0.  1.
        994    1    1    2    0    0  0.16636860698E+02 -0.43346608131E+02  0.22513923213E+02  0.17880724345E+03  0.17120000000E+03 0.  0.
        998    1    1    2    0    0  0.28332246427E+02 -0.27357855510E+02  0.12380703661E+04  0.12387370181E+04  0.10000000000E+02 0.  1.
</event>
<event>
 5    1  0.9123258E-009  0.3782080E+03  0.7957747E-01  0.3458999E+00
         13   -1    0    0    0    0  0.00000000000E+00  0.00000000000E+00  0.14999999963E+04  0.15000000000E+04  0.10566000000E+00 0.  1.
        994   -1    0    0    0    0 -0.00000000000E+00 -0.00000000000E+00  0.11368683772E-12  0.17120000000E+03  0.17120000000E+03 0.  0.
         13    1    1    2    0    0 -0.20135567021E+02  0.40957082553E+02  0.23776356980E+03  0.24210421302E+03  0.10566000000E+00 0.  1.
        994    1    1    2    0    0  0.94497268942E+01 -0.29579464658E+01  0.53702716474E+01  0.17157017982E+03  0.17120000000E+03 0.  0.
        998    1    1    2    0    0  0.10685840127E+02 -0.37999136087E+02  0.12568661548E+04  0.12575256072E+04  0.10000000000E+02 0.  1.
</event>
<event>
 5    1  0.9123258E-009  0.3844106E+03  0.7957747E-01  0.3432176E+00
         13   -1    0    0    0    0  0.00000000000E+00  0.00000000000E+00  0.14999999963E+04  0.15000000000E+04  0.10566000000E+00 0. -1.
        994   -1    0    0    0    0 -0.00000000000E+00 -0.00000000000E+00  0.11368683772E-12  0.17120000000E+03  0.17120000000E+03 0.  0.
         13    1    1    2    0    0  0.34077922687E+01  0.16092999168E+02  0.66920230794E+02  0.68912452604E+02  0.10566000000E+00 0. -1.
        994    1    1    2    0    0 -0.53459230654E+01 -0.17856497447E+02  0.30686318373E+01  0.17223904870E+03  0.17120000000E+03 0.  0.
        998    1    1    2    0    0  0.19381307967E+01  0.17634982792E+01  0.14300111336E+04  0.14300484987E+04  0.10000000000E+02 0. -1.
</event>
<event>
 5    1  0.9123258E-009  0.3687758E+03  0.7957747E-01  0.3501536E+00
         13   -1    0    0    0    0  0.00000000000E+00  0.00000000000E+00  0.14999999963E+04  0.15000000000E+04  0.10566000000E+00 0.  1.
        994   -1    0    0    0    0 -0.00000000000E+00 -0.00000000000E+00  0.11368683772E-12  0.17120000000E+03  0.17120000000E+03 0.  0.
         13    1    1    2    0    0 -0.57304795794E+02 -0.71263211995E+01  0.15484704439E+03  0.16526415944E+03  0.10566000000E+00 0.  1.
        994    1    1    2    0    0  0.50184222901E+02 -0.58213471611E+01  0.18825822678E+02  0.17948870692E+03  0.17120000000E+03 0.  0.
        998    1    1    2    0    0  0.71205728932E+01  0.12947668361E+02  0.13263271292E+04  0.13264471336E+04  0.10000000000E+02 0.  1.
</event>
<event>
 5    1  0.9123258E-009  0.3727337E+03  0.7957747E-01  0.3483421E+00
         13   -1    0    0    0    0  0.00000000000E+00  0.00000000000E+00  0.14999999963E+04  0.15000000000E+04  0.10566000000E+00 0. -1.
        994   -1    0    0    0    0 -0.00000000000E+00 -0.00000000000E+00  0.11368683772E-12  0.17120000000E+03  0.17120000000E+03 0.  0.
         13    1    1    2    0    0 -0.59056502268E+02  0.70987910374E+01  0.12616856062E+03  0.13948684579E+03  0.10566000000E+00 0. -1.
        994    1    1    2    0    0  0.58525122133E+02 -0.35095990552E+02  0.29016886133E+02  0.18656992832E+03  0.17120000000E+03 0.  0.
        998    1    1    2    0    0  0.53138013529E+00  0.27997199514E+02  0.13448145495E+04  0.13451432259E+04  0.10000000000E+02 0. -1.
</event>
<event>
 5    1  0.9123258E-009  0.3794359E+03  0.7957747E-01  0.3453618E+00
         13   -1    0    0    0    0  0.00000000000E+00  0.00000000000E+00  0.14999999963E+04  0.15000000000E+04  0.10566000000E+00 0.  1.
        994   -1    0    0    0    0 -0.00000000000E+00 -0.00000000000E+00  0.11368683772E-12  0.17120000000E+03  0.17120000000E+03 0.  0.
         13    1    1    2    0    0  0.18778164538E+02 -0.41301158638E+02  0.18655735546E+03  0.19199495620E+03  0.10566000000E+00 0.  1.
        994    1    1    2    0    0 -0.29996075990E+02  0.50621380496E+02  0.16102488152E+02  0.18174437780E+03  0.17120000000E+03 0.  0.
        998    1    1    2    0    0  0.11217911452E+02 -0.93202218576E+01  0.12973401527E+04  0.12974606660E+04  0.10000000000E+02 0.  1.
</event>
<event>
 5    1  0.9123258E-009  0.3751403E+03  0.7957747E-01  0.3472596E+00
         13   -1    0    0    0    0  0.00000000000E+00  0.00000000000E+00  0.14999999963E+04  0.15000000000E+04  0.10566000000E+00 0. -1.
        994   -1    0    0    0    0 -0.00000000000E+00 -0.00000000000E+00  0.11368683772E-12  0.17120000000E+03  0.17120000000E+03 0.  0.
         13    1    1    2    0    0 -0.19511432811E+02  0.36171099645E+02  0.11937575005E+03  0.12625222898E+03  0.10566000000E+00 0. -1.
        994    1    1    2    0    0  0.10033783866E+02 -0.35166839773E+02  0.11164108678E+02  0.17541796020E+03  0.17120000000E+03 0.  0.
        998    1    1    2    0    0  0.94776489450E+01 -0.10042598726E+01  0.13694601376E+04  0.13695298108E+04  0.10000000000E+02 0. -1.
</event>
<event>
 5    1  0.9123258E-009  0.3820503E+03  0.7957747E-01  0.3442279E+00
         13   -1    0    0    0    0  0.00000000000E+00  0.00000000000E+00  0.14999999963E+04  0.15000000000E+04  0.10566000000E+00 0.  1.
        994   -1    0    0    0    0 -0.00000000000E+00 -0.00000000000E+00  0.11368683772E-12  0.17120000000E+03  0.17120000000E+03 0.  0.
         13    1    1    2    0    0  0.23503860212E+02 -0.18567660528E+02  0.13509593422E+03  0.13837670349E+03  0.10566000000E+00 0.  1.
        994    1    1    2    0    0 -0.22311993111E+02  0.15223411433E+02  0.55279957888E+01  0.17340581314E+03  0.17120000000E+03 0.  0.
        998    1    1    2    0    0 -0.11918671012E+01  0.33442490954E+01  0.13593760663E+04  0.13594174834E+04  0.10000000000E+02 0.  1.
</event>
<event>
 5    1  0.9123258E-009  0.3763851E+03  0.7957747E-01  0.3467051E+00
         13   -1    0    0    0    0  0.00000000000E+00  0.00000000000E+00  0.14999999963E+04  0.15000000000E+04  0.10566000000E+00 0.  1.
        994   -1    0    0    0    0 -0.00000000000E+00 -0.00000000000E+00  0.11368683772E-12  0.17120000000E+03  0.17120000000E+03 0.  0.
         13    1    1    2    0    0 -0.13782818950E+02 -0.19419364294E+02  0.44792677573E+02  0.50729408985E+02  0.10566000000E+00 0.  1.
        994    1    1    2    0    0  0.11920464933E+02  0.14012112483E+02  0.71150788676E+01  0.17233253067E+03  0.17120000000E+03 0.  0.
        998    1    1    2    0    0  0.18623540173E+01  0.54072518106E+01  0.14480922398E+04  0.14481380603E+04  0.10000000000E+02 0.  1.
</event>
<event>
 5    1  0.9123258E-009  0.3688786E+03  0.7957747E-01  0.3501061E+00
         13   -1    0    0    0    0  0.00000000000E+00  0.00000000000E+00  0.14999999963E+04  0.15000000000E+04  0.10566000000E+00 0. -1.
        994   -1    0    0    0    0 -0.00000000000E+00 -0.00000000000E+00  0.11368683772E-12  0.17120000000E+03  0.17120000000E+03 0.  0.
         13    1    1    2    0    0  0.29496201557E+02 -0.12611419557E+02  0.46307816713E+02  0.56333816330E+02  0.10566000000E+00 0. -1.
        994    1    1    2    0    0 -0.15509775521E+02  0.71528016309E+01  0.11363524818E+02  0.17242472388E+03  0.17120000000E+03 0.  0.
        998    1    1    2    0    0 -0.13986426036E+02  0.54586179260E+01  0.14423286547E+04  0.14424414598E+04  0.10000000000E+02 0. -1.
</event>
<event>
 5    1  0.9123258E-009  0.3730535E+03  0.7957747E-01  0.3481974E+00
         13   -1    0    0    0    0  0.00000000000E+00  0.00000000000E+00  0.14999999963E+04  0.15000000000E+04  0.10566000000E+00 0. -1.
        994   -1    0    0    0    0 -0.00000000000E+00 -0.00000000000E+00  0.11368683772E-12  0.17120000000E+03  0.17120000000E+03 0.  0.
         13    1    1    2    0    0  0.37376503094E+02 -0.33617057480E+02  0.18520178889E+03  0.19190316128E+03  0.10566000000E+00 0. -1.
        994    1    1    2    0    0  0.96323371282E+01  0.18949506364E+02  0.92293684319E+01  0.17276135839E+03  0.17120000000E+03 0.  0.
        998    1    1    2    0    0 -0.47008840222E+02  0.14667551116E+02  0.13055688390E+04  0.13065354803E+04  0.10000000000E+02 0. -1.
</event>
<event>
 5    1  0.9123258E-009  0.3805685E+03  0.7957747E-01  0.3448687E+00
         13   -1    0    0    0    0  0.00000000000E+00  0.00000000000E+00  0.14999999963E+04  0.15000000000E+04  0.10566000000E+00 0.  1.
        994   -1    0    0    0    0 -0.00000000000E+00 -0.00000000000E+00  0.11368683772E-12  0.17120000000E+03  0.17120000000E+03 0.  0.
         13    1    1    2    0    0 -0.22509221962E+02 -0.73274268241E+00  0.63862249959E+02  0.67717059291E+02  0.10566000000E+00 0.  1.
        994    1    1    2    0    0  0.16903880636E+02 -0.19193731439E+00  0.48005864298E+01  0.17209957481E+03  0.17120000000E+03 0.  0.
        998    1    1    2    0    0  0.56053413251E+01  0.92467999680E+00  0.14313371599E+04  0.14313833659E+04  0.10000000000E+02 0.  1.
</event>
<event>
 5    1  0.9123258E-009  0.3728977E+03  0.7957747E-01  0.3482679E+00
         13   -1    0    0    0    0  0.00000000000E+00  0.00000000000E+00  0.14999999963E+04  0.15000000000E+04  0.10566000000E+00 0. -1.
        994   -1    0    0    0    0 -0.00000000000E+00 -0.00000000000E+00  0.11368683772E-12  0.17120000000E+03  0.17120000000E+03 0.  0.
         13    1    1    2    0    0 -0.19573822529E+03  0.12487757835E+02  0.92651332751E+03  0.94704612039E+03  0.10566000000E+00 0. -1.
        994    1    1    2    0    0  0.18594439062E+03 -0.30566222201E+01  0.13732719068E+03  0.28766796249E+03  0.17120000000E+03 0.  0.
        998    1    1    2    0    0  0.97938346671E+01 -0.94311356152E+01  0.43615947809E+03  0.43648591712E+03  0.10000000000E+02 0. -1.
</event>
<event>
 5    1  0.9123258E-009  0.3716576E+03  0.7957747E-01  0.3488307E+00
         13   -1    0    0    0    0  0.00000000000E+00  0.00000000000E+00  0.14999999963E+04  0.15000000000E+04  0.10566000000E+00 0.  1.
        994   -1    0    0    0    0 -0.00000000000E+00 -0.00000000000E+00  0.11368683772E-12  0.17120000000E+03  0.17120000000E+03 0.  0.
         13    1    1    2    0    0 -0.53691435679E+02 -0.10342443683E+02  0.17899703008E+03  0.18716218728E+03  0.10566000000E+00 0.  1.
        994    1    1    2    0    0  0.27168744102E+02  0.69102736298E+01  0.11111872459E+02  0.17383557245E+03  0.17120000000E+03 0.  0.
        998    1    1    2    0    0  0.26522691576E+02  0.34321700535E+01  0.13098910937E+04  0.13102022403E+04  0.10000000000E+02 0.  1.
</event>
<event>
 5    1  0.9123258E-009  0.3829045E+03  0.7957747E-01  0.3438608E+00
         13   -1    0    0    0    0  0.00000000000E+00  0.00000000000E+00  0.14999999963E+04  0.15000000000E+04  0.10566000000E+00 0. -1.
        994   -1    0    0    0    0 -0.00000000000E+00 -0.00000000000E+00  0.11368683772E-12  0.17120000000E+03  0.17120000000E+03 0.  0.
         13    1    1    2    0    0  0.11357702421E+02  0.83966260371E+01  0.35684335009E+02  0.38378166477E+02  0.10566000000E+00 0. -1.
        994    1    1    2    0    0 -0.96633372120E+01 -0.11948030612E+02  0.34563648202E+01  0.17192301178E+03  0.17120000000E+03 0.  0.
        998    1    1    2    0    0 -0.16943652088E+01  0.35514045745E+01  0.14608592964E+04  0.14608988217E+04  0.10000000000E+02 0. -1.
</event>
<event>
 5    1  0.9123258E-009  0.3693241E+03  0.7957747E-01  0.3499003E+00
         13   -1    0    0    0    0  0.00000000000E+00  0.00000000000E+00  0.14999999963E+04  0.15000000000E+04  0.10566000000E+00 0. -1.
        994   -1    0    0    0    0 -0.00000000000E+00 -0.00000000000E+00  0.11368683772E-12  0.17120000000E+03  0.17120000000E+03 0.  0.
         13    1    1    2    0    0  0.20003852086E+02 -0.28500664021E+02  0.54446508096E+02  0.64628750226E+02  0.10566000000E+00 0. -1.
        994    1    1    2    0    0 -0.68068146170E+01  0.14464705026E+02  0.11473650543E+02  0.17232714549E+03  0.17120000000E+03 0.  0.
        998    1    1    2    0    0 -0.13197037469E+02  0.14035958995E+02  0.14340798376E+04  0.14342441043E+04  0.10000000000E+02 0. -1.
</event>
<event>
 5    1  0.9123258E-009  0.3823290E+03  0.7957747E-01  0.3441080E+00
         13   -1    0    0    0    0  0.00000000000E+00  0.00000000000E+00  0.14999999963E+04  0.15000000000E+04  0.10566000000E+00 0. -1.
        994   -1    0    0    0    0 -0.00000000000E+00 -0.00000000000E+00  0.11368683772E-12  0.17120000000E+03  0.17120000000E+03 0.  0.
         13    1    1    2    0    0  0.54244615874E+01 -0.22690018445E+02  0.13260735929E+03  0.13464391788E+03  0.10566000000E+00 0. -1.
        994    1    1    2    0    0 -0.59997614542E+01 -0.38720725982E+02  0.80719910188E+01  0.17581208376E+03  0.17120000000E+03 0.  0.
        998    1    1    2    0    0  0.57529986679E+00  0.61410744427E+02  0.13593206460E+04  0.13607439984E+04  0.10000000000E+02 0. -1.
</event>
<event>
 5    1  0.9123258E-009  0.3804563E+03  0.7957747E-01  0.3449174E+00
         13   -1    0    0    0    0  0.00000000000E+00  0.00000000000E+00  0.14999999963E+04  0.15000000000E+04  0.10566000000E+00 0. -1.
        994   -1    0    0    0    0 -0.00000000000E+00 -0.00000000000E+00  0.11368683772E-12  0.17120000000E+03  0.17120000000E+03 0.  0.
         13    1    1    2    0    0 -0.66247955400E+01  0.85623698297E+01  0.13433040403E+02  0.17252820974E+02  0.10566000000E+00 0. -1.
        994    1    1    2    0    0  0.72836839506E+01 -0.29698854492E+00  0.40803948763E+01  0.17140370438E+03  0.17120000000E+03 0.  0.
        998    1    1    2    0    0 -0.65888841056E+00 -0.82653812848E+01  0.14824865610E+04  0.14825434746E+04  0.10000000000E+02 0. -1.
</event>
<event>
 5    1  0.9123258E-009  0.3720724E+03  0.7957747E-01  0.3486421E+00
         13   -1    0    0    0    0  0.00000000000E+00  0.00000000000E+00  0.14999999963E+04  0.15000000000E+04  0.10566000000E+00 0. -1.
        994   -1    0    0    0    0 -0.00000000000E+00 -0.00000000000E+00  0.11368683772E-12  0.17120000000E+03  0.17120000000E+03 0.  0.
         13    1    1    2    0    0 -0.16731733561E+02  0.74256686086E+01  0.17121590402E+02  0.25064945325E+02  0.10566000000E+00 0. -1.
        994    1    1    2    0    0  0.50128545879E+01 -0.77121339900E+01  0.84803865471E+01  0.17165652530E+03  0.17120000000E+03 0.  0.
        998    1    1    2    0    0  0.11718878973E+02  0.28646538136E+00  0.14743980193E+04  0.14744785294E+04  0.10000000000E+02 0. -1.
</event>
<event>
 5    1  0.9123258E-009  0.3798341E+03  0.7957747E-01  0.3451881E+00
         13   -1    0    0    0    0  0.00000000000E+00  0.00000000000E+00  0.14999999963E+04  0.15000000000E+04  0.10566000000E+00 0.  1.
        994   -1    0    0    0    0 -0.00000000000E+00 -0.00000000000E+00  0.11368683772E-12  0.17120000000E+03  0.17120000000E+03 0.  0.
         13    1    1    2    0    0 -0.42242627595E+01 -0.10880365769E+02  0.14265085928E+02  0.18431782218E+02  0.10566000000E+00 0.  1.
        994    1    1    2    0    0  0.40195745787E+01  0.94501882273E+01  0.45697575323E+01  0.17156860354E+03  0.17120000000E+03 0.  0.
        998    1    1    2    0    0  0.20468818071E+00  0.14301775420E+01  0.14811651528E+04  0.14811996142E+04  0.10000000000E+02 0.  1.
</event>
<event>
 5    1  0.9123258E-009  0.3852930E+03  0.7957747E-01  0.3428430E+00
         13   -1    0    0    0    0  0.00000000000E+00  0.00000000000E+00  0.14999999963E+04  0.15000000000E+04  0.10566000000E+00 0.  1.
        994   -1    0    0    0    0 -0.00000000000E+00 -0.00000000000E+00  0.11368683772E-12  0.17120000000E+03  0.17120000000E+03 0.  0.
         13    1    1    2    0    0 -0.11282364697E+02  0.14992422658E+02  0.11268004557E+03  0.11423164327E+03  0.10566000000E+00 0.  1.
        994    1    1    2    0    0 -0.71470571785E+00 -0.23636152442E+02  0.33240695035E+01  0.17285736300E+03  0.17120000000E+03 0.  0.
        998    1    1    2    0    0  0.11997070415E+02  0.86437297839E+01  0.13839958812E+04  0.13841109937E+04  0.10000000000E+02 0.  1.
</event>
<event>
 5    1  0.9123258E-009  0.3828692E+03  0.7957747E-01  0.3438760E+00
         13   -1    0    0    0    0  0.00000000000E+00  0.00000000000E+00  0.14999999963E+04  0.15000000000E+04  0.10566000000E+00 0. -1.
        994   -1    0    0    0    0 -0.00000000000E+00 -0.00000000000E+00  0.11368683772E-12  0.17120000000E+03  0.17120000000E+03 0.  0.
         13    1    1    2    0    0  0.25151994962E+02  0.14825443132E+02  0.15965542622E+03  0.16230305882E+03  0.10566000000E+00 0. -1.
        994    1    1    2    0    0 -0.11812892478E+02 -0.10807436456E+02  0.35411176217E+01  0.17198350103E+03  0.17120000000E+03 0.  0.
        998    1    1    2    0    0 -0.13339102484E+02 -0.40180066759E+01  0.13368034524E+04  0.13369134402E+04  0.10000000000E+02 0. -1.
</event>
<event>
 5    1  0.9123258E-009  0.3728308E+03  0.7957747E-01  0.3482981E+00
         13   -1    0    0    0    0  0.00000000000E+00  0.00000000000E+00  0.14999999963E+04  0.15000000000E+04  0.10566000000E+00 0. -1.
        994   -1    0    0    0    0 -0.00000000000E+00 -0.00000000000E+00  0.11368683772E-12  0.17120000000E+03  0.17120000000E+03 0.  0.
         13    1    1    2    0    0  0.43108867291E+02  0.60002161593E+02  0.31515964298E+03  0.32370394740E+03  0.10566000000E+00 0. -1.
        994    1    1    2    0    0 -0.35776252416E+02 -0.43204563404E+02  0.18649423984E+02  0.18111823638E+03  0.17120000000E+03 0.  0.
        998    1    1    2    0    0 -0.73326148747E+01 -0.16797598189E+02  0.11661909293E+04  0.11663778162E+04  0.10000000000E+02 0. -1.
</event>
<event>
 5    1  0.9123258E-009  0.3843147E+03  0.7957747E-01  0.3432584E+00
         13   -1    0    0    0    0  0.00000000000E+00  0.00000000000E+00  0.14999999963E+04  0.15000000000E+04  0.10566000000E+00 0.  1.
        994   -1    0    0    0    0 -0.00000000000E+00 -0.00000000000E+00  0.11368683772E-12  0.17120000000E+03  0.17120000000E+03 0.  0.
         13    1    1    2    0    0 -0.23709308056E+01  0.10630520513E+02  0.30417721492E+02  0.32309104352E+02  0.10566000000E+00 0.  1.
        994    1    1    2    0    0  0.84701522044E+01  0.96774501277E+00  0.22103491241E+01  0.17142638552E+03  0.17120000000E+03 0.  0.
        998    1    1    2    0    0 -0.60992213989E+01 -0.11598265525E+02  0.14673719257E+04  0.14674645101E+04  0.10000000000E+02 0.  1.
</event>
<event>
 5    1  0.9123258E-009  0.3776481E+03  0.7957747E-01  0.3461464E+00
         13   -1    0    0    0    0  0.00000000000E+00  0.00000000000E+00  0.14999999963E+04  0.15000000000E+04  0.10566000000E+00 0.  1.
        994   -1    0    0    0    0 -0.00000000000E+00 -0.00000000000E+00  0.11368683772E-12  0.17120000000E+03  0.17120000000E+03 0.  0.
         13    1    1    2    0    0 -0.34468915783E+02  0.42716105292E+02  0.23984203035E+03  0.24604264364E+03  0.10566000000E+00 0.  1.
        994    1    1    2    0    0  0.23391366251E+02 -0.50352571545E+02  0.15781850282E+02  0.18066832671E+03  0.17120000000E+03 0.  0.
        998    1    1    2    0    0  0.11077549531E+02  0.76364662531E+01  0.12443761157E+04  0.12444890297E+04  0.10000000000E+02 0.  1.
</event>
<event>
 5    1  0.9123258E-009  0.3831563E+03  0.7957747E-01  0.3437529E+00
         13   -1    0    0    0    0  0.00000000000E+00  0.00000000000E+00  0.14999999963E+04  0.15000000000E+04  0.10566000000E+00 0.  1.
        994   -1    0    0    0    0 -0.00000000000E+00 -0.00000000000E+00  0.11368683772E-12  0.17120000000E+03  0.17120000000E+03 0.  0.
         13    1    1    2    0    0  0.80378764591E+01 -0.14603082586E+02  0.56637105810E+02  0.59039227617E+02  0.10566000000E+00 0.  1.
        994    1    1    2    0    0 -0.67970524350E+02 -0.32288996293E+02  0.21513591979E+02  0.18824145692E+03  0.17120000000E+03 0.  0.
        998    1    1    2    0    0  0.59932647891E+02  0.46892078879E+02  0.14218492985E+04  0.14239193155E+04  0.10000000000E+02 0.  1.
</event>
<event>
 5    1  0.9673935E-009  0.3852778E+03  0.7957747E-01  0.3428495E+00
         13   -1    0    0    0    0  0.00000000000E+00  0.00000000000E+00  0.14999999963E+04  0.15000000000E+04  0.10566000000E+00 0.  1.
        994   -1    0    0    0    0 -0.00000000000E+00 -0.00000000000E+00  0.11368683772E-12  0.17120000000E+03  0.17120000000E+03 0.  0.
         13    1    1    2    0    0  0.14434591516E+02  0.62891506319E+01  0.83933508264E+02  0.85397633582E+02  0.10566000000E+00 0.  1.
        994    1    1    2    0    0 -0.82337773608E+01 -0.42206125822E+01  0.17735965694E+01  0.17145901640E+03  0.17120000000E+03 0.  0.
        998    1    1    2    0    0 -0.62008141552E+01 -0.20685380497E+01  0.14142928914E+04  0.14143433500E+04  0.10000000000E+02 0.  1.
</event>
<event>
 5    1  0.9123258E-009  0.3820528E+03  0.7957747E-01  0.3442268E+00
         13   -1    0    0    0    0  0.00000000000E+00  0.00000000000E+00  0.14999999963E+04  0.15000000000E+04  0.10566000000E+00 0. -1.
        994   -1    0    0    0    0 -0.00000000000E+00 -0.00000000000E+00  0.11368683772E-12  0.17120000000E+03  0.17120000000E+03 0.  0.
         13    1    1    2    0    0  0.81372683246E+01  0.11579930151E+03  0.33209098725E+03  0.35179557749E+03  0.10566000000E+00 0. -1.
        994    1    1    2    0    0 -0.23629394027E+02 -0.92885543073E+02  0.51823553629E+02  0.20293149850E+03  0.17120000000E+03 0.  0.
        998    1    1    2    0    0  0.15492125702E+02 -0.22913758435E+02  0.11160854554E+04  0.11164729240E+04  0.10000000000E+02 0. -1.
</event>
<event>
 5    1  0.9123258E-009  0.3838330E+03  0.7957747E-01  0.3434637E+00
         13   -1    0    0    0    0  0.00000000000E+00  0.00000000000E+00  0.14999999963E+04  0.15000000000E+04  0.10566000000E+00 0. -1.
        994   -1    0    0    0    0 -0.00000000000E+00 -0.00000000000E+00  0.11368683772E-12  0.17120000000E+03  0.17120000000E+03 0.  0.
         13    1    1    2    0    0 -0.15503605011E+02 -0.17497787543E+02  0.12480956874E+03  0.12698021086E+03  0.10566000000E+00 0. -1.
        994    1    1    2    0    0  0.13154767864E+02  0.52101459255E+01  0.28717763816E+01  0.17180768504E+03  0.17120000000E+03 0.  0.
        998    1    1    2    0    0  0.23488371470E+01  0.12287641617E+02  0.13723186512E+04  0.13724121041E+04  0.10000000000E+02 0. -1.
</event>
<event>
 5    1  0.9123258E-009  0.3855993E+03  0.7957747E-01  0.3427134E+00
         13   -1    0    0    0    0  0.00000000000E+00  0.00000000000E+00  0.14999999963E+04  0.15000000000E+04  0.10566000000E+00 0. -1.
        994   -1    0    0    0    0 -0.00000000000E+00 -0.00000000000E+00  0.11368683772E-12  0.17120000000E+03  0.17120000000E+03 0.  0.
         13    1    1    2    0    0  0.54724911517E+01 -0.10785004488E+02  0.55572765893E+02  0.56873613866E+02  0.10566000000E+00 0. -1.
        994    1    1    2    0    0 -0.15983199810E+01  0.70884594312E+01  0.15061897853E+01  0.17136075832E+03  0.17120000000E+03 0.  0.
        998    1    1    2    0    0 -0.38741711707E+01  0.36965450566E+01  0.14429210406E+04  0.14429656278E+04  0.10000000000E+02 0. -1.
</event>
<event>
 5    1  0.9123258E-009  0.3849655E+03  0.7957747E-01  0.3429818E+00
         13   -1    0    0    0    0  0.00000000000E+00  0.00000000000E+00  0.14999999963E+04  0.15000000000E+04  0.10566000000E+00 0. -1.
        994   -1    0    0    0    0 -0.00000000000E+00 -0.00000000000E+00  0.11368683772E-12  0.17120000000E+03  0.17120000000E+03 0.  0.
         13    1    1    2    0    0 -0.11756088485E+02  0.72068262050E+01  0.58725657628E+02  0.60322947444E+02  0.10566000000E+00 0. -1.
        994    1    1    2    0    0  0.54650769344E+01 -0.28938775118E+01  0.17730527857E+01  0.17132082567E+03  0.17120000000E+03 0.  0.
        998    1    1    2    0    0  0.62910115507E+01 -0.43129486932E+01  0.14395012859E+04  0.14395562269E+04  0.10000000000E+02 0. -1.
</event>
<event>
 5    1  0.9123258E-009  0.3807885E+03  0.7957747E-01  0.3447732E+00
         13   -1    0    0    0    0  0.00000000000E+00  0.00000000000E+00  0.14999999963E+04  0.15000000000E+04  0.10566000000E+00 0. -1.
        994   -1    0    0    0    0 -0.00000000000E+00 -0.00000000000E+00  0.11368683772E-12  0.17120000000E+03  0.17120000000E+03 0.  0.
         13    1    1    2    0    0  0.12797983639E+02  0.11404674103E+02  0.37007249441E+02  0.40784833601E+02  0.10566000000E+00 0. -1.
        994    1    1    2    0    0 -0.11980137319E+02 -0.14441662912E+02  0.49104698165E+01  0.17229520606E+03  0.17120000000E+03 0.  0.
        998    1    1    2    0    0 -0.81784632001E+00  0.30369888092E+01  0.14580822770E+04  0.14581199603E+04  0.10000000000E+02 0. -1.
</event>
<event>
 5    1  0.9123258E-009  0.3789020E+03  0.7957747E-01  0.3455953E+00
         13   -1    0    0    0    0  0.00000000000E+00  0.00000000000E+00  0.14999999963E+04  0.15000000000E+04  0.10566000000E+00 0. -1.
        994   -1    0    0    0    0 -0.00000000000E+00 -0.00000000000E+00  0.11368683772E-12  0.17120000000E+03  0.17120000000E+03 0.  0.
         13    1    1    2    0    0  0.27992813021E+02 -0.30590574597E+01  0.89896931075E+02  0.94204165482E+02  0.10566000000E+00 0. -1.
        994    1    1    2    0    0  0.34484908834E+00  0.35108967636E+01  0.47302060874E+01  0.17130166423E+03  0.17120000000E+03 0.  0.
        998    1    1    2    0    0 -0.28337662110E+02 -0.45183930389E+00  0.14053728591E+04  0.14056941703E+04  0.10000000000E+02 0. -1.
</event>
<event>
 5    1  0.9123258E-009  0.3844982E+03  0.7957747E-01  0.3431803E+00
         13   -1    0    0    0    0  0.00000000000E+00  0.00000000000E+00  0.14999999963E+04  0.15000000000E+04  0.10566000000E+00 0. -1.
        994   -1    0    0    0    0 -0.00000000000E+00 -0.00000000000E+00  0.11368683772E-12  0.17120000000E+03  0.17120000000E+03 0.  0.
         13    1    1    2    0    0 -0.64610041593E+01  0.12224423415E+02  0.56773519083E+02  0.58433079122E+02  0.10566000000E+00 0. -1.
        994    1    1    2    0    0 -0.89467962193E+00  0.12161354277E+02  0.23694583949E+01  0.17165008978E+03  0.17120000000E+03 0.  0.
        998    1    1    2    0    0  0.73556837812E+01 -0.24385777692E+02  0.14408570188E+04  0.14411168311E+04  0.10000000000E+02 0. -1.
</event>
<event>
 5    1  0.9123258E-009  0.3843312E+03  0.7957747E-01  0.3432514E+00
         13   -1    0    0    0    0  0.00000000000E+00  0.00000000000E+00  0.14999999963E+04  0.15000000000E+04  0.10566000000E+00 0. -1.
        994   -1    0    0    0    0 -0.00000000000E+00 -0.00000000000E+00  0.11368683772E-12  0.17120000000E+03  0.17120000000E+03 0.  0.
         13    1    1    2    0    0 -0.10105894288E+02 -0.11257939646E+02  0.57249205109E+02  0.59214465750E+02  0.10566000000E+00 0. -1.
        994    1    1    2    0    0  0.10163341233E+02  0.74603913585E+01  0.24865865079E+01  0.17168160663E+03  0.17120000000E+03 0.  0.
        998    1    1    2    0    0 -0.57446944555E-01  0.37975482873E+01  0.14402642047E+04  0.14403039276E+04  0.10000000000E+02 0. -1.
</event>
<event>
 5    1  0.9123258E-009  0.3809327E+03  0.7957747E-01  0.3447107E+00
         13   -1    0    0    0    0  0.00000000000E+00  0.00000000000E+00  0.14999999963E+04  0.15000000000E+04  0.10566000000E+00 0. -1.
        994   -1    0    0    0    0 -0.00000000000E+00 -0.00000000000E+00  0.11368683772E-12  0.17120000000E+03  0.17120000000E+03 0.  0.
         13    1    1    2    0    0  0.15654561557E+02  0.47783410746E+01  0.36629761152E+02  0.40120423814E+02  0.10566000000E+00 0. -1.
        994    1    1    2    0    0  0.24496567089E+01 -0.58423646990E+01  0.37968184383E+01  0.17135924216E+03  0.17120000000E+03 0.  0.
        998    1    1    2    0    0 -0.18104218266E+02  0.10640236244E+01  0.14595734167E+04  0.14597203340E+04  0.10000000000E+02 0. -1.
</event>
<event>
 5    1  0.9123258E-009  0.3851166E+03  0.7957747E-01  0.3429178E+00
         13   -1    0    0    0    0  0.00000000000E+00  0.00000000000E+00  0.14999999963E+04  0.15000000000E+04  0.10566000000E+00 0.  1.
        994   -1    0    0    0    0 -0.00000000000E+00 -0.00000000000E+00  0.11368683772E-12  0.17120000000E+03  0.17120000000E+03 0.  0.
         13    1    1    2    0    0 -0.32692196963E+01 -0.13937979935E+02  0.62270634190E+02  0.63895212094E+02  0.10566000000E+00 0.  1.
        994    1    1    2    0    0  0.27135314241E+01  0.16772504337E+02  0.25218426461E+01  0.17205952413E+03  0.17120000000E+03 0.  0.
        998    1    1    2    0    0  0.55568827223E+00 -0.28345244022E+01  0.14352075194E+04  0.14352452638E+04  0.10000000000E+02 0.  1.
</event>
<event>
 5    1  0.9123258E-009  0.3711937E+03  0.7957747E-01  0.3490423E+00
         13   -1    0    0    0    0  0.00000000000E+00  0.00000000000E+00  0.14999999963E+04  0.15000000000E+04  0.10566000000E+00 0. -1.
        994   -1    0    0    0    0 -0.00000000000E+00 -0.00000000000E+00  0.11368683772E-12  0.17120000000E+03  0.17120000000E+03 0.  0.
         13    1    1    2    0    0 -0.32688898919E+02 -0.74814235017E+02  0.35146287482E+03  0.36082114325E+03  0.10566000000E+00 0. -1.
        994    1    1    2    0    0  0.24904561952E+02  0.74927563871E+01  0.13949530852E+02  0.17372509322E+03  0.17120000000E+03 0.  0.
        998    1    1    2    0    0  0.77843369673E+01  0.67321478630E+02  0.11345875906E+04  0.11366537635E+04  0.10000000000E+02 0. -1.
</event>
<event>
 5    1  0.9123258E-009  0.2712962E+03  0.7957747E-01  0.4124960E+00
         13   -1    0    0    0    0  0.00000000000E+00  0.00000000000E+00  0.14999999963E+04  0.15000000000E+04  0.10566000000E+00 0. -1.
        994   -1    0    0    0    0 -0.00000000000E+00 -0.00000000000E+00  0.11368683772E-12  0.17120000000E+03  0.17120000000E+03 0.  0.
         13    1    1    2    0    0 -0.87513087982E+02  0.12476717522E+03  0.56509012121E+03  0.58527962961E+03  0.10566000000E+00 0. -1.
        994    1    1    2    0    0  0.36159754864E+02 -0.82487517429E+02  0.51811435150E+02  0.20026378408E+03  0.17120000000E+03 0.  0.
        998    1    1    2    0    0  0.51353333118E+02 -0.42279657787E+02  0.88309843991E+03  0.88565658630E+03  0.10000000000E+02 0. -1.
</event>
<event>
 5    1  0.9123258E-009  0.3792242E+03  0.7957747E-01  0.3454544E+00
         13   -1    0    0    0    0  0.00000000000E+00  0.00000000000E+00  0.14999999963E+04  0.15000000000E+04  0.10566000000E+00 0. -1.
        994   -1    0    0    0    0 -0.00000000000E+00 -0.00000000000E+00  0.11368683772E-12  0.17120000000E+03  0.17120000000E+03 0.  0.
         13    1    1    2    0    0  0.48074120025E+01  0.28749249197E+02  0.84683748102E+02  0.89559917911E+02  0.10566000000E+00 0. -1.
        994    1    1    2    0    0 -0.23313507384E+02 -0.33608177645E+02  0.10152955309E+02  0.17631095182E+03  0.17120000000E+03 0.  0.
        998    1    1    2    0    0  0.18506095382E+02  0.48589284481E+01  0.14051632929E+04  0.14053291303E+04  0.10000000000E+02 0. -1.
</event>
<event>
 5    1  0.9123258E-009  0.3843876E+03  0.7957747E-01  0.3432274E+00
         13   -1    0    0    0    0  0.00000000000E+00  0.00000000000E+00  0.14999999963E+04  0.15000000000E+04  0.10566000000E+00 0. -1.
        994   -1    0    0    0    0 -0.00000000000E+00 -0.00000000000E+00  0.11368683772E-12  0.17120000000E+03  0.17120000000E+03 0.  0.
         13    1    1    2    0    0 -0.20680009820E+01 -0.12645676809E+02  0.43435766873E+02  0.45286496640E+02  0.10566000000E+00 0. -1.
        994    1    1    2    0    0  0.67337243122E+01  0.99847928133E+00  0.20872159308E+01  0.17134799816E+03  0.17120000000E+03 0.  0.
        998    1    1    2    0    0 -0.46657233302E+01  0.11647197527E+02  0.14544770135E+04  0.14545655052E+04  0.10000000000E+02 0. -1.
</event>
<event>
 5    1  0.9123258E-009  0.2559019E+03  0.7957747E-01  0.4271719E+00
         13   -1    0    0    0    0  0.00000000000E+00  0.00000000000E+00  0.14999999963E+04  0.15000000000E+04  0.10566000000E+00 0. -1.
        994   -1    0    0    0    0 -0.00000000000E+00 -0.00000000000E+00  0.11368683772E-12  0.17120000000E+03  0.17120000000E+03 0.  0.
         13    1    1    2    0    0 -0.15043344537E+03 -0.92840531175E+01  0.52276359957E+03  0.54405717285E+03  0.10566000000E+00 0. -1.
        994    1    1    2    0    0  0.42752792487E+02 -0.26120017656E+02  0.39723926845E+02  0.18274979330E+03  0.17120000000E+03 0.  0.
        998    1    1    2    0    0  0.10768065289E+03  0.35404070774E+02  0.93751246986E+03  0.94439303385E+03  0.10000000000E+02 0. -1.
</event>
<event>
 5    1  0.9123258E-009  0.3784119E+03  0.7957747E-01  0.3458103E+00
         13   -1    0    0    0    0  0.00000000000E+00  0.00000000000E+00  0.14999999963E+04  0.15000000000E+04  0.10566000000E+00 0. -1.
        994   -1    0    0    0    0 -0.00000000000E+00 -0.00000000000E+00  0.11368683772E-12  0.17120000000E+03  0.17120000000E+03 0.  0.
         13    1    1    2    0    0  0.37192400175E+02 -0.37205742058E+02  0.87452991259E+02  0.10205674263E+03  0.10566000000E+00 0. -1.
        994    1    1    2    0    0 -0.25007880981E+02  0.73427456397E+01  0.17908639284E+02  0.17409614983E+03  0.17120000000E+03 0.  0.
        998    1    1    2    0    0 -0.12184519194E+02  0.29862996418E+02  0.13946383657E+04  0.13950471075E+04  0.10000000000E+02 0. -1.
</event>
<event>
 5    1  0.9123258E-009  0.3808152E+03  0.7957747E-01  0.3447617E+00
         13   -1    0    0    0    0  0.00000000000E+00  0.00000000000E+00  0.14999999963E+04  0.15000000000E+04  0.10566000000E+00 0. -1.
        994   -1    0    0    0    0 -0.00000000000E+00 -0.00000000000E+00  0.11368683772E-12  0.17120000000E+03  0.17120000000E+03 0.  0.
         13    1    1    2    0    0 -0.11214949123E+02 -0.13050273471E+02  0.39360934688E+02  0.42957875472E+02  0.10566000000E+00 0. -1.
        994    1    1    2    0    0  0.46947563395E+01  0.16766195662E+01  0.38050717805E+01  0.17131482820E+03  0.17120000000E+03 0.  0.
        998    1    1    2    0    0  0.65201927834E+01  0.11373653905E+02  0.14568339898E+04  0.14569272963E+04  0.10000000000E+02 0. -1.
</event>
<event>
 5    1  0.9123258E-009  0.3737532E+03  0.7957747E-01  0.3478818E+00
         13   -1    0    0    0    0  0.00000000000E+00  0.00000000000E+00  0.14999999963E+04  0.15000000000E+04  0.10566000000E+00 0. -1.
        994   -1    0    0    0    0 -0.00000000000E+00 -0.00000000000E+00  0.11368683772E-12  0.17120000000E+03  0.17120000000E+03 0.  0.
         13    1    1    2    0    0  0.54006137505E+02 -0.21732029950E+01  0.11712374801E+03  0.12899367896E+03  0.10566000000E+00 0. -1.
        994    1    1    2    0    0 -0.13966641145E+02 -0.16205645802E+02  0.14560345076E+02  0.17314483437E+03  0.17120000000E+03 0.  0.
        998    1    1    2    0    0 -0.40039496360E+02  0.18378848797E+02  0.13683159032E+04  0.13690614867E+04  0.10000000000E+02 0. -1.
</event>
<event>
 5    1  0.9123258E-009  0.3758131E+03  0.7957747E-01  0.3469594E+00
         13   -1    0    0    0    0  0.00000000000E+00  0.00000000000E+00  0.14999999963E+04  0.15000000000E+04  0.10566000000E+00 0. -1.
        994   -1    0    0    0    0 -0.00000000000E+00 -0.00000000000E+00  0.11368683772E-12  0.17120000000E+03  0.17120000000E+03 0.  0.
         13    1    1    2    0    0  0.36974750979E+02  0.30920017918E+02  0.16280708873E+03  0.16979204640E+03  0.10566000000E+00 0. -1.
        994    1    1    2    0    0 -0.37546926349E+02 -0.33212601434E+02  0.14828120544E+02  0.17900324503E+03  0.17120000000E+03 0.  0.
        998    1    1    2    0    0  0.57217537011E+00  0.22925835164E+01  0.13223647870E+04  0.13224047086E+04  0.10000000000E+02 0. -1.
</event>
<event>
 5    1  0.9123258E-009  0.3836432E+03  0.7957747E-01  0.3435447E+00
         13   -1    0    0    0    0  0.00000000000E+00  0.00000000000E+00  0.14999999963E+04  0.15000000000E+04  0.10566000000E+00 0.  1.
        994   -1    0    0    0    0 -0.00000000000E+00 -0.00000000000E+00  0.11368683772E-12  0.17120000000E+03  0.17120000000E+03 0.  0.
         13    1    1    2    0    0  0.10632566044E+02 -0.21892019765E+02  0.11787918279E+03  0.12036538078E+03  0.10566000000E+00 0.  1.
        994    1    1    2    0    0 -0.91860398074E+01  0.24770320310E+02  0.46141170264E+01  0.17328785927E+03  0.17120000000E+03 0.  0.
        998    1    1    2    0    0 -0.14465262366E+01 -0.28783005456E+01  0.13775066965E+04  0.13775467599E+04  0.10000000000E+02 0.  1.
</event>
<event>
 5    1  0.9123258E-009  0.3773572E+03  0.7957747E-01  0.3462747E+00
         13   -1    0    0    0    0  0.00000000000E+00  0.00000000000E+00  0.14999999963E+04  0.15000000000E+04  0.10566000000E+00 0.  1.
        994   -1    0    0    0    0 -0.00000000000E+00 -0.00000000000E+00  0.11368683772E-12  0.17120000000E+03  0.17120000000E+03 0.  0.
         13    1    1    2    0    0 -0.20020100711E+02 -0.13351795750E+02  0.50476826095E+02  0.55919549523E+02  0.10566000000E+00 0.  1.
        994    1    1    2    0    0  0.14686204352E+02  0.95909878183E+01  0.65114968941E+01  0.17221936952E+03  0.17120000000E+03 0.  0.
        998    1    1    2    0    0  0.53338963587E+01  0.37608079316E+01  0.14430116733E+04  0.14430610810E+04  0.10000000000E+02 0.  1.
</event>
<event>
 5    1  0.9123258E-009  0.3840971E+03  0.7957747E-01  0.3433511E+00
         13   -1    0    0    0    0  0.00000000000E+00  0.00000000000E+00  0.14999999963E+04  0.15000000000E+04  0.10566000000E+00 0. -1.
        994   -1    0    0    0    0 -0.00000000000E+00 -0.00000000000E+00  0.11368683772E-12  0.17120000000E+03  0.17120000000E+03 0.  0.
         13    1    1    2    0    0  0.16396352802E+02 -0.11301022690E+02  0.98264997419E+02  0.10026252730E+03  0.10566000000E+00 0. -1.
        994    1    1    2    0    0 -0.47372938656E+01  0.67195798174E+01  0.23020785898E+01  0.17141275994E+03  0.17120000000E+03 0.  0.
        998    1    1    2    0    0 -0.11659058936E+02  0.45814428722E+01  0.13994329203E+04  0.13995247128E+04  0.10000000000E+02 0. -1.
</event>
<event>
 5    1  0.9123258E-009  0.4281073E+03  0.7957747E-01  0.3265178E+00
         13   -1    0    0    0    0  0.00000000000E+00  0.00000000000E+00  0.14999999963E+04  0.15000000000E+04  0.10566000000E+00 0.  1.
        994   -1    0    0    0    0 -0.00000000000E+00 -0.00000000000E+00  0.11368683772E-12  0.17120000000E+03  0.17120000000E+03 0.  0.
         13    1    1    2    0    0  0.12957166844E+03  0.21397483135E+02  0.30818301307E+03  0.33499768694E+03  0.10566000000E+00 0.  1.
        994    1    1    2    0    0  0.38881305631E+02  0.51078055399E+02  0.64284795606E+02  0.19381098683E+03  0.17120000000E+03 0.  0.
        998    1    1    2    0    0 -0.16845297407E+03 -0.72475538534E+02  0.11275321876E+04  0.11423913262E+04  0.10000000000E+02 0. -1.
</event>
<event>
 5    1  0.9123258E-009  0.3800022E+03  0.7957747E-01  0.3451149E+00
         13   -1    0    0    0    0  0.00000000000E+00  0.00000000000E+00  0.14999999963E+04  0.15000000000E+04  0.10566000000E+00 0. -1.
        994   -1    0    0    0    0 -0.00000000000E+00 -0.00000000000E+00  0.11368683772E-12  0.17120000000E+03  0.17120000000E+03 0.  0.
         13    1    1    2    0    0  0.62719606956E+01 -0.27123830463E+02  0.97639926165E+02  0.10153130559E+03  0.10566000000E+00 0. -1.
        994    1    1    2    0    0 -0.26477996937E+01  0.57136487055E+01  0.42646090665E+01  0.17136885223E+03  0.17120000000E+03 0.  0.
        998    1    1    2    0    0 -0.36241610019E+01  0.21410181757E+02  0.13980954610E+04  0.13982998422E+04  0.10000000000E+02 0. -1.
</event>
<event>
 5    1  0.9123258E-009  0.3774515E+03  0.7957747E-01  0.3462331E+00
         13   -1    0    0    0    0  0.00000000000E+00  0.00000000000E+00  0.14999999963E+04  0.15000000000E+04  0.10566000000E+00 0. -1.
        994   -1    0    0    0    0 -0.00000000000E+00 -0.00000000000E+00  0.11368683772E-12  0.17120000000E+03  0.17120000000E+03 0.  0.
         13    1    1    2    0    0 -0.10635075696E+02  0.55147551895E+01  0.10619239671E+02  0.16009271536E+02  0.10566000000E+00 0. -1.
        994    1    1    2    0    0  0.14506732247E+02 -0.71638853401E+01  0.63081814614E+01  0.17207846956E+03  0.17120000000E+03 0.  0.
        998    1    1    2    0    0 -0.38716565505E+01  0.16491301506E+01  0.14830725751E+04  0.14831122589E+04  0.10000000000E+02 0. -1.
</event>
<event>
 5    1  0.9123258E-009  0.3736575E+03  0.7957747E-01  0.3479249E+00
         13   -1    0    0    0    0  0.00000000000E+00  0.00000000000E+00  0.14999999963E+04  0.15000000000E+04  0.10566000000E+00 0.  1.
        994   -1    0    0    0    0 -0.00000000000E+00 -0.00000000000E+00  0.11368683772E-12  0.17120000000E+03  0.17120000000E+03 0.  0.
         13    1    1    2    0    0  0.84147856267E+02  0.13779131362E+03  0.51780316743E+03  0.54239048589E+03  0.10566000000E+00 0.  1.
        994    1    1    2    0    0 -0.10227383872E+03 -0.14504035306E+03  0.13460744734E+03  0.28093637533E+03  0.17120000000E+03 0.  0.
        998    1    1    2    0    0  0.18125982457E+02  0.72490394405E+01  0.84758938151E+03  0.84787313878E+03  0.10000000000E+02 0.  1.
</event>
<event>
 5    1  0.9123258E-009  0.3831070E+03  0.7957747E-01  0.3437740E+00
         13   -1    0    0    0    0  0.00000000000E+00  0.00000000000E+00  0.14999999963E+04  0.15000000000E+04  0.10566000000E+00 0.  1.
        994   -1    0    0    0    0 -0.00000000000E+00 -0.00000000000E+00  0.11368683772E-12  0.17120000000E+03  0.17120000000E+03 0.  0.
         13    1    1    2    0    0  0.93631363100E+01 -0.14928994427E+02  0.61584661113E+02  0.64056419230E+02  0.10566000000E+00 0.  1.
        994    1    1    2    0    0 -0.66661657804E-01  0.58702102424E+01  0.26869489851E+01  0.17132169596E+03  0.17120000000E+03 0.  0.
        998    1    1    2    0    0 -0.92964746522E+01  0.90587841842E+01  0.14357283862E+04  0.14358218848E+04  0.10000000000E+02 0.  1.
</event>
<event>
 5    1  0.9123258E-009  0.3804671E+03  0.7957747E-01  0.3449127E+00
         13   -1    0    0    0    0  0.00000000000E+00  0.00000000000E+00  0.14999999963E+04  0.15000000000E+04  0.10566000000E+00 0. -1.
        994   -1    0    0    0    0 -0.00000000000E+00 -0.00000000000E+00  0.11368683772E-12  0.17120000000E+03  0.17120000000E+03 0.  0.
         13    1    1    2    0    0 -0.37227029966E+01  0.40110356700E+02  0.22288852154E+03  0.22649945569E+03  0.10566000000E+00 0. -1.
        994    1    1    2    0    0  0.17361641832E+02 -0.12938050790E+02  0.54638983177E+01  0.17265026484E+03  0.17120000000E+03 0.  0.
        998    1    1    2    0    0 -0.13638938835E+02 -0.27172305910E+02  0.12716475764E+04  0.12720502795E+04  0.10000000000E+02 0. -1.
</event>
<event>
 5    1  0.9123258E-009  0.3783696E+03  0.7957747E-01  0.3458289E+00
         13   -1    0    0    0    0  0.00000000000E+00  0.00000000000E+00  0.14999999963E+04  0.15000000000E+04  0.10566000000E+00 0. -1.
        994   -1    0    0    0    0 -0.00000000000E+00 -0.00000000000E+00  0.11368683772E-12  0.17120000000E+03  0.17120000000E+03 0.  0.
         13    1    1    2    0    0  0.14934575251E+02  0.13403967676E+03  0.73774778955E+03  0.74997432531E+03  0.10566000000E+00 0. -1.
        994    1    1    2    0    0  0.26353256376E+02 -0.15480952727E+03  0.92892599435E+02  0.25019783949E+03  0.17120000000E+03 0.  0.
        998    1    1    2    0    0 -0.41287831627E+02  0.20769850509E+02  0.66935960730E+03  0.67102783520E+03  0.10000000000E+02 0. -1.
</event>
<event>
 5    1  0.9123258E-009  0.3754611E+03  0.7957747E-01  0.3471163E+00
         13   -1    0    0    0    0  0.00000000000E+00  0.00000000000E+00  0.14999999963E+04  0.15000000000E+04  0.10566000000E+00 0.  1.
        994   -1    0    0    0    0 -0.00000000000E+00 -0.00000000000E+00  0.11368683772E-12  0.17120000000E+03  0.17120000000E+03 0.  0.
         13    1    1    2    0    0  0.33996861768E+02  0.43374702467E+02  0.22114166984E+03  0.22790524506E+03  0.10566000000E+00 0.  1.
        994    1    1    2    0    0 -0.25355746902E+02 -0.31390908489E+02  0.11988553736E+02  0.17629937169E+03  0.17120000000E+03 0.  0.
        998    1    1    2    0    0 -0.86411148661E+01 -0.11983793978E+02  0.12668697727E+04  0.12669953833E+04  0.10000000000E+02 0.  1.
</event>
<event>
 5    1  0.9123258E-009  0.3771765E+03  0.7957747E-01  0.3463545E+00
         13   -1    0    0    0    0  0.00000000000E+00  0.00000000000E+00  0.14999999963E+04  0.15000000000E+04  0.10566000000E+00 0. -1.
        994   -1    0    0    0    0 -0.00000000000E+00 -0.00000000000E+00  0.11368683772E-12  0.17120000000E+03  0.17120000000E+03 0.  0.
         13    1    1    2    0    0  0.13640293871E+02  0.72305816820E+02  0.37580291912E+03  0.38293868170E+03  0.10566000000E+00 0. -1.
        994    1    1    2    0    0 -0.21898834524E+02 -0.67254010616E+02  0.22637018667E+02  0.18661333155E+03  0.17120000000E+03 0.  0.
        998    1    1    2    0    0  0.82585406525E+01 -0.50518062040E+01  0.11015600585E+04  0.11016479867E+04  0.10000000000E+02 0.  1.
</event>
<event>
 5    1  0.9123258E-009  0.3850610E+03  0.7957747E-01  0.3429414E+00
         13   -1    0    0    0    0  0.00000000000E+00  0.00000000000E+00  0.14999999963E+04  0.15000000000E+04  0.10566000000E+00 0. -1.
        994   -1    0    0    0    0 -0.00000000000E+00 -0.00000000000E+00  0.11368683772E-12  0.17120000000E+03  0.17120000000E+03 0.  0.
         13    1    1    2    0    0 -0.22252848107E+00 -0.10048303850E+02  0.31340444074E+02  0.32912801885E+02  0.10566000000E+00 0. -1.
        994    1    1    2    0    0  0.10317806947E+01  0.70844176695E+01  0.17684056699E+01  0.17135874884E+03  0.17120000000E+03 0.  0.
        998    1    1    2    0    0 -0.80925221362E+00  0.29638861801E+01  0.14668911465E+04  0.14669284493E+04  0.10000000000E+02 0. -1.
</event>
<event>
 5    1  0.9123258E-009  0.3831673E+03  0.7957747E-01  0.3437482E+00
         13   -1    0    0    0    0  0.00000000000E+00  0.00000000000E+00  0.14999999963E+04  0.15000000000E+04  0.10566000000E+00 0.  1.
        994   -1    0    0    0    0 -0.00000000000E+00 -0.00000000000E+00  0.11368683772E-12  0.17120000000E+03  0.17120000000E+03 0.  0.
         13    1    1    2    0    0  0.10843952556E+02  0.17206841831E+02  0.87740985625E+02  0.90067521534E+02  0.10566000000E+00 0.  1.
        994    1    1    2    0    0 -0.11675524993E+02  0.83297933404E+01  0.32236034000E+01  0.17182995944E+03  0.17120000000E+03 0.  0.
        998    1    1    2    0    0  0.83157243645E+00 -0.25536635172E+02  0.14090354073E+04  0.14093025190E+04  0.10000000000E+02 0.  1.
</event>
<event>
 5    1  0.9123258E-009  0.3824661E+03  0.7957747E-01  0.3440490E+00
         13   -1    0    0    0    0  0.00000000000E+00  0.00000000000E+00  0.14999999963E+04  0.15000000000E+04  0.10566000000E+00 0.  1.
        994   -1    0    0    0    0 -0.00000000000E+00 -0.00000000000E+00  0.11368683772E-12  0.17120000000E+03  0.17120000000E+03 0.  0.
         13    1    1    2    0    0 -0.92429207305E+01  0.77909442669E+01  0.24033963666E+02  0.26903029007E+02  0.10566000000E+00 0.  1.
        994    1    1    2    0    0  0.62094800562E+01 -0.84425376853E+01  0.32576915125E+01  0.17155141107E+03  0.17120000000E+03 0.  0.
        998    1    1    2    0    0  0.30334406743E+01  0.65159341841E+00  0.14727083411E+04  0.14727455599E+04  0.10000000000E+02 0.  1.
</event>
<event>
 5    1  0.9123258E-009  0.3845137E+03  0.7957747E-01  0.3431737E+00
         13   -1    0    0    0    0  0.00000000000E+00  0.00000000000E+00  0.14999999963E+04  0.15000000000E+04  0.10566000000E+00 0. -1.
        994   -1    0    0    0    0 -0.00000000000E+00 -0.00000000000E+00  0.11368683772E-12  0.17120000000E+03  0.17120000000E+03 0.  0.
         13    1    1    2    0    0 -0.91966731609E+01 -0.10292130767E+02  0.51516422698E+02  0.53333476584E+02  0.10566000000E+00 0. -1.
        994    1    1    2    0    0  0.89284791885E+00  0.71192646128E+01  0.20413791924E+01  0.17136244727E+03  0.17120000000E+03 0.  0.
        998    1    1    2    0    0  0.83038252420E+01  0.31728661539E+01  0.14464421944E+04  0.14465040761E+04  0.10000000000E+02 0. -1.
</event>
<event>
 5    1  0.9123258E-009  0.3858065E+03  0.7957747E-01  0.3426259E+00
         13   -1    0    0    0    0  0.00000000000E+00  0.00000000000E+00  0.14999999963E+04  0.15000000000E+04  0.10566000000E+00 0. -1.
        994   -1    0    0    0    0 -0.00000000000E+00 -0.00000000000E+00  0.11368683772E-12  0.17120000000E+03  0.17120000000E+03 0.  0.
         13    1    1    2    0    0 -0.79390096317E+01 -0.11906431747E+02  0.83908444838E+02  0.85120087347E+02  0.10566000000E+00 0. -1.
        994    1    1    2    0    0  0.10775967704E+02  0.42014065333E+01  0.16691859878E+01  0.17159836677E+03  0.17120000000E+03 0.  0.
        998    1    1    2    0    0 -0.28369580724E+01  0.77050252132E+01  0.14144223655E+04  0.14144815459E+04  0.10000000000E+02 0. -1.
</event>
<event>
 5    1  0.2634718E-008  0.3865541E+03  0.7957747E-01  0.3423108E+00
         13   -1    0    0    0    0  0.00000000000E+00  0.00000000000E+00  0.14999999963E+04  0.15000000000E+04  0.10566000000E+00 0. -1.
        994   -1    0    0    0    0 -0.00000000000E+00 -0.00000000000E+00  0.11368683772E-12  0.17120000000E+03  0.17120000000E+03 0.  0.
         13    1    1    2    0    0 -0.99624279715E+01 -0.11212993437E+01  0.59894102329E+02  0.60727439771E+02  0.10566000000E+00 0. -1.
        994    1    1    2    0    0  0.59990757578E+01  0.49647685636E+01  0.10589452956E+01  0.17138027658E+03  0.17120000000E+03 0.  0.
        998    1    1    2    0    0  0.39633522137E+01 -0.38434692199E+01  0.14390469487E+04  0.14390922836E+04  0.10000000000E+02 0. -1.
</event>
<event>
 5    1  0.9123258E-009  0.3836670E+03  0.7957747E-01  0.3435345E+00
         13   -1    0    0    0    0  0.00000000000E+00  0.00000000000E+00  0.14999999963E+04  0.15000000000E+04  0.10566000000E+00 0.  1.
        994   -1    0    0    0    0 -0.00000000000E+00 -0.00000000000E+00  0.11368683772E-12  0.17120000000E+03  0.17120000000E+03 0.  0.
         13    1    1    2    0    0  0.26616397157E+01  0.12863391782E+02  0.34349856957E+02  0.36776011354E+02  0.10566000000E+00 0.  1.
        994    1    1    2    0    0 -0.12144295855E+02 -0.25200251918E+02  0.48823327345E+01  0.17353908433E+03  0.17120000000E+03 0.  0.
        998    1    1    2    0    0  0.94826561390E+01  0.12336860137E+02  0.14607678066E+04  0.14608849043E+04  0.10000000000E+02 0.  1.
</event>
<event>
 5    1  0.9123258E-009  0.3829835E+03  0.7957747E-01  0.3438270E+00
         13   -1    0    0    0    0  0.00000000000E+00  0.00000000000E+00  0.14999999963E+04  0.15000000000E+04  0.10566000000E+00 0.  1.
        994   -1    0    0    0    0 -0.00000000000E+00 -0.00000000000E+00  0.11368683772E-12  0.17120000000E+03  0.17120000000E+03 0.  0.
         13    1    1    2    0    0  0.16673743734E+01 -0.10430124335E+02  0.20349181613E+02  0.22927450519E+02  0.10566000000E+00 0.  1.
        994    1    1    2    0    0 -0.11909727704E+01  0.48406218818E+01  0.27168802026E+01  0.17129410811E+03  0.17120000000E+03 0.  0.
        998    1    1    2    0    0 -0.47640160294E+00  0.55895024531E+01  0.14769339345E+04  0.14769784414E+04  0.10000000000E+02 0.  1.
</event>
<event>
 5    1  0.9123258E-009  0.3838206E+03  0.7957747E-01  0.3434690E+00
         13   -1    0    0    0    0  0.00000000000E+00  0.00000000000E+00  0.14999999963E+04  0.15000000000E+04  0.10566000000E+00 0.  1.
        994   -1    0    0    0    0 -0.00000000000E+00 -0.00000000000E+00  0.11368683772E-12  0.17120000000E+03  0.17120000000E+03 0.  0.
         13    1    1    2    0    0 -0.19946385967E+02 -0.30111720308E+00  0.84663699689E+02  0.86982194694E+02  0.10566000000E+00 0.  1.
        994    1    1    2    0    0  0.21308321501E+02 -0.53579750737E+01  0.38121568323E+01  0.17264624236E+03  0.17120000000E+03 0.  0.
        998    1    1    2    0    0 -0.13619355343E+01  0.56590922768E+01  0.14115241398E+04  0.14115715629E+04  0.10000000000E+02 0.  1.
</event>
<event>
 5    1  0.9123258E-009  0.3751245E+03  0.7957747E-01  0.3472666E+00
         13   -1    0    0    0    0  0.00000000000E+00  0.00000000000E+00  0.14999999963E+04  0.15000000000E+04  0.10566000000E+00 0. -1.
        994   -1    0    0    0    0 -0.00000000000E+00 -0.00000000000E+00  0.11368683772E-12  0.17120000000E+03  0.17120000000E+03 0.  0.
         13    1    1    2    0    0 -0.85885218582E+02 -0.57629804921E+02  0.48729980341E+03  0.49815517136E+03  0.10566000000E+00 0. -1.
        994    1    1    2    0    0  0.93198404092E+02  0.61196353762E+02  0.50099275747E+02  0.21035758524E+03  0.17120000000E+03 0.  0.
        998    1    1    2    0    0 -0.73131855100E+01 -0.35665488412E+01  0.96260091712E+03  0.96268724339E+03  0.10000000000E+02 0.  0.
</event>
<event>
 5    1  0.9123258E-009  0.3855527E+03  0.7957747E-01  0.3427331E+00
         13   -1    0    0    0    0  0.00000000000E+00  0.00000000000E+00  0.14999999963E+04  0.15000000000E+04  0.10566000000E+00 0. -1.
        994   -1    0    0    0    0 -0.00000000000E+00 -0.00000000000E+00  0.11368683772E-12  0.17120000000E+03  0.17120000000E+03 0.  0.
         13    1    1    2    0    0 -0.69014422924E+01 -0.87262713852E+01  0.45409414276E+02  0.46752580538E+02  0.10566000000E+00 0. -1.
        994    1    1    2    0    0  0.19396162993E+01  0.10187780285E+02  0.17091269098E+01  0.17152234284E+03  0.17120000000E+03 0.  0.
        998    1    1    2    0    0  0.49618259931E+01 -0.14615089003E+01  0.14528814551E+04  0.14529250766E+04  0.10000000000E+02 0. -1.
</event>
<event>
 5    1  0.9123258E-009  0.3700293E+03  0.7957747E-01  0.3495756E+00
         13   -1    0    0    0    0  0.00000000000E+00  0.00000000000E+00  0.14999999963E+04  0.15000000000E+04  0.10566000000E+00 0.  1.
        994   -1    0    0    0    0 -0.00000000000E+00 -0.00000000000E+00  0.11368683772E-12  0.17120000000E+03  0.17120000000E+03 0.  0.
         13    1    1    2    0    0 -0.11320713555E+02 -0.55059671456E+02  0.14857220568E+03  0.15885036179E+03  0.10566000000E+00 0.  1.
        994    1    1    2    0    0  0.18403493821E+02  0.18132398785E+02  0.13291519659E+02  0.17364785333E+03  0.17120000000E+03 0.  0.
        998    1    1    2    0    0 -0.70827802652E+01  0.36927272670E+02  0.13381362709E+04  0.13387017849E+04  0.10000000000E+02 0.  1.
</event>
<event>
 5    1  0.9123258E-009  0.3837344E+03  0.7957747E-01  0.3435057E+00
         13   -1    0    0    0    0  0.00000000000E+00  0.00000000000E+00  0.14999999963E+04  0.15000000000E+04  0.10566000000E+00 0. -1.
        994   -1    0    0    0    0 -0.00000000000E+00 -0.00000000000E+00  0.11368683772E-12  0.17120000000E+03  0.17120000000E+03 0.  0.
         13    1    1    2    0    0  0.56452098549E+01  0.10747463838E+02  0.31394103137E+02  0.33659727406E+02  0.10566000000E+00 0. -1.
        994    1    1    2    0    0 -0.85084922534E+01 -0.99336694337E+01  0.28248907975E+01  0.17172213671E+03  0.17120000000E+03 0.  0.
        998    1    1    2    0    0  0.28632823985E+01 -0.81379440408E+00  0.14657810023E+04  0.14658181359E+04  0.10000000000E+02 0. -1.
</event>
<event>
 5    1  0.9123258E-009  0.3848218E+03  0.7957747E-01  0.3430428E+00
         13   -1    0    0    0    0  0.00000000000E+00  0.00000000000E+00  0.14999999963E+04  0.15000000000E+04  0.10566000000E+00 0.  1.
        994   -1    0    0    0    0 -0.00000000000E+00 -0.00000000000E+00  0.11368683772E-12  0.17120000000E+03  0.17120000000E+03 0.  0.
         13    1    1    2    0    0 -0.13494281859E+02  0.35951067303E+01  0.54844253643E+02  0.56594379199E+02  0.10566000000E+00 0.  1.
        994    1    1    2    0    0  0.16490686553E+02  0.36964507910E+01  0.26589803997E+01  0.17205265667E+03  0.17120000000E+03 0.  0.
        998    1    1    2    0    0 -0.29964046947E+01 -0.72915575213E+01  0.14424967622E+04  0.14425529641E+04  0.10000000000E+02 0.  1.
</event>
<event>
 5    1  0.9123258E-009  0.3778479E+03  0.7957747E-01  0.3460583E+00
         13   -1    0    0    0    0  0.00000000000E+00  0.00000000000E+00  0.14999999963E+04  0.15000000000E+04  0.10566000000E+00 0.  1.
        994   -1    0    0    0    0 -0.00000000000E+00 -0.00000000000E+00  0.11368683772E-12  0.17120000000E+03  0.17120000000E+03 0.  0.
         13    1    1    2    0    0  0.29975257315E+02  0.19161692603E+02  0.11143232436E+03  0.11697376026E+03  0.10566000000E+00 0.  1.
        994    1    1    2    0    0 -0.42134954847E+02 -0.44098060872E+00  0.11224935512E+02  0.17666631841E+03  0.17120000000E+03 0.  0.
        998    1    1    2    0    0  0.12159697531E+02 -0.18720711994E+02  0.13773427364E+04  0.13775599213E+04  0.10000000000E+02 0.  1.
</event>
<event>
 5    1  0.9123258E-009  0.3774034E+03  0.7957747E-01  0.3462543E+00
         13   -1    0    0    0    0  0.00000000000E+00  0.00000000000E+00  0.14999999963E+04  0.15000000000E+04  0.10566000000E+00 0.  1.
        994   -1    0    0    0    0 -0.00000000000E+00 -0.00000000000E+00  0.11368683772E-12  0.17120000000E+03  0.17120000000E+03 0.  0.
         13    1    1    2    0    0  0.13005407745E+02  0.44202565846E+02  0.26923073596E+03  0.27314503072E+03  0.10566000000E+00 0.  1.
        994    1    1    2    0    0 -0.18510033009E+02  0.19175879662E+02  0.78485321001E+01  0.17343983147E+03  0.17120000000E+03 0.  0.
        998    1    1    2    0    0  0.55046252635E+01 -0.63378445508E+02  0.12229207282E+04  0.12246151378E+04  0.10000000000E+02 0.  1.
</event>
<event>
 5    1  0.9123258E-009  0.3760322E+03  0.7957747E-01  0.3468619E+00
         13   -1    0    0    0    0  0.00000000000E+00  0.00000000000E+00  0.14999999963E+04  0.15000000000E+04  0.10566000000E+00 0.  1.
        994   -1    0    0    0    0 -0.00000000000E+00 -0.00000000000E+00  0.11368683772E-12  0.17120000000E+03  0.17120000000E+03 0.  0.
         13    1    1    2    0    0 -0.37228436704E+02 -0.21352082755E+02  0.16771728971E+03  0.17312125337E+03  0.10566000000E+00 0.  1.
        994    1    1    2    0    0  0.88309294253E+01 -0.90744349574E+01  0.66929025695E+01  0.17179803733E+03  0.17120000000E+03 0.  0.
        998    1    1    2    0    0  0.28397507278E+02  0.30426517712E+02  0.13255898040E+04  0.13262807093E+04  0.10000000000E+02 0.  1.
</event>
<event>
 5    1  0.9123258E-009  0.3833326E+03  0.7957747E-01  0.3436775E+00
         13   -1    0    0    0    0  0.00000000000E+00  0.00000000000E+00  0.14999999963E+04  0.15000000000E+04  0.10566000000E+00 0.  1.
        994   -1    0    0    0    0 -0.00000000000E+00 -0.00000000000E+00  0.11368683772E-12  0.17120000000E+03  0.17120000000E+03 0.  0.
         13    1    1    2    0    0 -0.29351173288E+01  0.16593630755E+02  0.55319721884E+02  0.57829458658E+02  0.10566000000E+00 0.  1.
        994    1    1    2    0    0  0.18971914829E+01 -0.17277998952E+02  0.34598629292E+01  0.17211490126E+03  0.17120000000E+03 0.  0.
        998    1    1    2    0    0  0.10379258459E+01  0.68436819653E+00  0.14412204115E+04  0.14412556401E+04  0.10000000000E+02 0.  1.
</event>
<event>
 5    1  0.9123258E-009  0.3695319E+03  0.7957747E-01  0.3498045E+00
         13   -1    0    0    0    0  0.00000000000E+00  0.00000000000E+00  0.14999999963E+04  0.15000000000E+04  0.10566000000E+00 0.  1.
        994   -1    0    0    0    0 -0.00000000000E+00 -0.00000000000E+00  0.11368683772E-12  0.17120000000E+03  0.17120000000E+03 0.  0.
         13    1    1    2    0    0  0.12056511565E+02 -0.14658510392E+02  0.14747965691E+02  0.24036327800E+02  0.10566000000E+00 0.  1.
        994    1    1    2    0    0 -0.77986859624E+01  0.12802814133E+02  0.10292600856E+02  0.17216303083E+03  0.17120000000E+03 0.  0.
        998    1    1    2    0    0 -0.42578256025E+01  0.18556962584E+01  0.14749594297E+04  0.14750006414E+04  0.10000000000E+02 0.  1.
</event>
<event>
 5    1  0.9123258E-009  0.3825891E+03  0.7957747E-01  0.3439962E+00
         13   -1    0    0    0    0  0.00000000000E+00  0.00000000000E+00  0.14999999963E+04  0.15000000000E+04  0.10566000000E+00 0. -1.
        994   -1    0    0    0    0 -0.00000000000E+00 -0.00000000000E+00  0.11368683772E-12  0.17120000000E+03  0.17120000000E+03 0.  0.
         13    1    1    2    0    0  0.23439210950E+01  0.15938527771E+02  0.46236069558E+02  0.48962392974E+02  0.10566000000E+00 0. -1.
        994    1    1    2    0    0 -0.36114187441E+01 -0.32818725091E+01  0.29108055480E+01  0.17129426675E+03  0.17120000000E+03 0.  0.
        998    1    1    2    0    0  0.12674976491E+01 -0.12656655261E+02  0.14508531212E+04  0.14509433403E+04  0.10000000000E+02 0. -1.
</event>
<event>
 5    1  0.9123258E-009  0.3801757E+03  0.7957747E-01  0.3450394E+00
         13   -1    0    0    0    0  0.00000000000E+00  0.00000000000E+00  0.14999999963E+04  0.15000000000E+04  0.10566000000E+00 0. -1.
        994   -1    0    0    0    0 -0.00000000000E+00 -0.00000000000E+00  0.11368683772E-12  0.17120000000E+03  0.17120000000E+03 0.  0.
         13    1    1    2    0    0 -0.26034209910E+02  0.92225647720E+01  0.98521325271E+02  0.10231958993E+03  0.10566000000E+00 0. -1.
        994    1    1    2    0    0  0.75850250490E+01  0.45165803921E+01  0.43048869245E+01  0.17148149800E+03  0.17120000000E+03 0.  0.
        998    1    1    2    0    0  0.18449184861E+02 -0.13739145164E+02  0.13971737841E+04  0.13973989121E+04  0.10000000000E+02 0. -1.
</event>
<event>
 5    1  0.9123258E-009  0.3815384E+03  0.7957747E-01  0.3444487E+00
         13   -1    0    0    0    0  0.00000000000E+00  0.00000000000E+00  0.14999999963E+04  0.15000000000E+04  0.10566000000E+00 0. -1.
        994   -1    0    0    0    0 -0.00000000000E+00 -0.00000000000E+00  0.11368683772E-12  0.17120000000E+03  0.17120000000E+03 0.  0.
         13    1    1    2    0    0 -0.70801862139E+01 -0.51035771364E+02  0.67801242951E+02  0.85157493536E+02  0.10566000000E+00 0. -1.
        994    1    1    2    0    0  0.12684747026E+02  0.52270034877E+02  0.27793749305E+02  0.18159017554E+03  0.17120000000E+03 0.  0.
        998    1    1    2    0    0 -0.56045608119E+01 -0.12342635134E+01  0.14044050040E+04  0.14044523309E+04  0.10000000000E+02 0. -1.
</event>
<event>
 5    1  0.9123258E-009  0.3831896E+03  0.7957747E-01  0.3437387E+00
         13   -1    0    0    0    0  0.00000000000E+00  0.00000000000E+00  0.14999999963E+04  0.15000000000E+04  0.10566000000E+00 0.  1.
        994   -1    0    0    0    0 -0.00000000000E+00 -0.00000000000E+00  0.11368683772E-12  0.17120000000E+03  0.17120000000E+03 0.  0.
         13    1    1    2    0    0 -0.18227492817E+02 -0.55647463435E+00  0.64491648775E+02  0.67020407968E+02  0.10566000000E+00 0.  1.
        994    1    1    2    0    0  0.13189273633E+02  0.19515029114E+01  0.31199314669E+01  0.17174673003E+03  0.17120000000E+03 0.  0.
        998    1    1    2    0    0  0.50382191842E+01 -0.13950282770E+01  0.14323884160E+04  0.14324328620E+04  0.10000000000E+02 0.  1.
</event>
<event>
 5    1  0.9123258E-009  0.3748819E+03  0.7957747E-01  0.3473751E+00
         13   -1    0    0    0    0  0.00000000000E+00  0.00000000000E+00  0.14999999963E+04  0.15000000000E+04  0.10566000000E+00 0.  1.
        994   -1    0    0    0    0 -0.00000000000E+00 -0.00000000000E+00  0.11368683772E-12  0.17120000000E+03  0.17120000000E+03 0.  0.
         13    1    1    2    0    0  0.36587046760E+02 -0.44401821214E+02  0.21129260623E+03  0.21898563955E+03  0.10566000000E+00 0.  1.
        994    1    1    2    0    0 -0.35979114280E+02  0.43751082575E+02  0.17729933602E+02  0.18119725284E+03  0.17120000000E+03 0.  0.
        998    1    1    2    0    0 -0.60793248084E+00  0.65073863873E+00  0.12709774564E+04  0.12710171076E+04  0.10000000000E+02 0.  0.
</event>
<event>
 5    1  0.9123258E-009  0.3809073E+03  0.7957747E-01  0.3447217E+00
         13   -1    0    0    0    0  0.00000000000E+00  0.00000000000E+00  0.14999999963E+04  0.15000000000E+04  0.10566000000E+00 0. -1.
        994   -1    0    0    0    0 -0.00000000000E+00 -0.00000000000E+00  0.11368683772E-12  0.17120000000E+03  0.17120000000E+03 0.  0.
         13    1    1    2    0    0 -0.22321876500E+02 -0.15632365536E+02  0.93351469765E+02  0.97247853930E+02  0.10566000000E+00 0. -1.
        994    1    1    2    0    0  0.22699159739E+02  0.19006773506E+02  0.66026662673E+01  0.17386645592E+03  0.17120000000E+03 0.  0.
        998    1    1    2    0    0 -0.37728323887E+00 -0.33744079699E+01  0.14000458602E+04  0.14000856902E+04  0.10000000000E+02 0. -1.
</event>
<event>
 5    1  0.9123258E-009  0.3777141E+03  0.7957747E-01  0.3461173E+00
         13   -1    0    0    0    0  0.00000000000E+00  0.00000000000E+00  0.14999999963E+04  0.15000000000E+04  0.10566000000E+00 0.  1.
        994   -1    0    0    0    0 -0.00000000000E+00 -0.00000000000E+00  0.11368683772E-12  0.17120000000E+03  0.17120000000E+03 0.  0.
         13    1    1    2    0    0 -0.14560688491E+02  0.12736561783E+02  0.32249162620E+02  0.37606559389E+02  0.10566000000E+00 0.  1.
        994    1    1    2    0    0  0.18358464269E+02 -0.14360395832E+02  0.71235742114E+01  0.17292610991E+03  0.17120000000E+03 0.  0.
        998    1    1    2    0    0 -0.37977757778E+01  0.16238340485E+01  0.14606272594E+04  0.14606673307E+04  0.10000000000E+02 0.  1.
</event>
<event>
 5    1  0.9123258E-009  0.3694230E+03  0.7957747E-01  0.3498547E+00
         13   -1    0    0    0    0  0.00000000000E+00  0.00000000000E+00  0.14999999963E+04  0.15000000000E+04  0.10566000000E+00 0. -1.
        994   -1    0    0    0    0 -0.00000000000E+00 -0.00000000000E+00  0.11368683772E-12  0.17120000000E+03  0.17120000000E+03 0.  0.
         13    1    1    2    0    0  0.41042106082E+02  0.35435318983E+02  0.12887842206E+03  0.13982051044E+03  0.10566000000E+00 0. -1.
        994    1    1    2    0    0 -0.22507398948E+02 -0.82185529920E+02  0.35166327223E+02  0.19444062051E+03  0.17120000000E+03 0.  0.
        998    1    1    2    0    0 -0.18534707133E+02  0.46750210937E+02  0.13359552470E+04  0.13369388690E+04  0.10000000000E+02 0. -1.
</event>
<event>
 5    1  0.9123258E-009  0.3785971E+03  0.7957747E-01  0.3457290E+00
         13   -1    0    0    0    0  0.00000000000E+00  0.00000000000E+00  0.14999999963E+04  0.15000000000E+04  0.10566000000E+00 0. -1.
        994   -1    0    0    0    0 -0.00000000000E+00 -0.00000000000E+00  0.11368683772E-12  0.17120000000E+03  0.17120000000E+03 0.  0.
         13    1    1    2    0    0 -0.11981262607E+02  0.15946617903E+01  0.12791174967E+02  0.17598832943E+02  0.10566000000E+00 0. -1.
        994    1    1    2    0    0  0.14354877564E+02  0.12127756826E+01  0.55403129342E+01  0.17189435244E+03  0.17120000000E+03 0.  0.
        998    1    1    2    0    0 -0.23736149565E+01 -0.28074374729E+01  0.14816685084E+04  0.14817068146E+04  0.10000000000E+02 0. -1.
</event>
<event>
 5    1  0.9123258E-009  0.3850361E+03  0.7957747E-01  0.3429519E+00
         13   -1    0    0    0    0  0.00000000000E+00  0.00000000000E+00  0.14999999963E+04  0.15000000000E+04  0.10566000000E+00 0. -1.
        994   -1    0    0    0    0 -0.00000000000E+00 -0.00000000000E+00  0.11368683772E-12  0.17120000000E+03  0.17120000000E+03 0.  0.
         13    1    1    2    0    0  0.13136225798E+02 -0.12088361451E+02  0.95540351717E+02  0.97193924095E+02  0.10566000000E+00 0. -1.
        994    1    1    2    0    0 -0.66850083745E+00  0.23522770792E+02  0.34352714163E+01  0.17284388543E+03  0.17120000000E+03 0.  0.
        998    1    1    2    0    0 -0.12467724960E+02 -0.11434409342E+02  0.14010243731E+04  0.14011621905E+04  0.10000000000E+02 0. -1.
</event>
<event>
 5    1  0.9123258E-009  0.3855491E+03  0.7957747E-01  0.3427347E+00
         13   -1    0    0    0    0  0.00000000000E+00  0.00000000000E+00  0.14999999963E+04  0.15000000000E+04  0.10566000000E+00 0. -1.
        994   -1    0    0    0    0 -0.00000000000E+00 -0.00000000000E+00  0.11368683772E-12  0.17120000000E+03  0.17120000000E+03 0.  0.
         13    1    1    2    0    0 -0.49746524827E+01  0.16341670098E+02  0.10302531977E+03  0.10443191575E+03  0.10566000000E+00 0. -1.
        994    1    1    2    0    0  0.17903701930E+02 -0.12036731461E+02  0.28871558695E+01  0.17257810150E+03  0.17120000000E+03 0.  0.
        998    1    1    2    0    0 -0.12929049447E+02 -0.43049386372E+01  0.13940875206E+04  0.13941899828E+04  0.10000000000E+02 0. -1.
</event>
<event>
 5    1  0.9123258E-009  0.4279131E+03  0.7957747E-01  0.3265846E+00
         13   -1    0    0    0    0  0.00000000000E+00  0.00000000000E+00  0.14999999963E+04  0.15000000000E+04  0.10566000000E+00 0. -1.
        994   -1    0    0    0    0 -0.00000000000E+00 -0.00000000000E+00  0.11368683772E-12  0.17120000000E+03  0.17120000000E+03 0.  0.
         13    1    1    2    0    0  0.14042520678E+03 -0.17515470670E+02  0.23346056722E+03  0.27300160810E+03  0.10566000000E+00 0. -1.
        994    1    1    2    0    0 -0.71758738937E+02 -0.28281638158E+02  0.72523746841E+02  0.20129158335E+03  0.17120000000E+03 0.  0.
        998    1    1    2    0    0 -0.68666467846E+02  0.45797108828E+02  0.11940156822E+04  0.11969068086E+04  0.10000000000E+02 0. -1.
</event>
<event>
 5    1  0.9123258E-009  0.3792272E+03  0.7957747E-01  0.3454531E+00
         13   -1    0    0    0    0  0.00000000000E+00  0.00000000000E+00  0.14999999963E+04  0.15000000000E+04  0.10566000000E+00 0. -1.
        994   -1    0    0    0    0 -0.00000000000E+00 -0.00000000000E+00  0.11368683772E-12  0.17120000000E+03  0.17120000000E+03 0.  0.
         13    1    1    2    0    0  0.17681991911E+02 -0.26653313072E+02  0.11361560370E+03  0.11803206557E+03  0.10566000000E+00 0. -1.
        994    1    1    2    0    0  0.18326030112E+01  0.20215471342E+02  0.59058759473E+01  0.17250026981E+03  0.17120000000E+03 0.  0.
        998    1    1    2    0    0 -0.19514594923E+02  0.64378417304E+01  0.13804785166E+04  0.13806676646E+04  0.10000000000E+02 0. -1.
</event>
<event>
 5    1  0.9123258E-009  0.3833104E+03  0.7957747E-01  0.3436870E+00
         13   -1    0    0    0    0  0.00000000000E+00  0.00000000000E+00  0.14999999963E+04  0.15000000000E+04  0.10566000000E+00 0. -1.
        994   -1    0    0    0    0 -0.00000000000E+00 -0.00000000000E+00  0.11368683772E-12  0.17120000000E+03  0.17120000000E+03 0.  0.
         13    1    1    2    0    0  0.17397477981E+02  0.33507054166E+01  0.57942328931E+02  0.60590627269E+02  0.10566000000E+00 0. -1.
        994    1    1    2    0    0 -0.29548638357E+02  0.48220894479E+01  0.54410815159E+01  0.17388335154E+03  0.17120000000E+03 0.  0.
        998    1    1    2    0    0  0.12151160377E+02 -0.81727948644E+01  0.14366165858E+04  0.14367260212E+04  0.10000000000E+02 0. -1.
</event>
<event>
 5    1  0.9123258E-009  0.4069298E+03  0.7957747E-01  0.3341677E+00
         13   -1    0    0    0    0  0.00000000000E+00  0.00000000000E+00  0.14999999963E+04  0.15000000000E+04  0.10566000000E+00 0. -1.
        994   -1    0    0    0    0 -0.00000000000E+00 -0.00000000000E+00  0.11368683772E-12  0.17120000000E+03  0.17120000000E+03 0.  0.
         13    1    1    2    0    0 -0.26371852939E+02  0.40096898471E+02  0.23620264658E+02  0.53489849139E+02  0.10566000000E+00 0. -1.
        994    1    1    2    0    0  0.45665422980E+01 -0.50825800491E+02  0.42551938328E+02  0.18364156055E+03  0.17120000000E+03 0.  0.
        998    1    1    2    0    0  0.21805310641E+02  0.10728902020E+02  0.14338277933E+04  0.14340685903E+04  0.10000000000E+02 0. -1.
</event>
<event>
 5    1  0.9123258E-009  0.3690438E+03  0.7957747E-01  0.3500297E+00
         13   -1    0    0    0    0  0.00000000000E+00  0.00000000000E+00  0.14999999963E+04  0.15000000000E+04  0.10566000000E+00 0.  1.
        994   -1    0    0    0    0 -0.00000000000E+00 -0.00000000000E+00  0.11368683772E-12  0.17120000000E+03  0.17120000000E+03 0.  0.
         13    1    1    2    0    0 -0.50835642801E+02  0.42104152512E+02  0.19587379922E+03  0.20669682780E+03  0.10566000000E+00 0.  1.
        994    1    1    2    0    0  0.46087947959E+02 -0.41515017139E+02  0.23238606369E+02  0.18356761267E+03  0.17120000000E+03 0.  0.
        998    1    1    2    0    0  0.47476948415E+01 -0.58913537291E+00  0.12808875907E+04  0.12809355595E+04  0.10000000000E+02 0.  1.
</event>
<event>
 5    1  0.9123258E-009  0.3845497E+03  0.7957747E-01  0.3431584E+00
         13   -1    0    0    0    0  0.00000000000E+00  0.00000000000E+00  0.14999999963E+04  0.15000000000E+04  0.10566000000E+00 0.  1.
        994   -1    0    0    0    0 -0.00000000000E+00 -0.00000000000E+00  0.11368683772E-12  0.17120000000E+03  0.17120000000E+03 0.  0.
         13    1    1    2    0    0  0.12252372317E+02 -0.12296778665E+02  0.10221222474E+03  0.10367584792E+03  0.10566000000E+00 0.  1.
        994    1    1    2    0    0  0.16042929525E+02 -0.99853828974E+01  0.30307658968E+01  0.17226638964E+03  0.17120000000E+03 0.  0.
        998    1    1    2    0    0 -0.28295301842E+02  0.22282161563E+02  0.13947570056E+04  0.13952577624E+04  0.10000000000E+02 0.  1.
</event>
<event>
 5    1  0.9123258E-009  0.3855647E+03  0.7957747E-01  0.3427281E+00
         13   -1    0    0    0    0  0.00000000000E+00  0.00000000000E+00  0.14999999963E+04  0.15000000000E+04  0.10566000000E+00 0. -1.
        994   -1    0    0    0    0 -0.00000000000E+00 -0.00000000000E+00  0.11368683772E-12  0.17120000000E+03  0.17120000000E+03 0.  0.
         13    1    1    2    0    0  0.10966034896E+02 -0.81707815678E+01  0.74520012279E+02  0.75764496876E+02  0.10566000000E+00 0. -1.
        994    1    1    2    0    0  0.31665039511E+01  0.44205956183E+01  0.14471013763E+01  0.17129244734E+03  0.17120000000E+03 0.  0.
        998    1    1    2    0    0 -0.14132538847E+02  0.37501859494E+01  0.14240328826E+04  0.14241430558E+04  0.10000000000E+02 0. -1.
</event>
<event>
 5    1  0.9123258E-009  0.3852511E+03  0.7957747E-01  0.3428608E+00
         13   -1    0    0    0    0  0.00000000000E+00  0.00000000000E+00  0.14999999963E+04  0.15000000000E+04  0.10566000000E+00 0.  1.
        994   -1    0    0    0    0 -0.00000000000E+00 -0.00000000000E+00  0.11368683772E-12  0.17120000000E+03  0.17120000000E+03 0.  0.
         13    1    1    2    0    0  0.65150760192E+01 -0.79884210392E+01  0.35122770757E+02  0.36604388752E+02  0.10566000000E+00 0.  1.
        994    1    1    2    0    0 -0.26689147500E+01  0.76300265657E+01  0.17202426668E+01  0.17139935719E+03  0.17120000000E+03 0.  0.
        998    1    1    2    0    0 -0.38461612692E+01  0.35839447356E+00  0.14631569829E+04  0.14631962541E+04  0.10000000000E+02 0.  1.
</event>
<event>
 5    1  0.9123258E-009  0.3858169E+03  0.7957747E-01  0.3426215E+00
         13   -1    0    0    0    0  0.00000000000E+00  0.00000000000E+00  0.14999999963E+04  0.15000000000E+04  0.10566000000E+00 0. -1.
        994   -1    0    0    0    0 -0.00000000000E+00 -0.00000000000E+00  0.11368683772E-12  0.17120000000E+03  0.17120000000E+03 0.  0.
         13    1    1    2    0    0 -0.81196884231E+01 -0.70819120797E+01  0.46620553534E+02  0.47849451352E+02  0.10566000000E+00 0. -1.
        994    1    1    2    0    0  0.88369567583E+01  0.70187852545E+01  0.16429249773E+01  0.17157941122E+03  0.17120000000E+03 0.  0.
        998    1    1    2    0    0 -0.71726833524E+00  0.63126825250E-01  0.14517365178E+04  0.14517711374E+04  0.10000000000E+02 0. -1.
</event>
<event>
 5    1  0.9123258E-009  0.3853788E+03  0.7957747E-01  0.3428067E+00
         13   -1    0    0    0    0  0.00000000000E+00  0.00000000000E+00  0.14999999963E+04  0.15000000000E+04  0.10566000000E+00 0. -1.
        994   -1    0    0    0    0 -0.00000000000E+00 -0.00000000000E+00  0.11368683772E-12  0.17120000000E+03  0.17120000000E+03 0.  0.
         13    1    1    2    0    0 -0.32902899239E+01  0.11604356458E+02  0.47256647246E+02  0.48771805068E+02  0.10566000000E+00 0. -1.
        994    1    1    2    0    0  0.21259611745E+02 -0.15103664898E+02  0.36792306833E+01  0.17321393859E+03  0.17120000000E+03 0.  0.
        998    1    1    2    0    0 -0.17969321821E+02  0.34993084409E+01  0.14490641183E+04  0.14492142563E+04  0.10000000000E+02 0. -1.
</event>
<event>
 5    1  0.9123258E-009  0.3699669E+03  0.7957747E-01  0.3496043E+00
         13   -1    0    0    0    0  0.00000000000E+00  0.00000000000E+00  0.14999999963E+04  0.15000000000E+04  0.10566000000E+00 0.  1.
        994   -1    0    0    0    0 -0.00000000000E+00 -0.00000000000E+00  0.11368683772E-12  0.17120000000E+03  0.17120000000E+03 0.  0.
         13    1    1    2    0    0  0.64823227051E+02 -0.10498016502E+02  0.26228676897E+03  0.27038235789E+03  0.10566000000E+00 0.  1.
        994    1    1    2    0    0  0.13729593361E+02  0.65950244184E+01  0.11732691432E+02  0.17227620883E+03  0.17120000000E+03 0.  0.
        998    1    1    2    0    0 -0.78552820412E+02  0.39029920841E+01  0.12259805359E+04  0.12285414333E+04  0.10000000000E+02 0.  1.
</event>
<event>
 5    1  0.9123258E-009  0.3835862E+03  0.7957747E-01  0.3435690E+00
         13   -1    0    0    0    0  0.00000000000E+00  0.00000000000E+00  0.14999999963E+04  0.15000000000E+04  0.10566000000E+00 0. -1.
        994   -1    0    0    0    0 -0.00000000000E+00 -0.00000000000E+00  0.11368683772E-12  0.17120000000E+03  0.17120000000E+03 0.  0.
         13    1    1    2    0    0  0.12849573283E+02 -0.21879620703E+00  0.34456896471E+02  0.36775647973E+02  0.10566000000E+00 0. -1.
        994    1    1    2    0    0 -0.10525790424E+02 -0.31095187553E+01  0.27317629241E+01  0.17157320274E+03  0.17120000000E+03 0.  0.
        998    1    1    2    0    0 -0.23237828591E+01  0.33283149623E+01  0.14628113369E+04  0.14628511493E+04  0.10000000000E+02 0. -1.
</event>
<event>
 5    1  0.9123258E-009  0.3840003E+03  0.7957747E-01  0.3433923E+00
         13   -1    0    0    0    0  0.00000000000E+00  0.00000000000E+00  0.14999999963E+04  0.15000000000E+04  0.10566000000E+00 0.  1.
        994   -1    0    0    0    0 -0.00000000000E+00 -0.00000000000E+00  0.11368683772E-12  0.17120000000E+03  0.17120000000E+03 0.  0.
         13    1    1    2    0    0 -0.26641215054E+02 -0.43437819434E+01  0.15869567674E+03  0.16097500353E+03  0.10566000000E+00 0.  1.
        994    1    1    2    0    0  0.23537548695E+02  0.87774739330E+01  0.42121652879E+01  0.17308449550E+03  0.17120000000E+03 0.  0.
        998    1    1    2    0    0  0.31036663587E+01 -0.44336919896E+01  0.13370921542E+04  0.13371405010E+04  0.10000000000E+02 0.  1.
</event>
<event>
 5    1  0.9123258E-009  0.3716710E+03  0.7957747E-01  0.3488246E+00
         13   -1    0    0    0    0  0.00000000000E+00  0.00000000000E+00  0.14999999963E+04  0.15000000000E+04  0.10566000000E+00 0.  1.
        994   -1    0    0    0    0 -0.00000000000E+00 -0.00000000000E+00  0.11368683772E-12  0.17120000000E+03  0.17120000000E+03 0.  0.
         13    1    1    2    0    0  0.33107453303E+02 -0.94950850707E+02  0.45058548833E+03  0.46166986145E+03  0.10566000000E+00 0.  1.
        994    1    1    2    0    0 -0.43797775797E+02  0.81651465080E+02  0.38517307696E+02  0.19843948676E+03  0.17120000000E+03 0.  0.
        998    1    1    2    0    0  0.10690322494E+02  0.13299385627E+02  0.10108972002E+04  0.10110906518E+04  0.10000000000E+02 0.  1.
</event>
<event>
 5    1  0.9123258E-009  0.3713223E+03  0.7957747E-01  0.3489836E+00
         13   -1    0    0    0    0  0.00000000000E+00  0.00000000000E+00  0.14999999963E+04  0.15000000000E+04  0.10566000000E+00 0.  1.
        994   -1    0    0    0    0 -0.00000000000E+00 -0.00000000000E+00  0.11368683772E-12  0.17120000000E+03  0.17120000000E+03 0.  0.
         13    1    1    2    0    0 -0.47608329094E+02  0.12696298879E+02  0.95485356407E+02  0.10744865498E+03  0.10566000000E+00 0.  1.
        994    1    1    2    0    0  0.45754069157E+02 -0.62472829171E+01  0.19167215946E+02  0.17835157851E+03  0.17120000000E+03 0.  0.
        998    1    1    2    0    0  0.18542599366E+01 -0.64490159619E+01  0.13853474239E+04  0.13853997665E+04  0.10000000000E+02 0.  1.
</event>
<event>
 5    1  0.9123258E-009  0.3817192E+03  0.7957747E-01  0.3443707E+00
         13   -1    0    0    0    0  0.00000000000E+00  0.00000000000E+00  0.14999999963E+04  0.15000000000E+04  0.10566000000E+00 0. -1.
        994   -1    0    0    0    0 -0.00000000000E+00 -0.00000000000E+00  0.11368683772E-12  0.17120000000E+03  0.17120000000E+03 0.  0.
         13    1    1    2    0    0 -0.50841843326E+01  0.10415389144E+02  0.18974441197E+02  0.22234429252E+02  0.10566000000E+00 0. -1.
        994    1    1    2    0    0  0.82458423865E+01 -0.10480015611E+02  0.38591386602E+01  0.17176192126E+03  0.17120000000E+03 0.  0.
        998    1    1    2    0    0 -0.31616580539E+01  0.64626466833E-01  0.14771664164E+04  0.14772036495E+04  0.10000000000E+02 0. -1.
</event>
<event>
 5    1  0.9123258E-009  0.3822775E+03  0.7957747E-01  0.3441301E+00
         13   -1    0    0    0    0  0.00000000000E+00  0.00000000000E+00  0.14999999963E+04  0.15000000000E+04  0.10566000000E+00 0. -1.
        994   -1    0    0    0    0 -0.00000000000E+00 -0.00000000000E+00  0.11368683772E-12  0.17120000000E+03  0.17120000000E+03 0.  0.
         13    1    1    2    0    0 -0.25749913088E+02  0.68474217471E+01  0.11470915453E+03  0.11776309484E+03  0.10566000000E+00 0. -1.
        994    1    1    2    0    0  0.16788081297E+02 -0.17121175622E+02  0.48979415023E+01  0.17294046420E+03  0.17120000000E+03 0.  0.
        998    1    1    2    0    0  0.89618317915E+01  0.10273753875E+02  0.13803929002E+04  0.13804964410E+04  0.10000000000E+02 0. -1.
</event>
<event>
 5    1  0.9123258E-009  0.3862461E+03  0.7957747E-01  0.3424404E+00
         13   -1    0    0    0    0  0.00000000000E+00  0.00000000000E+00  0.14999999963E+04  0.15000000000E+04  0.10566000000E+00 0. -1.
        994   -1    0    0    0    0 -0.00000000000E+00 -0.00000000000E+00  0.11368683772E-12  0.17120000000E+03  0.17120000000E+03 0.  0.
         13    1    1    2    0    0  0.10018923176E+02 -0.24744379510E+01  0.53938681840E+02  0.54917157860E+02  0.10566000000E+00 0. -1.
        994    1    1    2    0    0 -0.36102458954E+01  0.94946174021E+01  0.13507531569E+01  0.17150640271E+03  0.17120000000E+03 0.  0.
        998    1    1    2    0    0 -0.64086772807E+01 -0.70201794511E+01  0.14447105613E+04  0.14447764394E+04  0.10000000000E+02 0. -1.
</event>
<event>
 5    1  0.9123258E-009  0.3781658E+03  0.7957747E-01  0.3459184E+00
         13   -1    0    0    0    0  0.00000000000E+00  0.00000000000E+00  0.14999999963E+04  0.15000000000E+04  0.10566000000E+00 0. -1.
        994   -1    0    0    0    0 -0.00000000000E+00 -0.00000000000E+00  0.11368683772E-12  0.17120000000E+03  0.17120000000E+03 0.  0.
         13    1    1    2    0    0 -0.30092791961E+02 -0.12214602907E+02  0.96372074247E+02  0.10169739678E+03  0.10566000000E+00 0. -1.
        994    1    1    2    0    0  0.32377874716E+02  0.77791939005E+01  0.88003518499E+01  0.17463026319E+03  0.17120000000E+03 0.  0.
        998    1    1    2    0    0 -0.22850827546E+01  0.44354090065E+01  0.13948275702E+04  0.13948723400E+04  0.10000000000E+02 0. -1.
</event>
<event>
 5    1  0.1975035E-008  0.3856297E+03  0.7957747E-01  0.3427006E+00
         13   -1    0    0    0    0  0.00000000000E+00  0.00000000000E+00  0.14999999963E+04  0.15000000000E+04  0.10566000000E+00 0.  1.
        994   -1    0    0    0    0 -0.00000000000E+00 -0.00000000000E+00  0.11368683772E-12  0.17120000000E+03  0.17120000000E+03 0.  0.
         13    1    1    2    0    0 -0.97400530705E+01  0.91505066232E+01  0.63525186742E+02  0.64915798693E+02  0.10566000000E+00 0.  1.
        994    1    1    2    0    0  0.13884026912E+02 -0.13357071854E+02  0.25369487195E+01  0.17229931422E+03  0.17120000000E+03 0.  0.
        998    1    1    2    0    0 -0.41439738419E+01  0.42065652307E+01  0.14339378608E+04  0.14339848871E+04  0.10000000000E+02 0.  1.
</event>
<event>
 5    1  0.9123258E-009  0.3687441E+03  0.7957747E-01  0.3501683E+00
         13   -1    0    0    0    0  0.00000000000E+00  0.00000000000E+00  0.14999999963E+04  0.15000000000E+04  0.10566000000E+00 0. -1.
        994   -1    0    0    0    0 -0.00000000000E+00 -0.00000000000E+00  0.11368683772E-12  0.17120000000E+03  0.17120000000E+03 0.  0.
         13    1    1    2    0    0  0.18611394337E+02 -0.10504871385E+01  0.12171992874E+02  0.22263335261E+02  0.10566000000E+00 0. -1.
        994    1    1    2    0    0 -0.20996225530E+02  0.26631432200E+01  0.11836917744E+02  0.17290889636E+03  0.17120000000E+03 0.  0.
        998    1    1    2    0    0  0.23848311936E+01 -0.16126560815E+01  0.14759910857E+04  0.14760277684E+04  0.10000000000E+02 0. -1.
</event>
<event>
 5    1  0.9123258E-009  0.3877784E+03  0.7957747E-01  0.3417974E+00
         13   -1    0    0    0    0  0.00000000000E+00  0.00000000000E+00  0.14999999963E+04  0.15000000000E+04  0.10566000000E+00 0.  1.
        994   -1    0    0    0    0 -0.00000000000E+00 -0.00000000000E+00  0.11368683772E-12  0.17120000000E+03  0.17120000000E+03 0.  0.
         13    1    1    2    0    0  0.95863566976E+02  0.22335962934E+02  0.20621252945E+03  0.22850019077E+03  0.10566000000E+00 0.  1.
        994    1    1    2    0    0 -0.12132584951E+03  0.13194993020E+03  0.15318787622E+03  0.29138756195E+03  0.17120000000E+03 0.  0.
        998    1    1    2    0    0  0.25462282538E+02 -0.15428589313E+03  0.11405995906E+04  0.11513122473E+04  0.10000000000E+02 0.  1.
</event>
<event>
 5    1  0.9123258E-009  0.3745912E+03  0.7957747E-01  0.3475053E+00
         13   -1    0    0    0    0  0.00000000000E+00  0.00000000000E+00  0.14999999963E+04  0.15000000000E+04  0.10566000000E+00 0.  1.
        994   -1    0    0    0    0 -0.00000000000E+00 -0.00000000000E+00  0.11368683772E-12  0.17120000000E+03  0.17120000000E+03 0.  0.
         13    1    1    2    0    0  0.10952378796E+02  0.16022110214E+02  0.24975496483E+02  0.31629878369E+02  0.10566000000E+00 0.  1.
        994    1    1    2    0    0  0.67262186783E+01 -0.10570328440E+02  0.74233177461E+01  0.17181827466E+03  0.17120000000E+03 0.  0.
        998    1    1    2    0    0 -0.17678597474E+02 -0.54517817734E+01  0.14676011820E+04  0.14677518470E+04  0.10000000000E+02 0.  1.
</event>
<event>
 5    1  0.9123258E-009  0.3806067E+03  0.7957747E-01  0.3448521E+00
         13   -1    0    0    0    0  0.00000000000E+00  0.00000000000E+00  0.14999999963E+04  0.15000000000E+04  0.10566000000E+00 0.  1.
        994   -1    0    0    0    0 -0.00000000000E+00 -0.00000000000E+00  0.11368683772E-12  0.17120000000E+03  0.17120000000E+03 0.  0.
         13    1    1    2    0    0  0.81708006443E+02 -0.59815627378E+02  0.24941706010E+03  0.26918950319E+03  0.10566000000E+00 0.  1.
        994    1    1    2    0    0 -0.91155493280E+02  0.47937941774E+02  0.56277506488E+02  0.20756677950E+03  0.17120000000E+03 0.  0.
        998    1    1    2    0    0  0.94474868372E+01  0.11877685604E+02  0.11943054297E+04  0.11944437173E+04  0.10000000000E+02 0.  1.
</event>
<event>
 5    1  0.9123258E-009  0.3783989E+03  0.7957747E-01  0.3458160E+00
         13   -1    0    0    0    0  0.00000000000E+00  0.00000000000E+00  0.14999999963E+04  0.15000000000E+04  0.10566000000E+00 0.  1.
        994   -1    0    0    0    0 -0.00000000000E+00 -0.00000000000E+00  0.11368683772E-12  0.17120000000E+03  0.17120000000E+03 0.  0.
         13    1    1    2    0    0  0.23780416612E+02 -0.22792613329E+02  0.97029529811E+02  0.10246829879E+03  0.10566000000E+00 0.  1.
        994    1    1    2    0    0 -0.27129470635E+02  0.33843894757E+02  0.11292597144E+02  0.17696999785E+03  0.17120000000E+03 0.  0.
        998    1    1    2    0    0  0.33490540228E+01 -0.11051281428E+02  0.13916778693E+04  0.13917617034E+04  0.10000000000E+02 0.  1.
</event>
<event>
 5    1  0.9123258E-009  0.3764522E+03  0.7957747E-01  0.3466753E+00
         13   -1    0    0    0    0  0.00000000000E+00  0.00000000000E+00  0.14999999963E+04  0.15000000000E+04  0.10566000000E+00 0.  1.
        994   -1    0    0    0    0 -0.00000000000E+00 -0.00000000000E+00  0.11368683772E-12  0.17120000000E+03  0.17120000000E+03 0.  0.
         13    1    1    2    0    0 -0.43281170461E+02  0.19152878501E+01  0.17717435858E+03  0.18239433255E+03  0.10566000000E+00 0.  1.
        994    1    1    2    0    0  0.50811446862E+01 -0.55976020120E+02  0.16696836212E+02  0.18096230878E+03  0.17120000000E+03 0.  0.
        998    1    1    2    0    0  0.38200025775E+02  0.54060732270E+02  0.13061288015E+04  0.13078433587E+04  0.10000000000E+02 0.  1.
</event>
<event>
 5    1  0.9123258E-009  0.3828579E+03  0.7957747E-01  0.3438808E+00
         13   -1    0    0    0    0  0.00000000000E+00  0.00000000000E+00  0.14999999963E+04  0.15000000000E+04  0.10566000000E+00 0. -1.
        994   -1    0    0    0    0 -0.00000000000E+00 -0.00000000000E+00  0.11368683772E-12  0.17120000000E+03  0.17120000000E+03 0.  0.
         13    1    1    2    0    0  0.67723956638E+01 -0.19350116636E+02  0.73531410862E+02  0.76335914904E+02  0.10566000000E+00 0. -1.
        994    1    1    2    0    0 -0.84601081852E+01  0.20345128024E+02  0.43068301530E+01  0.17266582305E+03  0.17120000000E+03 0.  0.
        998    1    1    2    0    0  0.16877125214E+01 -0.99501138744E+00  0.14221617553E+04  0.14221982620E+04  0.10000000000E+02 0. -1.
</event>
<event>
 5    1  0.9123258E-009  0.3819556E+03  0.7957747E-01  0.3442687E+00
         13   -1    0    0    0    0  0.00000000000E+00  0.00000000000E+00  0.14999999963E+04  0.15000000000E+04  0.10566000000E+00 0.  1.
        994   -1    0    0    0    0 -0.00000000000E+00 -0.00000000000E+00  0.11368683772E-12  0.17120000000E+03  0.17120000000E+03 0.  0.
         13    1    1    2    0    0  0.10263053558E+02  0.38648107734E+02  0.22572201529E+03  0.22923665905E+03  0.10566000000E+00 0.  1.
        994    1    1    2    0    0 -0.16309462055E+02 -0.32945255071E+02  0.76507839502E+01  0.17526940086E+03  0.17120000000E+03 0.  0.
        998    1    1    2    0    0  0.60464084962E+01 -0.57028526627E+01  0.12666271970E+04  0.12666939401E+04  0.10000000000E+02 0.  1.
</event>
<event>
 5    1  0.9123258E-009  0.3774127E+03  0.7957747E-01  0.3462502E+00
         13   -1    0    0    0    0  0.00000000000E+00  0.00000000000E+00  0.14999999963E+04  0.15000000000E+04  0.10566000000E+00 0. -1.
        994   -1    0    0    0    0 -0.00000000000E+00 -0.00000000000E+00  0.11368683772E-12  0.17120000000E+03  0.17120000000E+03 0.  0.
         13    1    1    2    0    0 -0.29636932752E+02 -0.90839565807E+01  0.99288861708E+02  0.10401516848E+03  0.10566000000E+00 0. -1.
        994    1    1    2    0    0 -0.10577677174E+02 -0.39259869230E+01  0.58742931753E+01  0.17167191951E+03  0.17120000000E+03 0.  0.
        998    1    1    2    0    0  0.40214609926E+02  0.13009943504E+02  0.13948368414E+04  0.13955129120E+04  0.10000000000E+02 0. -1.
</event>
<event>
 5    1  0.9123258E-009  0.3750822E+03  0.7957747E-01  0.3472855E+00
         13   -1    0    0    0    0  0.00000000000E+00  0.00000000000E+00  0.14999999963E+04  0.15000000000E+04  0.10566000000E+00 0.  1.
        994   -1    0    0    0    0 -0.00000000000E+00 -0.00000000000E+00  0.11368683772E-12  0.17120000000E+03  0.17120000000E+03 0.  0.
         13    1    1    2    0    0 -0.11996216786E+02 -0.32290765142E+02  0.90502097569E+02  0.96836168651E+02  0.10566000000E+00 0.  1.
        994    1    1    2    0    0 -0.72112161334E+01  0.15151860035E+02  0.75940000401E+01  0.17218794771E+03  0.17120000000E+03 0.  0.
        998    1    1    2    0    0  0.19207432919E+02  0.17138905107E+02  0.14019038987E+04  0.14021758836E+04  0.10000000000E+02 0.  1.
</event>
<event>
 5    1  0.9123258E-009  0.3782347E+03  0.7957747E-01  0.3458881E+00
         13   -1    0    0    0    0  0.00000000000E+00  0.00000000000E+00  0.14999999963E+04  0.15000000000E+04  0.10566000000E+00 0. -1.
        994   -1    0    0    0    0 -0.00000000000E+00 -0.00000000000E+00  0.11368683772E-12  0.17120000000E+03  0.17120000000E+03 0.  0.
         13    1    1    2    0    0 -0.15807972210E+02 -0.36507694045E+02  0.17918906503E+03  0.18355227022E+03  0.10566000000E+00 0. -1.
        994    1    1    2    0    0  0.60789104529E+01 -0.80292673007E+00  0.51533495940E+01  0.17138726573E+03  0.17120000000E+03 0.  0.
        998    1    1    2    0    0  0.97290617572E+01  0.37310620775E+02  0.13156575817E+04  0.13162604641E+04  0.10000000000E+02 0. -1.
</event>
<event>
 5    1  0.9123258E-009  0.3713321E+03  0.7957747E-01  0.3489791E+00
         13   -1    0    0    0    0  0.00000000000E+00  0.00000000000E+00  0.14999999963E+04  0.15000000000E+04  0.10566000000E+00 0. -1.
        994   -1    0    0    0    0 -0.00000000000E+00 -0.00000000000E+00  0.11368683772E-12  0.17120000000E+03  0.17120000000E+03 0.  0.
         13    1    1    2    0    0 -0.15653159323E+02 -0.29240254438E+02  0.61365096216E+02  0.69754570274E+02  0.10566000000E+00 0. -1.
        994    1    1    2    0    0  0.14593405045E+02  0.14093583439E+02  0.99923953899E+01  0.17268724484E+03  0.17120000000E+03 0.  0.
        998    1    1    2    0    0  0.10597542779E+01  0.15146670999E+02  0.14286425047E+04  0.14287581849E+04  0.10000000000E+02 0. -1.
</event>
<event>
 5    1  0.9123258E-009  0.3857664E+03  0.7957747E-01  0.3426428E+00
         13   -1    0    0    0    0  0.00000000000E+00  0.00000000000E+00  0.14999999963E+04  0.15000000000E+04  0.10566000000E+00 0. -1.
        994   -1    0    0    0    0 -0.00000000000E+00 -0.00000000000E+00  0.11368683772E-12  0.17120000000E+03  0.17120000000E+03 0.  0.
         13    1    1    2    0    0  0.11225840967E+02 -0.34020764867E+01  0.54735411824E+02  0.55978300273E+02  0.10566000000E+00 0. -1.
        994    1    1    2    0    0 -0.92238678386E+01  0.37738328329E+01  0.15760248559E+01  0.17149707113E+03  0.17120000000E+03 0.  0.
        998    1    1    2    0    0 -0.20019731287E+01 -0.37175634627E+00  0.14436885596E+04  0.14437246286E+04  0.10000000000E+02 0. -1.
</event>
<event>
 5    1  0.9123258E-009  0.3771207E+03  0.7957747E-01  0.3463792E+00
         13   -1    0    0    0    0  0.00000000000E+00  0.00000000000E+00  0.14999999963E+04  0.15000000000E+04  0.10566000000E+00 0. -1.
        994   -1    0    0    0    0 -0.00000000000E+00 -0.00000000000E+00  0.11368683772E-12  0.17120000000E+03  0.17120000000E+03 0.  0.
         13    1    1    2    0    0  0.19224810548E+02 -0.14122219166E+02  0.48532900006E+02  0.54078498147E+02  0.10566000000E+00 0. -1.
        994    1    1    2    0    0 -0.10125800418E+02  0.14326480026E+02  0.66331924227E+01  0.17222432786E+03  0.17120000000E+03 0.  0.
        998    1    1    2    0    0 -0.90990101300E+01 -0.20426086002E+00  0.14448339038E+04  0.14448971740E+04  0.10000000000E+02 0. -1.
</event>
<event>
 5    1  0.9123258E-009  0.3854380E+03  0.7957747E-01  0.3427817E+00
         13   -1    0    0    0    0  0.00000000000E+00  0.00000000000E+00  0.14999999963E+04  0.15000000000E+04  0.10566000000E+00 0.  1.
        994   -1    0    0    0    0 -0.00000000000E+00 -0.00000000000E+00  0.11368683772E-12  0.17120000000E+03  0.17120000000E+03 0.  0.
         13    1    1    2    0    0  0.99009232058E+01 -0.56735197376E+01  0.41378261158E+02  0.42923056357E+02  0.10566000000E+00 0.  1.
        994    1    1    2    0    0 -0.18402597753E+02  0.25173119441E+02  0.46125073829E+01  0.17407773198E+03  0.17120000000E+03 0.  0.
        998    1    1    2    0    0  0.85016745468E+01 -0.19499599703E+02  0.14540092277E+04  0.14541992117E+04  0.10000000000E+02 0.  1.
</event>
<event>
 5    1  0.9123258E-009  0.3763502E+03  0.7957747E-01  0.3467206E+00
         13   -1    0    0    0    0  0.00000000000E+00  0.00000000000E+00  0.14999999963E+04  0.15000000000E+04  0.10566000000E+00 0. -1.
        994   -1    0    0    0    0 -0.00000000000E+00 -0.00000000000E+00  0.11368683772E-12  0.17120000000E+03  0.17120000000E+03 0.  0.
         13    1    1    2    0    0  0.36340276727E+02 -0.19575705454E+02  0.11019387806E+03  0.11767126192E+03  0.10566000000E+00 0. -1.
        994    1    1    2    0    0 -0.50338975298E+02  0.71464869688E+02  0.32297680680E+02  0.19492003543E+03  0.17120000000E+03 0.  0.
        998    1    1    2    0    0  0.13998698571E+02 -0.51889164234E+02  0.13575084375E+04  0.13586087027E+04  0.10000000000E+02 0. -1.
</event>
<event>
 5    1  0.9123258E-009  0.3758566E+03  0.7957747E-01  0.3469401E+00
         13   -1    0    0    0    0  0.00000000000E+00  0.00000000000E+00  0.14999999963E+04  0.15000000000E+04  0.10566000000E+00 0. -1.
        994   -1    0    0    0    0 -0.00000000000E+00 -0.00000000000E+00  0.11368683772E-12  0.17120000000E+03  0.17120000000E+03 0.  0.
         13    1    1    2    0    0  0.21965324359E+02  0.67387736287E+02  0.32784742789E+03  0.33542142092E+03  0.10566000000E+00 0. -1.
        994    1    1    2    0    0 -0.12985041183E+02 -0.64758252437E+02  0.21171198016E+02  0.18471573344E+03  0.17120000000E+03 0.  0.
        998    1    1    2    0    0 -0.89802831762E+01 -0.26294838502E+01  0.11509813704E+04  0.11510628456E+04  0.10000000000E+02 0. -1.
</event>
<event>
 5    1  0.9123258E-009  0.3842616E+03  0.7957747E-01  0.3432810E+00
         13   -1    0    0    0    0  0.00000000000E+00  0.00000000000E+00  0.14999999963E+04  0.15000000000E+04  0.10566000000E+00 0. -1.
        994   -1    0    0    0    0 -0.00000000000E+00 -0.00000000000E+00  0.11368683772E-12  0.17120000000E+03  0.17120000000E+03 0.  0.
         13    1    1    2    0    0  0.81041473000E+01 -0.66799874110E+01  0.27553956780E+02  0.29487813305E+02  0.10566000000E+00 0. -1.
        994    1    1    2    0    0  0.48371158705E+01  0.10297264053E+02  0.24239947207E+01  0.17159471754E+03  0.17120000000E+03 0.  0.
        998    1    1    2    0    0 -0.12941263170E+02 -0.36172766418E+01  0.14700220448E+04  0.14701174692E+04  0.10000000000E+02 0. -1.
</event>
<event>
 5    1  0.9123258E-009  0.3824251E+03  0.7957747E-01  0.3440667E+00
         13   -1    0    0    0    0  0.00000000000E+00  0.00000000000E+00  0.14999999963E+04  0.15000000000E+04  0.10566000000E+00 0.  1.
        994   -1    0    0    0    0 -0.00000000000E+00 -0.00000000000E+00  0.11368683772E-12  0.17120000000E+03  0.17120000000E+03 0.  0.
         13    1    1    2    0    0  0.57475253248E+02 -0.15233306782E+03  0.93327627991E+03  0.94737183518E+03  0.10566000000E+00 0.  1.
        994    1    1    2    0    0 -0.64392573062E+02  0.16558348262E+03  0.11580660668E+03  0.27255256985E+03  0.17120000000E+03 0.  0.
        998    1    1    2    0    0  0.69173198136E+01 -0.13250414800E+02  0.45091710969E+03  0.45127559497E+03  0.10000000000E+02 0.  1.
</event>
<event>
 5    1  0.9123258E-009  0.3714190E+03  0.7957747E-01  0.3489395E+00
         13   -1    0    0    0    0  0.00000000000E+00  0.00000000000E+00  0.14999999963E+04  0.15000000000E+04  0.10566000000E+00 0. -1.
        994   -1    0    0    0    0 -0.00000000000E+00 -0.00000000000E+00  0.11368683772E-12  0.17120000000E+03  0.17120000000E+03 0.  0.
         13    1    1    2    0    0 -0.36051965818E+00 -0.19759613679E+02  0.19704786365E+02  0.27908100560E+02  0.10566000000E+00 0. -1.
        994    1    1    2    0    0 -0.98013987736E+01  0.40263914261E+01  0.89156487576E+01  0.17175915707E+03  0.17120000000E+03 0.  0.
        998    1    1    2    0    0  0.10161918432E+02  0.15733222252E+02  0.14713795612E+04  0.14715327424E+04  0.10000000000E+02 0. -1.
</event>
<event>
 5    1  0.9123258E-009  0.3708639E+03  0.7957747E-01  0.3491930E+00
         13   -1    0    0    0    0  0.00000000000E+00  0.00000000000E+00  0.14999999963E+04  0.15000000000E+04  0.10566000000E+00 0.  1.
        994   -1    0    0    0    0 -0.00000000000E+00 -0.00000000000E+00  0.11368683772E-12  0.17120000000E+03  0.17120000000E+03 0.  0.
         13    1    1    2    0    0  0.38815634188E+02  0.10016856287E+02  0.72743367203E+02  0.83057808202E+02  0.10566000000E+00 0.  1.
        994    1    1    2    0    0  0.83617890982E+01 -0.17957048078E+02  0.12773437009E+02  0.17281485985E+03  0.17120000000E+03 0.  0.
        998    1    1    2    0    0 -0.47177423286E+02  0.79401917907E+01  0.14144831921E+04  0.14153273319E+04  0.10000000000E+02 0.  1.
</event>
<event>
 5    1  0.9123258E-009  0.3808534E+03  0.7957747E-01  0.3447451E+00
         13   -1    0    0    0    0  0.00000000000E+00  0.00000000000E+00  0.14999999963E+04  0.15000000000E+04  0.10566000000E+00 0. -1.
        994   -1    0    0    0    0 -0.00000000000E+00 -0.00000000000E+00  0.11368683772E-12  0.17120000000E+03  0.17120000000E+03 0.  0.
         13    1    1    2    0    0  0.16161683059E+02 -0.31552398186E+02  0.19949919094E+03  0.20262451032E+03  0.10566000000E+00 0. -1.
        994    1    1    2    0    0 -0.15693993935E+02 -0.80593845302E+01  0.47412325423E+01  0.17217193270E+03  0.17120000000E+03 0.  0.
        998    1    1    2    0    0 -0.46768912372E+00  0.39611782716E+02  0.12957595728E+04  0.12964035570E+04  0.10000000000E+02 0. -1.
</event>
<event>
 5    1  0.9123258E-009  0.3859182E+03  0.7957747E-01  0.3425787E+00
         13   -1    0    0    0    0  0.00000000000E+00  0.00000000000E+00  0.14999999963E+04  0.15000000000E+04  0.10566000000E+00 0. -1.
        994   -1    0    0    0    0 -0.00000000000E+00 -0.00000000000E+00  0.11368683772E-12  0.17120000000E+03  0.17120000000E+03 0.  0.
         13    1    1    2    0    0 -0.16890504826E+01 -0.11806594558E+02  0.63893348444E+02  0.64997074595E+02  0.10566000000E+00 0. -1.
        994    1    1    2    0    0 -0.46970097235E+01  0.28088243104E+01  0.12731754162E+01  0.17129218421E+03  0.17120000000E+03 0.  0.
        998    1    1    2    0    0  0.63860602062E+01  0.89977702472E+01  0.14348334724E+04  0.14349107412E+04  0.10000000000E+02 0. -1.
</event>
<event>
 5    1  0.9123258E-009  0.3800587E+03  0.7957747E-01  0.3450903E+00
         13   -1    0    0    0    0  0.00000000000E+00  0.00000000000E+00  0.14999999963E+04  0.15000000000E+04  0.10566000000E+00 0.  1.
        994   -1    0    0    0    0 -0.00000000000E+00 -0.00000000000E+00  0.11368683772E-12  0.17120000000E+03  0.17120000000E+03 0.  0.
         13    1    1    2    0    0  0.33682368160E+02 -0.88441086411E+02  0.48985251261E+03  0.49891063625E+03  0.10566000000E+00 0.  1.
        994    1    1    2    0    0 -0.71225536499E+02  0.10878536479E+03  0.62853403860E+02  0.22398063090E+03  0.17120000000E+03 0.  0.
        998    1    1    2    0    0  0.37543168339E+02 -0.20344278381E+02  0.94729407981E+03  0.94830873285E+03  0.10000000000E+02 0.  1.
</event>
<event>
 5    1  0.9123258E-009  0.3859949E+03  0.7957747E-01  0.3425464E+00
         13   -1    0    0    0    0  0.00000000000E+00  0.00000000000E+00  0.14999999963E+04  0.15000000000E+04  0.10566000000E+00 0. -1.
        994   -1    0    0    0    0 -0.00000000000E+00 -0.00000000000E+00  0.11368683772E-12  0.17120000000E+03  0.17120000000E+03 0.  0.
         13    1    1    2    0    0  0.11687417745E+01  0.10150328698E+02  0.45624787153E+02  0.46754972964E+02  0.10566000000E+00 0. -1.
        994    1    1    2    0    0 -0.57453906364E+01 -0.91065396558E+01  0.15171603626E+01  0.17154498056E+03  0.17120000000E+03 0.  0.
        998    1    1    2    0    0  0.45766488619E+01 -0.10437890426E+01  0.14528580488E+04  0.14529000465E+04  0.10000000000E+02 0. -1.
</event>
<event>
 5    1  0.9123258E-009  0.3831876E+03  0.7957747E-01  0.3437395E+00
         13   -1    0    0    0    0  0.00000000000E+00  0.00000000000E+00  0.14999999963E+04  0.15000000000E+04  0.10566000000E+00 0. -1.
        994   -1    0    0    0    0 -0.00000000000E+00 -0.00000000000E+00  0.11368683772E-12  0.17120000000E+03  0.17120000000E+03 0.  0.
         13    1    1    2    0    0 -0.16512146078E+02 -0.22728736794E+02  0.16713421493E+03  0.16947891730E+03  0.10566000000E+00 0. -1.
        994    1    1    2    0    0 -0.18639721494E+02  0.25370311235E+02  0.58181601225E+01  0.17416768614E+03  0.17120000000E+03 0.  0.
        998    1    1    2    0    0  0.35151867572E+02 -0.26415744404E+01  0.13270476212E+04  0.13275533966E+04  0.10000000000E+02 0. -1.
</event>
<event>
 5    1  0.9123258E-009  0.3748039E+03  0.7957747E-01  0.3474100E+00
         13   -1    0    0    0    0  0.00000000000E+00  0.00000000000E+00  0.14999999963E+04  0.15000000000E+04  0.10566000000E+00 0. -1.
        994   -1    0    0    0    0 -0.00000000000E+00 -0.00000000000E+00  0.11368683772E-12  0.17120000000E+03  0.17120000000E+03 0.  0.
         13    1    1    2    0    0 -0.21912948548E+02 -0.19549649885E+02  0.61791497982E+02  0.68414665910E+02  0.10566000000E+00 0. -1.
        994    1    1    2    0    0  0.10223858760E+02  0.11547452519E+02  0.75890005416E+01  0.17206075635E+03  0.17120000000E+03 0.  0.
        998    1    1    2    0    0  0.11689089788E+02  0.80021973666E+01  0.14306194978E+04  0.14307245777E+04  0.10000000000E+02 0. -1.
</event>
<event>
 5    1  0.9123258E-009  0.3690709E+03  0.7957747E-01  0.3500172E+00
         13   -1    0    0    0    0  0.00000000000E+00  0.00000000000E+00  0.14999999963E+04  0.15000000000E+04  0.10566000000E+00 0. -1.
        994   -1    0    0    0    0 -0.00000000000E+00 -0.00000000000E+00  0.11368683772E-12  0.17120000000E+03  0.17120000000E+03 0.  0.
         13    1    1    2    0    0  0.91696147656E+00  0.77264411812E+02  0.23444631266E+03  0.24685160489E+03  0.10566000000E+00 0. -1.
        994    1    1    2    0    0  0.88105505121E+00 -0.80000850002E+02  0.33098800043E+02  0.19184859349E+03  0.17120000000E+03 0.  0.
        998    1    1    2    0    0 -0.17980165278E+01  0.27364381900E+01  0.12324548836E+04  0.12324998016E+04  0.10000000000E+02 0. -1.
</event>
<event>
 5    1  0.9123258E-009  0.3692092E+03  0.7957747E-01  0.3499533E+00
         13   -1    0    0    0    0  0.00000000000E+00  0.00000000000E+00  0.14999999963E+04  0.15000000000E+04  0.10566000000E+00 0. -1.
        994   -1    0    0    0    0 -0.00000000000E+00 -0.00000000000E+00  0.11368683772E-12  0.17120000000E+03  0.17120000000E+03 0.  0.
         13    1    1    2    0    0 -0.35542138270E+02  0.32771831714E+01  0.59942618403E+02  0.69764691552E+02  0.10566000000E+00 0. -1.
        994    1    1    2    0    0  0.43016801061E+01  0.12270186099E+01  0.10591074791E+02  0.17158560806E+03  0.17120000000E+03 0.  0.
        998    1    1    2    0    0  0.31240458163E+02 -0.45042017813E+01  0.14294663031E+04  0.14298497004E+04  0.10000000000E+02 0. -1.
</event>
<event>
 5    1  0.9123258E-009  0.3730864E+03  0.7957747E-01  0.3481826E+00
         13   -1    0    0    0    0  0.00000000000E+00  0.00000000000E+00  0.14999999963E+04  0.15000000000E+04  0.10566000000E+00 0. -1.
        994   -1    0    0    0    0 -0.00000000000E+00 -0.00000000000E+00  0.11368683772E-12  0.17120000000E+03  0.17120000000E+03 0.  0.
         13    1    1    2    0    0  0.74292946552E+02  0.34343167619E+02  0.22161295697E+03  0.23624396062E+03  0.10566000000E+00 0. -1.
        994    1    1    2    0    0 -0.70131940003E+02 -0.46915610988E+02  0.38188857955E+02  0.19464684029E+03  0.17120000000E+03 0.  0.
        998    1    1    2    0    0 -0.41610065490E+01  0.12572443369E+02  0.12401981814E+04  0.12403091991E+04  0.10000000000E+02 0. -1.
</event>
<event>
 5    1  0.9123258E-009  0.3828697E+03  0.7957747E-01  0.3438757E+00
         13   -1    0    0    0    0  0.00000000000E+00  0.00000000000E+00  0.14999999963E+04  0.15000000000E+04  0.10566000000E+00 0.  1.
        994   -1    0    0    0    0 -0.00000000000E+00 -0.00000000000E+00  0.11368683772E-12  0.17120000000E+03  0.17120000000E+03 0.  0.
         13    1    1    2    0    0 -0.73132849307E+01 -0.10745032356E+02  0.26843599417E+02  0.29824987016E+02  0.10566000000E+00 0.  1.
        994    1    1    2    0    0  0.41410029924E+01  0.52322798505E+02  0.11868257027E+02  0.17945784651E+03  0.17120000000E+03 0.  0.
        998    1    1    2    0    0  0.31722819382E+01 -0.41577766149E+02  0.14612881398E+04  0.14619171665E+04  0.10000000000E+02 0.  1.
</event>
<event>
 5    1  0.9123258E-009  0.3721110E+03  0.7957747E-01  0.3486245E+00
         13   -1    0    0    0    0  0.00000000000E+00  0.00000000000E+00  0.14999999963E+04  0.15000000000E+04  0.10566000000E+00 0. -1.
        994   -1    0    0    0    0 -0.00000000000E+00 -0.00000000000E+00  0.11368683772E-12  0.17120000000E+03  0.17120000000E+03 0.  0.
         13    1    1    2    0    0 -0.42575265329E+02 -0.42575867624E+02  0.28759200111E+03  0.29382737787E+03  0.10566000000E+00 0. -1.
        994    1    1    2    0    0  0.26853453957E+02 -0.29293884358E+02  0.13610285607E+02  0.17627796097E+03  0.17120000000E+03 0.  0.
        998    1    1    2    0    0  0.15721811372E+02  0.71869751982E+02  0.11987977096E+04  0.12010946612E+04  0.10000000000E+02 0. -1.
</event>
<event>
 5    1  0.9123258E-009  0.3851438E+03  0.7957747E-01  0.3429063E+00
         13   -1    0    0    0    0  0.00000000000E+00  0.00000000000E+00  0.14999999963E+04  0.15000000000E+04  0.10566000000E+00 0.  1.
        994   -1    0    0    0    0 -0.00000000000E+00 -0.00000000000E+00  0.11368683772E-12  0.17120000000E+03  0.17120000000E+03 0.  0.
         13    1    1    2    0    0  0.20623073851E+01  0.17016851748E+02  0.99560059455E+02  0.10102496205E+03  0.10566000000E+00 0.  1.
        994    1    1    2    0    0 -0.13204303582E+02 -0.31539060071E+01  0.21648237610E+01  0.17175106177E+03  0.17120000000E+03 0.  0.
        998    1    1    2    0    0  0.11141996196E+02 -0.13862945741E+02  0.13982751131E+04  0.13984239762E+04  0.10000000000E+02 0.  1.
</event>
<event>
 5    1  0.9123258E-009  0.3798076E+03  0.7957747E-01  0.3451997E+00
         13   -1    0    0    0    0  0.00000000000E+00  0.00000000000E+00  0.14999999963E+04  0.15000000000E+04  0.10566000000E+00 0. -1.
        994   -1    0    0    0    0 -0.00000000000E+00 -0.00000000000E+00  0.11368683772E-12  0.17120000000E+03  0.17120000000E+03 0.  0.
         13    1    1    2    0    0  0.87883836769E+01 -0.16712631675E+02  0.40065748595E+02  0.44292472494E+02  0.10566000000E+00 0. -1.
        994    1    1    2    0    0  0.15906297743E+02  0.26320992365E+02  0.74005243992E+01  0.17409771023E+03  0.17120000000E+03 0.  0.
        998    1    1    2    0    0 -0.24694681420E+02 -0.96083606904E+01  0.14525337233E+04  0.14528098173E+04  0.10000000000E+02 0. -1.
</event>
<event>
 5    1  0.9123258E-009  0.3750964E+03  0.7957747E-01  0.3472792E+00
         13   -1    0    0    0    0  0.00000000000E+00  0.00000000000E+00  0.14999999963E+04  0.15000000000E+04  0.10566000000E+00 0.  1.
        994   -1    0    0    0    0 -0.00000000000E+00 -0.00000000000E+00  0.11368683772E-12  0.17120000000E+03  0.17120000000E+03 0.  0.
         13    1    1    2    0    0  0.15557475207E+02 -0.17123154041E+02  0.36959538419E+02  0.43603395318E+02  0.10566000000E+00 0.  1.
        994    1    1    2    0    0 -0.13784892364E+02  0.17958860532E+02  0.83728305418E+01  0.17289328564E+03  0.17120000000E+03 0.  0.
        998    1    1    2    0    0 -0.17725828438E+01 -0.83570649093E+00  0.14546676273E+04  0.14547033190E+04  0.10000000000E+02 0.  1.
</event>
<event>
 5    1  0.9643489E-009  0.3863381E+03  0.7957747E-01  0.3424017E+00
         13   -1    0    0    0    0  0.00000000000E+00  0.00000000000E+00  0.14999999963E+04  0.15000000000E+04  0.10566000000E+00 0. -1.
        994   -1    0    0    0    0 -0.00000000000E+00 -0.00000000000E+00  0.11368683772E-12  0.17120000000E+03  0.17120000000E+03 0.  0.
         13    1    1    2    0    0 -0.10865692458E+02  0.38193040308E+01  0.67944917171E+02  0.68914245910E+02  0.10566000000E+00 0. -1.
        994    1    1    2    0    0  0.91317455490E+01 -0.69668346660E+01  0.13993567711E+01  0.17159057014E+03  0.17120000000E+03 0.  0.
        998    1    1    2    0    0  0.17339469093E+01  0.31475306352E+01  0.14306557223E+04  0.14306951839E+04  0.10000000000E+02 0. -1.
</event>
<event>
 5    1  0.9123258E-009  0.3922910E+03  0.7957747E-01  0.3399327E+00
         13   -1    0    0    0    0  0.00000000000E+00  0.00000000000E+00  0.14999999963E+04  0.15000000000E+04  0.10566000000E+00 0. -1.
        994   -1    0    0    0    0 -0.00000000000E+00 -0.00000000000E+00  0.11368683772E-12  0.17120000000E+03  0.17120000000E+03 0.  0.
         13    1    1    2    0    0  0.20602673329E+02  0.35944394124E+02  0.30528833315E+02  0.51463486521E+02  0.10566000000E+00 0. -1.
        994    1    1    2    0    0  0.44518573218E+02 -0.17049238281E+02  0.31925952113E+02  0.18055826291E+03  0.17120000000E+03 0.  0.
        998    1    1    2    0    0 -0.65121246548E+02 -0.18895155843E+02  0.14375452109E+04  0.14391782506E+04  0.10000000000E+02 0. -1.
</event>
<event>
 5    1  0.9123258E-009  0.3849661E+03  0.7957747E-01  0.3429816E+00
         13   -1    0    0    0    0  0.00000000000E+00  0.00000000000E+00  0.14999999963E+04  0.15000000000E+04  0.10566000000E+00 0. -1.
        994   -1    0    0    0    0 -0.00000000000E+00 -0.00000000000E+00  0.11368683772E-12  0.17120000000E+03  0.17120000000E+03 0.  0.
         13    1    1    2    0    0 -0.11357049727E+01  0.12807165934E+02  0.51343391955E+02  0.52928899351E+02  0.10566000000E+00 0. -1.
        994    1    1    2    0    0  0.51468682641E+01 -0.38944602101E+01  0.17839773722E+01  0.17133090687E+03  0.17120000000E+03 0.  0.
        998    1    1    2    0    0 -0.40111632914E+01 -0.89127057241E+01  0.14468726270E+04  0.14469401938E+04  0.10000000000E+02 0. -1.
</event>
<event>
 5    1  0.9123258E-009  0.4158583E+03  0.7957747E-01  0.3308490E+00
         13   -1    0    0    0    0  0.00000000000E+00  0.00000000000E+00  0.14999999963E+04  0.15000000000E+04  0.10566000000E+00 0.  1.
        994   -1    0    0    0    0 -0.00000000000E+00 -0.00000000000E+00  0.11368683772E-12  0.17120000000E+03  0.17120000000E+03 0.  0.
         13    1    1    2    0    0 -0.24693277292E+02  0.35842577743E+02  0.10251959410E+02  0.44716464065E+02  0.10566000000E+00 0.  1.
        994    1    1    2    0    0  0.25381483885E+02 -0.39841872083E+02  0.47022427989E+02  0.18371756375E+03  0.17120000000E+03 0.  0.
        998    1    1    2    0    0 -0.68820659339E+00  0.39992943401E+01  0.14427256089E+04  0.14427659722E+04  0.10000000000E+02 0.  1.
</event>
<event>
 5    1  0.9123258E-009  0.3736294E+03  0.7957747E-01  0.3479375E+00
         13   -1    0    0    0    0  0.00000000000E+00  0.00000000000E+00  0.14999999963E+04  0.15000000000E+04  0.10566000000E+00 0. -1.
        994   -1    0    0    0    0 -0.00000000000E+00 -0.00000000000E+00  0.11368683772E-12  0.17120000000E+03  0.17120000000E+03 0.  0.
         13    1    1    2    0    0  0.22563992821E+02  0.88120909274E+02  0.33270549830E+03  0.34491649451E+03  0.10566000000E+00 0. -1.
        994    1    1    2    0    0 -0.60614543189E+02 -0.34235258075E+02  0.30236221867E+02  0.18726944453E+03  0.17120000000E+03 0.  0.
        998    1    1    2    0    0  0.38050550368E+02 -0.53885651199E+02  0.11370582761E+04  0.11390140610E+04  0.10000000000E+02 0. -1.
</event>
<event>
 5    1  0.9123258E-009  0.3809888E+03  0.7957747E-01  0.3446864E+00
         13   -1    0    0    0    0  0.00000000000E+00  0.00000000000E+00  0.14999999963E+04  0.15000000000E+04  0.10566000000E+00 0. -1.
        994   -1    0    0    0    0 -0.00000000000E+00 -0.00000000000E+00  0.11368683772E-12  0.17120000000E+03  0.17120000000E+03 0.  0.
         13    1    1    2    0    0  0.22476721761E+02  0.82939790069E+01  0.75477538493E+02  0.79188781338E+02  0.10566000000E+00 0. -1.
        994    1    1    2    0    0 -0.19559988340E+02 -0.81109127445E+01  0.51302951661E+01  0.17258082158E+03  0.17120000000E+03 0.  0.
        998    1    1    2    0    0 -0.29167334213E+01 -0.18306626240E+00  0.14193921626E+04  0.14194303971E+04  0.10000000000E+02 0. -1.
</event>
<event>
 5    1  0.9123258E-009  0.3821545E+03  0.7957747E-01  0.3441831E+00
         13   -1    0    0    0    0  0.00000000000E+00  0.00000000000E+00  0.14999999963E+04  0.15000000000E+04  0.10566000000E+00 0.  1.
        994   -1    0    0    0    0 -0.00000000000E+00 -0.00000000000E+00  0.11368683772E-12  0.17120000000E+03  0.17120000000E+03 0.  0.
         13    1    1    2    0    0  0.12651415692E+02 -0.24367137839E+01  0.25818618409E+02  0.28854949552E+02  0.10566000000E+00 0.  1.
        994    1    1    2    0    0 -0.11631723189E+02  0.26034722434E+01  0.35212468118E+01  0.17165055849E+03  0.17120000000E+03 0.  0.
        998    1    1    2    0    0 -0.10196925031E+01 -0.16675845947E+00  0.14706601311E+04  0.14706944920E+04  0.10000000000E+02 0.  1.
</event>
<event>
 5    1  0.9123258E-009  0.3833803E+03  0.7957747E-01  0.3436571E+00
         13   -1    0    0    0    0  0.00000000000E+00  0.00000000000E+00  0.14999999963E+04  0.15000000000E+04  0.10566000000E+00 0. -1.
        994   -1    0    0    0    0 -0.00000000000E+00 -0.00000000000E+00  0.11368683772E-12  0.17120000000E+03  0.17120000000E+03 0.  0.
         13    1    1    2    0    0 -0.23478475294E+02 -0.14463588968E+02  0.15388748137E+03  0.15633874214E+03  0.10566000000E+00 0. -1.
        994    1    1    2    0    0  0.12654402144E+02  0.13233098293E+02  0.35455256855E+01  0.17221283209E+03  0.17120000000E+03 0.  0.
        998    1    1    2    0    0  0.10824073150E+02  0.12304906748E+01  0.13425669892E+04  0.13426484258E+04  0.10000000000E+02 0. -1.
</event>
<event>
 5    1  0.9123258E-009  0.3826012E+03  0.7957747E-01  0.3439910E+00
         13   -1    0    0    0    0  0.00000000000E+00  0.00000000000E+00  0.14999999963E+04  0.15000000000E+04  0.10566000000E+00 0. -1.
        994   -1    0    0    0    0 -0.00000000000E+00 -0.00000000000E+00  0.11368683772E-12  0.17120000000E+03  0.17120000000E+03 0.  0.
         13    1    1    2    0    0  0.27847661074E+01  0.26344982357E+02  0.12665902532E+03  0.12939989520E+03  0.10566000000E+00 0. -1.
        994    1    1    2    0    0 -0.88049683278E+01 -0.11354108467E+02  0.35103476441E+01  0.17183773098E+03  0.17120000000E+03 0.  0.
        998    1    1    2    0    0  0.60202022204E+01 -0.14990873890E+02  0.13698306233E+04  0.13699623738E+04  0.10000000000E+02 0. -1.
</event>
<event>
 5    1  0.9123258E-009  0.3785224E+03  0.7957747E-01  0.3457618E+00
         13   -1    0    0    0    0  0.00000000000E+00  0.00000000000E+00  0.14999999963E+04  0.15000000000E+04  0.10566000000E+00 0.  1.
        994   -1    0    0    0    0 -0.00000000000E+00 -0.00000000000E+00  0.11368683772E-12  0.17120000000E+03  0.17120000000E+03 0.  0.
         13    1    1    2    0    0 -0.44114107600E+02  0.17732583667E+02  0.26113692932E+03  0.26542985143E+03  0.10566000000E+00 0.  1.
        994    1    1    2    0    0  0.88293739944E+01 -0.92149844366E+01  0.54282455834E+01  0.17176082101E+03  0.17120000000E+03 0.  0.
        998    1    1    2    0    0  0.35284733605E+02 -0.85175992300E+01  0.12334348214E+04  0.12340093276E+04  0.10000000000E+02 0.  1.
</event>
<event>
 5    1  0.9123258E-009  0.3817104E+03  0.7957747E-01  0.3443745E+00
         13   -1    0    0    0    0  0.00000000000E+00  0.00000000000E+00  0.14999999963E+04  0.15000000000E+04  0.10566000000E+00 0. -1.
        994   -1    0    0    0    0 -0.00000000000E+00 -0.00000000000E+00  0.11368683772E-12  0.17120000000E+03  0.17120000000E+03 0.  0.
         13    1    1    2    0    0 -0.30766414797E+02 -0.68995890006E+01  0.15377293361E+03  0.15697229973E+03  0.10566000000E+00 0. -1.
        994    1    1    2    0    0  0.19255233842E+02 -0.11537013554E+02  0.49489412158E+01  0.17273621141E+03  0.17120000000E+03 0.  0.
        998    1    1    2    0    0  0.11511180955E+02  0.18436602555E+02  0.13412781215E+04  0.13414914889E+04  0.10000000000E+02 0. -1.
</event>
<event>
 5    1  0.9123258E-009  0.3930132E+03  0.7957747E-01  0.3396382E+00
         13   -1    0    0    0    0  0.00000000000E+00  0.00000000000E+00  0.14999999963E+04  0.15000000000E+04  0.10566000000E+00 0. -1.
        994   -1    0    0    0    0 -0.00000000000E+00 -0.00000000000E+00  0.11368683772E-12  0.17120000000E+03  0.17120000000E+03 0.  0.
         13    1    1    2    0    0 -0.36258600954E+02  0.18599922152E+02  0.26600414285E+02  0.48664529705E+02  0.10566000000E+00 0. -1.
        994    1    1    2    0    0  0.21821178395E+02 -0.49059346936E+01  0.25573905508E+02  0.17453852487E+03  0.17120000000E+03 0.  0.
        998    1    1    2    0    0  0.14437422559E+02 -0.13693987458E+02  0.14478256765E+04  0.14479969454E+04  0.10000000000E+02 0. -1.
</event>
<event>
 5    1  0.9123258E-009  0.3851557E+03  0.7957747E-01  0.3429012E+00
         13   -1    0    0    0    0  0.00000000000E+00  0.00000000000E+00  0.14999999963E+04  0.15000000000E+04  0.10566000000E+00 0.  1.
        994   -1    0    0    0    0 -0.00000000000E+00 -0.00000000000E+00  0.11368683772E-12  0.17120000000E+03  0.17120000000E+03 0.  0.
         13    1    1    2    0    0 -0.20997705409E+01 -0.12569215173E+02  0.51754259038E+02  0.53300175413E+02  0.10566000000E+00 0.  1.
        994    1    1    2    0    0  0.53819193400E+00  0.10470327944E+02  0.19142500446E+01  0.17153140171E+03  0.17120000000E+03 0.  0.
        998    1    1    2    0    0  0.15615786069E+01  0.20988872295E+01  0.14463314872E+04  0.14463684229E+04  0.10000000000E+02 0.  1.
</event>
<event>
 5    1  0.9123258E-009  0.3824769E+03  0.7957747E-01  0.3440444E+00
         13   -1    0    0    0    0  0.00000000000E+00  0.00000000000E+00  0.14999999963E+04  0.15000000000E+04  0.10566000000E+00 0.  1.
        994   -1    0    0    0    0 -0.00000000000E+00 -0.00000000000E+00  0.11368683772E-12  0.17120000000E+03  0.17120000000E+03 0.  0.
         13    1    1    2    0    0 -0.14824273991E+02 -0.10491422588E+02  0.54165741534E+02  0.57129394949E+02  0.10566000000E+00 0.  1.
        994    1    1    2    0    0  0.10098837649E+02  0.20440765136E+02  0.46135056195E+01  0.17277307613E+03  0.17120000000E+03 0.  0.
        998    1    1    2    0    0  0.47254363419E+01 -0.99493425476E+01  0.14412207491E+04  0.14412975289E+04  0.10000000000E+02 0.  1.
</event>
<event>
 5    1  0.9123258E-009  0.3829147E+03  0.7957747E-01  0.3438564E+00
         13   -1    0    0    0    0  0.00000000000E+00  0.00000000000E+00  0.14999999963E+04  0.15000000000E+04  0.10566000000E+00 0. -1.
        994   -1    0    0    0    0 -0.00000000000E+00 -0.00000000000E+00  0.11368683772E-12  0.17120000000E+03  0.17120000000E+03 0.  0.
         13    1    1    2    0    0  0.59397405451E+01  0.83014185290E+01  0.18514014547E+02  0.21141758820E+02  0.10566000000E+00 0. -1.
        994    1    1    2    0    0 -0.52021687284E+01 -0.49252322241E+01  0.28389282390E+01  0.17137333511E+03  0.17120000000E+03 0.  0.
        998    1    1    2    0    0 -0.73757181668E+00 -0.33761863049E+01  0.14786470535E+04  0.14786849061E+04  0.10000000000E+02 0. -1.
</event>
<event>
 5    1  0.9123258E-009  0.3774946E+03  0.7957747E-01  0.3462140E+00
         13   -1    0    0    0    0  0.00000000000E+00  0.00000000000E+00  0.14999999963E+04  0.15000000000E+04  0.10566000000E+00 0. -1.
        994   -1    0    0    0    0 -0.00000000000E+00 -0.00000000000E+00  0.11368683772E-12  0.17120000000E+03  0.17120000000E+03 0.  0.
         13    1    1    2    0    0  0.81879621109E+02 -0.74332526070E+01  0.49266935504E+03  0.49948236220E+03  0.10566000000E+00 0. -1.
        994    1    1    2    0    0 -0.68396218054E+02  0.49546082155E+01  0.21422584488E+02  0.18566356108E+03  0.17120000000E+03 0.  0.
        998    1    1    2    0    0 -0.13483403055E+02  0.24786443915E+01  0.98590805675E+03  0.98605407672E+03  0.10000000000E+02 0. -1.
</event>
<event>
 5    1  0.9123258E-009  0.3767141E+03  0.7957747E-01  0.3465592E+00
         13   -1    0    0    0    0  0.00000000000E+00  0.00000000000E+00  0.14999999963E+04  0.15000000000E+04  0.10566000000E+00 0. -1.
        994   -1    0    0    0    0 -0.00000000000E+00 -0.00000000000E+00  0.11368683772E-12  0.17120000000E+03  0.17120000000E+03 0.  0.
         13    1    1    2    0    0  0.12616829001E+02  0.21621319139E+01  0.11340820579E+02  0.17102180091E+02  0.10566000000E+00 0. -1.
        994    1    1    2    0    0 -0.14661466694E+02 -0.13148318613E+02  0.71129579701E+01  0.17247571150E+03  0.17120000000E+03 0.  0.
        998    1    1    2    0    0  0.20446376932E+01  0.10986186699E+02  0.14815462177E+04  0.14816221084E+04  0.10000000000E+02 0. -1.
</event>
<event>
 5    1  0.9123258E-009  0.3850423E+03  0.7957747E-01  0.3429493E+00
         13   -1    0    0    0    0  0.00000000000E+00  0.00000000000E+00  0.14999999963E+04  0.15000000000E+04  0.10566000000E+00 0.  1.
        994   -1    0    0    0    0 -0.00000000000E+00 -0.00000000000E+00  0.11368683772E-12  0.17120000000E+03  0.17120000000E+03 0.  0.
         13    1    1    2    0    0  0.13577020320E+02  0.77229045888E+00  0.57556690518E+02  0.59141488828E+02  0.10566000000E+00 0.  1.
        994    1    1    2    0    0 -0.82931724739E+01 -0.10919642132E+02  0.22276279183E+01  0.17176267819E+03  0.17120000000E+03 0.  0.
        998    1    1    2    0    0 -0.52838478465E+01  0.10147351673E+02  0.14402156778E+04  0.14402958330E+04  0.10000000000E+02 0.  1.
</event>
<event>
 5    1  0.9123258E-009  0.3805099E+03  0.7957747E-01  0.3448941E+00
         13   -1    0    0    0    0  0.00000000000E+00  0.00000000000E+00  0.14999999963E+04  0.15000000000E+04  0.10566000000E+00 0. -1.
        994   -1    0    0    0    0 -0.00000000000E+00 -0.00000000000E+00  0.11368683772E-12  0.17120000000E+03  0.17120000000E+03 0.  0.
         13    1    1    2    0    0  0.25176006306E+02 -0.23991015255E+02  0.14791042185E+03  0.15194375328E+03  0.10566000000E+00 0. -1.
        994    1    1    2    0    0 -0.15159558416E+02  0.23982331543E+02  0.65670038099E+01  0.17365923522E+03  0.17120000000E+03 0.  0.
        998    1    1    2    0    0 -0.10016447890E+02  0.86837125600E-02  0.13455225706E+04  0.13455970115E+04  0.10000000000E+02 0. -1.
</event>
<event>
 5    1  0.9123258E-009  0.3816670E+03  0.7957747E-01  0.3443932E+00
         13   -1    0    0    0    0  0.00000000000E+00  0.00000000000E+00  0.14999999963E+04  0.15000000000E+04  0.10566000000E+00 0. -1.
        994   -1    0    0    0    0 -0.00000000000E+00 -0.00000000000E+00  0.11368683772E-12  0.17120000000E+03  0.17120000000E+03 0.  0.
         13    1    1    2    0    0 -0.21746643163E+01  0.10045569154E+02  0.14731619294E+02  0.17963139914E+02  0.10566000000E+00 0. -1.
        994    1    1    2    0    0 -0.44773436708E+00 -0.57736060747E+01  0.34054968892E+01  0.17133176122E+03  0.17120000000E+03 0.  0.
        998    1    1    2    0    0  0.26223986834E+01 -0.42719630797E+01  0.14818628801E+04  0.14819050989E+04  0.10000000000E+02 0. -1.
</event>
<event>
 5    1  0.9123258E-009  0.3832383E+03  0.7957747E-01  0.3437178E+00
         13   -1    0    0    0    0  0.00000000000E+00  0.00000000000E+00  0.14999999963E+04  0.15000000000E+04  0.10566000000E+00 0.  1.
        994   -1    0    0    0    0 -0.00000000000E+00 -0.00000000000E+00  0.11368683772E-12  0.17120000000E+03  0.17120000000E+03 0.  0.
         13    1    1    2    0    0 -0.46577952530E+01  0.21153382049E+02  0.97903609627E+02  0.10027107544E+03  0.10566000000E+00 0.  1.
        994    1    1    2    0    0  0.20572573674E+01 -0.49962211305E+01  0.26039011218E+01  0.17130503447E+03  0.17120000000E+03 0.  0.
        998    1    1    2    0    0  0.26005378857E+01 -0.16157160918E+02  0.13994924855E+04  0.13996238901E+04  0.10000000000E+02 0.  1.
</event>
<event>
 5    1  0.9123258E-009  0.3790376E+03  0.7957747E-01  0.3455360E+00
         13   -1    0    0    0    0  0.00000000000E+00  0.00000000000E+00  0.14999999963E+04  0.15000000000E+04  0.10566000000E+00 0.  1.
        994   -1    0    0    0    0 -0.00000000000E+00 -0.00000000000E+00  0.11368683772E-12  0.17120000000E+03  0.17120000000E+03 0.  0.
         13    1    1    2    0    0 -0.36766517077E+02 -0.45353450968E+02  0.35284650614E+03  0.35764420917E+03  0.10566000000E+00 0.  1.
        994    1    1    2    0    0  0.47655603151E+01  0.45909238916E+02  0.11797538573E+02  0.17770478525E+03  0.17120000000E+03 0.  0.
        998    1    1    2    0    0  0.32000956762E+02 -0.55578794803E+00  0.11353559516E+04  0.11358510056E+04  0.10000000000E+02 0.  1.
</event>
<event>
 5    1  0.9123258E-009  0.3853877E+03  0.7957747E-01  0.3428030E+00
         13   -1    0    0    0    0  0.00000000000E+00  0.00000000000E+00  0.14999999963E+04  0.15000000000E+04  0.10566000000E+00 0. -1.
        994   -1    0    0    0    0 -0.00000000000E+00 -0.00000000000E+00  0.11368683772E-12  0.17120000000E+03  0.17120000000E+03 0.  0.
         13    1    1    2    0    0 -0.10731814598E+02  0.89792469620E+01  0.67779566134E+02  0.69208955128E+02  0.10566000000E+00 0. -1.
        994    1    1    2    0    0  0.61053361074E+01 -0.90473229893E+01  0.18291463695E+01  0.17155732266E+03  0.17120000000E+03 0.  0.
        998    1    1    2    0    0  0.46264784906E+01  0.68076027288E-01  0.14303912838E+04  0.14304337222E+04  0.10000000000E+02 0. -1.
</event>
<event>
 5    1  0.9123258E-009  0.3821761E+03  0.7957747E-01  0.3441738E+00
         13   -1    0    0    0    0  0.00000000000E+00  0.00000000000E+00  0.14999999963E+04  0.15000000000E+04  0.10566000000E+00 0. -1.
        994   -1    0    0    0    0 -0.00000000000E+00 -0.00000000000E+00  0.11368683772E-12  0.17120000000E+03  0.17120000000E+03 0.  0.
         13    1    1    2    0    0  0.19505892355E+02 -0.25062589774E+02  0.15777034683E+03  0.16093510104E+03  0.10566000000E+00 0. -1.
        994    1    1    2    0    0 -0.25081717904E+02  0.12145664382E+02  0.56205449896E+01  0.17354434667E+03  0.17120000000E+03 0.  0.
        998    1    1    2    0    0  0.55758255491E+01  0.12916925392E+02  0.13366091045E+04  0.13367205523E+04  0.10000000000E+02 0. -1.
</event>
<event>
 5    1  0.9123258E-009  0.3821858E+03  0.7957747E-01  0.3441696E+00
         13   -1    0    0    0    0  0.00000000000E+00  0.00000000000E+00  0.14999999963E+04  0.15000000000E+04  0.10566000000E+00 0.  1.
        994   -1    0    0    0    0 -0.00000000000E+00 -0.00000000000E+00  0.11368683772E-12  0.17120000000E+03  0.17120000000E+03 0.  0.
         13    1    1    2    0    0 -0.21283231663E+02 -0.12215268482E+02  0.12306747289E+03  0.12549024975E+03  0.10566000000E+00 0.  1.
        994    1    1    2    0    0  0.26584040150E+01 -0.37574258608E+02  0.77573865933E+01  0.17546654686E+03  0.17120000000E+03 0.  0.
        998    1    1    2    0    0  0.18624827648E+02  0.49789527089E+02  0.13691751368E+04  0.13702432034E+04  0.10000000000E+02 0.  1.
</event>
<event>
 5    1  0.9123258E-009  0.3727624E+03  0.7957747E-01  0.3483291E+00
         13   -1    0    0    0    0  0.00000000000E+00  0.00000000000E+00  0.14999999963E+04  0.15000000000E+04  0.10566000000E+00 0. -1.
        994   -1    0    0    0    0 -0.00000000000E+00 -0.00000000000E+00  0.11368683772E-12  0.17120000000E+03  0.17120000000E+03 0.  0.
         13    1    1    2    0    0  0.24166250933E+01 -0.37044318746E+02  0.14717617448E+03  0.15178589897E+03  0.10566000000E+00 0. -1.
        994    1    1    2    0    0  0.75675739205E+02 -0.74090985433E+02  0.47282949106E+02  0.20678831907E+03  0.17120000000E+03 0.  0.
        998    1    1    2    0    0 -0.78092364298E+02  0.11113530418E+03  0.13055408727E+04  0.13126257820E+04  0.10000000000E+02 0. -1.
</event>
<event>
 5    1  0.9123258E-009  0.3856628E+03  0.7957747E-01  0.3426866E+00
         13   -1    0    0    0    0  0.00000000000E+00  0.00000000000E+00  0.14999999963E+04  0.15000000000E+04  0.10566000000E+00 0. -1.
        994   -1    0    0    0    0 -0.00000000000E+00 -0.00000000000E+00  0.11368683772E-12  0.17120000000E+03  0.17120000000E+03 0.  0.
         13    1    1    2    0    0  0.12565598062E+02 -0.19616441294E+01  0.62685993167E+02  0.63963170698E+02  0.10566000000E+00 0. -1.
        994    1    1    2    0    0 -0.76442510356E+01  0.42747430816E+01  0.15532159865E+01  0.17143092044E+03  0.17120000000E+03 0.  0.
        998    1    1    2    0    0 -0.49213470263E+01 -0.23130989522E+01  0.14357607871E+04  0.14358059089E+04  0.10000000000E+02 0. -1.
</event>
<event>
 5    1  0.9123258E-009  0.3857770E+03  0.7957747E-01  0.3426383E+00
         13   -1    0    0    0    0  0.00000000000E+00  0.00000000000E+00  0.14999999963E+04  0.15000000000E+04  0.10566000000E+00 0. -1.
        994   -1    0    0    0    0 -0.00000000000E+00 -0.00000000000E+00  0.11368683772E-12  0.17120000000E+03  0.17120000000E+03 0.  0.
         13    1    1    2    0    0  0.69880964479E+01 -0.83240077947E+01  0.45791260623E+02  0.47063502964E+02  0.10566000000E+00 0. -1.
        994    1    1    2    0    0 -0.64644974888E+01  0.13562100938E+02  0.19856452735E+01  0.17186943619E+03  0.17120000000E+03 0.  0.
        998    1    1    2    0    0 -0.52359895913E+00 -0.52380931434E+01  0.14522230904E+04  0.14522670608E+04  0.10000000000E+02 0. -1.
</event>
<event>
 5    1  0.9123258E-009  0.3777945E+03  0.7957747E-01  0.3460818E+00
         13   -1    0    0    0    0  0.00000000000E+00  0.00000000000E+00  0.14999999963E+04  0.15000000000E+04  0.10566000000E+00 0. -1.
        994   -1    0    0    0    0 -0.00000000000E+00 -0.00000000000E+00  0.11368683772E-12  0.17120000000E+03  0.17120000000E+03 0.  0.
         13    1    1    2    0    0 -0.35089532917E+02 -0.32371098546E+01  0.11599218573E+03  0.12122686383E+03  0.10566000000E+00 0. -1.
        994    1    1    2    0    0  0.28502827102E+02 -0.49597615608E+02  0.16350457464E+02  0.18124324011E+03  0.17120000000E+03 0.  0.
        998    1    1    2    0    0  0.65867058143E+01  0.52834725463E+02  0.13676573531E+04  0.13687298961E+04  0.10000000000E+02 0. -1.
</event>
<event>
 5    1  0.9123258E-009  0.3845361E+03  0.7957747E-01  0.3431642E+00
         13   -1    0    0    0    0  0.00000000000E+00  0.00000000000E+00  0.14999999963E+04  0.15000000000E+04  0.10566000000E+00 0. -1.
        994   -1    0    0    0    0 -0.00000000000E+00 -0.00000000000E+00  0.11368683772E-12  0.17120000000E+03  0.17120000000E+03 0.  0.
         13    1    1    2    0    0  0.10737783014E+02  0.10039586945E+02  0.55762540978E+02  0.57667715669E+02  0.10566000000E+00 0. -1.
        994    1    1    2    0    0 -0.99162194097E+01 -0.13351639557E+02  0.27721574341E+01  0.17202826088E+03  0.17120000000E+03 0.  0.
        998    1    1    2    0    0 -0.82156360402E+00  0.33120526121E+01  0.14414652979E+04  0.14415040234E+04  0.10000000000E+02 0.  0.
</event>
<event>
 5    1  0.9123258E-009  0.3843034E+03  0.7957747E-01  0.3432632E+00
         13   -1    0    0    0    0  0.00000000000E+00  0.00000000000E+00  0.14999999963E+04  0.15000000000E+04  0.10566000000E+00 0.  1.
        994   -1    0    0    0    0 -0.00000000000E+00 -0.00000000000E+00  0.11368683772E-12  0.17120000000E+03  0.17120000000E+03 0.  0.
         13    1    1    2    0    0  0.12524962353E+01 -0.19428439408E+02  0.92591607176E+02  0.94616329923E+02  0.10566000000E+00 0.  1.
        994    1    1    2    0    0  0.34679318636E+01  0.17275965872E+02  0.30004590094E+01  0.17213055598E+03  0.17120000000E+03 0.  0.
        998    1    1    2    0    0 -0.47204280989E+01  0.21524735354E+01  0.14044079301E+04  0.14044531141E+04  0.10000000000E+02 0.  1.
</event>
<event>
 5    1  0.9123258E-009  0.3714655E+03  0.7957747E-01  0.3489183E+00
         13   -1    0    0    0    0  0.00000000000E+00  0.00000000000E+00  0.14999999963E+04  0.15000000000E+04  0.10566000000E+00 0.  1.
        994   -1    0    0    0    0 -0.00000000000E+00 -0.00000000000E+00  0.11368683772E-12  0.17120000000E+03  0.17120000000E+03 0.  0.
         13    1    1    2    0    0  0.18176106644E+02 -0.79283810154E+01  0.19155655661E+02  0.27571368955E+02  0.10566000000E+00 0.  1.
        994    1    1    2    0    0 -0.18567948101E+02  0.10066662216E+02  0.10041280619E+02  0.17278996991E+03  0.17120000000E+03 0.  0.
        998    1    1    2    0    0  0.39184145679E+00 -0.21382812005E+01  0.14708030600E+04  0.14708386611E+04  0.10000000000E+02 0.  1.
</event>
<event>
 5    1  0.9123258E-009  0.4351853E+03  0.7957747E-01  0.3241237E+00
         13   -1    0    0    0    0  0.00000000000E+00  0.00000000000E+00  0.14999999963E+04  0.15000000000E+04  0.10566000000E+00 0. -1.
        994   -1    0    0    0    0 -0.00000000000E+00 -0.00000000000E+00  0.11368683772E-12  0.17120000000E+03  0.17120000000E+03 0.  0.
         13    1    1    2    0    0 -0.12805133565E+03 -0.47886037181E+01  0.19848036344E+03  0.23625101296E+03  0.10566000000E+00 0. -1.
        994    1    1    2    0    0  0.92128183718E+01 -0.76175399396E+02  0.78344527748E+02  0.20330979446E+03  0.17120000000E+03 0.  0.
        998    1    1    2    0    0  0.11883851728E+03  0.80964003114E+02  0.12231751051E+04  0.12316391926E+04  0.10000000000E+02 0. -1.
</event>
<event>
 5    1  0.9123258E-009  0.3851770E+03  0.7957747E-01  0.3428922E+00
         13   -1    0    0    0    0  0.00000000000E+00  0.00000000000E+00  0.14999999963E+04  0.15000000000E+04  0.10566000000E+00 0.  1.
        994   -1    0    0    0    0 -0.00000000000E+00 -0.00000000000E+00  0.11368683772E-12  0.17120000000E+03  0.17120000000E+03 0.  0.
         13    1    1    2    0    0  0.38162641501E+01  0.17724794299E+02  0.10502115959E+03  0.10657479688E+03  0.10566000000E+00 0.  1.
        994    1    1    2    0    0 -0.80725182284E+01 -0.12162831876E+02  0.22430272345E+01  0.17183588450E+03  0.17120000000E+03 0.  0.
        998    1    1    2    0    0  0.42562540784E+01 -0.55619624237E+01  0.13927358095E+04  0.13927893186E+04  0.10000000000E+02 0.  1.
</event>
<event>
 5    1  0.9123258E-009  0.3756091E+03  0.7957747E-01  0.3470503E+00
         13   -1    0    0    0    0  0.00000000000E+00  0.00000000000E+00  0.14999999963E+04  0.15000000000E+04  0.10566000000E+00 0. -1.
        994   -1    0    0    0    0 -0.00000000000E+00 -0.00000000000E+00  0.11368683772E-12  0.17120000000E+03  0.17120000000E+03 0.  0.
         13    1    1    2    0    0 -0.34096034699E+02  0.29089569337E+02  0.65380939905E+02  0.79268033238E+02  0.10566000000E+00 0. -1.
        994    1    1    2    0    0  0.28464616992E+02 -0.27047442819E+02  0.19454402304E+02  0.17671930385E+03  0.17120000000E+03 0.  0.
        998    1    1    2    0    0  0.56314177066E+01 -0.20421265187E+01  0.14151646541E+04  0.14152126629E+04  0.10000000000E+02 0. -1.
</event>
<event>
 5    1  0.9123258E-009  0.3851364E+03  0.7957747E-01  0.3429094E+00
         13   -1    0    0    0    0  0.00000000000E+00  0.00000000000E+00  0.14999999963E+04  0.15000000000E+04  0.10566000000E+00 0. -1.
        994   -1    0    0    0    0 -0.00000000000E+00 -0.00000000000E+00  0.11368683772E-12  0.17120000000E+03  0.17120000000E+03 0.  0.
         13    1    1    2    0    0  0.45189211548E-01 -0.17262454943E+02  0.96834453344E+02  0.98361155499E+02  0.10566000000E+00 0. -1.
        994    1    1    2    0    0 -0.16169121332E+00  0.93469336202E+01  0.18497582882E+01  0.17146501952E+03  0.17120000000E+03 0.  0.
        998    1    1    2    0    0  0.11650200177E+00  0.79155213226E+01  0.14013157846E+04  0.14013738250E+04  0.10000000000E+02 0. -1.
</event>
<event>
 5    1  0.9123258E-009  0.3829188E+03  0.7957747E-01  0.3438547E+00
         13   -1    0    0    0    0  0.00000000000E+00  0.00000000000E+00  0.14999999963E+04  0.15000000000E+04  0.10566000000E+00 0.  1.
        994   -1    0    0    0    0 -0.00000000000E+00 -0.00000000000E+00  0.11368683772E-12  0.17120000000E+03  0.17120000000E+03 0.  0.
         13    1    1    2    0    0  0.40499569614E+01 -0.27056971729E+02  0.13073417027E+03  0.13356614957E+03  0.10566000000E+00 0.  1.
        994    1    1    2    0    0 -0.75604649030E+01  0.24827258395E+02  0.49002642823E+01  0.17322530410E+03  0.17120000000E+03 0.  0.
        998    1    1    2    0    0  0.35105079417E+01  0.22297133336E+01  0.13643655617E+04  0.13644085463E+04  0.10000000000E+02 0.  1.
</event>
<event>
 5    1  0.9123258E-009  0.3823805E+03  0.7957747E-01  0.3440858E+00
         13   -1    0    0    0    0  0.00000000000E+00  0.00000000000E+00  0.14999999963E+04  0.15000000000E+04  0.10566000000E+00 0. -1.
        994   -1    0    0    0    0 -0.00000000000E+00 -0.00000000000E+00  0.11368683772E-12  0.17120000000E+03  0.17120000000E+03 0.  0.
         13    1    1    2    0    0 -0.25895273784E+01 -0.15027358720E+02  0.41083160939E+02  0.43821962974E+02  0.10566000000E+00 0. -1.
        994    1    1    2    0    0  0.40609534964E+02 -0.11934767589E+02  0.89014923301E+01  0.17657930109E+03  0.17120000000E+03 0.  0.
        998    1    1    2    0    0 -0.38020007586E+02  0.26962126309E+02  0.14500153430E+04  0.14507987359E+04  0.10000000000E+02 0. -1.
</event>
<event>
 5    1  0.9123258E-009  0.3783456E+03  0.7957747E-01  0.3458394E+00
         13   -1    0    0    0    0  0.00000000000E+00  0.00000000000E+00  0.14999999963E+04  0.15000000000E+04  0.10566000000E+00 0.  1.
        994   -1    0    0    0    0 -0.00000000000E+00 -0.00000000000E+00  0.11368683772E-12  0.17120000000E+03  0.17120000000E+03 0.  0.
         13    1    1    2    0    0 -0.12818812985E+02 -0.16935663401E+02  0.45073429363E+02  0.49827340485E+02  0.10566000000E+00 0.  1.
        994    1    1    2    0    0  0.42048813606E+01  0.71263362627E+00  0.50317523334E+01  0.17132701890E+03  0.17120000000E+03 0.  0.
        998    1    1    2    0    0  0.86139316240E+01  0.16223029775E+02  0.14498948146E+04  0.14500456406E+04  0.10000000000E+02 0.  1.
</event>
<event>
 5    1  0.9123258E-009  0.3845134E+03  0.7957747E-01  0.3431738E+00
         13   -1    0    0    0    0  0.00000000000E+00  0.00000000000E+00  0.14999999963E+04  0.15000000000E+04  0.10566000000E+00 0. -1.
        994   -1    0    0    0    0 -0.00000000000E+00 -0.00000000000E+00  0.11368683772E-12  0.17120000000E+03  0.17120000000E+03 0.  0.
         13    1    1    2    0    0  0.10834261285E+02  0.16822201604E+02  0.11082945194E+03  0.11262125139E+03  0.10566000000E+00 0. -1.
        994    1    1    2    0    0 -0.27511522640E+01 -0.74575538068E+01  0.20800581893E+01  0.17139705537E+03  0.17120000000E+03 0.  0.
        998    1    1    2    0    0 -0.80831090207E+01 -0.93646477968E+01  0.13870904862E+04  0.13871816932E+04  0.10000000000E+02 0. -1.
</event>
<event>
 5    1  0.9180193E-009  0.3861347E+03  0.7957747E-01  0.3424874E+00
         13   -1    0    0    0    0  0.00000000000E+00  0.00000000000E+00  0.14999999963E+04  0.15000000000E+04  0.10566000000E+00 0. -1.
        994   -1    0    0    0    0 -0.00000000000E+00 -0.00000000000E+00  0.11368683772E-12  0.17120000000E+03  0.17120000000E+03 0.  0.
         13    1    1    2    0    0  0.65595186408E+01  0.80174261986E+01  0.51586881649E+02  0.52616764723E+02  0.10566000000E+00 0. -1.
        994    1    1    2    0    0 -0.22807313371E+01 -0.48664168367E+01  0.11624628853E+01  0.17128828059E+03  0.17120000000E+03 0.  0.
        998    1    1    2    0    0 -0.42787873037E+01 -0.31510093619E+01  0.14472506517E+04  0.14472949547E+04  0.10000000000E+02 0. -1.
</event>
<event>
 5    1  0.9123258E-009  0.3708592E+03  0.7957747E-01  0.3491951E+00
         13   -1    0    0    0    0  0.00000000000E+00  0.00000000000E+00  0.14999999963E+04  0.15000000000E+04  0.10566000000E+00 0. -1.
        994   -1    0    0    0    0 -0.00000000000E+00 -0.00000000000E+00  0.11368683772E-12  0.17120000000E+03  0.17120000000E+03 0.  0.
         13    1    1    2    0    0  0.38189338030E+02  0.20473367904E+02  0.12772448448E+03  0.13487453218E+03  0.10566000000E+00 0. -1.
        994    1    1    2    0    0  0.17321413731E+02  0.14989663090E+02  0.10631686541E+02  0.17305257621E+03  0.17120000000E+03 0.  0.
        998    1    1    2    0    0 -0.55510751761E+02 -0.35463030994E+02  0.13616438253E+04  0.13632728916E+04  0.10000000000E+02 0. -1.
</event>
<event>
 5    1  0.9123258E-009  0.3846028E+03  0.7957747E-01  0.3431359E+00
         13   -1    0    0    0    0  0.00000000000E+00  0.00000000000E+00  0.14999999963E+04  0.15000000000E+04  0.10566000000E+00 0. -1.
        994   -1    0    0    0    0 -0.00000000000E+00 -0.00000000000E+00  0.11368683772E-12  0.17120000000E+03  0.17120000000E+03 0.  0.
         13    1    1    2    0    0  0.72203489516E+01  0.78362622215E+01  0.30636552081E+02  0.32436860699E+02  0.10566000000E+00 0. -1.
        994    1    1    2    0    0 -0.96688621436E-01 -0.10339766900E+02  0.21796443887E+01  0.17152583181E+03  0.17120000000E+03 0.  0.
        998    1    1    2    0    0 -0.71236603301E+01  0.25035046782E+01  0.14671837998E+04  0.14672373075E+04  0.10000000000E+02 0. -1.
</event>
<event>
 5    1  0.9123258E-009  0.3801840E+03  0.7957747E-01  0.3450358E+00
         13   -1    0    0    0    0  0.00000000000E+00  0.00000000000E+00  0.14999999963E+04  0.15000000000E+04  0.10566000000E+00 0.  1.
        994   -1    0    0    0    0 -0.00000000000E+00 -0.00000000000E+00  0.11368683772E-12  0.17120000000E+03  0.17120000000E+03 0.  0.
         13    1    1    2    0    0  0.17385797207E+02 -0.47399948046E+01  0.37753574087E+02  0.41833921829E+02  0.10566000000E+00 0.  1.
        994    1    1    2    0    0 -0.17940970678E+02  0.60324324766E+01  0.52381376270E+01  0.17232279813E+03  0.17120000000E+03 0.  0.
        998    1    1    2    0    0  0.55517347126E+00 -0.12924376720E+01  0.14570082846E+04  0.14570432800E+04  0.10000000000E+02 0.  1.
</event>
<event>
 5    1  0.9123258E-009  0.3696824E+03  0.7957747E-01  0.3497352E+00
         13   -1    0    0    0    0  0.00000000000E+00  0.00000000000E+00  0.14999999963E+04  0.15000000000E+04  0.10566000000E+00 0. -1.
        994   -1    0    0    0    0 -0.00000000000E+00 -0.00000000000E+00  0.11368683772E-12  0.17120000000E+03  0.17120000000E+03 0.  0.
         13    1    1    2    0    0 -0.24560546706E+02  0.17251854301E+02  0.34247352745E+02  0.45538327433E+02  0.10566000000E+00 0. -1.
        994    1    1    2    0    0  0.30939005248E+02 -0.52336677912E+02  0.23792838406E+02  0.18322633288E+03  0.17120000000E+03 0.  0.
        998    1    1    2    0    0 -0.63784585420E+01  0.35084823611E+02  0.14419598051E+04  0.14424353397E+04  0.10000000000E+02 0. -1.
</event>
<event>
 5    1  0.9123258E-009  0.3706434E+03  0.7957747E-01  0.3492939E+00
         13   -1    0    0    0    0  0.00000000000E+00  0.00000000000E+00  0.14999999963E+04  0.15000000000E+04  0.10566000000E+00 0.  1.
        994   -1    0    0    0    0 -0.00000000000E+00 -0.00000000000E+00  0.11368683772E-12  0.17120000000E+03  0.17120000000E+03 0.  0.
         13    1    1    2    0    0 -0.92271760294E+02 -0.60531439670E+02  0.40807778335E+03  0.42273587660E+03  0.10566000000E+00 0.  1.
        994    1    1    2    0    0  0.10484647199E+03  0.76586005973E+02  0.69554141643E+02  0.22584379031E+03  0.17120000000E+03 0.  0.
        998    1    1    2    0    0 -0.12574711698E+02 -0.16054566304E+02  0.10223680713E+04  0.10226203331E+04  0.10000000000E+02 0.  1.
</event>
<event>
 5    1  0.9123258E-009  0.3769999E+03  0.7957747E-01  0.3464327E+00
         13   -1    0    0    0    0  0.00000000000E+00  0.00000000000E+00  0.14999999963E+04  0.15000000000E+04  0.10566000000E+00 0. -1.
        994   -1    0    0    0    0 -0.00000000000E+00 -0.00000000000E+00  0.11368683772E-12  0.17120000000E+03  0.17120000000E+03 0.  0.
         13    1    1    2    0    0  0.76600677824E+01  0.22841226079E+02  0.48828581573E+02  0.54448505854E+02  0.10566000000E+00 0. -1.
        994    1    1    2    0    0 -0.13809334030E+02 -0.13929019316E+02  0.69553634259E+01  0.17246023416E+03  0.17120000000E+03 0.  0.
        998    1    1    2    0    0  0.61492662474E+01 -0.89122067633E+01  0.14442160513E+04  0.14442912600E+04  0.10000000000E+02 0. -1.
</event>
<event>
 5    1  0.9123258E-009  0.3851540E+03  0.7957747E-01  0.3429019E+00
         13   -1    0    0    0    0  0.00000000000E+00  0.00000000000E+00  0.14999999963E+04  0.15000000000E+04  0.10566000000E+00 0.  1.
        994   -1    0    0    0    0 -0.00000000000E+00 -0.00000000000E+00  0.11368683772E-12  0.17120000000E+03  0.17120000000E+03 0.  0.
         13    1    1    2    0    0 -0.94180267628E+01 -0.96690613775E+01  0.57042254604E+02  0.58617573733E+02  0.10566000000E+00 0.  1.
        994    1    1    2    0    0  0.11781786420E+02  0.76876626873E+01  0.22045032655E+01  0.17179118279E+03  0.17120000000E+03 0.  0.
        998    1    1    2    0    0 -0.23637596572E+01  0.19813986901E+01  0.14407532384E+04  0.14407912435E+04  0.10000000000E+02 0.  1.
</event>
<event>
 5    1  0.9123258E-009  0.3806537E+03  0.7957747E-01  0.3448317E+00
         13   -1    0    0    0    0  0.00000000000E+00  0.00000000000E+00  0.14999999963E+04  0.15000000000E+04  0.10566000000E+00 0. -1.
        994   -1    0    0    0    0 -0.00000000000E+00 -0.00000000000E+00  0.11368683772E-12  0.17120000000E+03  0.17120000000E+03 0.  0.
         13    1    1    2    0    0 -0.61662155372E+01  0.29114250053E+02  0.10877392818E+03  0.11277162935E+03  0.10566000000E+00 0. -1.
        994    1    1    2    0    0 -0.24721891006E+01 -0.29474232604E+02  0.67272430468E+01  0.17386643697E+03  0.17120000000E+03 0.  0.
        998    1    1    2    0    0  0.86384046378E+01  0.35998255077E+00  0.13844988251E+04  0.13845619337E+04  0.10000000000E+02 0. -1.
</event>
<event>
 5    1  0.9123258E-009  0.3845761E+03  0.7957747E-01  0.3431472E+00
         13   -1    0    0    0    0  0.00000000000E+00  0.00000000000E+00  0.14999999963E+04  0.15000000000E+04  0.10566000000E+00 0. -1.
        994   -1    0    0    0    0 -0.00000000000E+00 -0.00000000000E+00  0.11368683772E-12  0.17120000000E+03  0.17120000000E+03 0.  0.
         13    1    1    2    0    0  0.31751430991E+01 -0.18182224085E+02  0.90667205639E+02  0.92526905000E+02  0.10566000000E+00 0. -1.
        994    1    1    2    0    0  0.38738877770E+00  0.14719185796E+02  0.25550293311E+01  0.17185101884E+03  0.17120000000E+03 0.  0.
        998    1    1    2    0    0 -0.35625318768E+01  0.34630382893E+01  0.14067777613E+04  0.14068220762E+04  0.10000000000E+02 0. -1.
</event>
<event>
 5    1  0.9123258E-009  0.3770343E+03  0.7957747E-01  0.3464174E+00
         13   -1    0    0    0    0  0.00000000000E+00  0.00000000000E+00  0.14999999963E+04  0.15000000000E+04  0.10566000000E+00 0. -1.
        994   -1    0    0    0    0 -0.00000000000E+00 -0.00000000000E+00  0.11368683772E-12  0.17120000000E+03  0.17120000000E+03 0.  0.
         13    1    1    2    0    0 -0.22399341656E+02 -0.85602658467E+01  0.55228387808E+02  0.60209589285E+02  0.10566000000E+00 0. -1.
        994    1    1    2    0    0 -0.15148052518E+02 -0.15511370906E+02  0.72263190281E+01  0.17271863191E+03  0.17120000000E+03 0.  0.
        998    1    1    2    0    0  0.37547394174E+02  0.24071636752E+02  0.14375452894E+04  0.14382717788E+04  0.10000000000E+02 0. -1.
</event>
<event>
 5    1  0.9123258E-009  0.3844857E+03  0.7957747E-01  0.3431856E+00
         13   -1    0    0    0    0  0.00000000000E+00  0.00000000000E+00  0.14999999963E+04  0.15000000000E+04  0.10566000000E+00 0.  1.
        994   -1    0    0    0    0 -0.00000000000E+00 -0.00000000000E+00  0.11368683772E-12  0.17120000000E+03  0.17120000000E+03 0.  0.
         13    1    1    2    0    0 -0.63650728312E+01  0.14337156059E+02  0.65222500208E+02  0.67082441021E+02  0.10566000000E+00 0.  1.
        994    1    1    2    0    0  0.11165872760E+02 -0.57580509868E+01  0.24057758834E+01  0.17167719599E+03  0.17120000000E+03 0.  0.
        998    1    1    2    0    0 -0.48007999287E+01 -0.85791050720E+01  0.14323717202E+04  0.14324403630E+04  0.10000000000E+02 0.  1.
</event>
<event>
 5    1  0.9123258E-009  0.3776494E+03  0.7957747E-01  0.3461458E+00
         13   -1    0    0    0    0  0.00000000000E+00  0.00000000000E+00  0.14999999963E+04  0.15000000000E+04  0.10566000000E+00 0. -1.
        994   -1    0    0    0    0 -0.00000000000E+00 -0.00000000000E+00  0.11368683772E-12  0.17120000000E+03  0.17120000000E+03 0.  0.
         13    1    1    2    0    0 -0.10535225825E+03 -0.16105692691E+02  0.64434282040E+03  0.65309736871E+03  0.10566000000E+00 0. -1.
        994    1    1    2    0    0  0.10024201960E+03  0.12001669792E+02  0.40472022517E+02  0.20282979855E+03  0.17120000000E+03 0.  0.
        998    1    1    2    0    0  0.51102386477E+01  0.41040228988E+01  0.81518515337E+03  0.81527283274E+03  0.10000000000E+02 0.  0.
</event>
<event>
 5    1  0.9123258E-009  0.3792405E+03  0.7957747E-01  0.3454472E+00
         13   -1    0    0    0    0  0.00000000000E+00  0.00000000000E+00  0.14999999963E+04  0.15000000000E+04  0.10566000000E+00 0.  1.
        994   -1    0    0    0    0 -0.00000000000E+00 -0.00000000000E+00  0.11368683772E-12  0.17120000000E+03  0.17120000000E+03 0.  0.
         13    1    1    2    0    0 -0.32321411149E+02  0.63886951887E+01  0.10576339900E+03  0.11077633672E+03  0.10566000000E+00 0.  1.
        994    1    1    2    0    0  0.43346324821E+02 -0.56504672791E+00  0.10840805542E+02  0.17693554255E+03  0.17120000000E+03 0.  0.
        998    1    1    2    0    0 -0.11024913672E+02 -0.58236484608E+01  0.13833957917E+04  0.13834881207E+04  0.10000000000E+02 0.  1.
</event>
<event>
 5    1  0.9123258E-009  0.3814549E+03  0.7957747E-01  0.3444848E+00
         13   -1    0    0    0    0  0.00000000000E+00  0.00000000000E+00  0.14999999963E+04  0.15000000000E+04  0.10566000000E+00 0.  1.
        994   -1    0    0    0    0 -0.00000000000E+00 -0.00000000000E+00  0.11368683772E-12  0.17120000000E+03  0.17120000000E+03 0.  0.
         13    1    1    2    0    0 -0.84145710305E+01 -0.59158262325E+01  0.14089991403E+02  0.17445372664E+02  0.10566000000E+00 0.  1.
        994    1    1    2    0    0  0.69611672880E+01  0.45788261859E+01  0.36315265918E+01  0.17144110209E+03  0.17120000000E+03 0.  0.
        998    1    1    2    0    0  0.14534037425E+01  0.13370000466E+01  0.14822784783E+04  0.14823135252E+04  0.10000000000E+02 0.  1.
</event>
<event>
 5    1  0.9123258E-009  0.3809919E+03  0.7957747E-01  0.3446851E+00
         13   -1    0    0    0    0  0.00000000000E+00  0.00000000000E+00  0.14999999963E+04  0.15000000000E+04  0.10566000000E+00 0. -1.
        994   -1    0    0    0    0 -0.00000000000E+00 -0.00000000000E+00  0.11368683772E-12  0.17120000000E+03  0.17120000000E+03 0.  0.
         13    1    1    2    0    0 -0.29217170108E+02  0.68340464268E+00  0.11819832114E+03  0.12175781024E+03  0.10566000000E+00 0. -1.
        994    1    1    2    0    0  0.14849201755E+02 -0.18500848617E+01  0.43797443398E+01  0.17190853314E+03  0.17120000000E+03 0.  0.
        998    1    1    2    0    0  0.14367968353E+02  0.11666802191E+01  0.13774219308E+04  0.13775336566E+04  0.10000000000E+02 0. -1.
</event>
<event>
 5    1  0.9123258E-009  0.3816004E+03  0.7957747E-01  0.3444219E+00
         13   -1    0    0    0    0  0.00000000000E+00  0.00000000000E+00  0.14999999963E+04  0.15000000000E+04  0.10566000000E+00 0.  1.
        994   -1    0    0    0    0 -0.00000000000E+00 -0.00000000000E+00  0.11368683772E-12  0.17120000000E+03  0.17120000000E+03 0.  0.
         13    1    1    2    0    0  0.10743741255E+03  0.90765270059E+02  0.76313586031E+03  0.77598806970E+03  0.10566000000E+00 0.  1.
        994    1    1    2    0    0 -0.10519906843E+03 -0.15585740286E+03  0.13152729219E+03  0.28629921868E+03  0.17120000000E+03 0.  0.
        998    1    1    2    0    0 -0.22383441173E+01  0.65092132804E+02  0.60533684377E+03  0.60891271162E+03  0.10000000000E+02 0.  1.
</event>
<event>
 5    1  0.9123258E-009  0.3715512E+03  0.7957747E-01  0.3488792E+00
         13   -1    0    0    0    0  0.00000000000E+00  0.00000000000E+00  0.14999999963E+04  0.15000000000E+04  0.10566000000E+00 0. -1.
        994   -1    0    0    0    0 -0.00000000000E+00 -0.00000000000E+00  0.11368683772E-12  0.17120000000E+03  0.17120000000E+03 0.  0.
         13    1    1    2    0    0 -0.76739729185E+01 -0.34424415250E+02  0.67163886517E+02  0.75861248618E+02  0.10566000000E+00 0. -1.
        994    1    1    2    0    0  0.10249570208E+02  0.35550056569E+02  0.13182995068E+02  0.17564763469E+03  0.17120000000E+03 0.  0.
        998    1    1    2    0    0 -0.25755972896E+01 -0.11256413190E+01  0.14196531147E+04  0.14196911167E+04  0.10000000000E+02 0. -1.
</event>
<event>
 5    1  0.1123129E-008  0.3849318E+03  0.7957747E-01  0.3429961E+00
         13   -1    0    0    0    0  0.00000000000E+00  0.00000000000E+00  0.14999999963E+04  0.15000000000E+04  0.10566000000E+00 0. -1.
        994   -1    0    0    0    0 -0.00000000000E+00 -0.00000000000E+00  0.11368683772E-12  0.17120000000E+03  0.17120000000E+03 0.  0.
         13    1    1    2    0    0 -0.97603959383E+01  0.34884587442E+01  0.37750531581E+02  0.39147777356E+02  0.10566000000E+00 0. -1.
        994    1    1    2    0    0 -0.31820215837E+02 -0.13399835980E+02  0.55950500181E+01  0.17473644819E+03  0.17120000000E+03 0.  0.
        998    1    1    2    0    0  0.41580611776E+02  0.99113772363E+01  0.14566544147E+04  0.14573157745E+04  0.10000000000E+02 0. -1.
</event>
<event>
 5    1  0.9123258E-009  0.4245197E+03  0.7957747E-01  0.3277610E+00
         13   -1    0    0    0    0  0.00000000000E+00  0.00000000000E+00  0.14999999963E+04  0.15000000000E+04  0.10566000000E+00 0.  1.
        994   -1    0    0    0    0 -0.00000000000E+00 -0.00000000000E+00  0.11368683772E-12  0.17120000000E+03  0.17120000000E+03 0.  0.
         13    1    1    2    0    0  0.27626873459E+02 -0.57856714905E+02  0.38294924050E+02  0.74680358654E+02  0.10566000000E+00 0.  1.
        994    1    1    2    0    0  0.48949840030E+02  0.15692106213E+02  0.54936491843E+02  0.18700210473E+03  0.17120000000E+03 0.  0.
        998    1    1    2    0    0 -0.76576713489E+02  0.42164608692E+02  0.14067685804E+04  0.14095175366E+04  0.10000000000E+02 0.  1.
</event>
<event>
 5    1  0.9123258E-009  0.3854513E+03  0.7957747E-01  0.3427760E+00
         13   -1    0    0    0    0  0.00000000000E+00  0.00000000000E+00  0.14999999963E+04  0.15000000000E+04  0.10566000000E+00 0. -1.
        994   -1    0    0    0    0 -0.00000000000E+00 -0.00000000000E+00  0.11368683772E-12  0.17120000000E+03  0.17120000000E+03 0.  0.
         13    1    1    2    0    0  0.11947362260E+02 -0.14460263526E+01  0.49942316564E+02  0.51371943754E+02  0.10566000000E+00 0. -1.
        994    1    1    2    0    0 -0.12792471899E+02  0.10580758268E+02  0.23117810126E+01  0.17201855747E+03  0.17120000000E+03 0.  0.
        998    1    1    2    0    0  0.84510963873E+00 -0.91347319152E+01  0.14477458987E+04  0.14478094988E+04  0.10000000000E+02 0. -1.
</event>
<event>
 5    1  0.9123258E-009  0.3737553E+03  0.7957747E-01  0.3478808E+00
         13   -1    0    0    0    0  0.00000000000E+00  0.00000000000E+00  0.14999999963E+04  0.15000000000E+04  0.10566000000E+00 0.  1.
        994   -1    0    0    0    0 -0.00000000000E+00 -0.00000000000E+00  0.11368683772E-12  0.17120000000E+03  0.17120000000E+03 0.  0.
         13    1    1    2    0    0 -0.11143548774E+03 -0.12114774216E+03  0.85026973094E+03  0.86605615861E+03  0.10566000000E+00 0.  1.
        994    1    1    2    0    0  0.15908914258E+03  0.83301399826E+02  0.12687988680E+03  0.27866902263E+03  0.17120000000E+03 0.  0.
        998    1    1    2    0    0 -0.47653654838E+02  0.37846342336E+02  0.52285037854E+03  0.52647481876E+03  0.10000000000E+02 0.  1.
</event>
<event>
 5    1  0.9123258E-009  0.3752009E+03  0.7957747E-01  0.3472325E+00
         13   -1    0    0    0    0  0.00000000000E+00  0.00000000000E+00  0.14999999963E+04  0.15000000000E+04  0.10566000000E+00 0. -1.
        994   -1    0    0    0    0 -0.00000000000E+00 -0.00000000000E+00  0.11368683772E-12  0.17120000000E+03  0.17120000000E+03 0.  0.
         13    1    1    2    0    0  0.19202315304E+02  0.49109943394E+01  0.79206582087E+01  0.21344666054E+02  0.10566000000E+00 0. -1.
        994    1    1    2    0    0 -0.31228596145E+02  0.26690190309E+01  0.17221745913E+02  0.17489533273E+03  0.17120000000E+03 0.  0.
        998    1    1    2    0    0  0.12026280840E+02 -0.75800133703E+01  0.14748575922E+04  0.14749600012E+04  0.10000000000E+02 0. -1.
</event>
<event>
 5    1  0.9123258E-009  0.3819480E+03  0.7957747E-01  0.3442720E+00
         13   -1    0    0    0    0  0.00000000000E+00  0.00000000000E+00  0.14999999963E+04  0.15000000000E+04  0.10566000000E+00 0.  1.
        994   -1    0    0    0    0 -0.00000000000E+00 -0.00000000000E+00  0.11368683772E-12  0.17120000000E+03  0.17120000000E+03 0.  0.
         13    1    1    2    0    0  0.12185011261E+02 -0.12234114108E+02  0.47609294590E+02  0.50643895415E+02  0.10566000000E+00 0.  1.
        994    1    1    2    0    0  0.11849567795E+02  0.17747955811E+02  0.46671394171E+01  0.17258801923E+03  0.17120000000E+03 0.  0.
        998    1    1    2    0    0 -0.24034579057E+02 -0.55138417026E+01  0.14477235623E+04  0.14479680854E+04  0.10000000000E+02 0.  1.
</event>
<event>
 5    1  0.9123258E-009  0.3831800E+03  0.7957747E-01  0.3437428E+00
         13   -1    0    0    0    0  0.00000000000E+00  0.00000000000E+00  0.14999999963E+04  0.15000000000E+04  0.10566000000E+00 0. -1.
        994   -1    0    0    0    0 -0.00000000000E+00 -0.00000000000E+00  0.11368683772E-12  0.17120000000E+03  0.17120000000E+03 0.  0.
         13    1    1    2    0    0  0.93568187908E+01 -0.11046757846E+02  0.40869346442E+02  0.43357762390E+02  0.10566000000E+00 0. -1.
        994    1    1    2    0    0 -0.71966361987E+01  0.41012953011E+01  0.27634517004E+01  0.17142254479E+03  0.17120000000E+03 0.  0.
        998    1    1    2    0    0 -0.21601825921E+01  0.69454625449E+01  0.14563671981E+04  0.14564196928E+04  0.10000000000E+02 0. -1.
</event>
<event>
 5    1  0.9123258E-009  0.3791568E+03  0.7957747E-01  0.3454838E+00
         13   -1    0    0    0    0  0.00000000000E+00  0.00000000000E+00  0.14999999963E+04  0.15000000000E+04  0.10566000000E+00 0.  1.
        994   -1    0    0    0    0 -0.00000000000E+00 -0.00000000000E+00  0.11368683772E-12  0.17120000000E+03  0.17120000000E+03 0.  0.
         13    1    1    2    0    0  0.38496447913E+02 -0.10991321285E+02  0.20377981676E+03  0.20767525256E+03  0.10566000000E+00 0.  1.
        994    1    1    2    0    0  0.75390002242E+00  0.96929358162E+01  0.48763077765E+01  0.17154515367E+03  0.17120000000E+03 0.  0.
        998    1    1    2    0    0 -0.39250347936E+02  0.12983854688E+01  0.12913438717E+04  0.12919795938E+04  0.10000000000E+02 0.  1.
</event>
<event>
 5    1  0.9123258E-009  0.3746091E+03  0.7957747E-01  0.3474973E+00
         13   -1    0    0    0    0  0.00000000000E+00  0.00000000000E+00  0.14999999963E+04  0.15000000000E+04  0.10566000000E+00 0.  1.
        994   -1    0    0    0    0 -0.00000000000E+00 -0.00000000000E+00  0.11368683772E-12  0.17120000000E+03  0.17120000000E+03 0.  0.
         13    1    1    2    0    0 -0.25233848574E+02 -0.42007361201E+02  0.16692380479E+03  0.17396819617E+03  0.10566000000E+00 0.  1.
        994    1    1    2    0    0 -0.12245163948E+02  0.48926195041E+02  0.15587370652E+02  0.17915390793E+03  0.17120000000E+03 0.  0.
        998    1    1    2    0    0  0.37479012522E+02 -0.69188338407E+01  0.13174888208E+04  0.13180778959E+04  0.10000000000E+02 0.  1.
</event>
<event>
 5    1  0.9123258E-009  0.3749584E+03  0.7957747E-01  0.3473409E+00
         13   -1    0    0    0    0  0.00000000000E+00  0.00000000000E+00  0.14999999963E+04  0.15000000000E+04  0.10566000000E+00 0.  1.
        994   -1    0    0    0    0 -0.00000000000E+00 -0.00000000000E+00  0.11368683772E-12  0.17120000000E+03  0.17120000000E+03 0.  0.
         13    1    1    2    0    0  0.68527033927E+02  0.14911784854E+03  0.97340098638E+03  0.98713807473E+03  0.10566000000E+00 0.  1.
        994    1    1    2    0    0 -0.46638031866E+02 -0.13938405321E+03  0.84098739627E+02  0.24080086859E+03  0.17120000000E+03 0.  0.
        998    1    1    2    0    0 -0.21889002061E+02 -0.97337953320E+01  0.44250027027E+03  0.44326105669E+03  0.10000000000E+02 0.  1.
</event>
<event>
 5    1  0.9123258E-009  0.3696258E+03  0.7957747E-01  0.3497612E+00
         13   -1    0    0    0    0  0.00000000000E+00  0.00000000000E+00  0.14999999963E+04  0.15000000000E+04  0.10566000000E+00 0. -1.
        994   -1    0    0    0    0 -0.00000000000E+00 -0.00000000000E+00  0.11368683772E-12  0.17120000000E+03  0.17120000000E+03 0.  0.
         13    1    1    2    0    0 -0.27763254809E+02  0.27852841674E+01  0.31289867371E+02  0.41924015666E+02  0.10566000000E+00 0. -1.
        994    1    1    2    0    0  0.26253023358E+02 -0.99575598735E+01  0.13498525537E+02  0.17401156406E+03  0.17120000000E+03 0.  0.
        998    1    1    2    0    0  0.15102314503E+01  0.71722757061E+01  0.14552116034E+04  0.14552644203E+04  0.10000000000E+02 0. -1.
</event>
<event>
 5    1  0.9123258E-009  0.3863091E+03  0.7957747E-01  0.3424139E+00
         13   -1    0    0    0    0  0.00000000000E+00  0.00000000000E+00  0.14999999963E+04  0.15000000000E+04  0.10566000000E+00 0. -1.
        994   -1    0    0    0    0 -0.00000000000E+00 -0.00000000000E+00  0.11368683772E-12  0.17120000000E+03  0.17120000000E+03 0.  0.
         13    1    1    2    0    0 -0.10444180385E+02 -0.18590732391E+01  0.55827365397E+02  0.56826428256E+02  0.10566000000E+00 0. -1.
        994    1    1    2    0    0  0.98632822029E+01  0.22714081738E+02  0.29922885415E+01  0.17300753636E+03  0.17120000000E+03 0.  0.
        998    1    1    2    0    0  0.58089818166E+00 -0.20855008499E+02  0.14411803423E+04  0.14413660354E+04  0.10000000000E+02 0. -1.
</event>
<event>
 5    1  0.9123258E-009  0.4107078E+03  0.7957747E-01  0.3327460E+00
         13   -1    0    0    0    0  0.00000000000E+00  0.00000000000E+00  0.14999999963E+04  0.15000000000E+04  0.10566000000E+00 0. -1.
        994   -1    0    0    0    0 -0.00000000000E+00 -0.00000000000E+00  0.11368683772E-12  0.17120000000E+03  0.17120000000E+03 0.  0.
         13    1    1    2    0    0 -0.84290201819E+02 -0.66339971217E+02  0.15042855528E+03  0.18475549061E+03  0.10566000000E+00 0. -1.
        994    1    1    2    0    0  0.72258039808E+02  0.54791957445E+02  0.68893446552E+02  0.20561889479E+03  0.17120000000E+03 0.  0.
        998    1    1    2    0    0  0.12032162011E+02  0.11548013771E+02  0.12806779944E+04  0.12808256146E+04  0.10000000000E+02 0. -1.
</event>
<event>
 5    1  0.9123258E-009  0.3832529E+03  0.7957747E-01  0.3437116E+00
         13   -1    0    0    0    0  0.00000000000E+00  0.00000000000E+00  0.14999999963E+04  0.15000000000E+04  0.10566000000E+00 0. -1.
        994   -1    0    0    0    0 -0.00000000000E+00 -0.00000000000E+00  0.11368683772E-12  0.17120000000E+03  0.17120000000E+03 0.  0.
         13    1    1    2    0    0  0.20136622530E+02  0.15535110724E+02  0.12404795267E+03  0.12662831025E+03  0.10566000000E+00 0. -1.
        994    1    1    2    0    0 -0.17079964999E+02 -0.11553453876E+02  0.39076197441E+01  0.17248164248E+03  0.17120000000E+03 0.  0.
        998    1    1    2    0    0 -0.30566575309E+01 -0.39816568481E+01  0.13720444239E+04  0.13720900473E+04  0.10000000000E+02 0. -1.
</event>
<event>
 5    1  0.9123258E-009  0.3812994E+03  0.7957747E-01  0.3445520E+00
         13   -1    0    0    0    0  0.00000000000E+00  0.00000000000E+00  0.14999999963E+04  0.15000000000E+04  0.10566000000E+00 0.  1.
        994   -1    0    0    0    0 -0.00000000000E+00 -0.00000000000E+00  0.11368683772E-12  0.17120000000E+03  0.17120000000E+03 0.  0.
         13    1    1    2    0    0 -0.21865336724E+02 -0.21688133906E+02  0.14777957585E+03  0.15095457033E+03  0.10566000000E+00 0.  1.
        994    1    1    2    0    0  0.75050633236E+01  0.23858574012E-01  0.36661500993E+01  0.17140363824E+03  0.17120000000E+03 0.  0.
        998    1    1    2    0    0  0.14360273400E+02  0.21664275332E+02  0.13485542703E+04  0.13488417914E+04  0.10000000000E+02 0.  1.
</event>
<event>
 5    1  0.9123258E-009  0.3842009E+03  0.7957747E-01  0.3433068E+00
         13   -1    0    0    0    0  0.00000000000E+00  0.00000000000E+00  0.14999999963E+04  0.15000000000E+04  0.10566000000E+00 0.  1.
        994   -1    0    0    0    0 -0.00000000000E+00 -0.00000000000E+00  0.11368683772E-12  0.17120000000E+03  0.17120000000E+03 0.  0.
         13    1    1    2    0    0 -0.11890054989E+02  0.43029901282E+01  0.39470655706E+02  0.41446748456E+02  0.10566000000E+00 0.  1.
        994    1    1    2    0    0  0.72421390281E+01  0.30335583022E+01  0.22307141320E+01  0.17139447815E+03  0.17120000000E+03 0.  0.
        998    1    1    2    0    0  0.46479159610E+01 -0.73365484304E+01  0.14582986264E+04  0.14583587734E+04  0.10000000000E+02 0.  1.
</event>
<event>
 5    1  0.9123258E-009  0.3842081E+03  0.7957747E-01  0.3433038E+00
         13   -1    0    0    0    0  0.00000000000E+00  0.00000000000E+00  0.14999999963E+04  0.15000000000E+04  0.10566000000E+00 0.  1.
        994   -1    0    0    0    0 -0.00000000000E+00 -0.00000000000E+00  0.11368683772E-12  0.17120000000E+03  0.17120000000E+03 0.  0.
         13    1    1    2    0    0 -0.18178899480E+02  0.73563765623E+01  0.79895031737E+02  0.82266736429E+02  0.10566000000E+00 0.  1.
        994    1    1    2    0    0  0.33359934645E+02 -0.24524094943E+02  0.76967090703E+01  0.17630370332E+03  0.17120000000E+03 0.  0.
        998    1    1    2    0    0 -0.15181035165E+02  0.17167718381E+02  0.14124082555E+04  0.14126295603E+04  0.10000000000E+02 0.  1.
</event>
<event>
 5    1  0.9123258E-009  0.3724810E+03  0.7957747E-01  0.3484566E+00
         13   -1    0    0    0    0  0.00000000000E+00  0.00000000000E+00  0.14999999963E+04  0.15000000000E+04  0.10566000000E+00 0. -1.
        994   -1    0    0    0    0 -0.00000000000E+00 -0.00000000000E+00  0.11368683772E-12  0.17120000000E+03  0.17120000000E+03 0.  0.
         13    1    1    2    0    0 -0.12884099797E+02 -0.89825596563E+01  0.44024463845E+01  0.16311931331E+02  0.10566000000E+00 0. -1.
        994    1    1    2    0    0 -0.29640274953E+00  0.30884013296E+02  0.15628215737E+02  0.17466422432E+03  0.17120000000E+03 0.  0.
        998    1    1    2    0    0  0.13180502547E+02 -0.21901453640E+02  0.14799693342E+04  0.14802238443E+04  0.10000000000E+02 0. -1.
</event>
<event>
 5    1  0.9123258E-009  0.3790113E+03  0.7957747E-01  0.3455475E+00
         13   -1    0    0    0    0  0.00000000000E+00  0.00000000000E+00  0.14999999963E+04  0.15000000000E+04  0.10566000000E+00 0.  1.
        994   -1    0    0    0    0 -0.00000000000E+00 -0.00000000000E+00  0.11368683772E-12  0.17120000000E+03  0.17120000000E+03 0.  0.
         13    1    1    2    0    0 -0.46145364874E+02 -0.89224144785E+01  0.22183483114E+03  0.22675914017E+03  0.10566000000E+00 0.  1.
        994    1    1    2    0    0  0.32477572141E+02  0.22809381171E+02  0.99337945871E+01  0.17602039892E+03  0.17120000000E+03 0.  0.
        998    1    1    2    0    0  0.13667792733E+02 -0.13886966692E+02  0.12682313706E+04  0.12684204609E+04  0.10000000000E+02 0.  1.
</event>
<event>
 5    1  0.9123258E-009  0.3839804E+03  0.7957747E-01  0.3434008E+00
         13   -1    0    0    0    0  0.00000000000E+00  0.00000000000E+00  0.14999999963E+04  0.15000000000E+04  0.10566000000E+00 0.  1.
        994   -1    0    0    0    0 -0.00000000000E+00 -0.00000000000E+00  0.11368683772E-12  0.17120000000E+03  0.17120000000E+03 0.  0.
         13    1    1    2    0    0  0.11367258834E+02 -0.57910283006E+01  0.40166138530E+02  0.42143569268E+02  0.10566000000E+00 0.  1.
        994    1    1    2    0    0  0.47292831956E+01 -0.48356192613E+01  0.22881828051E+01  0.17134884042E+03  0.17120000000E+03 0.  0.
        998    1    1    2    0    0 -0.16096542029E+02  0.10626647562E+02  0.14575456749E+04  0.14577075903E+04  0.10000000000E+02 0.  1.
</event>
<event>
 5    1  0.9123258E-009  0.3787915E+03  0.7957747E-01  0.3456437E+00
         13   -1    0    0    0    0  0.00000000000E+00  0.00000000000E+00  0.14999999963E+04  0.15000000000E+04  0.10566000000E+00 0.  1.
        994   -1    0    0    0    0 -0.00000000000E+00 -0.00000000000E+00  0.11368683772E-12  0.17120000000E+03  0.17120000000E+03 0.  0.
         13    1    1    2    0    0 -0.15502043427E+02  0.50910815377E+02  0.25664063655E+03  0.26210046159E+03  0.10566000000E+00 0.  1.
        994    1    1    2    0    0  0.75310766341E+00 -0.51299934680E+02  0.13630377145E+02  0.17924139491E+03  0.17120000000E+03 0.  0.
        998    1    1    2    0    0  0.14748935764E+02  0.38911930374E+00  0.12297289826E+04  0.12298581435E+04  0.10000000000E+02 0.  1.
</event>
<event>
 5    1  0.9123258E-009  0.3754773E+03  0.7957747E-01  0.3471091E+00
         13   -1    0    0    0    0  0.00000000000E+00  0.00000000000E+00  0.14999999963E+04  0.15000000000E+04  0.10566000000E+00 0.  1.
        994   -1    0    0    0    0 -0.00000000000E+00 -0.00000000000E+00  0.11368683772E-12  0.17120000000E+03  0.17120000000E+03 0.  0.
         13    1    1    2    0    0 -0.30943432917E+02  0.57583811324E+02  0.26093981496E+03  0.26900369805E+03  0.10566000000E+00 0.  1.
        994    1    1    2    0    0  0.35244507251E+02 -0.62466787534E+02  0.24097216739E+02  0.18717475976E+03  0.17120000000E+03 0.  0.
        998    1    1    2    0    0 -0.43010743333E+01  0.48829762105E+01  0.12149629646E+04  0.12150215422E+04  0.10000000000E+02 0.  1.
</event>
<event>
 5    1  0.9123258E-009  0.3760894E+03  0.7957747E-01  0.3468365E+00
         13   -1    0    0    0    0  0.00000000000E+00  0.00000000000E+00  0.14999999963E+04  0.15000000000E+04  0.10566000000E+00 0. -1.
        994   -1    0    0    0    0 -0.00000000000E+00 -0.00000000000E+00  0.11368683772E-12  0.17120000000E+03  0.17120000000E+03 0.  0.
         13    1    1    2    0    0 -0.14986322929E+02 -0.52498774748E+02  0.22682824643E+03  0.23330618459E+03  0.10566000000E+00 0. -1.
        994    1    1    2    0    0 -0.13439918780E+02  0.47162414627E+02  0.14309065601E+02  0.17865921227E+03  0.17120000000E+03 0.  0.
        998    1    1    2    0    0  0.28426241709E+02  0.53363601208E+01  0.12588626843E+04  0.12592346031E+04  0.10000000000E+02 0. -1.
</event>
<event>
 5    1  0.9123258E-009  0.3900951E+03  0.7957747E-01  0.3408346E+00
         13   -1    0    0    0    0  0.00000000000E+00  0.00000000000E+00  0.14999999963E+04  0.15000000000E+04  0.10566000000E+00 0. -1.
        994   -1    0    0    0    0 -0.00000000000E+00 -0.00000000000E+00  0.11368683772E-12  0.17120000000E+03  0.17120000000E+03 0.  0.
         13    1    1    2    0    0  0.51775284052E+02 -0.36406586079E+02  0.83385666676E+02  0.10468667594E+03  0.10566000000E+00 0. -1.
        994    1    1    2    0    0 -0.24379217014E+02  0.46267995086E+02  0.32353316024E+02  0.18191000701E+03  0.17120000000E+03 0.  0.
        998    1    1    2    0    0 -0.27396067039E+02 -0.98614090072E+01  0.13842610136E+04  0.13846033171E+04  0.10000000000E+02 0. -1.
</event>
<event>
 5    1  0.9123258E-009  0.3822820E+03  0.7957747E-01  0.3441282E+00
         13   -1    0    0    0    0  0.00000000000E+00  0.00000000000E+00  0.14999999963E+04  0.15000000000E+04  0.10566000000E+00 0.  1.
        994   -1    0    0    0    0 -0.00000000000E+00 -0.00000000000E+00  0.11368683772E-12  0.17120000000E+03  0.17120000000E+03 0.  0.
         13    1    1    2    0    0  0.73727087852E+01  0.11421367146E+02  0.29853246761E+02  0.32802926219E+02  0.10566000000E+00 0.  1.
        994    1    1    2    0    0 -0.82606812880E+01 -0.58770607943E+01  0.33266798397E+01  0.17153217045E+03  0.17120000000E+03 0.  0.
        998    1    1    2    0    0  0.88797250279E+00 -0.55443063518E+01  0.14668200697E+04  0.14668649033E+04  0.10000000000E+02 0.  1.
</event>
<event>
 5    1  0.9123258E-009  0.3779222E+03  0.7957747E-01  0.3460256E+00
         13   -1    0    0    0    0  0.00000000000E+00  0.00000000000E+00  0.14999999963E+04  0.15000000000E+04  0.10566000000E+00 0.  1.
        994   -1    0    0    0    0 -0.00000000000E+00 -0.00000000000E+00  0.11368683772E-12  0.17120000000E+03  0.17120000000E+03 0.  0.
         13    1    1    2    0    0 -0.20681972433E+01 -0.40193522136E+02  0.18935873676E+03  0.19358858182E+03  0.10566000000E+00 0.  1.
        994    1    1    2    0    0  0.47315687753E+01 -0.72570416235E+01  0.54383870059E+01  0.17150530152E+03  0.17120000000E+03 0.  0.
        998    1    1    2    0    0 -0.26633715320E+01  0.47450563759E+02  0.13052028725E+04  0.13061061167E+04  0.10000000000E+02 0.  1.
</event>
<event>
 5    1  0.1019571E-008  0.3857217E+03  0.7957747E-01  0.3426617E+00
         13   -1    0    0    0    0  0.00000000000E+00  0.00000000000E+00  0.14999999963E+04  0.15000000000E+04  0.10566000000E+00 0. -1.
        994   -1    0    0    0    0 -0.00000000000E+00 -0.00000000000E+00  0.11368683772E-12  0.17120000000E+03  0.17120000000E+03 0.  0.
         13    1    1    2    0    0 -0.39178610939E+01 -0.11330088009E+02  0.64601785530E+02  0.65704812514E+02  0.10566000000E+00 0. -1.
        994    1    1    2    0    0 -0.55967246701E+01 -0.79761523429E+01  0.15838040316E+01  0.17148437471E+03  0.17120000000E+03 0.  0.
        998    1    1    2    0    0  0.95145857639E+01  0.19306240352E+02  0.14338144067E+04  0.14340108128E+04  0.10000000000E+02 0. -1.
</event>
<event>
 5    1  0.9123258E-009  0.3796295E+03  0.7957747E-01  0.3452773E+00
         13   -1    0    0    0    0  0.00000000000E+00  0.00000000000E+00  0.14999999963E+04  0.15000000000E+04  0.10566000000E+00 0.  1.
        994   -1    0    0    0    0 -0.00000000000E+00 -0.00000000000E+00  0.11368683772E-12  0.17120000000E+03  0.17120000000E+03 0.  0.
         13    1    1    2    0    0 -0.10493581269E+02  0.96019259340E+01  0.21442141651E+02  0.25731086882E+02  0.10566000000E+00 0.  1.
        994    1    1    2    0    0  0.99273722483E+01 -0.83516215194E+01  0.48837888140E+01  0.17176027974E+03  0.17120000000E+03 0.  0.
        998    1    1    2    0    0  0.56620902115E+00 -0.12503044147E+01  0.14736740658E+04  0.14737086334E+04  0.10000000000E+02 0.  1.
</event>
<event>
 5    1  0.9123258E-009  0.3835234E+03  0.7957747E-01  0.3435959E+00
         13   -1    0    0    0    0  0.00000000000E+00  0.00000000000E+00  0.14999999963E+04  0.15000000000E+04  0.10566000000E+00 0. -1.
        994   -1    0    0    0    0 -0.00000000000E+00 -0.00000000000E+00  0.11368683772E-12  0.17120000000E+03  0.17120000000E+03 0.  0.
         13    1    1    2    0    0  0.10268871515E+02 -0.26571998799E+02  0.15753668175E+03  0.16009165532E+03  0.10566000000E+00 0. -1.
        994    1    1    2    0    0 -0.12041824542E+02  0.24156578705E+02  0.47762033192E+01  0.17338050049E+03  0.17120000000E+03 0.  0.
        998    1    1    2    0    0  0.17729530275E+01  0.24154200932E+01  0.13376871112E+04  0.13377278442E+04  0.10000000000E+02 0. -1.
</event>
<event>
 5    1  0.9123258E-009  0.3838592E+03  0.7957747E-01  0.3434525E+00
         13   -1    0    0    0    0  0.00000000000E+00  0.00000000000E+00  0.14999999963E+04  0.15000000000E+04  0.10566000000E+00 0.  1.
        994   -1    0    0    0    0 -0.00000000000E+00 -0.00000000000E+00  0.11368683772E-12  0.17120000000E+03  0.17120000000E+03 0.  0.
         13    1    1    2    0    0  0.16365122382E+02 -0.27135070676E+01  0.61659539331E+02  0.63852097113E+02  0.10566000000E+00 0.  1.
        994    1    1    2    0    0 -0.12073376731E+02  0.18968723735E+01  0.26907928999E+01  0.17165676484E+03  0.17120000000E+03 0.  0.
        998    1    1    2    0    0 -0.42917456514E+01  0.81663469411E+00  0.14356496640E+04  0.14356911380E+04  0.10000000000E+02 0.  1.
</event>
<event>
 5    1  0.9123258E-009  0.3759171E+03  0.7957747E-01  0.3469131E+00
         13   -1    0    0    0    0  0.00000000000E+00  0.00000000000E+00  0.14999999963E+04  0.15000000000E+04  0.10566000000E+00 0. -1.
        994   -1    0    0    0    0 -0.00000000000E+00 -0.00000000000E+00  0.11368683772E-12  0.17120000000E+03  0.17120000000E+03 0.  0.
         13    1    1    2    0    0 -0.26421650943E+01  0.57220476818E+02  0.33798955085E+03  0.34280914756E+03  0.10566000000E+00 0. -1.
        994    1    1    2    0    0 -0.43750721528E+01 -0.40141482991E+01  0.63279949123E+01  0.17141977180E+03  0.17120000000E+03 0.  0.
        998    1    1    2    0    0  0.70172372471E+01 -0.53206328519E+02  0.11556824505E+04  0.11569710806E+04  0.10000000000E+02 0. -1.
</event>
<event>
 5    1  0.9123258E-009  0.3834606E+03  0.7957747E-01  0.3436228E+00
         13   -1    0    0    0    0  0.00000000000E+00  0.00000000000E+00  0.14999999963E+04  0.15000000000E+04  0.10566000000E+00 0.  1.
        994   -1    0    0    0    0 -0.00000000000E+00 -0.00000000000E+00  0.11368683772E-12  0.17120000000E+03  0.17120000000E+03 0.  0.
         13    1    1    2    0    0  0.11801724604E+02 -0.20491233672E+02  0.12070602916E+03  0.12300052032E+03  0.10566000000E+00 0.  1.
        994    1    1    2    0    0 -0.83606676442E+01  0.57198585379E+01  0.27356144990E+01  0.17152125563E+03  0.17120000000E+03 0.  0.
        998    1    1    2    0    0 -0.34410569595E+01  0.14771375134E+02  0.13765583526E+04  0.13766782240E+04  0.10000000000E+02 0.  1.
</event>
<event>
 5    1  0.9123258E-009  0.3718771E+03  0.7957747E-01  0.3487308E+00
         13   -1    0    0    0    0  0.00000000000E+00  0.00000000000E+00  0.14999999963E+04  0.15000000000E+04  0.10566000000E+00 0. -1.
        994   -1    0    0    0    0 -0.00000000000E+00 -0.00000000000E+00  0.11368683772E-12  0.17120000000E+03  0.17120000000E+03 0.  0.
         13    1    1    2    0    0  0.62010219241E+02  0.39223818933E+02  0.20941734130E+03  0.22189954769E+03  0.10566000000E+00 0. -1.
        994    1    1    2    0    0 -0.64347149530E+02 -0.34068645239E+01  0.26693863431E+02  0.18486255630E+03  0.17120000000E+03 0.  0.
        998    1    1    2    0    0  0.23369302898E+01 -0.35816954409E+02  0.12638887915E+04  0.12644378960E+04  0.10000000000E+02 0. -1.
</event>
<event>
 5    1  0.9123258E-009  0.3798794E+03  0.7957747E-01  0.3451684E+00
         13   -1    0    0    0    0  0.00000000000E+00  0.00000000000E+00  0.14999999963E+04  0.15000000000E+04  0.10566000000E+00 0. -1.
        994   -1    0    0    0    0 -0.00000000000E+00 -0.00000000000E+00  0.11368683772E-12  0.17120000000E+03  0.17120000000E+03 0.  0.
         13    1    1    2    0    0 -0.94932139595E+01  0.42790824100E+02  0.22658813411E+03  0.23078858166E+03  0.10566000000E+00 0. -1.
        994    1    1    2    0    0 -0.15519508388E+02 -0.30563781193E+02  0.81335058884E+01  0.17478728152E+03  0.17120000000E+03 0.  0.
        998    1    1    2    0    0  0.25012722347E+02 -0.12227042907E+02  0.12652783563E+04  0.12656241368E+04  0.10000000000E+02 0. -1.
</event>
<event>
 5    1  0.9123258E-009  0.3808536E+03  0.7957747E-01  0.3447450E+00
         13   -1    0    0    0    0  0.00000000000E+00  0.00000000000E+00  0.14999999963E+04  0.15000000000E+04  0.10566000000E+00 0.  1.
        994   -1    0    0    0    0 -0.00000000000E+00 -0.00000000000E+00  0.11368683772E-12  0.17120000000E+03  0.17120000000E+03 0.  0.
         13    1    1    2    0    0 -0.51641590974E+01 -0.16573284958E+02  0.38614395916E+02  0.42337041104E+02  0.10566000000E+00 0.  1.
        994    1    1    2    0    0  0.78201287950E+01  0.14966650774E+02  0.46540101951E+01  0.17209373859E+03  0.17120000000E+03 0.  0.
        998    1    1    2    0    0 -0.26559696976E+01  0.16066341839E+01  0.14567315902E+04  0.14567692203E+04  0.10000000000E+02 0.  1.
</event>
<event>
 5    1  0.9123258E-009  0.3774924E+03  0.7957747E-01  0.3462150E+00
         13   -1    0    0    0    0  0.00000000000E+00  0.00000000000E+00  0.14999999963E+04  0.15000000000E+04  0.10566000000E+00 0. -1.
        994   -1    0    0    0    0 -0.00000000000E+00 -0.00000000000E+00  0.11368683772E-12  0.17120000000E+03  0.17120000000E+03 0.  0.
         13    1    1    2    0    0  0.10312690729E+03  0.63422010987E+02  0.34717152529E+03  0.36767593016E+03  0.10566000000E+00 0. -1.
        994    1    1    2    0    0 -0.10582223181E+03 -0.71792662602E+02  0.76280222535E+02  0.22689346288E+03  0.17120000000E+03 0.  0.
        998    1    1    2    0    0  0.26953245246E+01  0.83706516153E+01  0.10765482485E+04  0.10766306070E+04  0.10000000000E+02 0. -1.
</event>
<event>
 5    1  0.1226033E-008  0.3864226E+03  0.7957747E-01  0.3423661E+00
         13   -1    0    0    0    0  0.00000000000E+00  0.00000000000E+00  0.14999999963E+04  0.15000000000E+04  0.10566000000E+00 0. -1.
        994   -1    0    0    0    0 -0.00000000000E+00 -0.00000000000E+00  0.11368683772E-12  0.17120000000E+03  0.17120000000E+03 0.  0.
         13    1    1    2    0    0 -0.57590238527E+01  0.10017993723E+02  0.68435383572E+02  0.69404174533E+02  0.10566000000E+00 0. -1.
        994    1    1    2    0    0  0.21993952300E+02 -0.66132237305E+01  0.26540819502E+01  0.17275402403E+03  0.17120000000E+03 0.  0.
        998    1    1    2    0    0 -0.16234928447E+02 -0.34047699927E+01  0.14289105308E+04  0.14290418014E+04  0.10000000000E+02 0. -1.
</event>
<event>
 5    1  0.9123258E-009  0.3788702E+03  0.7957747E-01  0.3456093E+00
         13   -1    0    0    0    0  0.00000000000E+00  0.00000000000E+00  0.14999999963E+04  0.15000000000E+04  0.10566000000E+00 0.  1.
        994   -1    0    0    0    0 -0.00000000000E+00 -0.00000000000E+00  0.11368683772E-12  0.17120000000E+03  0.17120000000E+03 0.  0.
         13    1    1    2    0    0  0.17922022321E+02  0.10465364905E+02  0.43654953540E+02  0.48337241122E+02  0.10566000000E+00 0.  1.
        994    1    1    2    0    0 -0.96058094475E+01 -0.14808550238E+02  0.57506772241E+01  0.17220358598E+03  0.17120000000E+03 0.  0.
        998    1    1    2    0    0 -0.83162128731E+01  0.43431853330E+01  0.14505943655E+04  0.14506591729E+04  0.10000000000E+02 0.  1.
</event>
<event>
 5    1  0.9123258E-009  0.3854888E+03  0.7957747E-01  0.3427602E+00
         13   -1    0    0    0    0  0.00000000000E+00  0.00000000000E+00  0.14999999963E+04  0.15000000000E+04  0.10566000000E+00 0.  1.
        994   -1    0    0    0    0 -0.00000000000E+00 -0.00000000000E+00  0.11368683772E-12  0.17120000000E+03  0.17120000000E+03 0.  0.
         13    1    1    2    0    0 -0.24245925888E+01  0.13812766426E+02  0.74328031356E+02  0.75639530504E+02  0.10566000000E+00 0.  1.
        994    1    1    2    0    0  0.77267923004E+01 -0.22061534227E+01  0.15997161623E+01  0.17139594372E+03  0.17120000000E+03 0.  0.
        998    1    1    2    0    0 -0.53021997116E+01 -0.11606613003E+02  0.14240722488E+04  0.14241645258E+04  0.10000000000E+02 0.  1.
</event>
<event>
 5    1  0.9123258E-009  0.3844273E+03  0.7957747E-01  0.3432105E+00
         13   -1    0    0    0    0  0.00000000000E+00  0.00000000000E+00  0.14999999963E+04  0.15000000000E+04  0.10566000000E+00 0.  1.
        994   -1    0    0    0    0 -0.00000000000E+00 -0.00000000000E+00  0.11368683772E-12  0.17120000000E+03  0.17120000000E+03 0.  0.
         13    1    1    2    0    0 -0.69480615951E+01 -0.19444579570E+02  0.11703748591E+03  0.11884507355E+03  0.10566000000E+00 0.  1.
        994    1    1    2    0    0 -0.58307584581E+01  0.89706786282E+01  0.22919615012E+01  0.17154930459E+03  0.17120000000E+03 0.  0.
        998    1    1    2    0    0  0.12778820053E+02  0.10473900941E+02  0.13806705489E+04  0.13808056219E+04  0.10000000000E+02 0.  1.
</event>
<event>
 5    1  0.9123258E-009  0.3772301E+03  0.7957747E-01  0.3463309E+00
         13   -1    0    0    0    0  0.00000000000E+00  0.00000000000E+00  0.14999999963E+04  0.15000000000E+04  0.10566000000E+00 0. -1.
        994   -1    0    0    0    0 -0.00000000000E+00 -0.00000000000E+00  0.11368683772E-12  0.17120000000E+03  0.17120000000E+03 0.  0.
         13    1    1    2    0    0 -0.21693820678E+02 -0.22920283896E+02  0.86399897746E+02  0.91983230885E+02  0.10566000000E+00 0. -1.
        994    1    1    2    0    0  0.21861569073E+02  0.11854445982E+02  0.76273166768E+01  0.17316486957E+03  0.17120000000E+03 0.  0.
        998    1    1    2    0    0 -0.16774839474E+00  0.11065837914E+02  0.14059727819E+04  0.14060518996E+04  0.10000000000E+02 0. -1.
</event>
<event>
 5    1  0.9123258E-009  0.3830230E+03  0.7957747E-01  0.3438100E+00
         13   -1    0    0    0    0  0.00000000000E+00  0.00000000000E+00  0.14999999963E+04  0.15000000000E+04  0.10566000000E+00 0.  1.
        994   -1    0    0    0    0 -0.00000000000E+00 -0.00000000000E+00  0.11368683772E-12  0.17120000000E+03  0.17120000000E+03 0.  0.
         13    1    1    2    0    0 -0.15002168246E+02  0.19710922831E+02  0.11329875647E+03  0.11597501849E+03  0.10566000000E+00 0.  1.
        994    1    1    2    0    0  0.12367880304E+02 -0.14985815014E+02  0.38654491544E+01  0.17234245215E+03  0.17120000000E+03 0.  0.
        998    1    1    2    0    0  0.26342879421E+01 -0.47251078176E+01  0.13828357907E+04  0.13828825294E+04  0.10000000000E+02 0.  1.
</event>
<event>
 5    1  0.9123258E-009  0.3798730E+03  0.7957747E-01  0.3451712E+00
         13   -1    0    0    0    0  0.00000000000E+00  0.00000000000E+00  0.14999999963E+04  0.15000000000E+04  0.10566000000E+00 0.  1.
        994   -1    0    0    0    0 -0.00000000000E+00 -0.00000000000E+00  0.11368683772E-12  0.17120000000E+03  0.17120000000E+03 0.  0.
         13    1    1    2    0    0 -0.86136526991E+01 -0.12016440222E+02  0.24548139749E+02  0.28656799849E+02  0.10566000000E+00 0.  1.
        994    1    1    2    0    0  0.66214004399E+01  0.39395212186E+01  0.43958201221E+01  0.17142965323E+03  0.17120000000E+03 0.  0.
        998    1    1    2    0    0  0.19922522592E+01  0.80769190031E+01  0.14710560364E+04  0.14711135469E+04  0.10000000000E+02 0.  1.
</event>
<event>
 5    1  0.9123258E-009  0.3843508E+03  0.7957747E-01  0.3432430E+00
         13   -1    0    0    0    0  0.00000000000E+00  0.00000000000E+00  0.14999999963E+04  0.15000000000E+04  0.10566000000E+00 0. -1.
        994   -1    0    0    0    0 -0.00000000000E+00 -0.00000000000E+00  0.11368683772E-12  0.17120000000E+03  0.17120000000E+03 0.  0.
         13    1    1    2    0    0 -0.40606271341E+01 -0.11378784282E+02  0.36207268026E+02  0.38169920702E+02  0.10566000000E+00 0. -1.
        994    1    1    2    0    0  0.98242980123E+01  0.10113061679E+02  0.26081815892E+01  0.17179939889E+03  0.17120000000E+03 0.  0.
        998    1    1    2    0    0 -0.57636708782E+01  0.12657226033E+01  0.14611845467E+04  0.14612306804E+04  0.10000000000E+02 0. -1.
</event>
<event>
 5    1  0.9123258E-009  0.3816305E+03  0.7957747E-01  0.3444090E+00
         13   -1    0    0    0    0  0.00000000000E+00  0.00000000000E+00  0.14999999963E+04  0.15000000000E+04  0.10566000000E+00 0.  1.
        994   -1    0    0    0    0 -0.00000000000E+00 -0.00000000000E+00  0.11368683772E-12  0.17120000000E+03  0.17120000000E+03 0.  0.
         13    1    1    2    0    0 -0.11826618305E+02 -0.83525003323E+00  0.19978069877E+02  0.23231465369E+02  0.10566000000E+00 0.  1.
        994    1    1    2    0    0  0.65175829089E+01  0.39058868961E+01  0.35043542024E+01  0.17140436207E+03  0.17120000000E+03 0.  0.
        998    1    1    2    0    0  0.53090353957E+01 -0.30706368628E+01  0.14765175722E+04  0.14765641726E+04  0.10000000000E+02 0.  1.
</event>
<event>
 5    1  0.9123258E-009  0.3765367E+03  0.7957747E-01  0.3466379E+00
         13   -1    0    0    0    0  0.00000000000E+00  0.00000000000E+00  0.14999999963E+04  0.15000000000E+04  0.10566000000E+00 0. -1.
        994   -1    0    0    0    0 -0.00000000000E+00 -0.00000000000E+00  0.11368683772E-12  0.17120000000E+03  0.17120000000E+03 0.  0.
         13    1    1    2    0    0 -0.40723251723E+02 -0.29045978291E+02  0.19882016616E+03  0.20501590603E+03  0.10566000000E+00 0. -1.
        994    1    1    2    0    0  0.54825370320E+02 -0.86536023879E+01  0.16381615947E+02  0.18071663843E+03  0.17120000000E+03 0.  0.
        998    1    1    2    0    0 -0.14102118597E+02  0.37699580679E+02  0.12847982142E+04  0.12854674555E+04  0.10000000000E+02 0. -1.
</event>
<event>
 5    1  0.9123258E-009  0.3842065E+03  0.7957747E-01  0.3433045E+00
         13   -1    0    0    0    0  0.00000000000E+00  0.00000000000E+00  0.14999999963E+04  0.15000000000E+04  0.10566000000E+00 0. -1.
        994   -1    0    0    0    0 -0.00000000000E+00 -0.00000000000E+00  0.11368683772E-12  0.17120000000E+03  0.17120000000E+03 0.  0.
         13    1    1    2    0    0  0.10250550376E+02  0.72691990386E+01  0.40395583683E+02  0.42305193332E+02  0.10566000000E+00 0. -1.
        994    1    1    2    0    0 -0.81693159043E+01  0.14150618086E+02  0.29053833061E+01  0.17200249698E+03  0.17120000000E+03 0.  0.
        998    1    1    2    0    0 -0.20812344716E+01 -0.21419817125E+02  0.14566990293E+04  0.14568923097E+04  0.10000000000E+02 0. -1.
</event>
<event>
 5    1  0.9123258E-009  0.3993658E+03  0.7957747E-01  0.3370940E+00
         13   -1    0    0    0    0  0.00000000000E+00  0.00000000000E+00  0.14999999963E+04  0.15000000000E+04  0.10566000000E+00 0.  1.
        994   -1    0    0    0    0 -0.00000000000E+00 -0.00000000000E+00  0.11368683772E-12  0.17120000000E+03  0.17120000000E+03 0.  0.
         13    1    1    2    0    0 -0.26902760392E+01 -0.20072410878E+02 -0.62794482994E+01  0.21203346401E+02  0.10566000000E+00 0.  1.
        994    1    1    2    0    0 -0.64030031906E+02  0.10712810072E+03  0.91234067085E+02  0.23067156293E+03  0.17120000000E+03 0.  0.
        998    1    1    2    0    0  0.66720307945E+02 -0.87055689841E+02  0.14150453775E+04  0.14193250907E+04  0.10000000000E+02 0.  1.
</event>
<event>
 5    1  0.9123258E-009  0.3690158E+03  0.7957747E-01  0.3500427E+00
         13   -1    0    0    0    0  0.00000000000E+00  0.00000000000E+00  0.14999999963E+04  0.15000000000E+04  0.10566000000E+00 0. -1.
        994   -1    0    0    0    0 -0.00000000000E+00 -0.00000000000E+00  0.11368683772E-12  0.17120000000E+03  0.17120000000E+03 0.  0.
         13    1    1    2    0    0  0.64512834424E+02  0.35168720302E+02  0.33344879388E+03  0.34144817176E+03  0.10566000000E+00 0. -1.
        994    1    1    2    0    0  0.10062529667E+02 -0.30136396396E+02  0.13944359412E+02  0.17468068597E+03  0.17120000000E+03 0.  0.
        998    1    1    2    0    0 -0.74575364091E+02 -0.50323239060E+01  0.11526068430E+04  0.11550711423E+04  0.10000000000E+02 0. -1.
</event>
<event>
 5    1  0.9123258E-009  0.3803678E+03  0.7957747E-01  0.3449559E+00
         13   -1    0    0    0    0  0.00000000000E+00  0.00000000000E+00  0.14999999963E+04  0.15000000000E+04  0.10566000000E+00 0. -1.
        994   -1    0    0    0    0 -0.00000000000E+00 -0.00000000000E+00  0.11368683772E-12  0.17120000000E+03  0.17120000000E+03 0.  0.
         13    1    1    2    0    0  0.21647629094E+02  0.22879691441E+02  0.15481342228E+03  0.15798514806E+03  0.10566000000E+00 0. -1.
        994    1    1    2    0    0  0.61462233657E+01  0.12764619019E+02  0.46180284968E+01  0.17184725121E+03  0.17120000000E+03 0.  0.
        998    1    1    2    0    0 -0.27793852459E+02 -0.35644310461E+02  0.13405685455E+04  0.13413676007E+04  0.10000000000E+02 0. -1.
</event>
<event>
 5    1  0.9123258E-009  0.3802526E+03  0.7957747E-01  0.3450060E+00
         13   -1    0    0    0    0  0.00000000000E+00  0.00000000000E+00  0.14999999963E+04  0.15000000000E+04  0.10566000000E+00 0.  1.
        994   -1    0    0    0    0 -0.00000000000E+00 -0.00000000000E+00  0.11368683772E-12  0.17120000000E+03  0.17120000000E+03 0.  0.
         13    1    1    2    0    0 -0.77461350404E+00 -0.36101240119E+02  0.14941951614E+03  0.15372085913E+03  0.10566000000E+00 0.  1.
        994    1    1    2    0    0  0.40955786912E+01  0.33325827852E+02  0.77804839718E+01  0.17463493493E+03  0.17120000000E+03 0.  0.
        998    1    1    2    0    0 -0.33209651872E+01  0.27754122673E+01  0.13427999962E+04  0.13428442059E+04  0.10000000000E+02 0.  1.
</event>
<event>
 5    1  0.9123258E-009  0.3820566E+03  0.7957747E-01  0.3442252E+00
         13   -1    0    0    0    0  0.00000000000E+00  0.00000000000E+00  0.14999999963E+04  0.15000000000E+04  0.10566000000E+00 0. -1.
        994   -1    0    0    0    0 -0.00000000000E+00 -0.00000000000E+00  0.11368683772E-12  0.17120000000E+03  0.17120000000E+03 0.  0.
         13    1    1    2    0    0  0.17695819578E+02  0.17062821029E+01  0.48993898473E+02  0.52119734081E+02  0.10566000000E+00 0. -1.
        994    1    1    2    0    0 -0.16015829342E+02 -0.39104554294E+01  0.40015553013E+01  0.17203851573E+03  0.17120000000E+03 0.  0.
        998    1    1    2    0    0 -0.16799902352E+01  0.22041733264E+01  0.14470045425E+04  0.14470417502E+04  0.10000000000E+02 0. -1.
</event>
<event>
 5    1  0.9123258E-009  0.3755184E+03  0.7957747E-01  0.3470907E+00
         13   -1    0    0    0    0  0.00000000000E+00  0.00000000000E+00  0.14999999963E+04  0.15000000000E+04  0.10566000000E+00 0.  1.
        994   -1    0    0    0    0 -0.00000000000E+00 -0.00000000000E+00  0.11368683772E-12  0.17120000000E+03  0.17120000000E+03 0.  0.
         13    1    1    2    0    0  0.49859623184E+02 -0.75416009585E+02  0.38502829690E+03  0.39550013540E+03  0.10566000000E+00 0.  1.
        994    1    1    2    0    0 -0.26021469860E+01  0.11626386110E+02  0.14393222287E+02  0.17221657548E+03  0.17120000000E+03 0.  0.
        998    1    1    2    0    0 -0.47257476198E+02  0.63789623475E+02  0.11005784771E+04  0.11034832891E+04  0.10000000000E+02 0.  1.
</event>
<event>
 5    1  0.9123258E-009  0.3793307E+03  0.7957747E-01  0.3454078E+00
         13   -1    0    0    0    0  0.00000000000E+00  0.00000000000E+00  0.14999999963E+04  0.15000000000E+04  0.10566000000E+00 0.  1.
        994   -1    0    0    0    0 -0.00000000000E+00 -0.00000000000E+00  0.11368683772E-12  0.17120000000E+03  0.17120000000E+03 0.  0.
         13    1    1    2    0    0 -0.21165639386E+00 -0.28453210929E+02  0.10458165690E+03  0.10838341264E+03  0.10566000000E+00 0.  1.
        994    1    1    2    0    0  0.81696880607E+01 -0.13743444144E+02  0.53282585603E+01  0.17202748734E+03  0.17120000000E+03 0.  0.
        998    1    1    2    0    0 -0.79580316668E+01  0.42196655072E+02  0.13900900808E+04  0.13907891000E+04  0.10000000000E+02 0.  1.
</event>
<event>
 5    1  0.9123258E-009  0.3732096E+03  0.7957747E-01  0.3481269E+00
         13   -1    0    0    0    0  0.00000000000E+00  0.00000000000E+00  0.14999999963E+04  0.15000000000E+04  0.10566000000E+00 0. -1.
        994   -1    0    0    0    0 -0.00000000000E+00 -0.00000000000E+00  0.11368683772E-12  0.17120000000E+03  0.17120000000E+03 0.  0.
         13    1    1    2    0    0  0.68111356598E+02  0.10074414477E+03  0.68383765531E+03  0.69456640401E+03  0.10566000000E+00 0. -1.
        994    1    1    2    0    0 -0.47263763003E+02 -0.90095986618E+02  0.43873289183E+02  0.20392512254E+03  0.17120000000E+03 0.  0.
        998    1    1    2    0    0 -0.20847593595E+02 -0.10648158152E+02  0.77228905179E+03  0.77270847345E+03  0.10000000000E+02 0. -1.
</event>
<event>
 5    1  0.9123258E-009  0.3714545E+03  0.7957747E-01  0.3489233E+00
         13   -1    0    0    0    0  0.00000000000E+00  0.00000000000E+00  0.14999999963E+04  0.15000000000E+04  0.10566000000E+00 0.  1.
        994   -1    0    0    0    0 -0.00000000000E+00 -0.00000000000E+00  0.11368683772E-12  0.17120000000E+03  0.17120000000E+03 0.  0.
         13    1    1    2    0    0 -0.38391430375E+02  0.19602946304E+02  0.11594708083E+03  0.12370090601E+03  0.10566000000E+00 0.  1.
        994    1    1    2    0    0  0.11896519251E+02  0.11407169671E+02  0.94459021896E+01  0.17225073515E+03  0.17120000000E+03 0.  0.
        998    1    1    2    0    0  0.26494911124E+02 -0.31010115976E+02  0.13746070133E+04  0.13752483588E+04  0.10000000000E+02 0.  1.
</event>
<event>
 5    1  0.9123258E-009  0.2792506E+03  0.7957747E-01  0.4056275E+00
         13   -1    0    0    0    0  0.00000000000E+00  0.00000000000E+00  0.14999999963E+04  0.15000000000E+04  0.10566000000E+00 0.  1.
        994   -1    0    0    0    0 -0.00000000000E+00 -0.00000000000E+00  0.11368683772E-12  0.17120000000E+03  0.17120000000E+03 0.  0.
         13    1    1    2    0    0 -0.15425335215E+03 -0.65962014195E+01  0.63145831987E+03  0.65005940299E+03  0.10566000000E+00 0.  1.
        994    1    1    2    0    0  0.80606392698E+02 -0.30802362990E+00  0.45368146284E+02  0.19458980991E+03  0.17120000000E+03 0.  0.
        998    1    1    2    0    0  0.73646959447E+02  0.69042250494E+01  0.82317353013E+03  0.82655078710E+03  0.10000000000E+02 0. -1.
</event>
<event>
 5    1  0.9123258E-009  0.3766203E+03  0.7957747E-01  0.3466008E+00
         13   -1    0    0    0    0  0.00000000000E+00  0.00000000000E+00  0.14999999963E+04  0.15000000000E+04  0.10566000000E+00 0. -1.
        994   -1    0    0    0    0 -0.00000000000E+00 -0.00000000000E+00  0.11368683772E-12  0.17120000000E+03  0.17120000000E+03 0.  0.
         13    1    1    2    0    0 -0.44390118485E+02 -0.26827597639E+02  0.27187978114E+03  0.27678300015E+03  0.10566000000E+00 0. -1.
        994    1    1    2    0    0  0.11052854294E+01  0.12052381800E+02  0.63443924192E+01  0.17174449883E+03  0.17120000000E+03 0.  0.
        998    1    1    2    0    0  0.43284833055E+02  0.14775215839E+02  0.12217758227E+04  0.12226725010E+04  0.10000000000E+02 0. -1.
</event>
<event>
 5    1  0.9123258E-009  0.3798591E+03  0.7957747E-01  0.3451772E+00
         13   -1    0    0    0    0  0.00000000000E+00  0.00000000000E+00  0.14999999963E+04  0.15000000000E+04  0.10566000000E+00 0.  1.
        994   -1    0    0    0    0 -0.00000000000E+00 -0.00000000000E+00  0.11368683772E-12  0.17120000000E+03  0.17120000000E+03 0.  0.
         13    1    1    2    0    0  0.88075805541E+01 -0.27588546064E+02  0.91550771489E+02  0.96022165531E+02  0.10566000000E+00 0.  1.
        994    1    1    2    0    0 -0.11186269916E+02  0.30343137691E+02  0.77099857224E+01  0.17439817235E+03  0.17120000000E+03 0.  0.
        998    1    1    2    0    0  0.23786893619E+01 -0.27545916274E+01  0.14007392391E+04  0.14007796621E+04  0.10000000000E+02 0.  1.
</event>
<event>
 5    1  0.9123258E-009  0.3846004E+03  0.7957747E-01  0.3431369E+00
         13   -1    0    0    0    0  0.00000000000E+00  0.00000000000E+00  0.14999999963E+04  0.15000000000E+04  0.10566000000E+00 0.  1.
        994   -1    0    0    0    0 -0.00000000000E+00 -0.00000000000E+00  0.11368683772E-12  0.17120000000E+03  0.17120000000E+03 0.  0.
         13    1    1    2    0    0  0.10294278724E+02  0.89670267457E+01  0.52746408103E+02  0.54484626042E+02  0.10566000000E+00 0.  1.
        994    1    1    2    0    0  0.26276869712E+01 -0.60393096433E+01  0.19715224523E+01  0.17133798441E+03  0.17120000000E+03 0.  0.
        998    1    1    2    0    0 -0.12921965695E+02 -0.29277171024E+01  0.14452820657E+04  0.14453773896E+04  0.10000000000E+02 0.  1.
</event>
<event>
 5    1  0.9123258E-009  0.3794892E+03  0.7957747E-01  0.3453386E+00
         13   -1    0    0    0    0  0.00000000000E+00  0.00000000000E+00  0.14999999963E+04  0.15000000000E+04  0.10566000000E+00 0. -1.
        994   -1    0    0    0    0 -0.00000000000E+00 -0.00000000000E+00  0.11368683772E-12  0.17120000000E+03  0.17120000000E+03 0.  0.
         13    1    1    2    0    0 -0.14769213193E+02 -0.54585583898E+00  0.22033226129E+02  0.26531148385E+02  0.10566000000E+00 0. -1.
        994    1    1    2    0    0  0.25726495578E+02  0.22707684758E+02  0.83442086289E+01  0.17480434016E+03  0.17120000000E+03 0.  0.
        998    1    1    2    0    0 -0.10957282384E+02 -0.22161828919E+02  0.14696225615E+04  0.14698645115E+04  0.10000000000E+02 0. -1.
</event>
<event>
 5    1  0.9123258E-009  0.3726642E+03  0.7957747E-01  0.3483736E+00
         13   -1    0    0    0    0  0.00000000000E+00  0.00000000000E+00  0.14999999963E+04  0.15000000000E+04  0.10566000000E+00 0. -1.
        994   -1    0    0    0    0 -0.00000000000E+00 -0.00000000000E+00  0.11368683772E-12  0.17120000000E+03  0.17120000000E+03 0.  0.
         13    1    1    2    0    0 -0.69762725678E+02  0.10142687024E+02  0.25903438722E+03  0.26845583793E+03  0.10566000000E+00 0. -1.
        994    1    1    2    0    0  0.70121247664E+02 -0.72388278667E+01  0.25105966676E+02  0.18683987681E+03  0.17120000000E+03 0.  0.
        998    1    1    2    0    0 -0.35852198577E+00 -0.29038591576E+01  0.12158596424E+04  0.12159042853E+04  0.10000000000E+02 0. -1.
</event>
<event>
 5    1  0.9123258E-009  0.3713352E+03  0.7957747E-01  0.3489777E+00
         13   -1    0    0    0    0  0.00000000000E+00  0.00000000000E+00  0.14999999963E+04  0.15000000000E+04  0.10566000000E+00 0. -1.
        994   -1    0    0    0    0 -0.00000000000E+00 -0.00000000000E+00  0.11368683772E-12  0.17120000000E+03  0.17120000000E+03 0.  0.
         13    1    1    2    0    0 -0.27590880322E+02  0.43058200463E+01  0.41902406151E+02  0.50354935890E+02  0.10566000000E+00 0. -1.
        994    1    1    2    0    0  0.23598828530E+02  0.19851237043E+02  0.11852899248E+02  0.17435856027E+03  0.17120000000E+03 0.  0.
        998    1    1    2    0    0  0.39920517914E+01 -0.24157057089E+02  0.14462446909E+04  0.14464865038E+04  0.10000000000E+02 0. -1.
</event>
<event>
 5    1  0.9123258E-009  0.4098169E+03  0.7957747E-01  0.3330789E+00
         13   -1    0    0    0    0  0.00000000000E+00  0.00000000000E+00  0.14999999963E+04  0.15000000000E+04  0.10566000000E+00 0.  1.
        994   -1    0    0    0    0 -0.00000000000E+00 -0.00000000000E+00  0.11368683772E-12  0.17120000000E+03  0.17120000000E+03 0.  0.
         13    1    1    2    0    0  0.29580670717E+02  0.14976912395E+02  0.23949343764E+01  0.33242606090E+02  0.10566000000E+00 0.  1.
        994    1    1    2    0    0 -0.24304596400E+02 -0.20013202237E+02  0.37835502772E+02  0.17813536128E+03  0.17120000000E+03 0.  0.
        998    1    1    2    0    0 -0.52760743170E+01  0.50362898424E+01  0.14597695591E+04  0.14598220326E+04  0.10000000000E+02 0.  1.
</event>
<event>
 5    1  0.9123258E-009  0.2671524E+03  0.7957747E-01  0.4162571E+00
         13   -1    0    0    0    0  0.00000000000E+00  0.00000000000E+00  0.14999999963E+04  0.15000000000E+04  0.10566000000E+00 0.  1.
        994   -1    0    0    0    0 -0.00000000000E+00 -0.00000000000E+00  0.11368683772E-12  0.17120000000E+03  0.17120000000E+03 0.  0.
         13    1    1    2    0    0 -0.76779341374E+02  0.20549672231E+03  0.55514617523E+03  0.59691813272E+03  0.10566000000E+00 0.  1.
        994    1    1    2    0    0  0.11588011796E+02 -0.97610484977E+02  0.10239772042E+03  0.22238889797E+03  0.17120000000E+03 0.  0.
        998    1    1    2    0    0  0.65191329578E+02 -0.10788623733E+03  0.84245610063E+03  0.85189296930E+03  0.10000000000E+02 0.  1.
</event>
<event>
 5    1  0.9123258E-009  0.3861190E+03  0.7957747E-01  0.3424940E+00
         13   -1    0    0    0    0  0.00000000000E+00  0.00000000000E+00  0.14999999963E+04  0.15000000000E+04  0.10566000000E+00 0.  1.
        994   -1    0    0    0    0 -0.00000000000E+00 -0.00000000000E+00  0.11368683772E-12  0.17120000000E+03  0.17120000000E+03 0.  0.
         13    1    1    2    0    0 -0.86129250373E+01 -0.72258568324E+01  0.56544228498E+02  0.57651161525E+02  0.10566000000E+00 0.  1.
        994    1    1    2    0    0  0.13309027597E+02  0.72318300428E+01  0.18277355705E+01  0.17187847509E+03  0.17120000000E+03 0.  0.
        998    1    1    2    0    0 -0.46961025596E+01 -0.59732104130E-02  0.14416280322E+04  0.14416703634E+04  0.10000000000E+02 0.  1.
</event>
<event>
 5    1  0.9123258E-009  0.3688506E+03  0.7957747E-01  0.3501190E+00
         13   -1    0    0    0    0  0.00000000000E+00  0.00000000000E+00  0.14999999963E+04  0.15000000000E+04  0.10566000000E+00 0. -1.
        994   -1    0    0    0    0 -0.00000000000E+00 -0.00000000000E+00  0.11368683772E-12  0.17120000000E+03  0.17120000000E+03 0.  0.
         13    1    1    2    0    0  0.88946625263E+02 -0.13582239228E+02  0.30222065845E+03  0.31533048842E+03  0.10566000000E+00 0. -1.
        994    1    1    2    0    0 -0.90896799704E+02  0.19611570012E+02  0.41077529080E+02  0.19910712009E+03  0.17120000000E+03 0.  0.
        998    1    1    2    0    0  0.19501744412E+01 -0.60293307842E+01  0.11567018087E+04  0.11567623915E+04  0.10000000000E+02 0. -1.
</event>
<event>
 5    1  0.9123258E-009  0.3737361E+03  0.7957747E-01  0.3478895E+00
         13   -1    0    0    0    0  0.00000000000E+00  0.00000000000E+00  0.14999999963E+04  0.15000000000E+04  0.10566000000E+00 0. -1.
        994   -1    0    0    0    0 -0.00000000000E+00 -0.00000000000E+00  0.11368683772E-12  0.17120000000E+03  0.17120000000E+03 0.  0.
         13    1    1    2    0    0  0.27729532827E+02  0.34775438162E+02  0.14025136536E+03  0.14713502214E+03  0.10566000000E+00 0. -1.
        994    1    1    2    0    0 -0.11831306190E+02 -0.94006129124E+01  0.81090977637E+01  0.17205681851E+03  0.17120000000E+03 0.  0.
        998    1    1    2    0    0 -0.15898226637E+02 -0.25374825250E+02  0.13516395332E+04  0.13520081594E+04  0.10000000000E+02 0. -1.
</event>
<event>
 5    1  0.9123258E-009  0.3859888E+03  0.7957747E-01  0.3425489E+00
         13   -1    0    0    0    0  0.00000000000E+00  0.00000000000E+00  0.14999999963E+04  0.15000000000E+04  0.10566000000E+00 0. -1.
        994   -1    0    0    0    0 -0.00000000000E+00 -0.00000000000E+00  0.11368683772E-12  0.17120000000E+03  0.17120000000E+03 0.  0.
         13    1    1    2    0    0  0.15395308569E+01 -0.11199993011E+02  0.64407288269E+02  0.65392048025E+02  0.10566000000E+00 0. -1.
        994    1    1    2    0    0  0.82219628659E+01 -0.78791572428E+01  0.15652179506E+01  0.17158546471E+03  0.17120000000E+03 0.  0.
        998    1    1    2    0    0 -0.97614937228E+01  0.19079150253E+02  0.14340274901E+04  0.14342224873E+04  0.10000000000E+02 0. -1.
</event>
<event>
 5    1  0.9123258E-009  0.3762577E+03  0.7957747E-01  0.3467617E+00
         13   -1    0    0    0    0  0.00000000000E+00  0.00000000000E+00  0.14999999963E+04  0.15000000000E+04  0.10566000000E+00 0. -1.
        994   -1    0    0    0    0 -0.00000000000E+00 -0.00000000000E+00  0.11368683772E-12  0.17120000000E+03  0.17120000000E+03 0.  0.
         13    1    1    2    0    0  0.89297539803E+02 -0.10911451681E+03  0.70347554807E+03  0.71746629628E+03  0.10566000000E+00 0. -1.
        994    1    1    2    0    0 -0.71918987362E+02  0.13853054039E+03  0.93533509749E+02  0.24984196767E+03  0.17120000000E+03 0.  0.
        998    1    1    2    0    0 -0.17378552441E+02 -0.29416023581E+02  0.70299093845E+03  0.70389173605E+03  0.10000000000E+02 0. -1.
</event>
<event>
 5    1  0.1367624E-008  0.3861030E+03  0.7957747E-01  0.3425008E+00
         13   -1    0    0    0    0  0.00000000000E+00  0.00000000000E+00  0.14999999963E+04  0.15000000000E+04  0.10566000000E+00 0. -1.
        994   -1    0    0    0    0 -0.00000000000E+00 -0.00000000000E+00  0.11368683772E-12  0.17120000000E+03  0.17120000000E+03 0.  0.
         13    1    1    2    0    0  0.12556321709E+02 -0.46147677523E+01  0.76020239706E+02  0.77188375454E+02  0.10566000000E+00 0. -1.
        994    1    1    2    0    0 -0.19670615872E+02  0.58702387723E+01  0.24656005201E+01  0.17244393877E+03  0.17120000000E+03 0.  0.
        998    1    1    2    0    0  0.71142941633E+01 -0.12554710200E+01  0.14215141561E+04  0.14215676858E+04  0.10000000000E+02 0. -1.
</event>
<event>
 5    1  0.9123258E-009  0.3847817E+03  0.7957747E-01  0.3430598E+00
         13   -1    0    0    0    0  0.00000000000E+00  0.00000000000E+00  0.14999999963E+04  0.15000000000E+04  0.10566000000E+00 0.  1.
        994   -1    0    0    0    0 -0.00000000000E+00 -0.00000000000E+00  0.11368683772E-12  0.17120000000E+03  0.17120000000E+03 0.  0.
         13    1    1    2    0    0  0.11363329359E+03  0.88888128143E+02  0.45664799916E+03  0.47889563690E+03  0.10566000000E+00 0.  1.
        994    1    1    2    0    0 -0.49698724325E+02 -0.12491308146E+03  0.89136775168E+02  0.23521914422E+03  0.17120000000E+03 0.  0.
        998    1    1    2    0    0 -0.63934569261E+02  0.36024953320E+02  0.95421522195E+03  0.95708521888E+03  0.10000000000E+02 0.  1.
</event>
<event>
 5    1  0.9123258E-009  0.3721329E+03  0.7957747E-01  0.3486146E+00
         13   -1    0    0    0    0  0.00000000000E+00  0.00000000000E+00  0.14999999963E+04  0.15000000000E+04  0.10566000000E+00 0.  1.
        994   -1    0    0    0    0 -0.00000000000E+00 -0.00000000000E+00  0.11368683772E-12  0.17120000000E+03  0.17120000000E+03 0.  0.
         13    1    1    2    0    0  0.17439359523E+02  0.49579810847E+02  0.19571533262E+03  0.20264943003E+03  0.10566000000E+00 0.  1.
        994    1    1    2    0    0 -0.23853582282E+02  0.58862258215E+01  0.10233188287E+02  0.17325645496E+03  0.17120000000E+03 0.  0.
        998    1    1    2    0    0  0.64142227591E+01 -0.55466036668E+02  0.12940514754E+04  0.12952941150E+04  0.10000000000E+02 0.  1.
</event>
<event>
 5    1  0.9123258E-009  0.3803945E+03  0.7957747E-01  0.3449442E+00
         13   -1    0    0    0    0  0.00000000000E+00  0.00000000000E+00  0.14999999963E+04  0.15000000000E+04  0.10566000000E+00 0. -1.
        994   -1    0    0    0    0 -0.00000000000E+00 -0.00000000000E+00  0.11368683772E-12  0.17120000000E+03  0.17120000000E+03 0.  0.
         13    1    1    2    0    0  0.30152170534E+02 -0.88049131143E-01  0.12894646123E+03  0.13242493031E+03  0.10566000000E+00 0. -1.
        994    1    1    2    0    0  0.18655506140E+01  0.44792996046E+01  0.40127265834E+01  0.17131575053E+03  0.17120000000E+03 0.  0.
        998    1    1    2    0    0 -0.32017721148E+02 -0.43912504735E+01  0.13670408085E+04  0.13674593192E+04  0.10000000000E+02 0. -1.
</event>
<event>
 5    1  0.9123258E-009  0.3785666E+03  0.7957747E-01  0.3457424E+00
         13   -1    0    0    0    0  0.00000000000E+00  0.00000000000E+00  0.14999999963E+04  0.15000000000E+04  0.10566000000E+00 0.  1.
        994   -1    0    0    0    0 -0.00000000000E+00 -0.00000000000E+00  0.11368683772E-12  0.17120000000E+03  0.17120000000E+03 0.  0.
         13    1    1    2    0    0 -0.35049150947E+02 -0.43834627386E+01  0.11745151548E+03  0.12264798156E+03  0.10566000000E+00 0.  1.
        994    1    1    2    0    0  0.35677311899E+02  0.36060056701E+01  0.91896289017E+01  0.17515639623E+03  0.17120000000E+03 0.  0.
        998    1    1    2    0    0 -0.62816095215E+00  0.77745706851E+00  0.13733588519E+04  0.13733956222E+04  0.10000000000E+02 0.  0.
</event>
<event>
 5    1  0.9123258E-009  0.3761319E+03  0.7957747E-01  0.3468176E+00
         13   -1    0    0    0    0  0.00000000000E+00  0.00000000000E+00  0.14999999963E+04  0.15000000000E+04  0.10566000000E+00 0.  1.
        994   -1    0    0    0    0 -0.00000000000E+00 -0.00000000000E+00  0.11368683772E-12  0.17120000000E+03  0.17120000000E+03 0.  0.
         13    1    1    2    0    0 -0.26623443650E+02  0.35351503842E+02  0.13060808330E+03  0.13790220870E+03  0.10566000000E+00 0.  1.
        994    1    1    2    0    0  0.38541300758E+02 -0.53209402273E+02  0.20858866066E+02  0.18455677893E+03  0.17120000000E+03 0.  0.
        998    1    1    2    0    0 -0.11917857108E+02  0.17857898432E+02  0.13485330469E+04  0.13487410124E+04  0.10000000000E+02 0.  1.
</event>
<event>
 5    1  0.9123258E-009  0.3843772E+03  0.7957747E-01  0.3432318E+00
         13   -1    0    0    0    0  0.00000000000E+00  0.00000000000E+00  0.14999999963E+04  0.15000000000E+04  0.10566000000E+00 0. -1.
        994   -1    0    0    0    0 -0.00000000000E+00 -0.00000000000E+00  0.11368683772E-12  0.17120000000E+03  0.17120000000E+03 0.  0.
         13    1    1    2    0    0 -0.59376882192E+01  0.11829608178E+02  0.55147675245E+02  0.56713957894E+02  0.10566000000E+00 0. -1.
        994    1    1    2    0    0  0.69657892794E+01  0.34594910910E+02  0.60541953198E+01  0.17490404044E+03  0.17120000000E+03 0.  0.
        998    1    1    2    0    0 -0.10281010602E+01 -0.46424519087E+02  0.14387981257E+04  0.14395820017E+04  0.10000000000E+02 0. -1.
</event>
<event>
 5    1  0.9123258E-009  0.3834943E+03  0.7957747E-01  0.3436083E+00
         13   -1    0    0    0    0  0.00000000000E+00  0.00000000000E+00  0.14999999963E+04  0.15000000000E+04  0.10566000000E+00 0.  1.
        994   -1    0    0    0    0 -0.00000000000E+00 -0.00000000000E+00  0.11368683772E-12  0.17120000000E+03  0.17120000000E+03 0.  0.
         13    1    1    2    0    0  0.19866322947E+02 -0.12918559155E+02  0.10932725201E+03  0.11186607687E+03  0.10566000000E+00 0.  1.
        994    1    1    2    0    0 -0.20409347060E+02  0.14549908948E+02  0.44584780974E+01  0.17308252172E+03  0.17120000000E+03 0.  0.
        998    1    1    2    0    0  0.54302411350E+00 -0.16313497934E+01  0.13862142662E+04  0.13862514014E+04  0.10000000000E+02 0.  1.
</event>
<event>
 5    1  0.9123258E-009  0.3769723E+03  0.7957747E-01  0.3464449E+00
         13   -1    0    0    0    0  0.00000000000E+00  0.00000000000E+00  0.14999999963E+04  0.15000000000E+04  0.10566000000E+00 0. -1.
        994   -1    0    0    0    0 -0.00000000000E+00 -0.00000000000E+00  0.11368683772E-12  0.17120000000E+03  0.17120000000E+03 0.  0.
         13    1    1    2    0    0 -0.37646982296E+01 -0.15743432647E+02  0.20942450226E+02  0.26469340940E+02  0.10566000000E+00 0. -1.
        994    1    1    2    0    0  0.10570301955E+02  0.43357636393E+01  0.61102890400E+01  0.17168956218E+03  0.17120000000E+03 0.  0.
        998    1    1    2    0    0 -0.68056037257E+01  0.11407669008E+02  0.14729472570E+04  0.14730410969E+04  0.10000000000E+02 0. -1.
</event>
<event>
 5    1  0.9123258E-009  0.3823747E+03  0.7957747E-01  0.3440883E+00
         13   -1    0    0    0    0  0.00000000000E+00  0.00000000000E+00  0.14999999963E+04  0.15000000000E+04  0.10566000000E+00 0.  1.
        994   -1    0    0    0    0 -0.00000000000E+00 -0.00000000000E+00  0.11368683772E-12  0.17120000000E+03  0.17120000000E+03 0.  0.
         13    1    1    2    0    0 -0.19419618709E+02 -0.79487197341E+01  0.72656984248E+02  0.75626399229E+02  0.10566000000E+00 0.  1.
        994    1    1    2    0    0  0.15932739513E+02  0.55614612061E+01  0.38843698054E+01  0.17207356092E+03  0.17120000000E+03 0.  0.
        998    1    1    2    0    0  0.34868791957E+01  0.23872585280E+01  0.14234586422E+04  0.14235000399E+04  0.10000000000E+02 0.  1.
</event>
<event>
 5    1  0.1253016E-008  0.3865505E+03  0.7957747E-01  0.3423123E+00
         13   -1    0    0    0    0  0.00000000000E+00  0.00000000000E+00  0.14999999963E+04  0.15000000000E+04  0.10566000000E+00 0.  1.
        994   -1    0    0    0    0 -0.00000000000E+00 -0.00000000000E+00  0.11368683772E-12  0.17120000000E+03  0.17120000000E+03 0.  0.
         13    1    1    2    0    0  0.10830449886E+02  0.29142910605E+01  0.65487904594E+02  0.66441467091E+02  0.10566000000E+00 0.  1.
        994    1    1    2    0    0 -0.20178539510E+02 -0.13623709172E+02  0.28043698288E+01  0.17294531910E+03  0.17120000000E+03 0.  0.
        998    1    1    2    0    0  0.93480896234E+01  0.10709418111E+02  0.14317077219E+04  0.14318132138E+04  0.10000000000E+02 0.  1.
</event>
<event>
 5    1  0.9123258E-009  0.3540781E+03  0.7957747E-01  0.3572426E+00
         13   -1    0    0    0    0  0.00000000000E+00  0.00000000000E+00  0.14999999963E+04  0.15000000000E+04  0.10566000000E+00 0. -1.
        994   -1    0    0    0    0 -0.00000000000E+00 -0.00000000000E+00  0.11368683772E-12  0.17120000000E+03  0.17120000000E+03 0.  0.
         13    1    1    2    0    0  0.16460350025E+03  0.17653693530E+03  0.99344561853E+03  0.10223472062E+04  0.10566000000E+00 0. -1.
        994    1    1    2    0    0 -0.17157844752E+03 -0.15282153626E+03  0.22049618394E+03  0.36155441185E+03  0.17120000000E+03 0.  0.
        998    1    1    2    0    0  0.69749472776E+01 -0.23715399043E+02  0.28605819381E+03  0.28729838198E+03  0.10000000000E+02 0. -1.
</event>
<event>
 5    1  0.9123258E-009  0.3854009E+03  0.7957747E-01  0.3427974E+00
         13   -1    0    0    0    0  0.00000000000E+00  0.00000000000E+00  0.14999999963E+04  0.15000000000E+04  0.10566000000E+00 0.  1.
        994   -1    0    0    0    0 -0.00000000000E+00 -0.00000000000E+00  0.11368683772E-12  0.17120000000E+03  0.17120000000E+03 0.  0.
         13    1    1    2    0    0 -0.46754718963E+01 -0.12883934006E+02  0.66935621709E+02  0.68324552033E+02  0.10566000000E+00 0.  1.
        994    1    1    2    0    0  0.20498776054E+01  0.64566321777E+01  0.15819671480E+01  0.17134127558E+03  0.17120000000E+03 0.  0.
        998    1    1    2    0    0  0.26255942909E+01  0.64273018278E+01  0.14314824074E+04  0.14315341724E+04  0.10000000000E+02 0.  1.
</event>
<event>
 5    1  0.9123258E-009  0.3831337E+03  0.7957747E-01  0.3437626E+00
         13   -1    0    0    0    0  0.00000000000E+00  0.00000000000E+00  0.14999999963E+04  0.15000000000E+04  0.10566000000E+00 0.  1.
        994   -1    0    0    0    0 -0.00000000000E+00 -0.00000000000E+00  0.11368683772E-12  0.17120000000E+03  0.17120000000E+03 0.  0.
         13    1    1    2    0    0 -0.14609736342E+02  0.15815619335E+01  0.37995284682E+02  0.40738170752E+02  0.10566000000E+00 0.  1.
        994    1    1    2    0    0  0.30027621605E+02 -0.12482876861E+02  0.60662883839E+01  0.17436662562E+03  0.17120000000E+03 0.  0.
        998    1    1    2    0    0 -0.15417885263E+02  0.10901314927E+02  0.14559384232E+04  0.14560952036E+04  0.10000000000E+02 0.  1.
</event>
<event>
 5    1  0.9123258E-009  0.3833526E+03  0.7957747E-01  0.3436689E+00
         13   -1    0    0    0    0  0.00000000000E+00  0.00000000000E+00  0.14999999963E+04  0.15000000000E+04  0.10566000000E+00 0.  1.
        994   -1    0    0    0    0 -0.00000000000E+00 -0.00000000000E+00  0.11368683772E-12  0.17120000000E+03  0.17120000000E+03 0.  0.
         13    1    1    2    0    0  0.28982959064E+02  0.21889215682E+02  0.21927592219E+03  0.22226356178E+03  0.10566000000E+00 0.  1.
        994    1    1    2    0    0 -0.36420804754E+02 -0.22024722029E+02  0.84630263339E+01  0.17661434317E+03  0.17120000000E+03 0.  0.
        998    1    1    2    0    0  0.74378456895E+01  0.13550634675E+00  0.12722610478E+04  0.12723220950E+04  0.10000000000E+02 0.  1.
</event>
<event>
 5    1  0.9123258E-009  0.3849614E+03  0.7957747E-01  0.3429836E+00
         13   -1    0    0    0    0  0.00000000000E+00  0.00000000000E+00  0.14999999963E+04  0.15000000000E+04  0.10566000000E+00 0.  1.
        994   -1    0    0    0    0 -0.00000000000E+00 -0.00000000000E+00  0.11368683772E-12  0.17120000000E+03  0.17120000000E+03 0.  0.
         13    1    1    2    0    0 -0.15411645350E+02  0.76459693948E+00  0.75541798836E+02  0.77101737700E+02  0.10566000000E+00 0.  1.
        994    1    1    2    0    0  0.32412851240E+01 -0.52811344402E+01  0.17756055481E+01  0.17132130365E+03  0.17120000000E+03 0.  0.
        998    1    1    2    0    0  0.12170360226E+02  0.45165375007E+01  0.14226825919E+04  0.14227769586E+04  0.10000000000E+02 0.  1.
</event>
<event>
 5    1  0.9123258E-009  0.3777343E+03  0.7957747E-01  0.3461083E+00
         13   -1    0    0    0    0  0.00000000000E+00  0.00000000000E+00  0.14999999963E+04  0.15000000000E+04  0.10566000000E+00 0.  1.
        994   -1    0    0    0    0 -0.00000000000E+00 -0.00000000000E+00  0.11368683772E-12  0.17120000000E+03  0.17120000000E+03 0.  0.
         13    1    1    2    0    0 -0.43913012553E+02  0.44157361331E+02  0.29023513620E+03  0.29684115395E+03  0.10566000000E+00 0.  1.
        994    1    1    2    0    0  0.44468450454E+02 -0.46795015081E+02  0.19448034267E+02  0.18399696345E+03  0.17120000000E+03 0.  0.
        998    1    1    2    0    0 -0.55543790139E+00  0.26376537494E+01  0.11903168258E+04  0.11903618826E+04  0.10000000000E+02 0.  1.
</event>
<event>
 5    1  0.9123258E-009  0.3857114E+03  0.7957747E-01  0.3426661E+00
         13   -1    0    0    0    0  0.00000000000E+00  0.00000000000E+00  0.14999999963E+04  0.15000000000E+04  0.10566000000E+00 0.  1.
        994   -1    0    0    0    0 -0.00000000000E+00 -0.00000000000E+00  0.11368683772E-12  0.17120000000E+03  0.17120000000E+03 0.  0.
         13    1    1    2    0    0  0.98498201872E+01  0.95775044422E+01  0.79272398845E+02  0.80454160437E+02  0.10566000000E+00 0.  1.
        994    1    1    2    0    0  0.73845129727E+01 -0.95570425285E+01  0.17561212400E+01  0.17163447222E+03  0.17120000000E+03 0.  0.
        998    1    1    2    0    0 -0.17234333160E+02 -0.20461913722E-01  0.14189714762E+04  0.14191113673E+04  0.10000000000E+02 0.  1.
</event>
<event>
 5    1  0.9123258E-009  0.3842113E+03  0.7957747E-01  0.3433024E+00
         13   -1    0    0    0    0  0.00000000000E+00  0.00000000000E+00  0.14999999963E+04  0.15000000000E+04  0.10566000000E+00 0.  1.
        994   -1    0    0    0    0 -0.00000000000E+00 -0.00000000000E+00  0.11368683772E-12  0.17120000000E+03  0.17120000000E+03 0.  0.
         13    1    1    2    0    0  0.15044507134E+02 -0.11772486815E+02  0.68979886703E+02  0.71576284999E+02  0.10566000000E+00 0.  1.
        994    1    1    2    0    0 -0.50684760185E+02  0.30808565737E+02  0.13709151319E+02  0.18170166061E+03  0.17120000000E+03 0.  0.
        998    1    1    2    0    0  0.35640253051E+02 -0.19036078922E+02  0.14173109583E+04  0.14179220544E+04  0.10000000000E+02 0.  1.
</event>
<event>
 5    1  0.9123258E-009  0.3864021E+03  0.7957747E-01  0.3423748E+00
         13   -1    0    0    0    0  0.00000000000E+00  0.00000000000E+00  0.14999999963E+04  0.15000000000E+04  0.10566000000E+00 0. -1.
        994   -1    0    0    0    0 -0.00000000000E+00 -0.00000000000E+00  0.11368683772E-12  0.17120000000E+03  0.17120000000E+03 0.  0.
         13    1    1    2    0    0 -0.16047706286E+02  0.75484377813E+02  0.21815190165E+03  0.23139940261E+03  0.10566000000E+00 0. -1.
        994    1    1    2    0    0 -0.28160109249E+02  0.44463862719E+02  0.30241164764E+02  0.18164249196E+03  0.17120000000E+03 0.  0.
        998    1    1    2    0    0  0.44207815535E+02 -0.11994824053E+03  0.12516069299E+04  0.12581581054E+04  0.10000000000E+02 0. -1.
</event>
<event>
 5    1  0.9123258E-009  0.3726277E+03  0.7957747E-01  0.3483901E+00
         13   -1    0    0    0    0  0.00000000000E+00  0.00000000000E+00  0.14999999963E+04  0.15000000000E+04  0.10566000000E+00 0. -1.
        994   -1    0    0    0    0 -0.00000000000E+00 -0.00000000000E+00  0.11368683772E-12  0.17120000000E+03  0.17120000000E+03 0.  0.
         13    1    1    2    0    0 -0.29808689569E+01 -0.68334328864E+02  0.36947840145E+03  0.37575625928E+03  0.10566000000E+00 0. -1.
        994    1    1    2    0    0  0.19204559695E+02  0.11223223252E+02  0.95992543854E+01  0.17290564345E+03  0.17120000000E+03 0.  0.
        998    1    1    2    0    0 -0.16223690739E+02  0.57111105611E+02  0.11209223404E+04  0.11225380973E+04  0.10000000000E+02 0. -1.
</event>
<event>
 5    1  0.9123258E-009  0.3741635E+03  0.7957747E-01  0.3476972E+00
         13   -1    0    0    0    0  0.00000000000E+00  0.00000000000E+00  0.14999999963E+04  0.15000000000E+04  0.10566000000E+00 0.  1.
        994   -1    0    0    0    0 -0.00000000000E+00 -0.00000000000E+00  0.11368683772E-12  0.17120000000E+03  0.17120000000E+03 0.  0.
         13    1    1    2    0    0 -0.12115716196E+02 -0.10412606060E+02  0.14868414567E+02  0.21824157708E+02  0.10566000000E+00 0.  1.
        994    1    1    2    0    0  0.77211031779E+01  0.71001393184E+01  0.74840651651E+01  0.17168424111E+03  0.17120000000E+03 0.  0.
        998    1    1    2    0    0  0.43946130179E+01  0.33124667419E+01  0.14776475165E+04  0.14776916012E+04  0.10000000000E+02 0.  1.
</event>
<event>
 5    1  0.9123258E-009  0.3827566E+03  0.7957747E-01  0.3439243E+00
         13   -1    0    0    0    0  0.00000000000E+00  0.00000000000E+00  0.14999999963E+04  0.15000000000E+04  0.10566000000E+00 0. -1.
        994   -1    0    0    0    0 -0.00000000000E+00 -0.00000000000E+00  0.11368683772E-12  0.17120000000E+03  0.17120000000E+03 0.  0.
         13    1    1    2    0    0  0.55736940145E+01 -0.28523021979E+02  0.16945488650E+03  0.17192905097E+03  0.10566000000E+00 0. -1.
        994    1    1    2    0    0 -0.12222037704E+02  0.27218842130E+01  0.32676162753E+01  0.17168839266E+03  0.17120000000E+03 0.  0.
        998    1    1    2    0    0  0.66483436896E+01  0.25801137766E+02  0.13272774935E+04  0.13275825564E+04  0.10000000000E+02 0. -1.
</event>
<event>
 5    1  0.9123258E-009  0.3845336E+03  0.7957747E-01  0.3431653E+00
         13   -1    0    0    0    0  0.00000000000E+00  0.00000000000E+00  0.14999999963E+04  0.15000000000E+04  0.10566000000E+00 0. -1.
        994   -1    0    0    0    0 -0.00000000000E+00 -0.00000000000E+00  0.11368683772E-12  0.17120000000E+03  0.17120000000E+03 0.  0.
         13    1    1    2    0    0 -0.22813204347E+02 -0.55541135660E+01  0.13165594855E+03  0.13373328091E+03  0.10566000000E+00 0. -1.
        994    1    1    2    0    0  0.29373498452E+02 -0.56583752096E+00  0.47098600659E+01  0.17376635280E+03  0.17120000000E+03 0.  0.
        998    1    1    2    0    0 -0.65602941048E+01  0.61199510869E+01  0.13636341877E+04  0.13637003663E+04  0.10000000000E+02 0. -1.
</event>
<event>
 5    1  0.9123258E-009  0.3847212E+03  0.7957747E-01  0.3430855E+00
         13   -1    0    0    0    0  0.00000000000E+00  0.00000000000E+00  0.14999999963E+04  0.15000000000E+04  0.10566000000E+00 0.  1.
        994   -1    0    0    0    0 -0.00000000000E+00 -0.00000000000E+00  0.11368683772E-12  0.17120000000E+03  0.17120000000E+03 0.  0.
         13    1    1    2    0    0  0.20123936644E+01 -0.11265669779E+02  0.36045504859E+02  0.37818707387E+02  0.10566000000E+00 0.  1.
        994    1    1    2    0    0 -0.12294123008E+01  0.11901021730E+02  0.22399262713E+01  0.17163217368E+03  0.17120000000E+03 0.  0.
        998    1    1    2    0    0 -0.78298136361E+00 -0.63535195104E+00  0.14617145651E+04  0.14617491189E+04  0.10000000000E+02 0.  1.
</event>
<event>
 5    1  0.9123258E-009  0.3858465E+03  0.7957747E-01  0.3426090E+00
         13   -1    0    0    0    0  0.00000000000E+00  0.00000000000E+00  0.14999999963E+04  0.15000000000E+04  0.10566000000E+00 0. -1.
        994   -1    0    0    0    0 -0.00000000000E+00 -0.00000000000E+00  0.11368683772E-12  0.17120000000E+03  0.17120000000E+03 0.  0.
         13    1    1    2    0    0  0.34344343549E+00 -0.10792893125E+02  0.46100163090E+02  0.47348080176E+02  0.10566000000E+00 0. -1.
        994    1    1    2    0    0 -0.11951885070E+01  0.15896906601E+02  0.20443556247E+01  0.17195278278E+03  0.17120000000E+03 0.  0.
        998    1    1    2    0    0  0.85174507156E+00 -0.51040134761E+01  0.14518554776E+04  0.14518991370E+04  0.10000000000E+02 0. -1.
</event>
<event>
 5    1  0.9123258E-009  0.3799180E+03  0.7957747E-01  0.3451516E+00
         13   -1    0    0    0    0  0.00000000000E+00  0.00000000000E+00  0.14999999963E+04  0.15000000000E+04  0.10566000000E+00 0. -1.
        994   -1    0    0    0    0 -0.00000000000E+00 -0.00000000000E+00  0.11368683772E-12  0.17120000000E+03  0.17120000000E+03 0.  0.
         13    1    1    2    0    0  0.12274807278E+02 -0.30946068942E+02  0.13181875380E+03  0.13595780631E+03  0.10566000000E+00 0. -1.
        994    1    1    2    0    0 -0.52763029488E+01  0.18500399713E+02  0.54130766375E+01  0.17236254106E+03  0.17120000000E+03 0.  0.
        998    1    1    2    0    0 -0.69985043290E+01  0.12445669229E+02  0.13627681658E+04  0.13628796526E+04  0.10000000000E+02 0. -1.
</event>
<event>
 5    1  0.9123258E-009  0.3854625E+03  0.7957747E-01  0.3427713E+00
         13   -1    0    0    0    0  0.00000000000E+00  0.00000000000E+00  0.14999999963E+04  0.15000000000E+04  0.10566000000E+00 0.  1.
        994   -1    0    0    0    0 -0.00000000000E+00 -0.00000000000E+00  0.11368683772E-12  0.17120000000E+03  0.17120000000E+03 0.  0.
         13    1    1    2    0    0  0.13748275834E+02 -0.10159040816E+01  0.66279961591E+02  0.67698534859E+02  0.10566000000E+00 0.  1.
        994    1    1    2    0    0 -0.13460353111E+02 -0.27377917013E+01  0.20204839652E+01  0.17176204169E+03  0.17120000000E+03 0.  0.
        998    1    1    2    0    0 -0.28792272290E+00  0.37536957829E+01  0.14316995507E+04  0.14317394235E+04  0.10000000000E+02 0.  1.
</event>
<event>
 5    1  0.9123258E-009  0.3847939E+03  0.7957747E-01  0.3430547E+00
         13   -1    0    0    0    0  0.00000000000E+00  0.00000000000E+00  0.14999999963E+04  0.15000000000E+04  0.10566000000E+00 0. -1.
        994   -1    0    0    0    0 -0.00000000000E+00 -0.00000000000E+00  0.11368683772E-12  0.17120000000E+03  0.17120000000E+03 0.  0.
         13    1    1    2    0    0  0.88541460416E+01  0.12802156259E+02  0.69541425982E+02  0.71262277529E+02  0.10566000000E+00 0. -1.
        994    1    1    2    0    0 -0.63306513499E+01 -0.88403686059E+01  0.21216443587E+01  0.17155806783E+03  0.17120000000E+03 0.  0.
        998    1    1    2    0    0 -0.25234946917E+01 -0.39617876532E+01  0.14283369259E+04  0.14283796546E+04  0.10000000000E+02 0. -1.
</event>
<event>
 5    1  0.9123258E-009  0.3782834E+03  0.7957747E-01  0.3458667E+00
         13   -1    0    0    0    0  0.00000000000E+00  0.00000000000E+00  0.14999999963E+04  0.15000000000E+04  0.10566000000E+00 0. -1.
        994   -1    0    0    0    0 -0.00000000000E+00 -0.00000000000E+00  0.11368683772E-12  0.17120000000E+03  0.17120000000E+03 0.  0.
         13    1    1    2    0    0 -0.15445360134E+02  0.10680968869E+02  0.35060273244E+02  0.39772806912E+02  0.10566000000E+00 0. -1.
        994    1    1    2    0    0  0.46502029020E+01  0.15196956106E+02  0.58518047533E+01  0.17203562271E+03  0.17120000000E+03 0.  0.
        998    1    1    2    0    0  0.10795157232E+02 -0.25877924974E+02  0.14590879183E+04  0.14593915704E+04  0.10000000000E+02 0. -1.
</event>
<event>
 5    1  0.9123258E-009  0.3806219E+03  0.7957747E-01  0.3448455E+00
         13   -1    0    0    0    0  0.00000000000E+00  0.00000000000E+00  0.14999999963E+04  0.15000000000E+04  0.10566000000E+00 0.  1.
        994   -1    0    0    0    0 -0.00000000000E+00 -0.00000000000E+00  0.11368683772E-12  0.17120000000E+03  0.17120000000E+03 0.  0.
         13    1    1    2    0    0  0.10079758856E+02  0.24887182211E+01  0.12371705312E+02  0.16151331628E+02  0.10566000000E+00 0.  1.
        994    1    1    2    0    0 -0.96617807112E+01 -0.38962115164E+01  0.41816998835E+01  0.17156764580E+03  0.17120000000E+03 0.  0.
        998    1    1    2    0    0 -0.41797814488E+00  0.14074932954E+01  0.14834465911E+04  0.14834810226E+04  0.10000000000E+02 0.  1.
</event>
<event>
 5    1  0.9123258E-009  0.3806470E+03  0.7957747E-01  0.3448346E+00
         13   -1    0    0    0    0  0.00000000000E+00  0.00000000000E+00  0.14999999963E+04  0.15000000000E+04  0.10566000000E+00 0.  1.
        994   -1    0    0    0    0 -0.00000000000E+00 -0.00000000000E+00  0.11368683772E-12  0.17120000000E+03  0.17120000000E+03 0.  0.
         13    1    1    2    0    0 -0.96411248387E+01  0.21797614868E+02  0.97161862956E+02  0.10004262131E+03  0.10566000000E+00 0.  1.
        994    1    1    2    0    0 -0.38162124894E+02  0.22325906640E+02  0.10355315710E+02  0.17711992109E+03  0.17120000000E+03 0.  0.
        998    1    1    2    0    0  0.47803249732E+02 -0.44123521508E+02  0.13924828176E+04  0.13940374576E+04  0.10000000000E+02 0.  1.
</event>
<event>
 5    1  0.9123258E-009  0.3858305E+03  0.7957747E-01  0.3426158E+00
         13   -1    0    0    0    0  0.00000000000E+00  0.00000000000E+00  0.14999999963E+04  0.15000000000E+04  0.10566000000E+00 0. -1.
        994   -1    0    0    0    0 -0.00000000000E+00 -0.00000000000E+00  0.11368683772E-12  0.17120000000E+03  0.17120000000E+03 0.  0.
         13    1    1    2    0    0 -0.26262276871E+01  0.11651354360E+02  0.59945735824E+02  0.61124083124E+02  0.10566000000E+00 0. -1.
        994    1    1    2    0    0 -0.15699648003E+01 -0.64210351858E+01  0.13616993799E+01  0.17133297612E+03  0.17120000000E+03 0.  0.
        998    1    1    2    0    0  0.41961924874E+01 -0.52303191745E+01  0.14386925611E+04  0.14387429408E+04  0.10000000000E+02 0. -1.
</event>
<event>
 5    1  0.9123258E-009  0.3798517E+03  0.7957747E-01  0.3451804E+00
         13   -1    0    0    0    0  0.00000000000E+00  0.00000000000E+00  0.14999999963E+04  0.15000000000E+04  0.10566000000E+00 0.  1.
        994   -1    0    0    0    0 -0.00000000000E+00 -0.00000000000E+00  0.11368683772E-12  0.17120000000E+03  0.17120000000E+03 0.  0.
         13    1    1    2    0    0 -0.70854831759E+02 -0.53754432910E+01  0.41357613889E+03  0.41963619529E+03  0.10566000000E+00 0.  1.
        994    1    1    2    0    0  0.75045566854E+02  0.41289849930E+01  0.23338502782E+02  0.18842242789E+03  0.17120000000E+03 0.  0.
        998    1    1    2    0    0 -0.41907350952E+01  0.12464582980E+01  0.10630853546E+04  0.10631413768E+04  0.10000000000E+02 0.  1.
</event>
<event>
 5    1  0.9123258E-009  0.3835024E+03  0.7957747E-01  0.3436049E+00
         13   -1    0    0    0    0  0.00000000000E+00  0.00000000000E+00  0.14999999963E+04  0.15000000000E+04  0.10566000000E+00 0. -1.
        994   -1    0    0    0    0 -0.00000000000E+00 -0.00000000000E+00  0.11368683772E-12  0.17120000000E+03  0.17120000000E+03 0.  0.
         13    1    1    2    0    0 -0.21889608032E+02  0.19980510381E+02  0.13319889750E+03  0.13645634171E+03  0.10566000000E+00 0. -1.
        994    1    1    2    0    0  0.20821121198E+02 -0.73478437883E+02  0.21895025748E+02  0.18873640898E+03  0.17120000000E+03 0.  0.
        998    1    1    2    0    0  0.10684868347E+01  0.53497927502E+02  0.13449060730E+04  0.13460072493E+04  0.10000000000E+02 0. -1.
</event>
<event>
 5    1  0.1014302E-008  0.3855475E+03  0.7957747E-01  0.3427353E+00
         13   -1    0    0    0    0  0.00000000000E+00  0.00000000000E+00  0.14999999963E+04  0.15000000000E+04  0.10566000000E+00 0. -1.
        994   -1    0    0    0    0 -0.00000000000E+00 -0.00000000000E+00  0.11368683772E-12  0.17120000000E+03  0.17120000000E+03 0.  0.
         13    1    1    2    0    0 -0.12738898893E+02 -0.91592310979E+01  0.83442805852E+02  0.84905147499E+02  0.10566000000E+00 0. -1.
        994    1    1    2    0    0  0.18589072975E+02  0.11132557293E+02  0.29012954746E+01  0.17259010685E+03  0.17120000000E+03 0.  0.
        998    1    1    2    0    0 -0.58501740825E+01 -0.19733261950E+01  0.14136558950E+04  0.14137047457E+04  0.10000000000E+02 0. -1.
</event>
<event>
 5    1  0.9123258E-009  0.3819543E+03  0.7957747E-01  0.3442693E+00
         13   -1    0    0    0    0  0.00000000000E+00  0.00000000000E+00  0.14999999963E+04  0.15000000000E+04  0.10566000000E+00 0.  1.
        994   -1    0    0    0    0 -0.00000000000E+00 -0.00000000000E+00  0.11368683772E-12  0.17120000000E+03  0.17120000000E+03 0.  0.
         13    1    1    2    0    0 -0.13251037646E+02 -0.20009219761E+01  0.26666006017E+02  0.29844274634E+02  0.10566000000E+00 0.  1.
        994    1    1    2    0    0  0.16349844170E+02  0.36704677671E+01  0.40830721987E+01  0.17206656043E+03  0.17120000000E+03 0.  0.
        998    1    1    2    0    0 -0.30988065239E+01 -0.16695457910E+01  0.14692509181E+04  0.14692891649E+04  0.10000000000E+02 0.  1.
</event>
<event>
 5    1  0.9123258E-009  0.3843731E+03  0.7957747E-01  0.3432335E+00
         13   -1    0    0    0    0  0.00000000000E+00  0.00000000000E+00  0.14999999963E+04  0.15000000000E+04  0.10566000000E+00 0. -1.
        994   -1    0    0    0    0 -0.00000000000E+00 -0.00000000000E+00  0.11368683772E-12  0.17120000000E+03  0.17120000000E+03 0.  0.
         13    1    1    2    0    0  0.66293944565E+00 -0.12203874385E+02  0.38504910902E+02  0.40398185186E+02  0.10566000000E+00 0. -1.
        994    1    1    2    0    0  0.13512578064E+02  0.66145344883E+01  0.26879136310E+01  0.17188079216E+03  0.17120000000E+03 0.  0.
        998    1    1    2    0    0 -0.14175517510E+02  0.55893398969E+01  0.14588071717E+04  0.14589210227E+04  0.10000000000E+02 0. -1.
</event>
<event>
 5    1  0.9123258E-009  0.3788682E+03  0.7957747E-01  0.3456102E+00
         13   -1    0    0    0    0  0.00000000000E+00  0.00000000000E+00  0.14999999963E+04  0.15000000000E+04  0.10566000000E+00 0. -1.
        994   -1    0    0    0    0 -0.00000000000E+00 -0.00000000000E+00  0.11368683772E-12  0.17120000000E+03  0.17120000000E+03 0.  0.
         13    1    1    2    0    0  0.98208929462E+01  0.29602561304E+01  0.93357309894E+01  0.13870115059E+02  0.10566000000E+00 0. -1.
        994    1    1    2    0    0  0.27270495922E+02 -0.57310288417E+02  0.18342838030E+02  0.18350490133E+03  0.17120000000E+03 0.  0.
        998    1    1    2    0    0 -0.37091388868E+02  0.54350032287E+02  0.14723214273E+04  0.14738249836E+04  0.10000000000E+02 0. -1.
</event>
<event>
 5    1  0.9123258E-009  0.3840756E+03  0.7957747E-01  0.3433602E+00
         13   -1    0    0    0    0  0.00000000000E+00  0.00000000000E+00  0.14999999963E+04  0.15000000000E+04  0.10566000000E+00 0.  1.
        994   -1    0    0    0    0 -0.00000000000E+00 -0.00000000000E+00  0.11368683772E-12  0.17120000000E+03  0.17120000000E+03 0.  0.
         13    1    1    2    0    0 -0.14608097736E+02 -0.83901155947E+01  0.69981714835E+02  0.71980845608E+02  0.10566000000E+00 0.  1.
        994    1    1    2    0    0  0.29504902989E+01  0.45370642367E+01  0.21864075591E+01  0.17129947672E+03  0.17120000000E+03 0.  0.
        998    1    1    2    0    0  0.11657607437E+02  0.38530513580E+01  0.14278318739E+04  0.14279196777E+04  0.10000000000E+02 0.  1.
</event>
<event>
 5    1  0.9123258E-009  0.3828931E+03  0.7957747E-01  0.3438657E+00
         13   -1    0    0    0    0  0.00000000000E+00  0.00000000000E+00  0.14999999963E+04  0.15000000000E+04  0.10566000000E+00 0. -1.
        994   -1    0    0    0    0 -0.00000000000E+00 -0.00000000000E+00  0.11368683772E-12  0.17120000000E+03  0.17120000000E+03 0.  0.
         13    1    1    2    0    0 -0.16239279215E+02 -0.40800341355E+02  0.24416923640E+03  0.24808669696E+03  0.10566000000E+00 0. -1.
        994    1    1    2    0    0  0.29345771167E+02  0.59586229379E+02  0.17427952791E+02  0.18445830574E+03  0.17120000000E+03 0.  0.
        998    1    1    2    0    0 -0.13106491952E+02 -0.18785888024E+02  0.12384028071E+04  0.12386549973E+04  0.10000000000E+02 0. -1.
</event>
<event>
 5    1  0.9123258E-009  0.3839074E+03  0.7957747E-01  0.3434319E+00
         13   -1    0    0    0    0  0.00000000000E+00  0.00000000000E+00  0.14999999963E+04  0.15000000000E+04  0.10566000000E+00 0.  1.
        994   -1    0    0    0    0 -0.00000000000E+00 -0.00000000000E+00  0.11368683772E-12  0.17120000000E+03  0.17120000000E+03 0.  0.
         13    1    1    2    0    0  0.16267273496E+02 -0.11737404465E+02  0.92156208695E+02  0.94314202619E+02  0.10566000000E+00 0.  1.
        994    1    1    2    0    0 -0.38081476024E+01  0.16516099142E+02  0.31222756558E+01  0.17206531354E+03  0.17120000000E+03 0.  0.
        998    1    1    2    0    0 -0.12459125894E+02 -0.47786946776E+01  0.14047215119E+04  0.14048204838E+04  0.10000000000E+02 0.  1.
</event>
<event>
 5    1  0.9123258E-009  0.3757401E+03  0.7957747E-01  0.3469920E+00
         13   -1    0    0    0    0  0.00000000000E+00  0.00000000000E+00  0.14999999963E+04  0.15000000000E+04  0.10566000000E+00 0.  1.
        994   -1    0    0    0    0 -0.00000000000E+00 -0.00000000000E+00  0.11368683772E-12  0.17120000000E+03  0.17120000000E+03 0.  0.
         13    1    1    2    0    0  0.10068078234E+03 -0.76598747637E+02  0.44769685340E+03  0.46522733344E+03  0.10566000000E+00 0.  1.
        994    1    1    2    0    0 -0.90754772084E+02  0.58013406078E+02  0.56653765625E+02  0.21005016806E+03  0.17120000000E+03 0.  0.
        998    1    1    2    0    0 -0.99260102548E+01  0.18585341559E+02  0.99564937725E+03  0.99592249850E+03  0.10000000000E+02 0.  1.
</event>
<event>
 5    1  0.9123258E-009  0.3841629E+03  0.7957747E-01  0.3433230E+00
         13   -1    0    0    0    0  0.00000000000E+00  0.00000000000E+00  0.14999999963E+04  0.15000000000E+04  0.10566000000E+00 0.  1.
        994   -1    0    0    0    0 -0.00000000000E+00 -0.00000000000E+00  0.11368683772E-12  0.17120000000E+03  0.17120000000E+03 0.  0.
         13    1    1    2    0    0  0.10405483063E+02 -0.17010280032E+02  0.99804118190E+02  0.10177670105E+03  0.10566000000E+00 0.  1.
        994    1    1    2    0    0 -0.27829224079E+00  0.95495634231E+01  0.23473642331E+01  0.17148242396E+03  0.17120000000E+03 0.  0.
        998    1    1    2    0    0 -0.10127190822E+02  0.74607166090E+01  0.13978485139E+04  0.13979408750E+04  0.10000000000E+02 0.  1.
</event>
<event>
 5    1  0.9123258E-009  0.3227497E+03  0.7957747E-01  0.3745900E+00
         13   -1    0    0    0    0  0.00000000000E+00  0.00000000000E+00  0.14999999963E+04  0.15000000000E+04  0.10566000000E+00 0.  1.
        994   -1    0    0    0    0 -0.00000000000E+00 -0.00000000000E+00  0.11368683772E-12  0.17120000000E+03  0.17120000000E+03 0.  0.
         13    1    1    2    0    0 -0.14558069862E+03 -0.93064293033E+02  0.96323291479E+03  0.97860735832E+03  0.10566000000E+00 0.  1.
        994    1    1    2    0    0  0.59234543200E+02  0.94822368418E+02  0.67480947992E+02  0.21532099527E+03  0.17120000000E+03 0.  0.
        998    1    1    2    0    0  0.86346155416E+02 -0.17580753856E+01  0.46928613349E+03  0.47727164642E+03  0.10000000000E+02 0.  1.
</event>
<event>
 5    1  0.9123258E-009  0.3842248E+03  0.7957747E-01  0.3432967E+00
         13   -1    0    0    0    0  0.00000000000E+00  0.00000000000E+00  0.14999999963E+04  0.15000000000E+04  0.10566000000E+00 0.  1.
        994   -1    0    0    0    0 -0.00000000000E+00 -0.00000000000E+00  0.11368683772E-12  0.17120000000E+03  0.17120000000E+03 0.  0.
         13    1    1    2    0    0  0.13530294109E+02  0.22914723340E+01  0.46895911042E+02  0.48862637471E+02  0.10566000000E+00 0.  1.
        994    1    1    2    0    0 -0.65492079050E+01 -0.10456806366E+01  0.21605480795E+01  0.17134203670E+03  0.17120000000E+03 0.  0.
        998    1    1    2    0    0 -0.69810862045E+01 -0.12457916974E+01  0.14509435372E+04  0.14509953258E+04  0.10000000000E+02 0.  1.
</event>
<event>
 5    1  0.9123258E-009  0.3835798E+03  0.7957747E-01  0.3435718E+00
         13   -1    0    0    0    0  0.00000000000E+00  0.00000000000E+00  0.14999999963E+04  0.15000000000E+04  0.10566000000E+00 0.  1.
        994   -1    0    0    0    0 -0.00000000000E+00 -0.00000000000E+00  0.11368683772E-12  0.17120000000E+03  0.17120000000E+03 0.  0.
         13    1    1    2    0    0 -0.21192526718E+01  0.19448205198E+02  0.78494186036E+02  0.80895440680E+02  0.10566000000E+00 0.  1.
        994    1    1    2    0    0  0.12502240892E+02 -0.17365581619E+02  0.38510994101E+01  0.17257502838E+03  0.17120000000E+03 0.  0.
        998    1    1    2    0    0 -0.10382988221E+02 -0.20826235795E+01  0.14176547108E+04  0.14177295309E+04  0.10000000000E+02 0.  1.
</event>
<event>
 5    1  0.9123258E-009  0.3702649E+03  0.7957747E-01  0.3494674E+00
         13   -1    0    0    0    0  0.00000000000E+00  0.00000000000E+00  0.14999999963E+04  0.15000000000E+04  0.10566000000E+00 0.  1.
        994   -1    0    0    0    0 -0.00000000000E+00 -0.00000000000E+00  0.11368683772E-12  0.17120000000E+03  0.17120000000E+03 0.  0.
         13    1    1    2    0    0 -0.22749228763E+02 -0.45478608469E+02  0.14036825354E+03  0.14929530805E+03  0.10566000000E+00 0.  1.
        994    1    1    2    0    0  0.26768305975E+02  0.17817921518E+02  0.12711048169E+02  0.17465689588E+03  0.17120000000E+03 0.  0.
        998    1    1    2    0    0 -0.40190772118E+01  0.27660686951E+02  0.13469206946E+04  0.13472477961E+04  0.10000000000E+02 0.  1.
</event>
<event>
 5    1  0.9123258E-009  0.4454215E+03  0.7957747E-01  0.3207924E+00
         13   -1    0    0    0    0  0.00000000000E+00  0.00000000000E+00  0.14999999963E+04  0.15000000000E+04  0.10566000000E+00 0.  1.
        994   -1    0    0    0    0 -0.00000000000E+00 -0.00000000000E+00  0.11368683772E-12  0.17120000000E+03  0.17120000000E+03 0.  0.
         13    1    1    2    0    0 -0.14420617853E+02  0.11297997229E+01 -0.22266333249E+02  0.26552427893E+02  0.10566000000E+00 0.  1.
        994    1    1    2    0    0  0.99870500125E+01 -0.24205340972E+02  0.61692635993E+02  0.18385064872E+03  0.17120000000E+03 0.  0.
        998    1    1    2    0    0  0.44335678403E+01  0.23075541249E+02  0.14605736935E+04  0.14607969234E+04  0.10000000000E+02 0.  1.
</event>
<event>
 5    1  0.9123258E-009  0.3851323E+03  0.7957747E-01  0.3429111E+00
         13   -1    0    0    0    0  0.00000000000E+00  0.00000000000E+00  0.14999999963E+04  0.15000000000E+04  0.10566000000E+00 0.  1.
        994   -1    0    0    0    0 -0.00000000000E+00 -0.00000000000E+00  0.11368683772E-12  0.17120000000E+03  0.17120000000E+03 0.  0.
         13    1    1    2    0    0 -0.20516045754E+02  0.35936539511E+01  0.11775485150E+03  0.11958276924E+03  0.10566000000E+00 0.  1.
        994    1    1    2    0    0  0.33087701075E+02  0.20717010234E+00  0.51717576429E+01  0.17444490809E+03  0.17120000000E+03 0.  0.
        998    1    1    2    0    0 -0.12571655322E+02 -0.38008240534E+01  0.13770733871E+04  0.13771723227E+04  0.10000000000E+02 0.  1.
</event>
<event>
 5    1  0.9123258E-009  0.3695401E+03  0.7957747E-01  0.3498007E+00
         13   -1    0    0    0    0  0.00000000000E+00  0.00000000000E+00  0.14999999963E+04  0.15000000000E+04  0.10566000000E+00 0. -1.
        994   -1    0    0    0    0 -0.00000000000E+00 -0.00000000000E+00  0.11368683772E-12  0.17120000000E+03  0.17120000000E+03 0.  0.
         13    1    1    2    0    0 -0.25531344763E+01 -0.54819827759E+02  0.14235266462E+03  0.15256482000E+03  0.10566000000E+00 0. -1.
        994    1    1    2    0    0  0.16860116916E+01  0.53029133827E+02  0.19322230969E+02  0.18027124086E+03  0.17120000000E+03 0.  0.
        998    1    1    2    0    0  0.86712278468E+00  0.17906939326E+01  0.13383251007E+04  0.13383639391E+04  0.10000000000E+02 0. -1.
</event>
<event>
 5    1  0.9123258E-009  0.3842671E+03  0.7957747E-01  0.3432786E+00
         13   -1    0    0    0    0  0.00000000000E+00  0.00000000000E+00  0.14999999963E+04  0.15000000000E+04  0.10566000000E+00 0. -1.
        994   -1    0    0    0    0 -0.00000000000E+00 -0.00000000000E+00  0.11368683772E-12  0.17120000000E+03  0.17120000000E+03 0.  0.
         13    1    1    2    0    0  0.17797187084E+02 -0.10803996646E+02  0.11657530294E+03  0.11841992497E+03  0.10566000000E+00 0. -1.
        994    1    1    2    0    0 -0.56175026065E+01 -0.21250513795E+01  0.21133667329E+01  0.17131835424E+03  0.17120000000E+03 0.  0.
        998    1    1    2    0    0 -0.12179684477E+02  0.12929048026E+02  0.13813113266E+04  0.13814617208E+04  0.10000000000E+02 0. -1.
</event>
<event>
 5    1  0.9123258E-009  0.3943831E+03  0.7957747E-01  0.3390827E+00
         13   -1    0    0    0    0  0.00000000000E+00  0.00000000000E+00  0.14999999963E+04  0.15000000000E+04  0.10566000000E+00 0.  1.
        994   -1    0    0    0    0 -0.00000000000E+00 -0.00000000000E+00  0.11368683772E-12  0.17120000000E+03  0.17120000000E+03 0.  0.
         13    1    1    2    0    0  0.35404772866E+02  0.32394202876E+02  0.35011573643E+02  0.59402893656E+02  0.10566000000E+00 0.  1.
        994    1    1    2    0    0 -0.78368494239E+02 -0.11642424709E+02  0.48912240590E+02  0.19488205208E+03  0.17120000000E+03 0.  0.
        998    1    1    2    0    0  0.42963721374E+02 -0.20751778167E+02  0.14160761820E+04  0.14169150543E+04  0.10000000000E+02 0.  1.
</event>
<event>
 5    1  0.9123258E-009  0.3714288E+03  0.7957747E-01  0.3489350E+00
         13   -1    0    0    0    0  0.00000000000E+00  0.00000000000E+00  0.14999999963E+04  0.15000000000E+04  0.10566000000E+00 0.  1.
        994   -1    0    0    0    0 -0.00000000000E+00 -0.00000000000E+00  0.11368683772E-12  0.17120000000E+03  0.17120000000E+03 0.  0.
         13    1    1    2    0    0 -0.47454394308E+02  0.35371088307E+02  0.21070692478E+03  0.21886172060E+03  0.10566000000E+00 0.  1.
        994    1    1    2    0    0  0.20084015747E+02 -0.19372447162E+02  0.11207980402E+02  0.17382093724E+03  0.17120000000E+03 0.  0.
        998    1    1    2    0    0  0.27370378561E+02 -0.15998641145E+02  0.12780850911E+04  0.12785173422E+04  0.10000000000E+02 0.  1.
</event>
<event>
 5    1  0.9123258E-009  0.3738890E+03  0.7957747E-01  0.3478207E+00
         13   -1    0    0    0    0  0.00000000000E+00  0.00000000000E+00  0.14999999963E+04  0.15000000000E+04  0.10566000000E+00 0.  1.
        994   -1    0    0    0    0 -0.00000000000E+00 -0.00000000000E+00  0.11368683772E-12  0.17120000000E+03  0.17120000000E+03 0.  0.
         13    1    1    2    0    0 -0.25470476182E+02 -0.37488240518E+02  0.76688044311E+02  0.89079630884E+02  0.10566000000E+00 0.  1.
        994    1    1    2    0    0  0.15392631078E+02  0.13441365646E+02  0.14491579672E+02  0.17302326226E+03  0.17120000000E+03 0.  0.
        998    1    1    2    0    0  0.10077845103E+02  0.24046874872E+02  0.14088203723E+04  0.14090971069E+04  0.10000000000E+02 0.  1.
</event>
<event>
 5    1  0.9123258E-009  0.3798553E+03  0.7957747E-01  0.3451789E+00
         13   -1    0    0    0    0  0.00000000000E+00  0.00000000000E+00  0.14999999963E+04  0.15000000000E+04  0.10566000000E+00 0.  1.
        994   -1    0    0    0    0 -0.00000000000E+00 -0.00000000000E+00  0.11368683772E-12  0.17120000000E+03  0.17120000000E+03 0.  0.
         13    1    1    2    0    0 -0.28732349285E+02  0.12013536679E+02  0.13034410043E+03  0.13401294206E+03  0.10566000000E+00 0.  1.
        994    1    1    2    0    0 -0.12737391746E+02 -0.21528335165E+02  0.63017346539E+01  0.17313249904E+03  0.17120000000E+03 0.  0.
        998    1    1    2    0    0  0.41469741031E+02  0.95147984860E+01  0.13633541612E+04  0.13640545589E+04  0.10000000000E+02 0.  1.
</event>
<event>
 5    1  0.9123258E-009  0.3816394E+03  0.7957747E-01  0.3444051E+00
         13   -1    0    0    0    0  0.00000000000E+00  0.00000000000E+00  0.14999999963E+04  0.15000000000E+04  0.10566000000E+00 0. -1.
        994   -1    0    0    0    0 -0.00000000000E+00 -0.00000000000E+00  0.11368683772E-12  0.17120000000E+03  0.17120000000E+03 0.  0.
         13    1    1    2    0    0 -0.45390510887E+02  0.59187562607E+02  0.38297877536E+03  0.39017460142E+03  0.10566000000E+00 0. -1.
        994    1    1    2    0    0  0.10349208616E+03 -0.72621396155E+02  0.58416664141E+02  0.22069532330E+03  0.17120000000E+03 0.  0.
        998    1    1    2    0    0 -0.58101575272E+02  0.13433833548E+02  0.10586045568E+04  0.10603300753E+04  0.10000000000E+02 0. -1.
</event>
<event>
 5    1  0.9123258E-009  0.3855240E+03  0.7957747E-01  0.3427453E+00
         13   -1    0    0    0    0  0.00000000000E+00  0.00000000000E+00  0.14999999963E+04  0.15000000000E+04  0.10566000000E+00 0.  1.
        994   -1    0    0    0    0 -0.00000000000E+00 -0.00000000000E+00  0.11368683772E-12  0.17120000000E+03  0.17120000000E+03 0.  0.
         13    1    1    2    0    0 -0.11376605150E+02 -0.93291352361E+00  0.46758854491E+02  0.48132100616E+02  0.10566000000E+00 0.  1.
        994    1    1    2    0    0  0.11501092520E+02 -0.18861924094E+01  0.18162956838E+01  0.17160586173E+03  0.17120000000E+03 0.  0.
        998    1    1    2    0    0 -0.12448737006E+00  0.28191059330E+01  0.14514248461E+04  0.14514620377E+04  0.10000000000E+02 0.  1.
</event>
<event>
 5    1  0.9123258E-009  0.3740406E+03  0.7957747E-01  0.3477524E+00
         13   -1    0    0    0    0  0.00000000000E+00  0.00000000000E+00  0.14999999963E+04  0.15000000000E+04  0.10566000000E+00 0.  1.
        994   -1    0    0    0    0 -0.00000000000E+00 -0.00000000000E+00  0.11368683772E-12  0.17120000000E+03  0.17120000000E+03 0.  0.
         13    1    1    2    0    0  0.51373658717E+02 -0.93442936753E+02  0.53530145593E+03  0.54581910477E+03  0.10566000000E+00 0.  1.
        994    1    1    2    0    0 -0.33443909587E+02  0.96432111984E+02  0.43575551930E+02  0.20402430256E+03  0.17120000000E+03 0.  0.
        998    1    1    2    0    0 -0.17929749130E+02 -0.29891752317E+01  0.92112298841E+03  0.92135659267E+03  0.10000000000E+02 0.  0.
</event>
<event>
 5    1  0.9123258E-009  0.3834037E+03  0.7957747E-01  0.3436471E+00
         13   -1    0    0    0    0  0.00000000000E+00  0.00000000000E+00  0.14999999963E+04  0.15000000000E+04  0.10566000000E+00 0. -1.
        994   -1    0    0    0    0 -0.00000000000E+00 -0.00000000000E+00  0.11368683772E-12  0.17120000000E+03  0.17120000000E+03 0.  0.
         13    1    1    2    0    0 -0.15014319292E+02 -0.10382644127E+02  0.62705457621E+02  0.65308610936E+02  0.10566000000E+00 0. -1.
        994    1    1    2    0    0  0.34748870262E+02 -0.78689956030E+00  0.64287225188E+01  0.17481095981E+03  0.17120000000E+03 0.  0.
        998    1    1    2    0    0 -0.19734550970E+02  0.11169543688E+02  0.14308658161E+04  0.14310804293E+04  0.10000000000E+02 0. -1.
</event>
<event>
 5    1  0.9123258E-009  0.3703928E+03  0.7957747E-01  0.3494088E+00
         13   -1    0    0    0    0  0.00000000000E+00  0.00000000000E+00  0.14999999963E+04  0.15000000000E+04  0.10566000000E+00 0. -1.
        994   -1    0    0    0    0 -0.00000000000E+00 -0.00000000000E+00  0.11368683772E-12  0.17120000000E+03  0.17120000000E+03 0.  0.
         13    1    1    2    0    0 -0.11916621214E+03 -0.69786868645E+02  0.68426131721E+03  0.69805755819E+03  0.10566000000E+00 0. -1.
        994    1    1    2    0    0  0.12987187260E+03  0.12160406050E+01  0.72776613366E+02  0.22687894900E+03  0.17120000000E+03 0.  0.
        998    1    1    2    0    0 -0.10705660467E+02  0.68570828040E+02  0.74296206570E+03  0.74626349280E+03  0.10000000000E+02 0. -1.
</event>
<event>
 5    1  0.9123258E-009  0.3779466E+03  0.7957747E-01  0.3460149E+00
         13   -1    0    0    0    0  0.00000000000E+00  0.00000000000E+00  0.14999999963E+04  0.15000000000E+04  0.10566000000E+00 0. -1.
        994   -1    0    0    0    0 -0.00000000000E+00 -0.00000000000E+00  0.11368683772E-12  0.17120000000E+03  0.17120000000E+03 0.  0.
         13    1    1    2    0    0 -0.20737000574E+01  0.17570757108E+02  0.28846844672E+02  0.33840557750E+02  0.10566000000E+00 0. -1.
        994    1    1    2    0    0 -0.74288558785E+01 -0.41429285438E+01  0.54168739065E+01  0.17149674714E+03  0.17120000000E+03 0.  0.
        998    1    1    2    0    0  0.95025559359E+01 -0.13427828564E+02  0.14657362777E+04  0.14658626951E+04  0.10000000000E+02 0. -1.
</event>
<event>
 5    1  0.9123258E-009  0.3710784E+03  0.7957747E-01  0.3490950E+00
         13   -1    0    0    0    0  0.00000000000E+00  0.00000000000E+00  0.14999999963E+04  0.15000000000E+04  0.10566000000E+00 0.  1.
        994   -1    0    0    0    0 -0.00000000000E+00 -0.00000000000E+00  0.11368683772E-12  0.17120000000E+03  0.17120000000E+03 0.  0.
         13    1    1    2    0    0  0.12752197203E+03 -0.64991278169E+02  0.74978627870E+03  0.76332509095E+03  0.10566000000E+00 0.  1.
        994    1    1    2    0    0 -0.10209893504E+03  0.70034168640E+02  0.63520803904E+02  0.22062028429E+03  0.17120000000E+03 0.  0.
        998    1    1    2    0    0 -0.25423036989E+02 -0.50428904713E+01  0.68669291368E+03  0.68725462476E+03  0.10000000000E+02 0.  1.
</event>
<event>
 5    1  0.9123258E-009  0.3768034E+03  0.7957747E-01  0.3465196E+00
         13   -1    0    0    0    0  0.00000000000E+00  0.00000000000E+00  0.14999999963E+04  0.15000000000E+04  0.10566000000E+00 0. -1.
        994   -1    0    0    0    0 -0.00000000000E+00 -0.00000000000E+00  0.11368683772E-12  0.17120000000E+03  0.17120000000E+03 0.  0.
         13    1    1    2    0    0 -0.13381297112E+02  0.11152648279E+02  0.23544479061E+02  0.29288126166E+02  0.10566000000E+00 0. -1.
        994    1    1    2    0    0  0.19571060014E+02 -0.54479849894E+01  0.71511567178E+01  0.17254937257E+03  0.17120000000E+03 0.  0.
        998    1    1    2    0    0 -0.61897629019E+01 -0.57046632896E+01  0.14693043605E+04  0.14693625013E+04  0.10000000000E+02 0. -1.
</event>
<event>
 5    1  0.9123258E-009  0.3789755E+03  0.7957747E-01  0.3455632E+00
         13   -1    0    0    0    0  0.00000000000E+00  0.00000000000E+00  0.14999999963E+04  0.15000000000E+04  0.10566000000E+00 0.  1.
        994   -1    0    0    0    0 -0.00000000000E+00 -0.00000000000E+00  0.11368683772E-12  0.17120000000E+03  0.17120000000E+03 0.  0.
         13    1    1    2    0    0 -0.36821721177E+02  0.86328201125E-01  0.13114906344E+03  0.13622016960E+03  0.10566000000E+00 0.  1.
        994    1    1    2    0    0  0.39103904261E+02  0.14283195077E+02  0.10486633973E+02  0.17650080590E+03  0.17120000000E+03 0.  0.
        998    1    1    2    0    0 -0.22821830841E+01 -0.14369523278E+02  0.13583642989E+04  0.13584790245E+04  0.10000000000E+02 0.  1.
</event>
<event>
 5    1  0.9123258E-009  0.3813148E+03  0.7957747E-01  0.3445453E+00
         13   -1    0    0    0    0  0.00000000000E+00  0.00000000000E+00  0.14999999963E+04  0.15000000000E+04  0.10566000000E+00 0. -1.
        994   -1    0    0    0    0 -0.00000000000E+00 -0.00000000000E+00  0.11368683772E-12  0.17120000000E+03  0.17120000000E+03 0.  0.
         13    1    1    2    0    0 -0.85401037413E+01 -0.76466182912E+01  0.17586085681E+02  0.20992515733E+02  0.10566000000E+00 0. -1.
        994    1    1    2    0    0  0.43975166821E+01  0.45321315218E+01  0.36036434173E+01  0.17135432476E+03  0.17120000000E+03 0.  0.
        998    1    1    2    0    0  0.41425870592E+01  0.31144867694E+01  0.14788102672E+04  0.14788531595E+04  0.10000000000E+02 0. -1.
</event>
<event>
 5    1  0.9123258E-009  0.3756317E+03  0.7957747E-01  0.3470403E+00
         13   -1    0    0    0    0  0.00000000000E+00  0.00000000000E+00  0.14999999963E+04  0.15000000000E+04  0.10566000000E+00 0.  1.
        994   -1    0    0    0    0 -0.00000000000E+00 -0.00000000000E+00  0.11368683772E-12  0.17120000000E+03  0.17120000000E+03 0.  0.
         13    1    1    2    0    0  0.12360119816E+03 -0.82261785305E+02  0.83393742069E+03  0.84705129142E+03  0.10566000000E+00 0.  1.
        994    1    1    2    0    0 -0.12209175157E+03  0.68320591270E+02  0.75939178285E+02  0.23377403147E+03  0.17120000000E+03 0.  0.
        998    1    1    2    0    0 -0.15094465885E+01  0.13941194035E+02  0.59012339730E+03  0.59037467710E+03  0.10000000000E+02 0.  0.
</event>
<event>
 5    1  0.9123258E-009  0.3848930E+03  0.7957747E-01  0.3430126E+00
         13   -1    0    0    0    0  0.00000000000E+00  0.00000000000E+00  0.14999999963E+04  0.15000000000E+04  0.10566000000E+00 0. -1.
        994   -1    0    0    0    0 -0.00000000000E+00 -0.00000000000E+00  0.11368683772E-12  0.17120000000E+03  0.17120000000E+03 0.  0.
         13    1    1    2    0    0  0.16157867052E+01  0.18408107084E+02  0.96698628037E+02  0.98448489077E+02  0.10566000000E+00 0. -1.
        994    1    1    2    0    0  0.13302318421E+01 -0.18311925635E+02  0.27930066342E+01  0.17220434670E+03  0.17120000000E+03 0.  0.
        998    1    1    2    0    0 -0.29460185473E+01 -0.96181448389E-01  0.14005083616E+04  0.14005471642E+04  0.10000000000E+02 0. -1.
</event>
<event>
 5    1  0.9123258E-009  0.3755211E+03  0.7957747E-01  0.3470895E+00
         13   -1    0    0    0    0  0.00000000000E+00  0.00000000000E+00  0.14999999963E+04  0.15000000000E+04  0.10566000000E+00 0.  1.
        994   -1    0    0    0    0 -0.00000000000E+00 -0.00000000000E+00  0.11368683772E-12  0.17120000000E+03  0.17120000000E+03 0.  0.
         13    1    1    2    0    0  0.40350210393E+01  0.13248259316E+02  0.12008615171E+02  0.18330732992E+02  0.10566000000E+00 0.  1.
        994    1    1    2    0    0 -0.10444881338E+02 -0.11007630983E+02  0.71930851037E+01  0.17202163806E+03  0.17120000000E+03 0.  0.
        998    1    1    2    0    0  0.64098602992E+01 -0.22406283329E+01  0.14807982960E+04  0.14808476290E+04  0.10000000000E+02 0.  1.
</event>
<event>
 5    1  0.9123258E-009  0.3833009E+03  0.7957747E-01  0.3436910E+00
         13   -1    0    0    0    0  0.00000000000E+00  0.00000000000E+00  0.14999999963E+04  0.15000000000E+04  0.10566000000E+00 0.  1.
        994   -1    0    0    0    0 -0.00000000000E+00 -0.00000000000E+00  0.11368683772E-12  0.17120000000E+03  0.17120000000E+03 0.  0.
         13    1    1    2    0    0  0.16381803049E+02  0.11711864796E+02  0.85897446610E+02  0.88226491182E+02  0.10566000000E+00 0.  1.
        994    1    1    2    0    0 -0.18850880860E+02  0.18989787146E+02  0.48472593018E+01  0.17334619594E+03  0.17120000000E+03 0.  0.
        998    1    1    2    0    0  0.24690778110E+01 -0.30701651942E+02  0.14092552904E+04  0.14096273129E+04  0.10000000000E+02 0.  1.
</event>
<event>
 5    1  0.9123258E-009  0.3803791E+03  0.7957747E-01  0.3449509E+00
         13   -1    0    0    0    0  0.00000000000E+00  0.00000000000E+00  0.14999999963E+04  0.15000000000E+04  0.10566000000E+00 0. -1.
        994   -1    0    0    0    0 -0.00000000000E+00 -0.00000000000E+00  0.11368683772E-12  0.17120000000E+03  0.17120000000E+03 0.  0.
         13    1    1    2    0    0  0.29304924174E+02 -0.32157644204E+01  0.10368391280E+03  0.10779371344E+03  0.10566000000E+00 0. -1.
        994    1    1    2    0    0 -0.27577371464E+02 -0.27515647556E+01  0.65105417562E+01  0.17355088499E+03  0.17120000000E+03 0.  0.
        998    1    1    2    0    0 -0.17275527101E+01  0.59673291760E+01  0.13898055417E+04  0.13898554016E+04  0.10000000000E+02 0. -1.
</event>
<event>
 5    1  0.9123258E-009  0.3740806E+03  0.7957747E-01  0.3477345E+00
         13   -1    0    0    0    0  0.00000000000E+00  0.00000000000E+00  0.14999999963E+04  0.15000000000E+04  0.10566000000E+00 0.  1.
        994   -1    0    0    0    0 -0.00000000000E+00 -0.00000000000E+00  0.11368683772E-12  0.17120000000E+03  0.17120000000E+03 0.  0.
         13    1    1    2    0    0  0.60443289784E+02  0.40342525087E+02  0.33585607746E+03  0.34362803515E+03  0.10566000000E+00 0.  1.
        994    1    1    2    0    0 -0.36612376424E+02 -0.40942884614E+02  0.17508786606E+02  0.18064546359E+03  0.17120000000E+03 0.  0.
        998    1    1    2    0    0 -0.23830913361E+02  0.60035952762E+00  0.11466351322E+04  0.11469265013E+04  0.10000000000E+02 0.  1.
</event>
<event>
 5    1  0.9123258E-009  0.3692222E+03  0.7957747E-01  0.3499473E+00
         13   -1    0    0    0    0  0.00000000000E+00  0.00000000000E+00  0.14999999963E+04  0.15000000000E+04  0.10566000000E+00 0.  1.
        994   -1    0    0    0    0 -0.00000000000E+00 -0.00000000000E+00  0.11368683772E-12  0.17120000000E+03  0.17120000000E+03 0.  0.
         13    1    1    2    0    0 -0.13879357206E+03 -0.22188907537E+03  0.11290348657E+04  0.11589728886E+04  0.10566000000E+00 0.  1.
        994    1    1    2    0    0  0.14423152411E+03  0.18954479376E+03  0.24656796641E+03  0.38319076639E+03  0.17120000000E+03 0.  0.
        998    1    1    2    0    0 -0.54379520542E+01  0.32344281612E+02  0.12439716416E+03  0.12903634499E+03  0.10000000000E+02 0.  1.
</event>
<event>
 5    1  0.9123258E-009  0.3845076E+03  0.7957747E-01  0.3431763E+00
         13   -1    0    0    0    0  0.00000000000E+00  0.00000000000E+00  0.14999999963E+04  0.15000000000E+04  0.10566000000E+00 0. -1.
        994   -1    0    0    0    0 -0.00000000000E+00 -0.00000000000E+00  0.11368683772E-12  0.17120000000E+03  0.17120000000E+03 0.  0.
         13    1    1    2    0    0  0.28688166809E+01  0.18119974542E+02  0.83309940271E+02  0.85306042568E+02  0.10566000000E+00 0. -1.
        994    1    1    2    0    0 -0.13715100289E+02 -0.20914436157E+02  0.39379135145E+01  0.17306202581E+03  0.17120000000E+03 0.  0.
        998    1    1    2    0    0  0.10846283608E+02  0.27944616151E+01  0.14127521425E+04  0.14128319316E+04  0.10000000000E+02 0. -1.
</event>
<event>
 5    1  0.9123258E-009  0.3856675E+03  0.7957747E-01  0.3426846E+00
         13   -1    0    0    0    0  0.00000000000E+00  0.00000000000E+00  0.14999999963E+04  0.15000000000E+04  0.10566000000E+00 0.  1.
        994   -1    0    0    0    0 -0.00000000000E+00 -0.00000000000E+00  0.11368683772E-12  0.17120000000E+03  0.17120000000E+03 0.  0.
         13    1    1    2    0    0 -0.87934425609E+01  0.16960923227E+02  0.55025867652E+00  0.19113123696E+02  0.10566000000E+00 0.  1.
        994    1    1    2    0    0  0.87727226510E+01 -0.23522878580E+02  0.21811589606E+02  0.17440032087E+03  0.17120000000E+03 0.  0.
        998    1    1    2    0    0  0.20719909905E-01  0.65619553525E+01  0.14776381480E+04  0.14776865554E+04  0.10000000000E+02 0.  1.
</event>
<event>
 5    1  0.9123258E-009  0.3852716E+03  0.7957747E-01  0.3428521E+00
         13   -1    0    0    0    0  0.00000000000E+00  0.00000000000E+00  0.14999999963E+04  0.15000000000E+04  0.10566000000E+00 0. -1.
        994   -1    0    0    0    0 -0.00000000000E+00 -0.00000000000E+00  0.11368683772E-12  0.17120000000E+03  0.17120000000E+03 0.  0.
         13    1    1    2    0    0 -0.12417698699E+02  0.93333250132E+01  0.91281624232E+02  0.92594040215E+02  0.10566000000E+00 0. -1.
        994    1    1    2    0    0 -0.65035196399E+01 -0.45877914447E+00  0.16350368155E+01  0.17133189893E+03  0.17120000000E+03 0.  0.
        998    1    1    2    0    0  0.18921218339E+02 -0.88745458687E+01  0.14070833352E+04  0.14072740609E+04  0.10000000000E+02 0. -1.
</event>
<event>
 5    1  0.9123258E-009  0.3735430E+03  0.7957747E-01  0.3479765E+00
         13   -1    0    0    0    0  0.00000000000E+00  0.00000000000E+00  0.14999999963E+04  0.15000000000E+04  0.10566000000E+00 0. -1.
        994   -1    0    0    0    0 -0.00000000000E+00 -0.00000000000E+00  0.11368683772E-12  0.17120000000E+03  0.17120000000E+03 0.  0.
         13    1    1    2    0    0  0.24570997691E+02  0.24765068902E+02  0.74396039767E+02  0.82169486199E+02  0.10566000000E+00 0. -1.
        994    1    1    2    0    0 -0.34482428291E+02 -0.21479558510E+02  0.13087606456E+02  0.17644017325E+03  0.17120000000E+03 0.  0.
        998    1    1    2    0    0  0.99114305999E+01 -0.32855103914E+01  0.14125163501E+04  0.14125903405E+04  0.10000000000E+02 0. -1.
</event>
<event>
 5    1  0.9123258E-009  0.3768102E+03  0.7957747E-01  0.3465166E+00
         13   -1    0    0    0    0  0.00000000000E+00  0.00000000000E+00  0.14999999963E+04  0.15000000000E+04  0.10566000000E+00 0. -1.
        994   -1    0    0    0    0 -0.00000000000E+00 -0.00000000000E+00  0.11368683772E-12  0.17120000000E+03  0.17120000000E+03 0.  0.
         13    1    1    2    0    0  0.66587874012E+01 -0.41537848662E+02  0.14029276524E+03  0.14646434196E+03  0.10566000000E+00 0. -1.
        994    1    1    2    0    0 -0.14399866082E+02  0.38220138129E+02  0.11408812602E+02  0.17637385324E+03  0.17120000000E+03 0.  0.
        998    1    1    2    0    0  0.77410786810E+01  0.33177105329E+01  0.13482984184E+04  0.13483618048E+04  0.10000000000E+02 0. -1.
</event>
<event>
 5    1  0.9123258E-009  0.3857304E+03  0.7957747E-01  0.3426580E+00
         13   -1    0    0    0    0  0.00000000000E+00  0.00000000000E+00  0.14999999963E+04  0.15000000000E+04  0.10566000000E+00 0. -1.
        994   -1    0    0    0    0 -0.00000000000E+00 -0.00000000000E+00  0.11368683772E-12  0.17120000000E+03  0.17120000000E+03 0.  0.
         13    1    1    2    0    0 -0.57292371051E+01  0.10323459800E+02  0.62288079168E+02  0.63397270844E+02  0.10566000000E+00 0. -1.
        994    1    1    2    0    0 -0.12121933235E+02  0.28492715223E+01  0.17768347952E+01  0.17166145973E+03  0.17120000000E+03 0.  0.
        998    1    1    2    0    0  0.17851170340E+02 -0.13172731322E+02  0.14359350823E+04  0.14361412694E+04  0.10000000000E+02 0. -1.
</event>
<event>
 5    1  0.9123258E-009  0.3797011E+03  0.7957747E-01  0.3452461E+00
         13   -1    0    0    0    0  0.00000000000E+00  0.00000000000E+00  0.14999999963E+04  0.15000000000E+04  0.10566000000E+00 0.  1.
        994   -1    0    0    0    0 -0.00000000000E+00 -0.00000000000E+00  0.11368683772E-12  0.17120000000E+03  0.17120000000E+03 0.  0.
         13    1    1    2    0    0 -0.21583976722E+02 -0.98531283802E+01  0.62389742649E+02  0.66749107424E+02  0.10566000000E+00 0.  1.
        994    1    1    2    0    0  0.20259065853E+02  0.84104332501E+01  0.58958440413E+01  0.17270022036E+03  0.17120000000E+03 0.  0.
        998    1    1    2    0    0  0.13249108689E+01  0.14426951301E+01  0.14317144096E+04  0.14317506722E+04  0.10000000000E+02 0.  1.
</event>
<event>
 5    1  0.9123258E-009  0.3813176E+03  0.7957747E-01  0.3445441E+00
         13   -1    0    0    0    0  0.00000000000E+00  0.00000000000E+00  0.14999999963E+04  0.15000000000E+04  0.10566000000E+00 0.  1.
        994   -1    0    0    0    0 -0.00000000000E+00 -0.00000000000E+00  0.11368683772E-12  0.17120000000E+03  0.17120000000E+03 0.  0.
         13    1    1    2    0    0  0.12200790021E+02  0.98184225254E+01  0.35662453551E+02  0.38949742687E+02  0.10566000000E+00 0.  1.
        994    1    1    2    0    0 -0.26825827346E+01  0.76182411800E+01  0.36866545685E+01  0.17143005941E+03  0.17120000000E+03 0.  0.
        998    1    1    2    0    0 -0.95182072863E+01 -0.17436663705E+02  0.14606508882E+04  0.14608201979E+04  0.10000000000E+02 0.  1.
</event>
<event>
 5    1  0.9123258E-009  0.3842282E+03  0.7957747E-01  0.3432952E+00
         13   -1    0    0    0    0  0.00000000000E+00  0.00000000000E+00  0.14999999963E+04  0.15000000000E+04  0.10566000000E+00 0.  1.
        994   -1    0    0    0    0 -0.00000000000E+00 -0.00000000000E+00  0.11368683772E-12  0.17120000000E+03  0.17120000000E+03 0.  0.
         13    1    1    2    0    0 -0.13998654170E+02  0.27618780735E+01  0.50130129180E+02  0.52121313344E+02  0.10566000000E+00 0.  1.
        994    1    1    2    0    0  0.12070275966E+02  0.10822912878E+02  0.28808028815E+01  0.17199001724E+03  0.17120000000E+03 0.  0.
        998    1    1    2    0    0  0.19283782032E+01 -0.13584790951E+02  0.14469890642E+04  0.14470886694E+04  0.10000000000E+02 0.  1.
</event>
<event>
 5    1  0.9123258E-009  0.3861109E+03  0.7957747E-01  0.3424974E+00
         13   -1    0    0    0    0  0.00000000000E+00  0.00000000000E+00  0.14999999963E+04  0.15000000000E+04  0.10566000000E+00 0.  1.
        994   -1    0    0    0    0 -0.00000000000E+00 -0.00000000000E+00  0.11368683772E-12  0.17120000000E+03  0.17120000000E+03 0.  0.
         13    1    1    2    0    0  0.50710826160E+01 -0.95582100480E+01  0.53691397997E+02  0.54770910538E+02  0.10566000000E+00 0.  1.
        994    1    1    2    0    0 -0.82209711577E+01  0.76905413344E+01  0.14949887140E+01  0.17157623316E+03  0.17120000000E+03 0.  0.
        998    1    1    2    0    0  0.31498885417E+01  0.18676687136E+01  0.14448136096E+04  0.14448528563E+04  0.10000000000E+02 0.  1.
</event>
<event>
 5    1  0.9123258E-009  0.3826204E+03  0.7957747E-01  0.3439827E+00
         13   -1    0    0    0    0  0.00000000000E+00  0.00000000000E+00  0.14999999963E+04  0.15000000000E+04  0.10566000000E+00 0.  1.
        994   -1    0    0    0    0 -0.00000000000E+00 -0.00000000000E+00  0.11368683772E-12  0.17120000000E+03  0.17120000000E+03 0.  0.
         13    1    1    2    0    0 -0.42769071616E+01 -0.12514939118E+02  0.30155265253E+02  0.32928207095E+02  0.10566000000E+00 0.  1.
        994    1    1    2    0    0  0.57622055013E+01  0.66708488009E+01  0.30737618566E+01  0.17145434158E+03  0.17120000000E+03 0.  0.
        998    1    1    2    0    0 -0.14852983397E+01  0.58440903168E+01  0.14667709692E+04  0.14668174513E+04  0.10000000000E+02 0.  1.
</event>
<event>
 5    1  0.9123258E-009  0.3852614E+03  0.7957747E-01  0.3428564E+00
         13   -1    0    0    0    0  0.00000000000E+00  0.00000000000E+00  0.14999999963E+04  0.15000000000E+04  0.10566000000E+00 0.  1.
        994   -1    0    0    0    0 -0.00000000000E+00 -0.00000000000E+00  0.11368683772E-12  0.17120000000E+03  0.17120000000E+03 0.  0.
         13    1    1    2    0    0 -0.55088151373E+01 -0.12119875378E+02  0.59823561137E+02  0.61287095334E+02  0.10566000000E+00 0.  1.
        994    1    1    2    0    0  0.60341247631E+01  0.51819617277E+01  0.17082944512E+01  0.17139317857E+03  0.17120000000E+03 0.  0.
        998    1    1    2    0    0 -0.52530962573E+00  0.69379136502E+01  0.14384681407E+04  0.14385197261E+04  0.10000000000E+02 0.  1.
</event>
<event>
 5    1  0.9123258E-009  0.3698963E+03  0.7957747E-01  0.3496368E+00
         13   -1    0    0    0    0  0.00000000000E+00  0.00000000000E+00  0.14999999963E+04  0.15000000000E+04  0.10566000000E+00 0.  1.
        994   -1    0    0    0    0 -0.00000000000E+00 -0.00000000000E+00  0.11368683772E-12  0.17120000000E+03  0.17120000000E+03 0.  0.
         13    1    1    2    0    0  0.30745445438E+02 -0.50026032194E+02  0.13777031130E+03  0.14976166450E+03  0.10566000000E+00 0.  1.
        994    1    1    2    0    0 -0.32466386531E+02  0.55717617333E+02  0.25561652238E+02  0.18471967194E+03  0.17120000000E+03 0.  0.
        998    1    1    2    0    0  0.17209410925E+01 -0.56915851390E+01  0.13366680327E+04  0.13367186636E+04  0.10000000000E+02 0.  1.
</event>
<event>
 5    1  0.9123258E-009  0.3807118E+03  0.7957747E-01  0.3448065E+00
         13   -1    0    0    0    0  0.00000000000E+00  0.00000000000E+00  0.14999999963E+04  0.15000000000E+04  0.10566000000E+00 0. -1.
        994   -1    0    0    0    0 -0.00000000000E+00 -0.00000000000E+00  0.11368683772E-12  0.17120000000E+03  0.17120000000E+03 0.  0.
         13    1    1    2    0    0 -0.19924528535E+02  0.18702959983E+02  0.92663703453E+02  0.96609319691E+02  0.10566000000E+00 0. -1.
        994    1    1    2    0    0  0.19127160399E+02 -0.19013069263E+02  0.62037952674E+01  0.17342223659E+03  0.17120000000E+03 0.  0.
        998    1    1    2    0    0  0.79736813581E+00  0.31010928002E+00  0.14011324976E+04  0.14011684437E+04  0.10000000000E+02 0.  0.
</event>
<event>
 5    1  0.9123258E-009  0.3686631E+03  0.7957747E-01  0.3502058E+00
         13   -1    0    0    0    0  0.00000000000E+00  0.00000000000E+00  0.14999999963E+04  0.15000000000E+04  0.10566000000E+00 0. -1.
        994   -1    0    0    0    0 -0.00000000000E+00 -0.00000000000E+00  0.11368683772E-12  0.17120000000E+03  0.17120000000E+03 0.  0.
         13    1    1    2    0    0  0.81907509933E+02 -0.42342105983E+02  0.33448637458E+03  0.34696230352E+03  0.10566000000E+00 0. -1.
        994    1    1    2    0    0 -0.96673825846E+02  0.90407353094E+01  0.43472772065E+02  0.20156112078E+03  0.17120000000E+03 0.  0.
        998    1    1    2    0    0  0.14766315913E+02  0.33301370673E+02  0.11220408496E+04  0.11226765757E+04  0.10000000000E+02 0. -1.
</event>
<event>
 5    1  0.9123258E-009  0.3825016E+03  0.7957747E-01  0.3440338E+00
         13   -1    0    0    0    0  0.00000000000E+00  0.00000000000E+00  0.14999999963E+04  0.15000000000E+04  0.10566000000E+00 0. -1.
        994   -1    0    0    0    0 -0.00000000000E+00 -0.00000000000E+00  0.11368683772E-12  0.17120000000E+03  0.17120000000E+03 0.  0.
         13    1    1    2    0    0 -0.70697755695E+00 -0.22747847681E+02  0.82841538909E+02  0.85910977903E+02  0.10566000000E+00 0. -1.
        994    1    1    2    0    0  0.47216570329E+02  0.28207658979E+02  0.12970886937E+02  0.18028521971E+03  0.17120000000E+03 0.  0.
        998    1    1    2    0    0 -0.46509592772E+02 -0.54598112986E+01  0.14041875704E+04  0.14050038024E+04  0.10000000000E+02 0. -1.
</event>
<event>
 5    1  0.9123258E-009  0.3844197E+03  0.7957747E-01  0.3432137E+00
         13   -1    0    0    0    0  0.00000000000E+00  0.00000000000E+00  0.14999999963E+04  0.15000000000E+04  0.10566000000E+00 0.  1.
        994   -1    0    0    0    0 -0.00000000000E+00 -0.00000000000E+00  0.11368683772E-12  0.17120000000E+03  0.17120000000E+03 0.  0.
         13    1    1    2    0    0  0.16654560723E+01  0.15058663145E+02  0.62915796135E+02  0.64714338805E+02  0.10566000000E+00 0.  1.
        994    1    1    2    0    0 -0.71396469177E+01  0.20681785796E+00  0.20866544132E+01  0.17136163940E+03  0.17120000000E+03 0.  0.
        998    1    1    2    0    0  0.54741908454E+01 -0.15265481003E+02  0.14349975457E+04  0.14351240218E+04  0.10000000000E+02 0.  1.
</event>
<event>
 5    1  0.9123258E-009  0.3825684E+03  0.7957747E-01  0.3440051E+00
         13   -1    0    0    0    0  0.00000000000E+00  0.00000000000E+00  0.14999999963E+04  0.15000000000E+04  0.10566000000E+00 0.  1.
        994   -1    0    0    0    0 -0.00000000000E+00 -0.00000000000E+00  0.11368683772E-12  0.17120000000E+03  0.17120000000E+03 0.  0.
         13    1    1    2    0    0  0.21493269040E+02  0.74034980260E+01  0.94714760892E+02  0.97404668737E+02  0.10566000000E+00 0.  1.
        994    1    1    2    0    0 -0.64204427725E+01  0.12297526864E+01  0.29838791838E+01  0.17135074529E+03  0.17120000000E+03 0.  0.
        998    1    1    2    0    0 -0.15072826267E+02 -0.86332507124E+01  0.14023013562E+04  0.14024445860E+04  0.10000000000E+02 0.  1.
</event>
<event>
 5    1  0.9123258E-009  0.3763487E+03  0.7957747E-01  0.3467213E+00
         13   -1    0    0    0    0  0.00000000000E+00  0.00000000000E+00  0.14999999963E+04  0.15000000000E+04  0.10566000000E+00 0.  1.
        994   -1    0    0    0    0 -0.00000000000E+00 -0.00000000000E+00  0.11368683772E-12  0.17120000000E+03  0.17120000000E+03 0.  0.
         13    1    1    2    0    0 -0.57039682999E+02 -0.66454283426E+02  0.31928936228E+03  0.33108217296E+03  0.10566000000E+00 0.  1.
        994    1    1    2    0    0  0.18537184239E+02  0.89025856187E+01  0.15849388870E+02  0.17315751892E+03  0.17120000000E+03 0.  0.
        998    1    1    2    0    0  0.38502498759E+02  0.57551697807E+02  0.11648612451E+04  0.11669603081E+04  0.10000000000E+02 0.  1.
</event>
<event>
 5    1  0.9123258E-009  0.3830289E+03  0.7957747E-01  0.3438075E+00
         13   -1    0    0    0    0  0.00000000000E+00  0.00000000000E+00  0.14999999963E+04  0.15000000000E+04  0.10566000000E+00 0. -1.
        994   -1    0    0    0    0 -0.00000000000E+00 -0.00000000000E+00  0.11368683772E-12  0.17120000000E+03  0.17120000000E+03 0.  0.
         13    1    1    2    0    0  0.24259899909E+02  0.31366303183E+01  0.11557613948E+03  0.11813651583E+03  0.10566000000E+00 0. -1.
        994    1    1    2    0    0 -0.12410941309E+02 -0.30373773417E+01  0.31524760846E+01  0.17170508213E+03  0.17120000000E+03 0.  0.
        998    1    1    2    0    0 -0.11848958600E+02 -0.99252976619E-01  0.13812713807E+04  0.13813584020E+04  0.10000000000E+02 0. -1.
</event>
<event>
 5    1  0.9123258E-009  0.3829075E+03  0.7957747E-01  0.3438595E+00
         13   -1    0    0    0    0  0.00000000000E+00  0.00000000000E+00  0.14999999963E+04  0.15000000000E+04  0.10566000000E+00 0. -1.
        994   -1    0    0    0    0 -0.00000000000E+00 -0.00000000000E+00  0.11368683772E-12  0.17120000000E+03  0.17120000000E+03 0.  0.
         13    1    1    2    0    0 -0.16332951640E+02  0.18043679251E+02  0.11362151684E+03  0.11619896697E+03  0.10566000000E+00 0. -1.
        994    1    1    2    0    0  0.13472184788E+02 -0.16078240747E+01  0.32823597931E+01  0.17176815405E+03  0.17120000000E+03 0.  0.
        998    1    1    2    0    0  0.28607668512E+01 -0.16435855176E+02  0.13830961196E+04  0.13832328790E+04  0.10000000000E+02 0. -1.
</event>
<event>
 5    1  0.9123258E-009  0.3703386E+03  0.7957747E-01  0.3494336E+00
         13   -1    0    0    0    0  0.00000000000E+00  0.00000000000E+00  0.14999999963E+04  0.15000000000E+04  0.10566000000E+00 0. -1.
        994   -1    0    0    0    0 -0.00000000000E+00 -0.00000000000E+00  0.11368683772E-12  0.17120000000E+03  0.17120000000E+03 0.  0.
         13    1    1    2    0    0  0.13381753052E+02  0.35465837215E+02  0.62935600907E+02  0.73469707701E+02  0.10566000000E+00 0. -1.
        994    1    1    2    0    0  0.12487695016E+01 -0.13110079217E+02  0.11725209879E+02  0.17210564822E+03  0.17120000000E+03 0.  0.
        998    1    1    2    0    0 -0.14630522553E+02 -0.22355757997E+02  0.14253391855E+04  0.14256246441E+04  0.10000000000E+02 0. -1.
</event>
<event>
 5    1  0.9123258E-009  0.3854784E+03  0.7957747E-01  0.3427646E+00
         13   -1    0    0    0    0  0.00000000000E+00  0.00000000000E+00  0.14999999963E+04  0.15000000000E+04  0.10566000000E+00 0.  1.
        994   -1    0    0    0    0 -0.00000000000E+00 -0.00000000000E+00  0.11368683772E-12  0.17120000000E+03  0.17120000000E+03 0.  0.
         13    1    1    2    0    0 -0.31370255700E+01  0.11266491055E+02  0.47456260063E+02  0.48876195978E+02  0.10566000000E+00 0.  1.
        994    1    1    2    0    0 -0.98202569784E+01 -0.17903014314E+02  0.27630904199E+01  0.17243558228E+03  0.17120000000E+03 0.  0.
        998    1    1    2    0    0  0.12957282548E+02  0.66365232590E+01  0.14497806458E+04  0.14498882217E+04  0.10000000000E+02 0.  1.
</event>
<event>
 5    1  0.9123258E-009  0.3820669E+03  0.7957747E-01  0.3442208E+00
         13   -1    0    0    0    0  0.00000000000E+00  0.00000000000E+00  0.14999999963E+04  0.15000000000E+04  0.10566000000E+00 0.  1.
        994   -1    0    0    0    0 -0.00000000000E+00 -0.00000000000E+00  0.11368683772E-12  0.17120000000E+03  0.17120000000E+03 0.  0.
         13    1    1    2    0    0 -0.98928054713E+00 -0.17154236056E+02  0.59724302221E+02  0.62147002587E+02  0.10566000000E+00 0.  1.
        994    1    1    2    0    0 -0.28184500271E+02 -0.38946717936E+02  0.10805495406E+02  0.17814996948E+03  0.17120000000E+03 0.  0.
        998    1    1    2    0    0  0.29173780818E+02  0.56100953992E+02  0.14294701987E+04  0.14309030279E+04  0.10000000000E+02 0.  1.
</event>
<event>
 5    1  0.9123258E-009  0.3713846E+03  0.7957747E-01  0.3489552E+00
         13   -1    0    0    0    0  0.00000000000E+00  0.00000000000E+00  0.14999999963E+04  0.15000000000E+04  0.10566000000E+00 0. -1.
        994   -1    0    0    0    0 -0.00000000000E+00 -0.00000000000E+00  0.11368683772E-12  0.17120000000E+03  0.17120000000E+03 0.  0.
         13    1    1    2    0    0 -0.49787474219E+02 -0.33867656863E+02  0.16620911415E+03  0.17678034834E+03  0.10566000000E+00 0. -1.
        994    1    1    2    0    0  0.30584551467E+02 -0.16505247425E+02  0.15927864173E+02  0.17541657515E+03  0.17120000000E+03 0.  0.
        998    1    1    2    0    0  0.19202922752E+02  0.50372904288E+02  0.13178630180E+04  0.13190030765E+04  0.10000000000E+02 0. -1.
</event>
<event>
 5    1  0.9123258E-009  0.3809900E+03  0.7957747E-01  0.3446859E+00
         13   -1    0    0    0    0  0.00000000000E+00  0.00000000000E+00  0.14999999963E+04  0.15000000000E+04  0.10566000000E+00 0. -1.
        994   -1    0    0    0    0 -0.00000000000E+00 -0.00000000000E+00  0.11368683772E-12  0.17120000000E+03  0.17120000000E+03 0.  0.
         13    1    1    2    0    0 -0.44604280952E+02  0.31911638277E+01  0.23798955912E+03  0.24215442763E+03  0.10566000000E+00 0. -1.
        994    1    1    2    0    0  0.42097292880E+02 -0.36008366659E+01  0.96053559224E+01  0.17659799250E+03  0.17120000000E+03 0.  0.
        998    1    1    2    0    0  0.25069880713E+01  0.40967283814E+00  0.12524050812E+04  0.12524475799E+04  0.10000000000E+02 0. -1.
</event>
<event>
 5    1  0.9123258E-009  0.3845140E+03  0.7957747E-01  0.3431736E+00
         13   -1    0    0    0    0  0.00000000000E+00  0.00000000000E+00  0.14999999963E+04  0.15000000000E+04  0.10566000000E+00 0.  1.
        994   -1    0    0    0    0 -0.00000000000E+00 -0.00000000000E+00  0.11368683772E-12  0.17120000000E+03  0.17120000000E+03 0.  0.
         13    1    1    2    0    0 -0.38369578930E+01  0.12167569998E+02  0.47340329537E+02  0.49029480624E+02  0.10566000000E+00 0.  1.
        994    1    1    2    0    0 -0.54729945703E+01  0.79286263559E+01  0.21773839513E+01  0.17148468674E+03  0.17120000000E+03 0.  0.
        998    1    1    2    0    0  0.93099524634E+01 -0.20096196354E+02  0.14504822828E+04  0.14506858326E+04  0.10000000000E+02 0.  1.
</event>
<event>
 5    1  0.9123258E-009  0.3743815E+03  0.7957747E-01  0.3475993E+00
         13   -1    0    0    0    0  0.00000000000E+00  0.00000000000E+00  0.14999999963E+04  0.15000000000E+04  0.10566000000E+00 0. -1.
        994   -1    0    0    0    0 -0.00000000000E+00 -0.00000000000E+00  0.11368683772E-12  0.17120000000E+03  0.17120000000E+03 0.  0.
         13    1    1    2    0    0  0.19411100171E+02  0.71645694419E+02  0.31680602458E+03  0.32538587049E+03  0.10566000000E+00 0. -1.
        994    1    1    2    0    0 -0.21736143476E+02 -0.67575932696E+02  0.24359733900E+02  0.18692726727E+03  0.17120000000E+03 0.  0.
        998    1    1    2    0    0  0.23250433059E+01 -0.40697617230E+01  0.11588342378E+04  0.11588868622E+04  0.10000000000E+02 0. -1.
</event>
<event>
 5    1  0.9123258E-009  0.3767651E+03  0.7957747E-01  0.3465366E+00
         13   -1    0    0    0    0  0.00000000000E+00  0.00000000000E+00  0.14999999963E+04  0.15000000000E+04  0.10566000000E+00 0.  1.
        994   -1    0    0    0    0 -0.00000000000E+00 -0.00000000000E+00  0.11368683772E-12  0.17120000000E+03  0.17120000000E+03 0.  0.
         13    1    1    2    0    0 -0.34430867915E+02 -0.32545641261E+00  0.33535422450E+02  0.48064813639E+02  0.10566000000E+00 0.  1.
        994    1    1    2    0    0  0.41643766240E+02 -0.21810246713E+01  0.20814853797E+02  0.17743071401E+03  0.17120000000E+03 0.  0.
        998    1    1    2    0    0 -0.72128983255E+01  0.25064810839E+01  0.14456497200E+04  0.14457044724E+04  0.10000000000E+02 0.  1.
</event>
<event>
 5    1  0.9123258E-009  0.3697543E+03  0.7957747E-01  0.3497021E+00
         13   -1    0    0    0    0  0.00000000000E+00  0.00000000000E+00  0.14999999963E+04  0.15000000000E+04  0.10566000000E+00 0.  1.
        994   -1    0    0    0    0 -0.00000000000E+00 -0.00000000000E+00  0.11368683772E-12  0.17120000000E+03  0.17120000000E+03 0.  0.
         13    1    1    2    0    0 -0.46381418680E+02 -0.52995741249E+02  0.17997738666E+03  0.19326576381E+03  0.10566000000E+00 0.  1.
        994    1    1    2    0    0  0.56926371651E+02  0.71149116442E+02  0.40402086712E+02  0.19810244110E+03  0.17120000000E+03 0.  0.
        998    1    1    2    0    0 -0.10544952970E+02 -0.18153375193E+02  0.12796205229E+04  0.12798317951E+04  0.10000000000E+02 0.  1.
</event>
<event>
 5    1  0.9123258E-009  0.3750455E+03  0.7957747E-01  0.3473019E+00
         13   -1    0    0    0    0  0.00000000000E+00  0.00000000000E+00  0.14999999963E+04  0.15000000000E+04  0.10566000000E+00 0. -1.
        994   -1    0    0    0    0 -0.00000000000E+00 -0.00000000000E+00  0.11368683772E-12  0.17120000000E+03  0.17120000000E+03 0.  0.
         13    1    1    2    0    0 -0.89274569157E+01 -0.47137280534E+01  0.46336052026E+01  0.11108563379E+02  0.10566000000E+00 0. -1.
        994    1    1    2    0    0 -0.23075737816E+01  0.92900798493E+01  0.69668638490E+01  0.17160887993E+03  0.17120000000E+03 0.  0.
        998    1    1    2    0    0  0.11235030697E+02 -0.45763517959E+01  0.14883995272E+04  0.14884825567E+04  0.10000000000E+02 0. -1.
</event>
<event>
 5    1  0.9123258E-009  0.3853273E+03  0.7957747E-01  0.3428285E+00
         13   -1    0    0    0    0  0.00000000000E+00  0.00000000000E+00  0.14999999963E+04  0.15000000000E+04  0.10566000000E+00 0. -1.
        994   -1    0    0    0    0 -0.00000000000E+00 -0.00000000000E+00  0.11368683772E-12  0.17120000000E+03  0.17120000000E+03 0.  0.
         13    1    1    2    0    0 -0.12246529761E+02 -0.10682702709E+02  0.91015199956E+02  0.92454720893E+02  0.10566000000E+00 0. -1.
        994    1    1    2    0    0  0.78903294191E+01  0.53296756293E+01  0.17656433850E+01  0.17147367214E+03  0.17120000000E+03 0.  0.
        998    1    1    2    0    0  0.43562003419E+01  0.53530270798E+01  0.14072191529E+04  0.14072716070E+04  0.10000000000E+02 0. -1.
</event>
<event>
 5    1  0.9123258E-009  0.3693800E+03  0.7957747E-01  0.3498745E+00
         13   -1    0    0    0    0  0.00000000000E+00  0.00000000000E+00  0.14999999963E+04  0.15000000000E+04  0.10566000000E+00 0.  1.
        994   -1    0    0    0    0 -0.00000000000E+00 -0.00000000000E+00  0.11368683772E-12  0.17120000000E+03  0.17120000000E+03 0.  0.
         13    1    1    2    0    0  0.79046585693E+01  0.35875424112E+02  0.64386008433E+02  0.74128934488E+02  0.10566000000E+00 0.  1.
        994    1    1    2    0    0 -0.10017000745E+02 -0.34341611346E+02  0.14040646968E+02  0.17546015599E+03  0.17120000000E+03 0.  0.
        998    1    1    2    0    0  0.21123421755E+01 -0.15338127652E+01  0.14215733409E+04  0.14216109095E+04  0.10000000000E+02 0.  0.
</event>
<event>
 5    1  0.9123258E-009  0.3853541E+03  0.7957747E-01  0.3428172E+00
         13   -1    0    0    0    0  0.00000000000E+00  0.00000000000E+00  0.14999999963E+04  0.15000000000E+04  0.10566000000E+00 0.  1.
        994   -1    0    0    0    0 -0.00000000000E+00 -0.00000000000E+00  0.11368683772E-12  0.17120000000E+03  0.17120000000E+03 0.  0.
         13    1    1    2    0    0 -0.62145186054E+01  0.90754023814E+01  0.43888962480E+02  0.45246385066E+02  0.10566000000E+00 0.  1.
        994    1    1    2    0    0  0.86339161364E+01  0.81285990326E+01  0.19164697561E+01  0.17162089467E+03  0.17120000000E+03 0.  0.
        998    1    1    2    0    0 -0.24193975310E+01 -0.17204001414E+02  0.14541945640E+04  0.14543327203E+04  0.10000000000E+02 0.  1.
</event>
<event>
 5    1  0.9123258E-009  0.3708862E+03  0.7957747E-01  0.3491828E+00
         13   -1    0    0    0    0  0.00000000000E+00  0.00000000000E+00  0.14999999963E+04  0.15000000000E+04  0.10566000000E+00 0. -1.
        994   -1    0    0    0    0 -0.00000000000E+00 -0.00000000000E+00  0.11368683772E-12  0.17120000000E+03  0.17120000000E+03 0.  0.
         13    1    1    2    0    0  0.92279892866E+01  0.44789271022E+02  0.14353659327E+03  0.15064527658E+03  0.10566000000E+00 0. -1.
        994    1    1    2    0    0  0.12892943281E+01  0.19333499974E+02  0.10101832668E+02  0.17258891484E+03  0.17120000000E+03 0.  0.
        998    1    1    2    0    0 -0.10517283615E+02 -0.64122770996E+02  0.13463615703E+04  0.13479658086E+04  0.10000000000E+02 0. -1.
</event>
<event>
 5    1  0.9123258E-009  0.3778279E+03  0.7957747E-01  0.3460671E+00
         13   -1    0    0    0    0  0.00000000000E+00  0.00000000000E+00  0.14999999963E+04  0.15000000000E+04  0.10566000000E+00 0. -1.
        994   -1    0    0    0    0 -0.00000000000E+00 -0.00000000000E+00  0.11368683772E-12  0.17120000000E+03  0.17120000000E+03 0.  0.
         13    1    1    2    0    0  0.20797514970E+01  0.35179959840E+02  0.12878383017E+03  0.13351869164E+03  0.10566000000E+00 0. -1.
        994    1    1    2    0    0 -0.44654741465E+01 -0.25674384871E+01  0.53229794808E+01  0.17136016547E+03  0.17120000000E+03 0.  0.
        998    1    1    2    0    0  0.23857226495E+01 -0.32612521353E+02  0.13658931866E+04  0.13663211429E+04  0.10000000000E+02 0. -1.
</event>
<event>
 5    1  0.9123258E-009  0.3778360E+03  0.7957747E-01  0.3460635E+00
         13   -1    0    0    0    0  0.00000000000E+00  0.00000000000E+00  0.14999999963E+04  0.15000000000E+04  0.10566000000E+00 0. -1.
        994   -1    0    0    0    0 -0.00000000000E+00 -0.00000000000E+00  0.11368683772E-12  0.17120000000E+03  0.17120000000E+03 0.  0.
         13    1    1    2    0    0 -0.13097559327E+02  0.24686827668E+00  0.13686508299E+02  0.18945677019E+02  0.10566000000E+00 0. -1.
        994    1    1    2    0    0  0.22424431951E+02  0.11964298518E+02  0.74076415174E+01  0.17323484852E+03  0.17120000000E+03 0.  0.
        998    1    1    2    0    0 -0.93268726241E+01 -0.12211166795E+02  0.14789058465E+04  0.14790194745E+04  0.10000000000E+02 0. -1.
</event>
<event>
 5    1  0.9123258E-009  0.3748186E+03  0.7957747E-01  0.3474035E+00
         13   -1    0    0    0    0  0.00000000000E+00  0.00000000000E+00  0.14999999963E+04  0.15000000000E+04  0.10566000000E+00 0. -1.
        994   -1    0    0    0    0 -0.00000000000E+00 -0.00000000000E+00  0.11368683772E-12  0.17120000000E+03  0.17120000000E+03 0.  0.
         13    1    1    2    0    0  0.38916417705E+02 -0.20579031549E+02  0.17276085839E+03  0.17828154549E+03  0.10566000000E+00 0. -1.
        994    1    1    2    0    0 -0.33428287785E+01 -0.26974773778E+02  0.92889288604E+01  0.17359302153E+03  0.17120000000E+03 0.  0.
        998    1    1    2    0    0 -0.35573588927E+02  0.47553805327E+02  0.13179502090E+04  0.13193254330E+04  0.10000000000E+02 0. -1.
</event>
<event>
 5    1  0.9123258E-009  0.3769704E+03  0.7957747E-01  0.3464457E+00
         13   -1    0    0    0    0  0.00000000000E+00  0.00000000000E+00  0.14999999963E+04  0.15000000000E+04  0.10566000000E+00 0.  1.
        994   -1    0    0    0    0 -0.00000000000E+00 -0.00000000000E+00  0.11368683772E-12  0.17120000000E+03  0.17120000000E+03 0.  0.
         13    1    1    2    0    0  0.29813754101E+02 -0.57786539852E+02  0.37204023165E+03  0.37767987669E+03  0.10566000000E+00 0.  1.
        994    1    1    2    0    0 -0.39305567315E+02  0.22364573700E+02  0.12607544414E+02  0.17752039870E+03  0.17120000000E+03 0.  0.
        998    1    1    2    0    0  0.94918132132E+01  0.35421966152E+02  0.11153522202E+04  0.11159997246E+04  0.10000000000E+02 0.  1.
</event>
<event>
 5    1  0.9123258E-009  0.3742631E+03  0.7957747E-01  0.3476525E+00
         13   -1    0    0    0    0  0.00000000000E+00  0.00000000000E+00  0.14999999963E+04  0.15000000000E+04  0.10566000000E+00 0.  1.
        994   -1    0    0    0    0 -0.00000000000E+00 -0.00000000000E+00  0.11368683772E-12  0.17120000000E+03  0.17120000000E+03 0.  0.
         13    1    1    2    0    0 -0.32042853586E+01 -0.81095152927E+02  0.34104719592E+03  0.35057080922E+03  0.10566000000E+00 0.  1.
        994    1    1    2    0    0  0.13890468230E+02  0.86365641944E+02  0.33598375708E+02  0.19516726177E+03  0.17120000000E+03 0.  0.
        998    1    1    2    0    0 -0.10686182872E+02 -0.52704890168E+01  0.11253544247E+04  0.11254619290E+04  0.10000000000E+02 0.  1.
</event>
<event>
 5    1  0.9123258E-009  0.3807909E+03  0.7957747E-01  0.3447722E+00
         13   -1    0    0    0    0  0.00000000000E+00  0.00000000000E+00  0.14999999963E+04  0.15000000000E+04  0.10566000000E+00 0. -1.
        994   -1    0    0    0    0 -0.00000000000E+00 -0.00000000000E+00  0.11368683772E-12  0.17120000000E+03  0.17120000000E+03 0.  0.
         13    1    1    2    0    0  0.34922515068E+02  0.17929970363E+02  0.18055186550E+03  0.18477027141E+03  0.10566000000E+00 0. -1.
        994    1    1    2    0    0 -0.26279461606E+02 -0.39191628658E+02  0.11194273850E+02  0.17793635274E+03  0.17120000000E+03 0.  0.
        998    1    1    2    0    0 -0.86430534618E+01  0.21261658296E+02  0.13082538569E+04  0.13084933759E+04  0.10000000000E+02 0. -1.
</event>
<event>
 5    1  0.9123258E-009  0.3797093E+03  0.7957747E-01  0.3452425E+00
         13   -1    0    0    0    0  0.00000000000E+00  0.00000000000E+00  0.14999999963E+04  0.15000000000E+04  0.10566000000E+00 0. -1.
        994   -1    0    0    0    0 -0.00000000000E+00 -0.00000000000E+00  0.11368683772E-12  0.17120000000E+03  0.17120000000E+03 0.  0.
         13    1    1    2    0    0  0.10473465737E+02 -0.18624284306E+02  0.50681008324E+02  0.55001211071E+02  0.10566000000E+00 0. -1.
        994    1    1    2    0    0 -0.13270254363E+02  0.14843416822E+02  0.56075888500E+01  0.17244509772E+03  0.17120000000E+03 0.  0.
        998    1    1    2    0    0  0.27967886252E+01  0.37808674846E+01  0.14437113991E+04  0.14437536912E+04  0.10000000000E+02 0. -1.
</event>
<event>
 5    1  0.9123258E-009  0.3830529E+03  0.7957747E-01  0.3437972E+00
         13   -1    0    0    0    0  0.00000000000E+00  0.00000000000E+00  0.14999999963E+04  0.15000000000E+04  0.10566000000E+00 0. -1.
        994   -1    0    0    0    0 -0.00000000000E+00 -0.00000000000E+00  0.11368683772E-12  0.17120000000E+03  0.17120000000E+03 0.  0.
         13    1    1    2    0    0  0.46617669923E+01  0.22613150839E+02  0.10619158826E+03  0.10867267938E+03  0.10566000000E+00 0. -1.
        994    1    1    2    0    0 -0.25091990483E+01 -0.74629206597E+01  0.28051066530E+01  0.17140390861E+03  0.17120000000E+03 0.  0.
        998    1    1    2    0    0 -0.21525679440E+01 -0.15150230179E+02  0.13910033014E+04  0.13911234120E+04  0.10000000000E+02 0. -1.
</event>
