<event>
 5    1  0.1757379E-008  0.3777939E+03  0.7957747E-01  0.3460821E+00
         13   -1    0    0    0    0  0.00000000000E+00  0.00000000000E+00  0.14999999963E+04  0.15000000000E+04  0.10566000000E+00 0. -1.
        994   -1    0    0    0    0 -0.00000000000E+00 -0.00000000000E+00  0.11368683772E-12  0.17120000000E+03  0.17120000000E+03 0.  0.
         13    1    1    2    0    0  0.46469908123E+02  0.32335819834E+02  0.86331886579E+02  0.10323886579E+03  0.10566000000E+00 0. -1.
        994    1    1    2    0    0 -0.48606540714E+02 -0.80828579993E+02  0.47835958728E+02  0.20123015204E+03  0.17120000000E+03 0.  0.
        998    1    1    2    0    0  0.21366325908E+01  0.48492760159E+02  0.13658321510E+04  0.13667309822E+04  0.10000000000E+02 0. -1.
</event>
<event>
 5    1  0.1757379E-008  0.3827572E+03  0.7957747E-01  0.3439240E+00
         13   -1    0    0    0    0  0.00000000000E+00  0.00000000000E+00  0.14999999963E+04  0.15000000000E+04  0.10566000000E+00 0.  1.
        994   -1    0    0    0    0 -0.00000000000E+00 -0.00000000000E+00  0.11368683772E-12  0.17120000000E+03  0.17120000000E+03 0.  0.
         13    1    1    2    0    0  0.20849988456E+01 -0.27263623953E+02  0.14628410296E+03  0.14881768159E+03  0.10566000000E+00 0.  1.
        994    1    1    2    0    0 -0.25049455740E+01  0.58959587750E+01  0.28837146436E+01  0.17134407749E+03  0.17120000000E+03 0.  0.
        998    1    1    2    0    0  0.41994672840E+00  0.21367665178E+02  0.13508321787E+04  0.13510382409E+04  0.10000000000E+02 0.  1.
</event>
<event>
 5    1  0.1757379E-008  0.3828703E+03  0.7957747E-01  0.3438755E+00
         13   -1    0    0    0    0  0.00000000000E+00  0.00000000000E+00  0.14999999963E+04  0.15000000000E+04  0.10566000000E+00 0.  1.
        994   -1    0    0    0    0 -0.00000000000E+00 -0.00000000000E+00  0.11368683772E-12  0.17120000000E+03  0.17120000000E+03 0.  0.
         13    1    1    2    0    0  0.55028089731E+02  0.19560442724E+02  0.90018475075E+02  0.10730348828E+03  0.10566000000E+00 0.  1.
        994    1    1    2    0    0 -0.17023179695E+02 -0.59145000618E+02  0.31919100145E+02  0.18470568129E+03  0.17120000000E+03 0.  0.
        998    1    1    2    0    0 -0.38004910035E+02  0.39584557895E+02  0.13780624211E+04  0.13791908304E+04  0.10000000000E+02 0.  1.
</event>
<event>
 5    1  0.1757379E-008  0.3830123E+03  0.7957747E-01  0.3438146E+00
         13   -1    0    0    0    0  0.00000000000E+00  0.00000000000E+00  0.14999999963E+04  0.15000000000E+04  0.10566000000E+00 0.  1.
        994   -1    0    0    0    0 -0.00000000000E+00 -0.00000000000E+00  0.11368683772E-12  0.17120000000E+03  0.17120000000E+03 0.  0.
         13    1    1    2    0    0 -0.11133472125E+02  0.14314180858E+02  0.63936225216E+02  0.66458272879E+02  0.10566000000E+00 0.  1.
        994    1    1    2    0    0  0.30400684793E+01 -0.48256360411E+01  0.27278766658E+01  0.17131669531E+03  0.17120000000E+03 0.  0.
        998    1    1    2    0    0  0.80934036459E+01 -0.94885448173E+01  0.14333358944E+04  0.14334250318E+04  0.10000000000E+02 0.  1.
</event>
<event>
 5    1  0.2031173E-008  0.3864276E+03  0.7957747E-01  0.3423640E+00
         13   -1    0    0    0    0  0.00000000000E+00  0.00000000000E+00  0.14999999963E+04  0.15000000000E+04  0.10566000000E+00 0.  1.
        994   -1    0    0    0    0 -0.00000000000E+00 -0.00000000000E+00  0.11368683772E-12  0.17120000000E+03  0.17120000000E+03 0.  0.
         13    1    1    2    0    0 -0.15576470789E+01 -0.10687089205E+02  0.59862944078E+02  0.60829461429E+02  0.10566000000E+00 0.  1.
        994    1    1    2    0    0  0.32400689531E+01  0.16303342005E+02  0.18279875406E+01  0.17201476258E+03  0.17120000000E+03 0.  0.
        998    1    1    2    0    0 -0.16824218742E+01 -0.56162527995E+01  0.14383090647E+04  0.14383557760E+04  0.10000000000E+02 0.  1.
</event>
<event>
 5    1  0.1757379E-008  0.3862211E+03  0.7957747E-01  0.3424510E+00
         13   -1    0    0    0    0  0.00000000000E+00  0.00000000000E+00  0.14999999963E+04  0.15000000000E+04  0.10566000000E+00 0.  1.
        994   -1    0    0    0    0 -0.00000000000E+00 -0.00000000000E+00  0.11368683772E-12  0.17120000000E+03  0.17120000000E+03 0.  0.
         13    1    1    2    0    0  0.17509316452E+01 -0.11152179575E+02  0.62007335578E+02  0.63026642782E+02  0.10566000000E+00 0.  1.
        994    1    1    2    0    0 -0.48027504629E+01  0.92660548126E+01  0.13819847623E+01  0.17152339801E+03  0.17120000000E+03 0.  0.
        998    1    1    2    0    0  0.30518188176E+01  0.18861247623E+01  0.14366106759E+04  0.14366499592E+04  0.10000000000E+02 0.  1.
</event>
<event>
 5    1  0.2623157E-008  0.3860775E+03  0.7957747E-01  0.3425115E+00
         13   -1    0    0    0    0  0.00000000000E+00  0.00000000000E+00  0.14999999963E+04  0.15000000000E+04  0.10566000000E+00 0. -1.
        994   -1    0    0    0    0 -0.00000000000E+00 -0.00000000000E+00  0.11368683772E-12  0.17120000000E+03  0.17120000000E+03 0.  0.
         13    1    1    2    0    0  0.68109479925E+00  0.10612023012E+02  0.51069581227E+02  0.52165047813E+02  0.10566000000E+00 0. -1.
        994    1    1    2    0    0 -0.30950727859E+01 -0.10383517660E+02  0.14809516026E+01  0.17154891469E+03  0.17120000000E+03 0.  0.
        998    1    1    2    0    0  0.24139779866E+01 -0.22850535118E+00  0.14474494634E+04  0.14474860375E+04  0.10000000000E+02 0. -1.
</event>
<event>
 5    1  0.1757379E-008  0.3113585E+03  0.7957747E-01  0.3818124E+00
         13   -1    0    0    0    0  0.00000000000E+00  0.00000000000E+00  0.14999999963E+04  0.15000000000E+04  0.10566000000E+00 0. -1.
        994   -1    0    0    0    0 -0.00000000000E+00 -0.00000000000E+00  0.11368683772E-12  0.17120000000E+03  0.17120000000E+03 0.  0.
         13    1    1    2    0    0  0.60947354879E+02  0.19810143919E+03  0.67981848767E+03  0.71071228188E+03  0.10566000000E+00 0. -1.
        994    1    1    2    0    0 -0.65732808230E+02 -0.19747020227E+03  0.18888390752E+03  0.32909246935E+03  0.17120000000E+03 0.  0.
        998    1    1    2    0    0  0.47854533510E+01 -0.63123691271E+00  0.63129760109E+03  0.63139524877E+03  0.10000000000E+02 0.  1.
</event>
<event>
 5    1  0.1757379E-008  0.3708432E+03  0.7957747E-01  0.3492025E+00
         13   -1    0    0    0    0  0.00000000000E+00  0.00000000000E+00  0.14999999963E+04  0.15000000000E+04  0.10566000000E+00 0. -1.
        994   -1    0    0    0    0 -0.00000000000E+00 -0.00000000000E+00  0.11368683772E-12  0.17120000000E+03  0.17120000000E+03 0.  0.
         13    1    1    2    0    0  0.30865496425E+02 -0.61098588368E+02  0.25686076563E+03  0.26582546992E+03  0.10566000000E+00 0. -1.
        994    1    1    2    0    0  0.72925689789E+01  0.16946930880E+01  0.11581954533E+02  0.17175457845E+03  0.17120000000E+03 0.  0.
        998    1    1    2    0    0 -0.38158065404E+02  0.59403895280E+02  0.12315572761E+04  0.12336199516E+04  0.10000000000E+02 0. -1.
</event>
<event>
 5    1  0.1757379E-008  0.3787378E+03  0.7957747E-01  0.3456673E+00
         13   -1    0    0    0    0  0.00000000000E+00  0.00000000000E+00  0.14999999963E+04  0.15000000000E+04  0.10566000000E+00 0.  1.
        994   -1    0    0    0    0 -0.00000000000E+00 -0.00000000000E+00  0.11368683772E-12  0.17120000000E+03  0.17120000000E+03 0.  0.
         13    1    1    2    0    0 -0.18488389449E+02  0.27599005846E+02  0.28578444680E+02  0.43820820764E+02  0.10566000000E+00 0.  1.
        994    1    1    2    0    0  0.62798243093E+01 -0.32847087307E+02  0.19679956640E+02  0.17554232547E+03  0.17120000000E+03 0.  0.
        998    1    1    2    0    0  0.12208565140E+02  0.52480814611E+01  0.14517415950E+04  0.14518368538E+04  0.10000000000E+02 0.  1.
</event>
<event>
 5    1  0.1757379E-008  0.3829644E+03  0.7957747E-01  0.3438351E+00
         13   -1    0    0    0    0  0.00000000000E+00  0.00000000000E+00  0.14999999963E+04  0.15000000000E+04  0.10566000000E+00 0. -1.
        994   -1    0    0    0    0 -0.00000000000E+00 -0.00000000000E+00  0.11368683772E-12  0.17120000000E+03  0.17120000000E+03 0.  0.
         13    1    1    2    0    0  0.10874429782E+02  0.24549865279E+02  0.14633963048E+03  0.14878255180E+03  0.10566000000E+00 0. -1.
        994    1    1    2    0    0  0.62590370215E+01 -0.97744566793E+01  0.30902387262E+01  0.17162081786E+03  0.17120000000E+03 0.  0.
        998    1    1    2    0    0 -0.17133466803E+02 -0.14775408600E+02  0.13505701271E+04  0.13507966303E+04  0.10000000000E+02 0. -1.
</event>
<event>
 5    1  0.1757379E-008  0.3854703E+03  0.7957747E-01  0.3427680E+00
         13   -1    0    0    0    0  0.00000000000E+00  0.00000000000E+00  0.14999999963E+04  0.15000000000E+04  0.10566000000E+00 0.  1.
        994   -1    0    0    0    0 -0.00000000000E+00 -0.00000000000E+00  0.11368683772E-12  0.17120000000E+03  0.17120000000E+03 0.  0.
         13    1    1    2    0    0 -0.13736925700E+02 -0.21582520188E+01  0.72560296452E+02  0.73880775340E+02  0.10566000000E+00 0.  1.
        994    1    1    2    0    0  0.41075304790E+01 -0.44993287911E+01  0.15186901798E+01  0.17131509620E+03  0.17120000000E+03 0.  0.
        998    1    1    2    0    0  0.96293952214E+01  0.66575808099E+01  0.14259210096E+04  0.14260041285E+04  0.10000000000E+02 0.  1.
</event>
<event>
 5    1  0.1757379E-008  0.3700412E+03  0.7957747E-01  0.3495702E+00
         13   -1    0    0    0    0  0.00000000000E+00  0.00000000000E+00  0.14999999963E+04  0.15000000000E+04  0.10566000000E+00 0.  1.
        994   -1    0    0    0    0 -0.00000000000E+00 -0.00000000000E+00  0.11368683772E-12  0.17120000000E+03  0.17120000000E+03 0.  0.
         13    1    1    2    0    0  0.69372103906E+02 -0.62610862651E+02  0.56327706763E+03  0.57097607218E+03  0.10566000000E+00 0.  1.
        994    1    1    2    0    0  0.11274135881E+01  0.31497402882E+02  0.14441759265E+02  0.17467501785E+03  0.17120000000E+03 0.  0.
        998    1    1    2    0    0 -0.70499517494E+02  0.31113459769E+02  0.92228116939E+03  0.92554890997E+03  0.10000000000E+02 0.  1.
</event>
<event>
 5    1  0.1757379E-008  0.3746865E+03  0.7957747E-01  0.3474626E+00
         13   -1    0    0    0    0  0.00000000000E+00  0.00000000000E+00  0.14999999963E+04  0.15000000000E+04  0.10566000000E+00 0. -1.
        994   -1    0    0    0    0 -0.00000000000E+00 -0.00000000000E+00  0.11368683772E-12  0.17120000000E+03  0.17120000000E+03 0.  0.
         13    1    1    2    0    0  0.48788846662E+02 -0.52794576422E+01  0.23000287648E+03  0.23517984307E+03  0.10566000000E+00 0. -1.
        994    1    1    2    0    0  0.14505086274E+02  0.99828264901E+01  0.78955345780E+01  0.17228416590E+03  0.17120000000E+03 0.  0.
        998    1    1    2    0    0 -0.63293932936E+02 -0.47033688480E+01  0.12621015852E+04  0.12637359910E+04  0.10000000000E+02 0. -1.
</event>
<event>
 5    1  0.1757379E-008  0.3830816E+03  0.7957747E-01  0.3437849E+00
         13   -1    0    0    0    0  0.00000000000E+00  0.00000000000E+00  0.14999999963E+04  0.15000000000E+04  0.10566000000E+00 0. -1.
        994   -1    0    0    0    0 -0.00000000000E+00 -0.00000000000E+00  0.11368683772E-12  0.17120000000E+03  0.17120000000E+03 0.  0.
         13    1    1    2    0    0  0.96089393698E+01 -0.78156315913E+01  0.28451807616E+02  0.31031151020E+02  0.10566000000E+00 0. -1.
        994    1    1    2    0    0 -0.12760575080E+02  0.30634540250E+01  0.31556919814E+01  0.17173123018E+03  0.17120000000E+03 0.  0.
        998    1    1    2    0    0  0.31516357105E+01  0.47521775663E+01  0.14683924967E+04  0.14684376188E+04  0.10000000000E+02 0. -1.
</event>
<event>
 5    1  0.1757379E-008  0.3853004E+03  0.7957747E-01  0.3428399E+00
         13   -1    0    0    0    0  0.00000000000E+00  0.00000000000E+00  0.14999999963E+04  0.15000000000E+04  0.10566000000E+00 0.  1.
        994   -1    0    0    0    0 -0.00000000000E+00 -0.00000000000E+00  0.11368683772E-12  0.17120000000E+03  0.17120000000E+03 0.  0.
         13    1    1    2    0    0  0.11475620874E+02 -0.82213440320E+01  0.63769614866E+02  0.65313515572E+02  0.10566000000E+00 0.  1.
        994    1    1    2    0    0 -0.13660833625E+02  0.11890049717E+02  0.25594099648E+01  0.17217427867E+03  0.17120000000E+03 0.  0.
        998    1    1    2    0    0  0.21852127506E+01 -0.36687056845E+01  0.14336709714E+04  0.14337122058E+04  0.10000000000E+02 0.  1.
</event>
<event>
 5    1  0.1757379E-008  0.3832725E+03  0.7957747E-01  0.3437032E+00
         13   -1    0    0    0    0  0.00000000000E+00  0.00000000000E+00  0.14999999963E+04  0.15000000000E+04  0.10566000000E+00 0. -1.
        994   -1    0    0    0    0 -0.00000000000E+00 -0.00000000000E+00  0.11368683772E-12  0.17120000000E+03  0.17120000000E+03 0.  0.
         13    1    1    2    0    0  0.83933539786E+01  0.18175281245E+02  0.79237128203E+02  0.81727124562E+02  0.10566000000E+00 0. -1.
        994    1    1    2    0    0 -0.34358578897E+01 -0.13799522085E+02  0.31593486717E+01  0.17181866433E+03  0.17120000000E+03 0.  0.
        998    1    1    2    0    0 -0.49574960888E+01 -0.43757591605E+01  0.14176035194E+04  0.14176542111E+04  0.10000000000E+02 0. -1.
</event>
<event>
 5    1  0.1757379E-008  0.3685598E+03  0.7957747E-01  0.3502536E+00
         13   -1    0    0    0    0  0.00000000000E+00  0.00000000000E+00  0.14999999963E+04  0.15000000000E+04  0.10566000000E+00 0.  1.
        994   -1    0    0    0    0 -0.00000000000E+00 -0.00000000000E+00  0.11368683772E-12  0.17120000000E+03  0.17120000000E+03 0.  0.
         13    1    1    2    0    0 -0.24252551382E+02  0.46105735577E+00  0.26457751560E+02  0.35894604108E+02  0.10566000000E+00 0.  1.
        994    1    1    2    0    0 -0.34477044580E+01  0.81674074337E+01  0.10296966451E+02  0.17173834961E+03  0.17120000000E+03 0.  0.
        998    1    1    2    0    0  0.27700255840E+02 -0.86284647895E+01  0.14632452783E+04  0.14635670463E+04  0.10000000000E+02 0.  1.
</event>
<event>
 5    1  0.1757379E-008  0.2814322E+03  0.7957747E-01  0.4038195E+00
         13   -1    0    0    0    0  0.00000000000E+00  0.00000000000E+00  0.14999999963E+04  0.15000000000E+04  0.10566000000E+00 0. -1.
        994   -1    0    0    0    0 -0.00000000000E+00 -0.00000000000E+00  0.11368683772E-12  0.17120000000E+03  0.17120000000E+03 0.  0.
         13    1    1    2    0    0 -0.74593930757E+02  0.12610104385E+03  0.71406624678E+03  0.72894193439E+03  0.10566000000E+00 0. -1.
        994    1    1    2    0    0  0.53152410403E+02 -0.92666603236E+01  0.36209834138E+02  0.18311647062E+03  0.17120000000E+03 0.  0.
        998    1    1    2    0    0  0.21441520355E+02 -0.11683438352E+03  0.74972391536E+03  0.75914159498E+03  0.10000000000E+02 0.  1.
</event>
<event>
 5    1  0.1757379E-008  0.3857544E+03  0.7957747E-01  0.3426479E+00
         13   -1    0    0    0    0  0.00000000000E+00  0.00000000000E+00  0.14999999963E+04  0.15000000000E+04  0.10566000000E+00 0. -1.
        994   -1    0    0    0    0 -0.00000000000E+00 -0.00000000000E+00  0.11368683772E-12  0.17120000000E+03  0.17120000000E+03 0.  0.
         13    1    1    2    0    0 -0.11645498109E+02 -0.30240419714E+01  0.52258680616E+02  0.53625957518E+02  0.10566000000E+00 0. -1.
        994    1    1    2    0    0  0.22192684566E+02  0.13418007643E+02  0.34655848487E+01  0.17318778379E+03  0.17120000000E+03 0.  0.
        998    1    1    2    0    0 -0.10547186457E+02 -0.10393965672E+02  0.14442757308E+04  0.14443862587E+04  0.10000000000E+02 0. -1.
</event>
<event>
 5    1  0.1757379E-008  0.3718438E+03  0.7957747E-01  0.3487460E+00
         13   -1    0    0    0    0  0.00000000000E+00  0.00000000000E+00  0.14999999963E+04  0.15000000000E+04  0.10566000000E+00 0. -1.
        994   -1    0    0    0    0 -0.00000000000E+00 -0.00000000000E+00  0.11368683772E-12  0.17120000000E+03  0.17120000000E+03 0.  0.
         13    1    1    2    0    0  0.41784292233E+02 -0.40876546555E+01  0.67196778338E+02  0.79234173063E+02  0.10566000000E+00 0. -1.
        994    1    1    2    0    0 -0.39692308465E+02  0.25079519480E+01  0.17503520094E+02  0.17662837368E+03  0.17120000000E+03 0.  0.
        998    1    1    2    0    0 -0.20919837685E+01  0.15797027075E+01  0.14152996978E+04  0.14153374533E+04  0.10000000000E+02 0. -1.
</event>
<event>
 5    1  0.1757379E-008  0.3838582E+03  0.7957747E-01  0.3434529E+00
         13   -1    0    0    0    0  0.00000000000E+00  0.00000000000E+00  0.14999999963E+04  0.15000000000E+04  0.10566000000E+00 0. -1.
        994   -1    0    0    0    0 -0.00000000000E+00 -0.00000000000E+00  0.11368683772E-12  0.17120000000E+03  0.17120000000E+03 0.  0.
         13    1    1    2    0    0 -0.11751767659E+02  0.64870630898E+01  0.40193803370E+02  0.42376161034E+02  0.10566000000E+00 0. -1.
        994    1    1    2    0    0  0.93626101698E+01 -0.43830416288E+01  0.25509463306E+01  0.17153080438E+03  0.17120000000E+03 0.  0.
        998    1    1    2    0    0  0.23891574897E+01 -0.21040214610E+01  0.14572552466E+04  0.14572930346E+04  0.10000000000E+02 0. -1.
</event>
<event>
 5    1  0.1757379E-008  0.3846911E+03  0.7957747E-01  0.3430983E+00
         13   -1    0    0    0    0  0.00000000000E+00  0.00000000000E+00  0.14999999963E+04  0.15000000000E+04  0.10566000000E+00 0.  1.
        994   -1    0    0    0    0 -0.00000000000E+00 -0.00000000000E+00  0.11368683772E-12  0.17120000000E+03  0.17120000000E+03 0.  0.
         13    1    1    2    0    0 -0.39860906277E+01  0.13174880777E+02  0.50965795820E+02  0.52791949288E+02  0.10566000000E+00 0.  1.
        994    1    1    2    0    0  0.13853037844E+01 -0.16508562590E+02  0.26875805672E+01  0.17202068130E+03  0.17120000000E+03 0.  0.
        998    1    1    2    0    0  0.26007868433E+01  0.33336818140E+01  0.14463466199E+04  0.14463873694E+04  0.10000000000E+02 0.  1.
</event>
<event>
 5    1  0.1757379E-008  0.3833003E+03  0.7957747E-01  0.3436913E+00
         13   -1    0    0    0    0  0.00000000000E+00  0.00000000000E+00  0.14999999963E+04  0.15000000000E+04  0.10566000000E+00 0.  1.
        994   -1    0    0    0    0 -0.00000000000E+00 -0.00000000000E+00  0.11368683772E-12  0.17120000000E+03  0.17120000000E+03 0.  0.
         13    1    1    2    0    0 -0.29332399540E+02 -0.11881628094E+02  0.14589072024E+03  0.14928387778E+03  0.10566000000E+00 0.  1.
        994    1    1    2    0    0  0.61048237206E+02  0.15151784267E+02  0.15671693581E+02  0.18306148096E+03  0.17120000000E+03 0.  0.
        998    1    1    2    0    0 -0.31715837666E+02 -0.32701561732E+01  0.13384375825E+04  0.13388546413E+04  0.10000000000E+02 0.  1.
</event>
<event>
 5    1  0.1757379E-008  0.3837403E+03  0.7957747E-01  0.3435032E+00
         13   -1    0    0    0    0  0.00000000000E+00  0.00000000000E+00  0.14999999963E+04  0.15000000000E+04  0.10566000000E+00 0.  1.
        994   -1    0    0    0    0 -0.00000000000E+00 -0.00000000000E+00  0.11368683772E-12  0.17120000000E+03  0.17120000000E+03 0.  0.
         13    1    1    2    0    0 -0.20667523845E+02 -0.15002816121E+02  0.14559437768E+03  0.14781733663E+03  0.10566000000E+00 0.  1.
        994    1    1    2    0    0 -0.13400533602E+02  0.49271378847E+02  0.10914349833E+02  0.17898549133E+03  0.17120000000E+03 0.  0.
        998    1    1    2    0    0  0.34068057447E+02 -0.34268562726E+02  0.13434912688E+04  0.13443971720E+04  0.10000000000E+02 0.  1.
</event>
<event>
 5    1  0.2303080E-008  0.3846572E+03  0.7957747E-01  0.3431127E+00
         13   -1    0    0    0    0  0.00000000000E+00  0.00000000000E+00  0.14999999963E+04  0.15000000000E+04  0.10566000000E+00 0.  1.
        994   -1    0    0    0    0 -0.00000000000E+00 -0.00000000000E+00  0.11368683772E-12  0.17120000000E+03  0.17120000000E+03 0.  0.
         13    1    1    2    0    0 -0.45357736326E+01 -0.95278183703E+01  0.30273283518E+02  0.32059872494E+02  0.10566000000E+00 0.  1.
        994    1    1    2    0    0  0.48426805236E+01  0.81605577605E+01  0.20969280918E+01  0.17147560574E+03  0.17120000000E+03 0.  0.
        998    1    1    2    0    0 -0.30690689094E+00  0.13672606098E+01  0.14676297847E+04  0.14676645218E+04  0.10000000000E+02 0.  1.
</event>
<event>
 5    1  0.1757379E-008  0.3841393E+03  0.7957747E-01  0.3433331E+00
         13   -1    0    0    0    0  0.00000000000E+00  0.00000000000E+00  0.14999999963E+04  0.15000000000E+04  0.10566000000E+00 0. -1.
        994   -1    0    0    0    0 -0.00000000000E+00 -0.00000000000E+00  0.11368683772E-12  0.17120000000E+03  0.17120000000E+03 0.  0.
         13    1    1    2    0    0  0.10388736627E+02  0.20231856310E+02  0.12391813898E+03  0.12598797638E+03  0.10566000000E+00 0. -1.
        994    1    1    2    0    0 -0.60538839872E+01 -0.14205959174E+02  0.28448680830E+01  0.17191856230E+03  0.17120000000E+03 0.  0.
        998    1    1    2    0    0 -0.43348526395E+01 -0.60258971354E+01  0.13732369892E+04  0.13732934613E+04  0.10000000000E+02 0. -1.
</event>
<event>
 5    1  0.1757379E-008  0.3774643E+03  0.7957747E-01  0.3462274E+00
         13   -1    0    0    0    0  0.00000000000E+00  0.00000000000E+00  0.14999999963E+04  0.15000000000E+04  0.10566000000E+00 0.  1.
        994   -1    0    0    0    0 -0.00000000000E+00 -0.00000000000E+00  0.11368683772E-12  0.17120000000E+03  0.17120000000E+03 0.  0.
         13    1    1    2    0    0 -0.17135435713E+02 -0.81292662404E+00  0.26686378532E+02  0.31724721747E+02  0.10566000000E+00 0.  1.
        994    1    1    2    0    0 -0.13449600690E+02 -0.77451124443E+01  0.62311004812E+01  0.17201495615E+03  0.17120000000E+03 0.  0.
        998    1    1    2    0    0  0.30585036402E+02  0.85580390683E+01  0.14670825173E+04  0.14674603221E+04  0.10000000000E+02 0.  1.
</event>
<event>
 5    1  0.1757379E-008  0.3806063E+03  0.7957747E-01  0.3448523E+00
         13   -1    0    0    0    0  0.00000000000E+00  0.00000000000E+00  0.14999999963E+04  0.15000000000E+04  0.10566000000E+00 0.  1.
        994   -1    0    0    0    0 -0.00000000000E+00 -0.00000000000E+00  0.11368683772E-12  0.17120000000E+03  0.17120000000E+03 0.  0.
         13    1    1    2    0    0 -0.22158099192E+01 -0.17479480088E+02  0.41495071295E+02  0.45080973188E+02  0.10566000000E+00 0.  1.
        994    1    1    2    0    0 -0.40357522946E+00 -0.47425350797E+01  0.39029766590E+01  0.17131061771E+03  0.17120000000E+03 0.  0.
        998    1    1    2    0    0  0.26193851487E+01  0.22222015168E+02  0.14546019483E+04  0.14548084091E+04  0.10000000000E+02 0.  1.
</event>
<event>
 5    1  0.1963875E-008  0.3863734E+03  0.7957747E-01  0.3423868E+00
         13   -1    0    0    0    0  0.00000000000E+00  0.00000000000E+00  0.14999999963E+04  0.15000000000E+04  0.10566000000E+00 0.  1.
        994   -1    0    0    0    0 -0.00000000000E+00 -0.00000000000E+00  0.11368683772E-12  0.17120000000E+03  0.17120000000E+03 0.  0.
         13    1    1    2    0    0  0.20113779229E+01  0.11581396119E+02  0.70762759025E+02  0.71732514288E+02  0.10566000000E+00 0.  1.
        994    1    1    2    0    0  0.14561910321E+01 -0.13661026680E+02  0.15680104314E+01  0.17175751162E+03  0.17120000000E+03 0.  0.
        998    1    1    2    0    0 -0.34675689550E+01  0.20796305612E+01  0.14276692268E+04  0.14277099741E+04  0.10000000000E+02 0.  1.
</event>
<event>
 5    1  0.1757379E-008  0.3815549E+03  0.7957747E-01  0.3444416E+00
         13   -1    0    0    0    0  0.00000000000E+00  0.00000000000E+00  0.14999999963E+04  0.15000000000E+04  0.10566000000E+00 0.  1.
        994   -1    0    0    0    0 -0.00000000000E+00 -0.00000000000E+00  0.11368683772E-12  0.17120000000E+03  0.17120000000E+03 0.  0.
         13    1    1    2    0    0  0.63637510137E+00  0.12758480802E+02  0.24037513716E+02  0.27221260722E+02  0.10566000000E+00 0.  1.
        994    1    1    2    0    0  0.16176530840E+02  0.43483966900E+01  0.42840258836E+01  0.17207086209E+03  0.17120000000E+03 0.  0.
        998    1    1    2    0    0 -0.16812905941E+02 -0.17106877492E+02  0.14716784567E+04  0.14719078772E+04  0.10000000000E+02 0.  1.
</event>
<event>
 5    1  0.1757379E-008  0.3062505E+03  0.7957747E-01  0.3852382E+00
         13   -1    0    0    0    0  0.00000000000E+00  0.00000000000E+00  0.14999999963E+04  0.15000000000E+04  0.10566000000E+00 0. -1.
        994   -1    0    0    0    0 -0.00000000000E+00 -0.00000000000E+00  0.11368683772E-12  0.17120000000E+03  0.17120000000E+03 0.  0.
         13    1    1    2    0    0 -0.15754341790E+03 -0.16330197391E+03  0.53370883982E+03  0.57994189370E+03  0.10566000000E+00 0. -1.
        994    1    1    2    0    0  0.20882738909E+03  0.14364327148E+03  0.32038058518E+03  0.44293953000E+03  0.17120000000E+03 0.  0.
        998    1    1    2    0    0 -0.51283971187E+02  0.19658702435E+02  0.64591057128E+03  0.64831857630E+03  0.10000000000E+02 0.  1.
</event>
<event>
 5    1  0.1757379E-008  0.3839410E+03  0.7957747E-01  0.3434176E+00
         13   -1    0    0    0    0  0.00000000000E+00  0.00000000000E+00  0.14999999963E+04  0.15000000000E+04  0.10566000000E+00 0. -1.
        994   -1    0    0    0    0 -0.00000000000E+00 -0.00000000000E+00  0.11368683772E-12  0.17120000000E+03  0.17120000000E+03 0.  0.
         13    1    1    2    0    0  0.20492573610E+02 -0.42192584000E+01  0.94287611087E+02  0.96581118668E+02  0.10566000000E+00 0. -1.
        994    1    1    2    0    0 -0.23324636729E+02  0.37456927331E+01  0.40006017279E+01  0.17286848674E+03  0.17120000000E+03 0.  0.
        998    1    1    2    0    0  0.28320631180E+01  0.47356566687E+00  0.14017117835E+04  0.14017503946E+04  0.10000000000E+02 0. -1.
</event>
<event>
 5    1  0.1757379E-008  0.3836890E+03  0.7957747E-01  0.3435251E+00
         13   -1    0    0    0    0  0.00000000000E+00  0.00000000000E+00  0.14999999963E+04  0.15000000000E+04  0.10566000000E+00 0.  1.
        994   -1    0    0    0    0 -0.00000000000E+00 -0.00000000000E+00  0.11368683772E-12  0.17120000000E+03  0.17120000000E+03 0.  0.
         13    1    1    2    0    0 -0.79569231570E+01  0.63861633615E+01  0.21586687389E+02  0.23876598273E+02  0.10566000000E+00 0.  1.
        994    1    1    2    0    0  0.10052752818E+02 -0.87182059218E+01  0.28674131664E+01  0.17174028943E+03  0.17120000000E+03 0.  0.
        998    1    1    2    0    0 -0.20958296606E+01  0.23320425603E+01  0.14755458957E+04  0.14755831123E+04  0.10000000000E+02 0.  1.
</event>
<event>
 5    1  0.1757379E-008  0.3831766E+03  0.7957747E-01  0.3437442E+00
         13   -1    0    0    0    0  0.00000000000E+00  0.00000000000E+00  0.14999999963E+04  0.15000000000E+04  0.10566000000E+00 0.  1.
        994   -1    0    0    0    0 -0.00000000000E+00 -0.00000000000E+00  0.11368683772E-12  0.17120000000E+03  0.17120000000E+03 0.  0.
         13    1    1    2    0    0  0.22746781354E+01 -0.13541670244E+02  0.37687405198E+02  0.40111128982E+02  0.10566000000E+00 0.  1.
        994    1    1    2    0    0  0.44874209070E+01  0.11120552431E+01  0.26088333580E+01  0.17128228053E+03  0.17120000000E+03 0.  0.
        998    1    1    2    0    0 -0.67620990424E+01  0.12429615001E+02  0.14597037577E+04  0.14598065905E+04  0.10000000000E+02 0.  1.
</event>
<event>
 5    1  0.1757379E-008  0.3788285E+03  0.7957747E-01  0.3456276E+00
         13   -1    0    0    0    0  0.00000000000E+00  0.00000000000E+00  0.14999999963E+04  0.15000000000E+04  0.10566000000E+00 0.  1.
        994   -1    0    0    0    0 -0.00000000000E+00 -0.00000000000E+00  0.11368683772E-12  0.17120000000E+03  0.17120000000E+03 0.  0.
         13    1    1    2    0    0  0.32282218855E+01 -0.16963774322E+02  0.29553138358E+02  0.34228499918E+02  0.10566000000E+00 0.  1.
        994    1    1    2    0    0 -0.17579083589E+02  0.95829229630E+01  0.60720868244E+01  0.17247366996E+03  0.17120000000E+03 0.  0.
        998    1    1    2    0    0  0.14350861703E+02  0.73808513590E+01  0.14643747711E+04  0.14644978301E+04  0.10000000000E+02 0.  1.
</event>
<event>
 5    1  0.1757379E-008  0.2917189E+03  0.7957747E-01  0.3956972E+00
         13   -1    0    0    0    0  0.00000000000E+00  0.00000000000E+00  0.14999999963E+04  0.15000000000E+04  0.10566000000E+00 0.  1.
        994   -1    0    0    0    0 -0.00000000000E+00 -0.00000000000E+00  0.11368683772E-12  0.17120000000E+03  0.17120000000E+03 0.  0.
         13    1    1    2    0    0 -0.32204965767E+02  0.16763605429E+03  0.66176758766E+03  0.68342911686E+03  0.10566000000E+00 0.  1.
        994    1    1    2    0    0  0.90769123557E+01 -0.12797967860E+03  0.80502028835E+02  0.22858522507E+03  0.17120000000E+03 0.  0.
        998    1    1    2    0    0  0.23128053411E+02 -0.39656375690E+02  0.75773037978E+03  0.75918565808E+03  0.10000000000E+02 0.  1.
</event>
<event>
 5    1  0.1757379E-008  0.3705051E+03  0.7957747E-01  0.3493573E+00
         13   -1    0    0    0    0  0.00000000000E+00  0.00000000000E+00  0.14999999963E+04  0.15000000000E+04  0.10566000000E+00 0. -1.
        994   -1    0    0    0    0 -0.00000000000E+00 -0.00000000000E+00  0.11368683772E-12  0.17120000000E+03  0.17120000000E+03 0.  0.
         13    1    1    2    0    0 -0.10279314716E+02  0.80578440803E+01  0.53860534639E+01  0.14128478269E+02  0.10566000000E+00 0. -1.
        994    1    1    2    0    0  0.20221019453E+01 -0.91046814800E+01  0.93056016708E+01  0.17170619774E+03  0.17120000000E+03 0.  0.
        998    1    1    2    0    0  0.82572127708E+01  0.10468373997E+01  0.14853083411E+04  0.14853653240E+04  0.10000000000E+02 0. -1.
</event>
<event>
 5    1  0.1855951E-008  0.3840755E+03  0.7957747E-01  0.3433603E+00
         13   -1    0    0    0    0  0.00000000000E+00  0.00000000000E+00  0.14999999963E+04  0.15000000000E+04  0.10566000000E+00 0.  1.
        994   -1    0    0    0    0 -0.00000000000E+00 -0.00000000000E+00  0.11368683772E-12  0.17120000000E+03  0.17120000000E+03 0.  0.
         13    1    1    2    0    0  0.11086491591E+01 -0.12171253859E+02  0.34454513305E+02  0.36558079470E+02  0.10566000000E+00 0.  1.
        994    1    1    2    0    0 -0.23899033706E+01  0.13290546587E+02  0.26915615509E+01  0.17175283046E+03  0.17120000000E+03 0.  0.
        998    1    1    2    0    0  0.12812542115E+01 -0.11192927287E+01  0.14628539214E+04  0.14628890901E+04  0.10000000000E+02 0.  1.
</event>
<event>
 5    1  0.1757379E-008  0.3749234E+03  0.7957747E-01  0.3473565E+00
         13   -1    0    0    0    0  0.00000000000E+00  0.00000000000E+00  0.14999999963E+04  0.15000000000E+04  0.10566000000E+00 0. -1.
        994   -1    0    0    0    0 -0.00000000000E+00 -0.00000000000E+00  0.11368683772E-12  0.17120000000E+03  0.17120000000E+03 0.  0.
         13    1    1    2    0    0  0.54041852188E+02 -0.18911990342E+01  0.11400332442E+03  0.12617792027E+03  0.10566000000E+00 0. -1.
        994    1    1    2    0    0 -0.64849842303E+01 -0.63407066712E+01  0.13858902788E+02  0.17199932781E+03  0.17120000000E+03 0.  0.
        998    1    1    2    0    0 -0.47556867958E+02  0.82319057055E+01  0.13721377691E+04  0.13730227519E+04  0.10000000000E+02 0. -1.
</event>
<event>
 5    1  0.1757379E-008  0.3684234E+03  0.7957747E-01  0.3503168E+00
         13   -1    0    0    0    0  0.00000000000E+00  0.00000000000E+00  0.14999999963E+04  0.15000000000E+04  0.10566000000E+00 0. -1.
        994   -1    0    0    0    0 -0.00000000000E+00 -0.00000000000E+00  0.11368683772E-12  0.17120000000E+03  0.17120000000E+03 0.  0.
         13    1    1    2    0    0  0.43915148782E+01 -0.19828459971E+02  0.15790413961E+02  0.25725504171E+02  0.10566000000E+00 0. -1.
        994    1    1    2    0    0 -0.60976445203E+01  0.21134339289E+02  0.11779383823E+02  0.17300877275E+03  0.17120000000E+03 0.  0.
        998    1    1    2    0    0  0.17061296421E+01 -0.13058793181E+01  0.14724301985E+04  0.14724657231E+04  0.10000000000E+02 0. -1.
</event>
<event>
 5    1  0.1757379E-008  0.3766847E+03  0.7957747E-01  0.3465722E+00
         13   -1    0    0    0    0  0.00000000000E+00  0.00000000000E+00  0.14999999963E+04  0.15000000000E+04  0.10566000000E+00 0.  1.
        994   -1    0    0    0    0 -0.00000000000E+00 -0.00000000000E+00  0.11368683772E-12  0.17120000000E+03  0.17120000000E+03 0.  0.
         13    1    1    2    0    0  0.15564131429E+01  0.37452610597E+02  0.42750424121E+02  0.56857105000E+02  0.10566000000E+00 0.  1.
        994    1    1    2    0    0 -0.23032083687E+02 -0.25999704423E+02  0.18849351046E+02  0.17570201918E+03  0.17120000000E+03 0.  0.
        998    1    1    2    0    0  0.21475670544E+02 -0.11452906175E+02  0.14384002211E+04  0.14386408758E+04  0.10000000000E+02 0.  1.
</event>
<event>
 5    1  0.1757379E-008  0.3853583E+03  0.7957747E-01  0.3428154E+00
         13   -1    0    0    0    0  0.00000000000E+00  0.00000000000E+00  0.14999999963E+04  0.15000000000E+04  0.10566000000E+00 0.  1.
        994   -1    0    0    0    0 -0.00000000000E+00 -0.00000000000E+00  0.11368683772E-12  0.17120000000E+03  0.17120000000E+03 0.  0.
         13    1    1    2    0    0 -0.37990527151E+01 -0.99491375371E+01  0.39618196354E+02  0.41024758204E+02  0.10566000000E+00 0.  1.
        994    1    1    2    0    0  0.40654505633E+01  0.33866610204E+01  0.15443262927E+01  0.17128871038E+03  0.17120000000E+03 0.  0.
        998    1    1    2    0    0 -0.26639784827E+00  0.65624765166E+01  0.14588374736E+04  0.14588865314E+04  0.10000000000E+02 0.  1.
</event>
<event>
 5    1  0.1757379E-008  0.3773307E+03  0.7957747E-01  0.3462864E+00
         13   -1    0    0    0    0  0.00000000000E+00  0.00000000000E+00  0.14999999963E+04  0.15000000000E+04  0.10566000000E+00 0.  1.
        994   -1    0    0    0    0 -0.00000000000E+00 -0.00000000000E+00  0.11368683772E-12  0.17120000000E+03  0.17120000000E+03 0.  0.
         13    1    1    2    0    0 -0.10183801764E+02 -0.66545629021E+01  0.10866959522E+02  0.16312418554E+02  0.10566000000E+00 0.  1.
        994    1    1    2    0    0  0.12466691666E+02  0.94895790935E+01  0.63150047016E+01  0.17203136283E+03  0.17120000000E+03 0.  0.
        998    1    1    2    0    0 -0.22828899020E+01 -0.28350161914E+01  0.14828180321E+04  0.14828562186E+04  0.10000000000E+02 0.  1.
</event>
<event>
 5    1  0.1757379E-008  0.3818178E+03  0.7957747E-01  0.3443281E+00
         13   -1    0    0    0    0  0.00000000000E+00  0.00000000000E+00  0.14999999963E+04  0.15000000000E+04  0.10566000000E+00 0.  1.
        994   -1    0    0    0    0 -0.00000000000E+00 -0.00000000000E+00  0.11368683772E-12  0.17120000000E+03  0.17120000000E+03 0.  0.
         13    1    1    2    0    0  0.18273862723E+02 -0.24157738949E+02  0.15026849751E+03  0.15329110515E+03  0.10566000000E+00 0.  1.
        994    1    1    2    0    0  0.51913386496E+01  0.16272094458E+02  0.41883327924E+01  0.17210088084E+03  0.17120000000E+03 0.  0.
        998    1    1    2    0    0 -0.23465201372E+02  0.78856444912E+01  0.13455431660E+04  0.13458080140E+04  0.10000000000E+02 0.  1.
</event>
<event>
 5    1  0.1757379E-008  0.3848109E+03  0.7957747E-01  0.3430475E+00
         13   -1    0    0    0    0  0.00000000000E+00  0.00000000000E+00  0.14999999963E+04  0.15000000000E+04  0.10566000000E+00 0. -1.
        994   -1    0    0    0    0 -0.00000000000E+00 -0.00000000000E+00  0.11368683772E-12  0.17120000000E+03  0.17120000000E+03 0.  0.
         13    1    1    2    0    0  0.12111180033E+02  0.37028659590E+01  0.48031864885E+02  0.49673565470E+02  0.10566000000E+00 0. -1.
        994    1    1    2    0    0 -0.53542084129E+01  0.10769822480E+02  0.22002264102E+01  0.17163606154E+03  0.17120000000E+03 0.  0.
        998    1    1    2    0    0 -0.67569716200E+01 -0.14472688440E+02  0.14497679050E+04  0.14498903730E+04  0.10000000000E+02 0. -1.
</event>
<event>
 5    1  0.1757379E-008  0.3863096E+03  0.7957747E-01  0.3424137E+00
         13   -1    0    0    0    0  0.00000000000E+00  0.00000000000E+00  0.14999999963E+04  0.15000000000E+04  0.10566000000E+00 0.  1.
        994   -1    0    0    0    0 -0.00000000000E+00 -0.00000000000E+00  0.11368683772E-12  0.17120000000E+03  0.17120000000E+03 0.  0.
         13    1    1    2    0    0  0.44916488834E+01 -0.95573689709E+01  0.60485383199E+02  0.61400414951E+02  0.10566000000E+00 0.  1.
        994    1    1    2    0    0  0.56983242416E+01  0.42785476707E+01  0.11476450536E+01  0.17135207603E+03  0.17120000000E+03 0.  0.
        998    1    1    2    0    0 -0.10189973125E+02  0.52788213002E+01  0.14383669680E+04  0.14384475090E+04  0.10000000000E+02 0.  1.
</event>
<event>
 5    1  0.1757379E-008  0.3758938E+03  0.7957747E-01  0.3469235E+00
         13   -1    0    0    0    0  0.00000000000E+00  0.00000000000E+00  0.14999999963E+04  0.15000000000E+04  0.10566000000E+00 0. -1.
        994   -1    0    0    0    0 -0.00000000000E+00 -0.00000000000E+00  0.11368683772E-12  0.17120000000E+03  0.17120000000E+03 0.  0.
         13    1    1    2    0    0 -0.64534192372E+01 -0.66546709266E+02  0.17367232710E+03  0.18609728504E+03  0.10566000000E+00 0. -1.
        994    1    1    2    0    0 -0.42800339757E+02  0.17831797377E+02  0.21804167329E+02  0.17870283656E+03  0.17120000000E+03 0.  0.
        998    1    1    2    0    0  0.49253758994E+02  0.48714911890E+02  0.13045235018E+04  0.13063998784E+04  0.10000000000E+02 0. -1.
</event>
<event>
 5    1  0.1757379E-008  0.3756475E+03  0.7957747E-01  0.3470332E+00
         13   -1    0    0    0    0  0.00000000000E+00  0.00000000000E+00  0.14999999963E+04  0.15000000000E+04  0.10566000000E+00 0. -1.
        994   -1    0    0    0    0 -0.00000000000E+00 -0.00000000000E+00  0.11368683772E-12  0.17120000000E+03  0.17120000000E+03 0.  0.
         13    1    1    2    0    0  0.10420276784E+02  0.52048762665E+02  0.90549035482E+02  0.10496092060E+03  0.10566000000E+00 0. -1.
        994    1    1    2    0    0 -0.92919728560E+01 -0.52858870222E+02  0.24302387469E+02  0.18105371291E+03  0.17120000000E+03 0.  0.
        998    1    1    2    0    0 -0.11283039283E+01  0.81010755675E+00  0.13851485733E+04  0.13851853665E+04  0.10000000000E+02 0. -1.
</event>
<event>
 5    1  0.1757379E-008  0.3732446E+03  0.7957747E-01  0.3481111E+00
         13   -1    0    0    0    0  0.00000000000E+00  0.00000000000E+00  0.14999999963E+04  0.15000000000E+04  0.10566000000E+00 0. -1.
        994   -1    0    0    0    0 -0.00000000000E+00 -0.00000000000E+00  0.11368683772E-12  0.17120000000E+03  0.17120000000E+03 0.  0.
         13    1    1    2    0    0 -0.26842767718E+02  0.16599767449E+02  0.61318934263E+02  0.68964551194E+02  0.10566000000E+00 0. -1.
        994    1    1    2    0    0  0.26510126519E+02 -0.99247301336E+01  0.10327750890E+02  0.17383149748E+03  0.17120000000E+03 0.  0.
        998    1    1    2    0    0  0.33264119867E+00 -0.66750373154E+01  0.14283533111E+04  0.14284039513E+04  0.10000000000E+02 0. -1.
</event>
<event>
 5    1  0.1757379E-008  0.3773989E+03  0.7957747E-01  0.3462563E+00
         13   -1    0    0    0    0  0.00000000000E+00  0.00000000000E+00  0.14999999963E+04  0.15000000000E+04  0.10566000000E+00 0.  1.
        994   -1    0    0    0    0 -0.00000000000E+00 -0.00000000000E+00  0.11368683772E-12  0.17120000000E+03  0.17120000000E+03 0.  0.
         13    1    1    2    0    0  0.12445490233E+02 -0.18156213824E+02  0.45768232412E+02  0.50786618215E+02  0.10566000000E+00 0.  1.
        994    1    1    2    0    0  0.31906996812E+01 -0.93900588771E+01  0.57836960845E+01  0.17158451244E+03  0.17120000000E+03 0.  0.
        998    1    1    2    0    0 -0.15636189914E+02  0.27546272701E+02  0.14484480678E+04  0.14488288693E+04  0.10000000000E+02 0.  1.
</event>
<event>
 5    1  0.1757379E-008  0.3852428E+03  0.7957747E-01  0.3428643E+00
         13   -1    0    0    0    0  0.00000000000E+00  0.00000000000E+00  0.14999999963E+04  0.15000000000E+04  0.10566000000E+00 0. -1.
        994   -1    0    0    0    0 -0.00000000000E+00 -0.00000000000E+00  0.11368683772E-12  0.17120000000E+03  0.17120000000E+03 0.  0.
         13    1    1    2    0    0 -0.11480053797E+02 -0.42866563257E+01  0.47841114626E+02  0.49385731445E+02  0.10566000000E+00 0. -1.
        994    1    1    2    0    0  0.15133396402E+02  0.33799319202E+01  0.23001692855E+01  0.17191618424E+03  0.17120000000E+03 0.  0.
        998    1    1    2    0    0 -0.36533426058E+01  0.90672440546E+00  0.14498587124E+04  0.14498980843E+04  0.10000000000E+02 0. -1.
</event>
<event>
 5    1  0.1757379E-008  0.3834783E+03  0.7957747E-01  0.3436152E+00
         13   -1    0    0    0    0  0.00000000000E+00  0.00000000000E+00  0.14999999963E+04  0.15000000000E+04  0.10566000000E+00 0.  1.
        994   -1    0    0    0    0 -0.00000000000E+00 -0.00000000000E+00  0.11368683772E-12  0.17120000000E+03  0.17120000000E+03 0.  0.
         13    1    1    2    0    0  0.16418049017E+02  0.68136234272E+00  0.57743143356E+02  0.60035808954E+02  0.10566000000E+00 0.  1.
        994    1    1    2    0    0 -0.45592926229E+01  0.30328539902E+01  0.24866155059E+01  0.17130560005E+03  0.17120000000E+03 0.  0.
        998    1    1    2    0    0 -0.11858756394E+02 -0.37142163330E+01  0.14397702374E+04  0.14398585910E+04  0.10000000000E+02 0.  1.
</event>
<event>
 5    1  0.1757379E-008  0.3757043E+03  0.7957747E-01  0.3470079E+00
         13   -1    0    0    0    0  0.00000000000E+00  0.00000000000E+00  0.14999999963E+04  0.15000000000E+04  0.10566000000E+00 0.  1.
        994   -1    0    0    0    0 -0.00000000000E+00 -0.00000000000E+00  0.11368683772E-12  0.17120000000E+03  0.17120000000E+03 0.  0.
         13    1    1    2    0    0 -0.10604523278E+01  0.61187658318E+02  0.25229388801E+03  0.25960984415E+03  0.10566000000E+00 0.  1.
        994    1    1    2    0    0  0.43080593088E+01 -0.57539949980E+02  0.17692828306E+02  0.18152653082E+03  0.17120000000E+03 0.  0.
        998    1    1    2    0    0 -0.32476069810E+01 -0.36477083374E+01  0.12300132800E+04  0.12300636250E+04  0.10000000000E+02 0.  1.
</event>
<event>
 5    1  0.1757379E-008  0.3735788E+03  0.7957747E-01  0.3479603E+00
         13   -1    0    0    0    0  0.00000000000E+00  0.00000000000E+00  0.14999999963E+04  0.15000000000E+04  0.10566000000E+00 0. -1.
        994   -1    0    0    0    0 -0.00000000000E+00 -0.00000000000E+00  0.11368683772E-12  0.17120000000E+03  0.17120000000E+03 0.  0.
         13    1    1    2    0    0 -0.20050118351E+02  0.23128264821E+02  0.60175065088E+02  0.67512765474E+02  0.10566000000E+00 0. -1.
        994    1    1    2    0    0  0.12655053317E+02 -0.16844855956E+02  0.89280053287E+01  0.17272246184E+03  0.17120000000E+03 0.  0.
        998    1    1    2    0    0  0.73950650346E+01 -0.62834088654E+01  0.14308969259E+04  0.14309647727E+04  0.10000000000E+02 0. -1.
</event>
<event>
 5    1  0.1757379E-008  0.3694393E+03  0.7957747E-01  0.3498472E+00
         13   -1    0    0    0    0  0.00000000000E+00  0.00000000000E+00  0.14999999963E+04  0.15000000000E+04  0.10566000000E+00 0. -1.
        994   -1    0    0    0    0 -0.00000000000E+00 -0.00000000000E+00  0.11368683772E-12  0.17120000000E+03  0.17120000000E+03 0.  0.
         13    1    1    2    0    0 -0.97680176582E+02  0.30664474768E+02  0.43670429192E+03  0.44854473205E+03  0.10566000000E+00 0. -1.
        994    1    1    2    0    0  0.68656820167E+02 -0.27847619504E+02  0.30048932651E+02  0.18894874231E+03  0.17120000000E+03 0.  0.
        998    1    1    2    0    0  0.29023356415E+02 -0.28168552642E+01  0.10332467717E+04  0.10337065256E+04  0.10000000000E+02 0. -1.
</event>
<event>
 5    1  0.1757379E-008  0.3773856E+03  0.7957747E-01  0.3462622E+00
         13   -1    0    0    0    0  0.00000000000E+00  0.00000000000E+00  0.14999999963E+04  0.15000000000E+04  0.10566000000E+00 0.  1.
        994   -1    0    0    0    0 -0.00000000000E+00 -0.00000000000E+00  0.11368683772E-12  0.17120000000E+03  0.17120000000E+03 0.  0.
         13    1    1    2    0    0 -0.12784158736E+02  0.66349330698E+01  0.16911782138E+02  0.22214332998E+02  0.10566000000E+00 0.  1.
        994    1    1    2    0    0  0.86991749239E+01  0.92546405513E+01  0.60029388137E+01  0.17177543273E+03  0.17120000000E+03 0.  0.
        998    1    1    2    0    0  0.40849838119E+01 -0.15889573621E+02  0.14770852753E+04  0.14772102343E+04  0.10000000000E+02 0.  1.
</event>
<event>
 5    1  0.1757379E-008  0.3799997E+03  0.7957747E-01  0.3451160E+00
         13   -1    0    0    0    0  0.00000000000E+00  0.00000000000E+00  0.14999999963E+04  0.15000000000E+04  0.10566000000E+00 0.  1.
        994   -1    0    0    0    0 -0.00000000000E+00 -0.00000000000E+00  0.11368683772E-12  0.17120000000E+03  0.17120000000E+03 0.  0.
         13    1    1    2    0    0  0.44235417404E+00  0.18837586871E+02  0.43415681160E+02  0.47328457517E+02  0.10566000000E+00 0.  1.
        994    1    1    2    0    0  0.36910949918E+02 -0.13928797988E-01  0.87012057999E+01  0.17534984859E+03  0.17120000000E+03 0.  0.
        998    1    1    2    0    0 -0.37353304092E+02 -0.18823658073E+02  0.14478831093E+04  0.14485216939E+04  0.10000000000E+02 0.  1.
</event>
<event>
 5    1  0.1757379E-008  0.3790664E+03  0.7957747E-01  0.3455234E+00
         13   -1    0    0    0    0  0.00000000000E+00  0.00000000000E+00  0.14999999963E+04  0.15000000000E+04  0.10566000000E+00 0.  1.
        994   -1    0    0    0    0 -0.00000000000E+00 -0.00000000000E+00  0.11368683772E-12  0.17120000000E+03  0.17120000000E+03 0.  0.
         13    1    1    2    0    0 -0.52687583752E+02  0.38017239180E+02  0.12020655019E+03  0.13664156699E+03  0.10566000000E+00 0.  1.
        994    1    1    2    0    0  0.44994382797E+02 -0.41943853647E+02  0.29608952680E+02  0.18430928197E+03  0.17120000000E+03 0.  0.
        998    1    1    2    0    0  0.76932009549E+01  0.39266144669E+01  0.13501844934E+04  0.13502491510E+04  0.10000000000E+02 0.  1.
</event>
<event>
 5    1  0.1757379E-008  0.3863031E+03  0.7957747E-01  0.3424164E+00
         13   -1    0    0    0    0  0.00000000000E+00  0.00000000000E+00  0.14999999963E+04  0.15000000000E+04  0.10566000000E+00 0. -1.
        994   -1    0    0    0    0 -0.00000000000E+00 -0.00000000000E+00  0.11368683772E-12  0.17120000000E+03  0.17120000000E+03 0.  0.
         13    1    1    2    0    0  0.28583888444E+01 -0.10523929074E+02  0.60371894673E+02  0.61349004070E+02  0.10566000000E+00 0. -1.
        994    1    1    2    0    0  0.14713789847E+02  0.14471330586E+02  0.23805845100E+01  0.17245585581E+03  0.17120000000E+03 0.  0.
        998    1    1    2    0    0 -0.17572178692E+02 -0.39474015120E+01  0.14372475171E+04  0.14373951401E+04  0.10000000000E+02 0. -1.
</event>
<event>
 5    1  0.1757379E-008  0.3855181E+03  0.7957747E-01  0.3427478E+00
         13   -1    0    0    0    0  0.00000000000E+00  0.00000000000E+00  0.14999999963E+04  0.15000000000E+04  0.10566000000E+00 0. -1.
        994   -1    0    0    0    0 -0.00000000000E+00 -0.00000000000E+00  0.11368683772E-12  0.17120000000E+03  0.17120000000E+03 0.  0.
         13    1    1    2    0    0 -0.55437846947E+01 -0.11002502296E+02  0.54977812730E+02  0.56341455981E+02  0.10566000000E+00 0. -1.
        994    1    1    2    0    0  0.81322780585E+01  0.69732993879E+01  0.17499928550E+01  0.17154376504E+03  0.17120000000E+03 0.  0.
        998    1    1    2    0    0 -0.25884933638E+01  0.40292029080E+01  0.14432721907E+04  0.14433147790E+04  0.10000000000E+02 0. -1.
</event>
<event>
 5    1  0.1757379E-008  0.3794719E+03  0.7957747E-01  0.3453461E+00
         13   -1    0    0    0    0  0.00000000000E+00  0.00000000000E+00  0.14999999963E+04  0.15000000000E+04  0.10566000000E+00 0.  1.
        994   -1    0    0    0    0 -0.00000000000E+00 -0.00000000000E+00  0.11368683772E-12  0.17120000000E+03  0.17120000000E+03 0.  0.
         13    1    1    2    0    0  0.45539599413E+02  0.75592578711E+01  0.20414065644E+03  0.20929504598E+03  0.10566000000E+00 0.  1.
        994    1    1    2    0    0 -0.50643523087E+02  0.41768463974E+00  0.13037707927E+02  0.17900939282E+03  0.17120000000E+03 0.  0.
        998    1    1    2    0    0  0.51039236741E+01 -0.79769425108E+01  0.12828216319E+04  0.12828955612E+04  0.10000000000E+02 0.  1.
</event>
<event>
 5    1  0.1757379E-008  0.3822206E+03  0.7957747E-01  0.3441546E+00
         13   -1    0    0    0    0  0.00000000000E+00  0.00000000000E+00  0.14999999963E+04  0.15000000000E+04  0.10566000000E+00 0.  1.
        994   -1    0    0    0    0 -0.00000000000E+00 -0.00000000000E+00  0.11368683772E-12  0.17120000000E+03  0.17120000000E+03 0.  0.
         13    1    1    2    0    0 -0.73997726259E+02  0.23140550779E+03  0.11548071382E+04  0.11800863147E+04  0.10566000000E+00 0.  1.
        994    1    1    2    0    0  0.70962997720E+02 -0.22879047315E+03  0.22531325303E+03  0.37075103458E+03  0.17120000000E+03 0.  0.
        998    1    1    2    0    0  0.30347285390E+01 -0.26150346379E+01  0.11987960504E+03  0.12036265072E+03  0.10000000000E+02 0.  0.
</event>
<event>
 5    1  0.1757379E-008  0.3760626E+03  0.7957747E-01  0.3468484E+00
         13   -1    0    0    0    0  0.00000000000E+00  0.00000000000E+00  0.14999999963E+04  0.15000000000E+04  0.10566000000E+00 0. -1.
        994   -1    0    0    0    0 -0.00000000000E+00 -0.00000000000E+00  0.11368683772E-12  0.17120000000E+03  0.17120000000E+03 0.  0.
         13    1    1    2    0    0  0.77874829693E+01 -0.23022557153E+02  0.46334088427E+02  0.52321524665E+02  0.10566000000E+00 0. -1.
        994    1    1    2    0    0 -0.18031998236E+01  0.12063988931E+02  0.66381795360E+01  0.17176232645E+03  0.17120000000E+03 0.  0.
        998    1    1    2    0    0 -0.59842831457E+01  0.10958568221E+02  0.14470277283E+04  0.14471161489E+04  0.10000000000E+02 0. -1.
</event>
<event>
 5    1  0.1757379E-008  0.3824870E+03  0.7957747E-01  0.3440401E+00
         13   -1    0    0    0    0  0.00000000000E+00  0.00000000000E+00  0.14999999963E+04  0.15000000000E+04  0.10566000000E+00 0.  1.
        994   -1    0    0    0    0 -0.00000000000E+00 -0.00000000000E+00  0.11368683772E-12  0.17120000000E+03  0.17120000000E+03 0.  0.
         13    1    1    2    0    0 -0.32035614927E+02  0.20592377269E+02  0.36839204861E+02  0.52985515041E+02  0.10566000000E+00 0.  1.
        994    1    1    2    0    0 -0.69021273598E+01 -0.32290883303E+01  0.17912720323E+02  0.17230313962E+03  0.17120000000E+03 0.  0.
        998    1    1    2    0    0  0.38937742286E+02 -0.17363288939E+02  0.14452480711E+04  0.14459113453E+04  0.10000000000E+02 0.  1.
</event>
<event>
 5    1  0.1757379E-008  0.3837526E+03  0.7957747E-01  0.3434980E+00
         13   -1    0    0    0    0  0.00000000000E+00  0.00000000000E+00  0.14999999963E+04  0.15000000000E+04  0.10566000000E+00 0. -1.
        994   -1    0    0    0    0 -0.00000000000E+00 -0.00000000000E+00  0.11368683772E-12  0.17120000000E+03  0.17120000000E+03 0.  0.
         13    1    1    2    0    0 -0.97611137622E+01 -0.10720099350E+02  0.46831419528E+02  0.49024411174E+02  0.10566000000E+00 0. -1.
        994    1    1    2    0    0  0.94771392170E+01  0.10354034908E+00  0.25473975580E+01  0.17148106637E+03  0.17120000000E+03 0.  0.
        998    1    1    2    0    0  0.28397454521E+00  0.10616559001E+02  0.14506211792E+04  0.14506945225E+04  0.10000000000E+02 0. -1.
</event>
<event>
 5    1  0.1757379E-008  0.3820368E+03  0.7957747E-01  0.3442337E+00
         13   -1    0    0    0    0  0.00000000000E+00  0.00000000000E+00  0.14999999963E+04  0.15000000000E+04  0.10566000000E+00 0. -1.
        994   -1    0    0    0    0 -0.00000000000E+00 -0.00000000000E+00  0.11368683772E-12  0.17120000000E+03  0.17120000000E+03 0.  0.
         13    1    1    2    0    0  0.25839104183E+02  0.21609418046E+02  0.20247391699E+03  0.20525672821E+03  0.10566000000E+00 0. -1.
        994    1    1    2    0    0 -0.59823542903E+01 -0.37318355422E+01  0.32736006725E+01  0.17137640334E+03  0.17120000000E+03 0.  0.
        998    1    1    2    0    0 -0.19856749892E+02 -0.17877582504E+02  0.12942524786E+04  0.12945668685E+04  0.10000000000E+02 0. -1.
</event>
<event>
 5    1  0.1757379E-008  0.3854286E+03  0.7957747E-01  0.3427857E+00
         13   -1    0    0    0    0  0.00000000000E+00  0.00000000000E+00  0.14999999963E+04  0.15000000000E+04  0.10566000000E+00 0. -1.
        994   -1    0    0    0    0 -0.00000000000E+00 -0.00000000000E+00  0.11368683772E-12  0.17120000000E+03  0.17120000000E+03 0.  0.
         13    1    1    2    0    0 -0.12057492497E+02 -0.55879310775E+01  0.63358529864E+02  0.64737335206E+02  0.10566000000E+00 0. -1.
        994    1    1    2    0    0  0.48104884526E+01  0.61209167110E+01  0.16165788794E+01  0.17138453766E+03  0.17120000000E+03 0.  0.
        998    1    1    2    0    0  0.72470040448E+01 -0.53298563353E+00  0.14350248875E+04  0.14350781271E+04  0.10000000000E+02 0. -1.
</event>
<event>
 5    1  0.1757379E-008  0.3835916E+03  0.7957747E-01  0.3435668E+00
         13   -1    0    0    0    0  0.00000000000E+00  0.00000000000E+00  0.14999999963E+04  0.15000000000E+04  0.10566000000E+00 0.  1.
        994   -1    0    0    0    0 -0.00000000000E+00 -0.00000000000E+00  0.11368683772E-12  0.17120000000E+03  0.17120000000E+03 0.  0.
         13    1    1    2    0    0  0.14946818038E+02  0.40504028602E+01  0.53692865020E+02  0.55881553763E+02  0.10566000000E+00 0.  1.
        994    1    1    2    0    0 -0.30820281930E+01  0.13924619570E+02  0.30032600262E+01  0.17181924659E+03  0.17120000000E+03 0.  0.
        998    1    1    2    0    0 -0.11864789845E+02 -0.17975022431E+02  0.14433038712E+04  0.14434991996E+04  0.10000000000E+02 0.  1.
</event>
<event>
 5    1  0.1757379E-008  0.3856943E+03  0.7957747E-01  0.3426733E+00
         13   -1    0    0    0    0  0.00000000000E+00  0.00000000000E+00  0.14999999963E+04  0.15000000000E+04  0.10566000000E+00 0.  1.
        994   -1    0    0    0    0 -0.00000000000E+00 -0.00000000000E+00  0.11368683772E-12  0.17120000000E+03  0.17120000000E+03 0.  0.
         13    1    1    2    0    0 -0.89744998538E+01  0.54108044118E+01  0.46117389803E+02  0.47293162913E+02  0.10566000000E+00 0.  1.
        994    1    1    2    0    0  0.18495615404E+01  0.11621338493E+02  0.17403341735E+01  0.17161277677E+03  0.17120000000E+03 0.  0.
        998    1    1    2    0    0  0.71249383134E+01 -0.17032142905E+02  0.14521422723E+04  0.14522940603E+04  0.10000000000E+02 0.  1.
</event>
<event>
 5    1  0.1757379E-008  0.3722861E+03  0.7957747E-01  0.3485450E+00
         13   -1    0    0    0    0  0.00000000000E+00  0.00000000000E+00  0.14999999963E+04  0.15000000000E+04  0.10566000000E+00 0. -1.
        994   -1    0    0    0    0 -0.00000000000E+00 -0.00000000000E+00  0.11368683772E-12  0.17120000000E+03  0.17120000000E+03 0.  0.
         13    1    1    2    0    0 -0.56930085227E+02  0.88518789301E+01  0.21433573015E+03  0.22194415231E+03  0.10566000000E+00 0. -1.
        994    1    1    2    0    0  0.24775713173E+02  0.29740734233E+01  0.10218165942E+02  0.17331050745E+03  0.17120000000E+03 0.  0.
        998    1    1    2    0    0  0.32154372055E+02 -0.11825952353E+02  0.12754461002E+04  0.12759453402E+04  0.10000000000E+02 0. -1.
</event>
<event>
 5    1  0.1757379E-008  0.3694383E+03  0.7957747E-01  0.3498477E+00
         13   -1    0    0    0    0  0.00000000000E+00  0.00000000000E+00  0.14999999963E+04  0.15000000000E+04  0.10566000000E+00 0. -1.
        994   -1    0    0    0    0 -0.00000000000E+00 -0.00000000000E+00  0.11368683772E-12  0.17120000000E+03  0.17120000000E+03 0.  0.
         13    1    1    2    0    0 -0.34435483691E+01  0.37248578595E+02  0.63286310861E+02  0.73515188493E+02  0.10566000000E+00 0. -1.
        994    1    1    2    0    0  0.95819889127E+01 -0.15982378210E+02  0.11854592325E+02  0.17261871939E+03  0.17120000000E+03 0.  0.
        998    1    1    2    0    0 -0.61384405436E+01 -0.21266200385E+02  0.14248590931E+04  0.14250660921E+04  0.10000000000E+02 0. -1.
</event>
<event>
 5    1  0.1757379E-008  0.3826606E+03  0.7957747E-01  0.3439655E+00
         13   -1    0    0    0    0  0.00000000000E+00  0.00000000000E+00  0.14999999963E+04  0.15000000000E+04  0.10566000000E+00 0. -1.
        994   -1    0    0    0    0 -0.00000000000E+00 -0.00000000000E+00  0.11368683772E-12  0.17120000000E+03  0.17120000000E+03 0.  0.
         13    1    1    2    0    0 -0.19366639091E+02  0.27084676848E+02  0.17616755832E+03  0.17928654773E+03  0.10566000000E+00 0. -1.
        994    1    1    2    0    0  0.33194658079E+02 -0.18114308913E+02  0.75493257431E+01  0.17548916158E+03  0.17120000000E+03 0.  0.
        998    1    1    2    0    0 -0.13828018988E+02 -0.89703679350E+01  0.13162831122E+04  0.13164242907E+04  0.10000000000E+02 0. -1.
</event>
<event>
 5    1  0.1757379E-008  0.3845368E+03  0.7957747E-01  0.3431639E+00
         13   -1    0    0    0    0  0.00000000000E+00  0.00000000000E+00  0.14999999963E+04  0.15000000000E+04  0.10566000000E+00 0. -1.
        994   -1    0    0    0    0 -0.00000000000E+00 -0.00000000000E+00  0.11368683772E-12  0.17120000000E+03  0.17120000000E+03 0.  0.
         13    1    1    2    0    0 -0.53891987385E+01  0.87653246600E+01  0.27610216284E+02  0.29465396429E+02  0.10566000000E+00 0. -1.
        994    1    1    2    0    0  0.17850718777E+01 -0.11543572658E+02  0.23097959413E+01  0.17161356505E+03  0.17120000000E+03 0.  0.
        998    1    1    2    0    0  0.36041268608E+01  0.27782479979E+01  0.14700799841E+04  0.14701210385E+04  0.10000000000E+02 0. -1.
</event>
<event>
 5    1  0.1757379E-008  0.3784958E+03  0.7957747E-01  0.3457734E+00
         13   -1    0    0    0    0  0.00000000000E+00  0.00000000000E+00  0.14999999963E+04  0.15000000000E+04  0.10566000000E+00 0. -1.
        994   -1    0    0    0    0 -0.00000000000E+00 -0.00000000000E+00  0.11368683772E-12  0.17120000000E+03  0.17120000000E+03 0.  0.
         13    1    1    2    0    0  0.44894339787E+02 -0.13419489617E+01  0.22744414683E+03  0.23183648044E+03  0.10566000000E+00 0. -1.
        994    1    1    2    0    0 -0.12131581673E+02 -0.11585867858E+02  0.58403759415E+01  0.17211902161E+03  0.17120000000E+03 0.  0.
        998    1    1    2    0    0 -0.32762758114E+02  0.12927816819E+02  0.12667154735E+04  0.12672444979E+04  0.10000000000E+02 0. -1.
</event>
<event>
 5    1  0.1757379E-008  0.3799272E+03  0.7957747E-01  0.3451475E+00
         13   -1    0    0    0    0  0.00000000000E+00  0.00000000000E+00  0.14999999963E+04  0.15000000000E+04  0.10566000000E+00 0.  1.
        994   -1    0    0    0    0 -0.00000000000E+00 -0.00000000000E+00  0.11368683772E-12  0.17120000000E+03  0.17120000000E+03 0.  0.
         13    1    1    2    0    0  0.91289832095E+01 -0.76374027691E+01 -0.31895179068E+01  0.12322842367E+02  0.10566000000E+00 0.  1.
        994    1    1    2    0    0 -0.75804698773E+01  0.57291278323E+01  0.16614591645E+02  0.17226656984E+03  0.17120000000E+03 0.  0.
        998    1    1    2    0    0 -0.15485133321E+01  0.19082749368E+01  0.14865749225E+04  0.14866105878E+04  0.10000000000E+02 0.  1.
</event>
<event>
 5    1  0.1757379E-008  0.3754440E+03  0.7957747E-01  0.3471240E+00
         13   -1    0    0    0    0  0.00000000000E+00  0.00000000000E+00  0.14999999963E+04  0.15000000000E+04  0.10566000000E+00 0. -1.
        994   -1    0    0    0    0 -0.00000000000E+00 -0.00000000000E+00  0.11368683772E-12  0.17120000000E+03  0.17120000000E+03 0.  0.
         13    1    1    2    0    0  0.11508494767E+02 -0.59100583830E+02  0.36075598946E+03  0.36574611352E+03  0.10566000000E+00 0. -1.
        994    1    1    2    0    0  0.67736383283E+01  0.73355386093E+01  0.67893668592E+01  0.17162525398E+03  0.17120000000E+03 0.  0.
        998    1    1    2    0    0 -0.18282133095E+02  0.51765045221E+02  0.11324546400E+04  0.11338286325E+04  0.10000000000E+02 0. -1.
</event>
<event>
 5    1  0.1757379E-008  0.3856572E+03  0.7957747E-01  0.3426890E+00
         13   -1    0    0    0    0  0.00000000000E+00  0.00000000000E+00  0.14999999963E+04  0.15000000000E+04  0.10566000000E+00 0.  1.
        994   -1    0    0    0    0 -0.00000000000E+00 -0.00000000000E+00  0.11368683772E-12  0.17120000000E+03  0.17120000000E+03 0.  0.
         13    1    1    2    0    0  0.11340144751E+02  0.64881429956E+00  0.48542973956E+02  0.49854300993E+02  0.10566000000E+00 0.  1.
        994    1    1    2    0    0 -0.11911350387E+02  0.18557655498E+01  0.17812357892E+01  0.17163314638E+03  0.17120000000E+03 0.  0.
        998    1    1    2    0    0  0.57120563619E+00 -0.25045798494E+01  0.14496757865E+04  0.14497125526E+04  0.10000000000E+02 0.  1.
</event>
<event>
 5    1  0.1757379E-008  0.3813701E+03  0.7957747E-01  0.3445215E+00
         13   -1    0    0    0    0  0.00000000000E+00  0.00000000000E+00  0.14999999963E+04  0.15000000000E+04  0.10566000000E+00 0. -1.
        994   -1    0    0    0    0 -0.00000000000E+00 -0.00000000000E+00  0.11368683772E-12  0.17120000000E+03  0.17120000000E+03 0.  0.
         13    1    1    2    0    0 -0.20510658479E+02  0.16615454926E+01  0.56367018511E+02  0.60005831255E+02  0.10566000000E+00 0. -1.
        994    1    1    2    0    0  0.29602519247E+02  0.38328954381E+01  0.64139163260E+01  0.17390105967E+03  0.17120000000E+03 0.  0.
        998    1    1    2    0    0 -0.90918607679E+01 -0.54944409307E+01  0.14372190614E+04  0.14372931091E+04  0.10000000000E+02 0. -1.
</event>
<event>
 5    1  0.1757379E-008  0.3841973E+03  0.7957747E-01  0.3433084E+00
         13   -1    0    0    0    0  0.00000000000E+00  0.00000000000E+00  0.14999999963E+04  0.15000000000E+04  0.10566000000E+00 0. -1.
        994   -1    0    0    0    0 -0.00000000000E+00 -0.00000000000E+00  0.11368683772E-12  0.17120000000E+03  0.17120000000E+03 0.  0.
         13    1    1    2    0    0  0.11938272890E+02 -0.75250287213E+00  0.34824777243E+02  0.36822070749E+02  0.10566000000E+00 0. -1.
        994    1    1    2    0    0 -0.74154518521E+01  0.58980417868E+01  0.23252717994E+01  0.17147776157E+03  0.17120000000E+03 0.  0.
        998    1    1    2    0    0 -0.45228210382E+01 -0.51455389147E+01  0.14628499472E+04  0.14629001677E+04  0.10000000000E+02 0. -1.
</event>
<event>
 5    1  0.1757379E-008  0.3743944E+03  0.7957747E-01  0.3475936E+00
         13   -1    0    0    0    0  0.00000000000E+00  0.00000000000E+00  0.14999999963E+04  0.15000000000E+04  0.10566000000E+00 0. -1.
        994   -1    0    0    0    0 -0.00000000000E+00 -0.00000000000E+00  0.11368683772E-12  0.17120000000E+03  0.17120000000E+03 0.  0.
         13    1    1    2    0    0  0.10711436349E+03  0.39392389058E+02  0.58931495594E+03  0.60026442144E+03  0.10566000000E+00 0. -1.
        994    1    1    2    0    0 -0.97401960819E+02 -0.49109728061E+02  0.48667732601E+02  0.20875079774E+03  0.17120000000E+03 0.  0.
        998    1    1    2    0    0 -0.97124026729E+01  0.97173390030E+01  0.86201730774E+03  0.86218478082E+03  0.10000000000E+02 0. -1.
</event>
<event>
 5    1  0.1757379E-008  0.3756647E+03  0.7957747E-01  0.3470255E+00
         13   -1    0    0    0    0  0.00000000000E+00  0.00000000000E+00  0.14999999963E+04  0.15000000000E+04  0.10566000000E+00 0.  1.
        994   -1    0    0    0    0 -0.00000000000E+00 -0.00000000000E+00  0.11368683772E-12  0.17120000000E+03  0.17120000000E+03 0.  0.
         13    1    1    2    0    0 -0.12927993694E+02  0.63650626705E+01  0.13470316230E+02  0.19725811191E+02  0.10566000000E+00 0.  1.
        994    1    1    2    0    0  0.12017264062E+02 -0.74422445264E+01  0.70157029592E+01  0.17192574481E+03  0.17120000000E+03 0.  0.
        998    1    1    2    0    0  0.91072963212E+00  0.10771818559E+01  0.14795139771E+04  0.14795484440E+04  0.10000000000E+02 0.  1.
</event>
<event>
 5    1  0.1757379E-008  0.3734438E+03  0.7957747E-01  0.3480212E+00
         13   -1    0    0    0    0  0.00000000000E+00  0.00000000000E+00  0.14999999963E+04  0.15000000000E+04  0.10566000000E+00 0.  1.
        994   -1    0    0    0    0 -0.00000000000E+00 -0.00000000000E+00  0.11368683772E-12  0.17120000000E+03  0.17120000000E+03 0.  0.
         13    1    1    2    0    0 -0.27053855502E+02  0.33411339213E+02  0.72886754951E+02  0.84621031055E+02  0.10566000000E+00 0.  1.
        994    1    1    2    0    0 -0.12691432014E+02 -0.15524630119E+02  0.14195587324E+02  0.17295387040E+03  0.17120000000E+03 0.  0.
        998    1    1    2    0    0  0.39745287516E+02 -0.17886709094E+02  0.14129176540E+04  0.14136250985E+04  0.10000000000E+02 0.  1.
</event>
<event>
 5    1  0.1757379E-008  0.3768975E+03  0.7957747E-01  0.3464780E+00
         13   -1    0    0    0    0  0.00000000000E+00  0.00000000000E+00  0.14999999963E+04  0.15000000000E+04  0.10566000000E+00 0.  1.
        994   -1    0    0    0    0 -0.00000000000E+00 -0.00000000000E+00  0.11368683772E-12  0.17120000000E+03  0.17120000000E+03 0.  0.
         13    1    1    2    0    0  0.41475729662E+02  0.15377435059E+02  0.15684334964E+03  0.16296180273E+03  0.10566000000E+00 0.  1.
        994    1    1    2    0    0 -0.34525652069E+02 -0.21625079987E+02  0.11333779171E+02  0.17634500074E+03  0.17120000000E+03 0.  0.
        998    1    1    2    0    0 -0.69500775932E+01  0.62476449271E+01  0.13318228675E+04  0.13318931965E+04  0.10000000000E+02 0.  1.
</event>
<event>
 5    1  0.1757379E-008  0.3815730E+03  0.7957747E-01  0.3444338E+00
         13   -1    0    0    0    0  0.00000000000E+00  0.00000000000E+00  0.14999999963E+04  0.15000000000E+04  0.10566000000E+00 0.  1.
        994   -1    0    0    0    0 -0.00000000000E+00 -0.00000000000E+00  0.11368683772E-12  0.17120000000E+03  0.17120000000E+03 0.  0.
         13    1    1    2    0    0  0.10879083621E+02 -0.84046577928E+00  0.16286796524E+02  0.19604380842E+02  0.10566000000E+00 0.  1.
        994    1    1    2    0    0 -0.11074031125E+02  0.21114052247E+01  0.37639855914E+01  0.17161206189E+03  0.17120000000E+03 0.  0.
        998    1    1    2    0    0  0.19494750464E+00 -0.12709394454E+01  0.14799492142E+04  0.14799835573E+04  0.10000000000E+02 0.  1.
</event>
<event>
 5    1  0.1757379E-008  0.3804320E+03  0.7957747E-01  0.3449280E+00
         13   -1    0    0    0    0  0.00000000000E+00  0.00000000000E+00  0.14999999963E+04  0.15000000000E+04  0.10566000000E+00 0. -1.
        994   -1    0    0    0    0 -0.00000000000E+00 -0.00000000000E+00  0.11368683772E-12  0.17120000000E+03  0.17120000000E+03 0.  0.
         13    1    1    2    0    0 -0.12160879769E+02 -0.14684479866E+02  0.47022621173E+02  0.50741097856E+02  0.10566000000E+00 0. -1.
        994    1    1    2    0    0  0.48413089842E+01 -0.32146131294E+01  0.40279702841E+01  0.17134595576E+03  0.17120000000E+03 0.  0.
        998    1    1    2    0    0  0.73195707851E+01  0.17899092995E+02  0.14489494048E+04  0.14491129464E+04  0.10000000000E+02 0. -1.
</event>
<event>
 5    1  0.1757379E-008  0.3729665E+03  0.7957747E-01  0.3482368E+00
         13   -1    0    0    0    0  0.00000000000E+00  0.00000000000E+00  0.14999999963E+04  0.15000000000E+04  0.10566000000E+00 0. -1.
        994   -1    0    0    0    0 -0.00000000000E+00 -0.00000000000E+00  0.11368683772E-12  0.17120000000E+03  0.17120000000E+03 0.  0.
         13    1    1    2    0    0 -0.77940600859E+02 -0.40398670674E+02  0.40262540500E+03  0.41208496426E+03  0.10566000000E+00 0. -1.
        994    1    1    2    0    0  0.70305459708E+02  0.28574103360E+02  0.27703585915E+02  0.18930469017E+03  0.17120000000E+03 0.  0.
        998    1    1    2    0    0  0.76351411508E+01  0.11824567314E+02  0.10696710054E+04  0.10698103456E+04  0.10000000000E+02 0. -1.
</event>
<event>
 5    1  0.1757379E-008  0.3852147E+03  0.7957747E-01  0.3428762E+00
         13   -1    0    0    0    0  0.00000000000E+00  0.00000000000E+00  0.14999999963E+04  0.15000000000E+04  0.10566000000E+00 0. -1.
        994   -1    0    0    0    0 -0.00000000000E+00 -0.00000000000E+00  0.11368683772E-12  0.17120000000E+03  0.17120000000E+03 0.  0.
         13    1    1    2    0    0  0.82724654929E+01  0.13123336796E+02  0.79011814145E+02  0.80520392402E+02  0.10566000000E+00 0. -1.
        994    1    1    2    0    0 -0.95589158387E+01 -0.62815834226E+01  0.19536825490E+01  0.17159279716E+03  0.17120000000E+03 0.  0.
        998    1    1    2    0    0  0.12864503457E+01 -0.68417533729E+01  0.14190344996E+04  0.14190868104E+04  0.10000000000E+02 0. -1.
</event>
<event>
 5    1  0.1757379E-008  0.3779031E+03  0.7957747E-01  0.3460340E+00
         13   -1    0    0    0    0  0.00000000000E+00  0.00000000000E+00  0.14999999963E+04  0.15000000000E+04  0.10566000000E+00 0.  1.
        994   -1    0    0    0    0 -0.00000000000E+00 -0.00000000000E+00  0.11368683772E-12  0.17120000000E+03  0.17120000000E+03 0.  0.
         13    1    1    2    0    0 -0.17554933130E+02  0.14105978152E+01  0.29062696878E+02  0.33982598153E+02  0.10566000000E+00 0.  1.
        994    1    1    2    0    0 -0.44076520364E+01  0.42929482031E+01  0.53228548099E+01  0.17139320169E+03  0.17120000000E+03 0.  0.
        998    1    1    2    0    0  0.21962585166E+02 -0.57035460184E+01  0.14656144446E+04  0.14658242002E+04  0.10000000000E+02 0.  1.
</event>
<event>
 5    1  0.1757379E-008  0.3834860E+03  0.7957747E-01  0.3436119E+00
         13   -1    0    0    0    0  0.00000000000E+00  0.00000000000E+00  0.14999999963E+04  0.15000000000E+04  0.10566000000E+00 0. -1.
        994   -1    0    0    0    0 -0.00000000000E+00 -0.00000000000E+00  0.11368683772E-12  0.17120000000E+03  0.17120000000E+03 0.  0.
         13    1    1    2    0    0  0.52692370106E+01 -0.15759350223E+02  0.58867848125E+02  0.61168265343E+02  0.10566000000E+00 0. -1.
        994    1    1    2    0    0 -0.11151950598E+02  0.22257384597E+01  0.28111720696E+01  0.17160029896E+03  0.17120000000E+03 0.  0.
        998    1    1    2    0    0  0.58827135870E+01  0.13533611764E+02  0.14383209761E+04  0.14384314357E+04  0.10000000000E+02 0. -1.
</event>
<event>
 5    1  0.1757379E-008  0.3843850E+03  0.7957747E-01  0.3432285E+00
         13   -1    0    0    0    0  0.00000000000E+00  0.00000000000E+00  0.14999999963E+04  0.15000000000E+04  0.10566000000E+00 0. -1.
        994   -1    0    0    0    0 -0.00000000000E+00 -0.00000000000E+00  0.11368683772E-12  0.17120000000E+03  0.17120000000E+03 0.  0.
         13    1    1    2    0    0 -0.65065569457E+01  0.88832352139E+01  0.30176395227E+02  0.32122782322E+02  0.10566000000E+00 0. -1.
        994    1    1    2    0    0  0.10552961415E+02 -0.83714916809E+01  0.25339304990E+01  0.17174780252E+03  0.17120000000E+03 0.  0.
        998    1    1    2    0    0 -0.40464044691E+01 -0.51174353299E+00  0.14672896706E+04  0.14673294152E+04  0.10000000000E+02 0. -1.
</event>
<event>
 5    1  0.1757379E-008  0.3781514E+03  0.7957747E-01  0.3459247E+00
         13   -1    0    0    0    0  0.00000000000E+00  0.00000000000E+00  0.14999999963E+04  0.15000000000E+04  0.10566000000E+00 0. -1.
        994   -1    0    0    0    0 -0.00000000000E+00 -0.00000000000E+00  0.11368683772E-12  0.17120000000E+03  0.17120000000E+03 0.  0.
         13    1    1    2    0    0 -0.27141633135E+02  0.32100979372E+02  0.15234260495E+03  0.15803614009E+03  0.10566000000E+00 0. -1.
        994    1    1    2    0    0  0.13252786734E+02 -0.50088730457E+02  0.14152193063E+02  0.17942753926E+03  0.17120000000E+03 0.  0.
        998    1    1    2    0    0  0.13888846401E+02  0.17987751085E+02  0.13335051983E+04  0.13337363207E+04  0.10000000000E+02 0. -1.
</event>
<event>
 5    1  0.1757379E-008  0.4202250E+03  0.7957747E-01  0.3292766E+00
         13   -1    0    0    0    0  0.00000000000E+00  0.00000000000E+00  0.14999999963E+04  0.15000000000E+04  0.10566000000E+00 0. -1.
        994   -1    0    0    0    0 -0.00000000000E+00 -0.00000000000E+00  0.11368683772E-12  0.17120000000E+03  0.17120000000E+03 0.  0.
         13    1    1    2    0    0  0.86183009161E+02 -0.66868271416E+02  0.15762643060E+03  0.19168980040E+03  0.10566000000E+00 0. -1.
        994    1    1    2    0    0 -0.60253180615E+01  0.46834982830E+02  0.50051877104E+02  0.18451138305E+03  0.17120000000E+03 0.  0.
        998    1    1    2    0    0 -0.80157691100E+02  0.20033288585E+02  0.12923216886E+04  0.12949988165E+04  0.10000000000E+02 0. -1.
</event>
<event>
 5    1  0.1757379E-008  0.4290731E+03  0.7957747E-01  0.3261866E+00
         13   -1    0    0    0    0  0.00000000000E+00  0.00000000000E+00  0.14999999963E+04  0.15000000000E+04  0.10566000000E+00 0.  1.
        994   -1    0    0    0    0 -0.00000000000E+00 -0.00000000000E+00  0.11368683772E-12  0.17120000000E+03  0.17120000000E+03 0.  0.
         13    1    1    2    0    0 -0.57848887609E+02 -0.88181220663E+02  0.10581097562E+03  0.14939342422E+03  0.10566000000E+00 0.  1.
        994    1    1    2    0    0  0.68593492002E+02  0.57383772945E+02  0.83091990767E+02  0.21026574488E+03  0.17120000000E+03 0.  0.
        998    1    1    2    0    0 -0.10744604393E+02  0.30797447719E+02  0.13110970299E+04  0.13115408309E+04  0.10000000000E+02 0.  1.
</event>
<event>
 5    1  0.1757379E-008  0.3759447E+03  0.7957747E-01  0.3469009E+00
         13   -1    0    0    0    0  0.00000000000E+00  0.00000000000E+00  0.14999999963E+04  0.15000000000E+04  0.10566000000E+00 0. -1.
        994   -1    0    0    0    0 -0.00000000000E+00 -0.00000000000E+00  0.11368683772E-12  0.17120000000E+03  0.17120000000E+03 0.  0.
         13    1    1    2    0    0 -0.43906606441E+02 -0.51327678408E+02  0.29115627905E+03  0.29888845855E+03  0.10566000000E+00 0. -1.
        994    1    1    2    0    0  0.45909038716E+02  0.52147630300E+02  0.22729722252E+02  0.18615341913E+03  0.17120000000E+03 0.  0.
        998    1    1    2    0    0 -0.20024322744E+01 -0.81995189148E+00  0.11861139950E+04  0.11861581223E+04  0.10000000000E+02 0. -1.
</event>
<event>
 5    1  0.1757379E-008  0.3758662E+03  0.7957747E-01  0.3469358E+00
         13   -1    0    0    0    0  0.00000000000E+00  0.00000000000E+00  0.14999999963E+04  0.15000000000E+04  0.10566000000E+00 0. -1.
        994   -1    0    0    0    0 -0.00000000000E+00 -0.00000000000E+00  0.11368683772E-12  0.17120000000E+03  0.17120000000E+03 0.  0.
         13    1    1    2    0    0 -0.42688580579E+02  0.23193231121E+00  0.16519590628E+03  0.17062258737E+03  0.10566000000E+00 0. -1.
        994    1    1    2    0    0  0.91005826997E+00 -0.73107394787E+01  0.64185750530E+01  0.17147860865E+03  0.17120000000E+03 0.  0.
        998    1    1    2    0    0  0.41778522309E+02  0.70788071675E+01  0.13283855149E+04  0.13290988040E+04  0.10000000000E+02 0. -1.
</event>
<event>
 5    1  0.1757379E-008  0.3750020E+03  0.7957747E-01  0.3473214E+00
         13   -1    0    0    0    0  0.00000000000E+00  0.00000000000E+00  0.14999999963E+04  0.15000000000E+04  0.10566000000E+00 0.  1.
        994   -1    0    0    0    0 -0.00000000000E+00 -0.00000000000E+00  0.11368683772E-12  0.17120000000E+03  0.17120000000E+03 0.  0.
         13    1    1    2    0    0  0.17890721365E+02  0.99418993117E+01  0.29752123327E+02  0.36112591702E+02  0.10566000000E+00 0.  1.
        994    1    1    2    0    0 -0.11700599128E+02  0.23107228865E+02  0.89613714783E+01  0.17337991298E+03  0.17120000000E+03 0.  0.
        998    1    1    2    0    0 -0.61901222366E+01 -0.33049128177E+02  0.14612865015E+04  0.14617074953E+04  0.10000000000E+02 0.  1.
</event>
<event>
 5    1  0.1757379E-008  0.3795238E+03  0.7957747E-01  0.3453234E+00
         13   -1    0    0    0    0  0.00000000000E+00  0.00000000000E+00  0.14999999963E+04  0.15000000000E+04  0.10566000000E+00 0.  1.
        994   -1    0    0    0    0 -0.00000000000E+00 -0.00000000000E+00  0.11368683772E-12  0.17120000000E+03  0.17120000000E+03 0.  0.
         13    1    1    2    0    0  0.23322941366E+00  0.19934330322E+02  0.45474146396E+02  0.49652201117E+02  0.10566000000E+00 0.  1.
        994    1    1    2    0    0 -0.75305768909E+01 -0.22280165226E+01  0.45802219706E+01  0.17144122048E+03  0.17120000000E+03 0.  0.
        998    1    1    2    0    0  0.72973474773E+01 -0.17706313799E+02  0.14499456279E+04  0.14501065784E+04  0.10000000000E+02 0.  1.
</event>
<event>
 5    1  0.1757379E-008  0.3829870E+03  0.7957747E-01  0.3438255E+00
         13   -1    0    0    0    0  0.00000000000E+00  0.00000000000E+00  0.14999999963E+04  0.15000000000E+04  0.10566000000E+00 0. -1.
        994   -1    0    0    0    0 -0.00000000000E+00 -0.00000000000E+00  0.11368683772E-12  0.17120000000E+03  0.17120000000E+03 0.  0.
         13    1    1    2    0    0  0.14266968440E+02  0.28897913522E+00  0.38170395642E+02  0.40750707539E+02  0.10566000000E+00 0. -1.
        994    1    1    2    0    0 -0.73279935498E+01 -0.13663218435E+01  0.28168332712E+01  0.17138535782E+03  0.17120000000E+03 0.  0.
        998    1    1    2    0    0 -0.69389748906E+01  0.10773427083E+01  0.14590127674E+04  0.14590639346E+04  0.10000000000E+02 0. -1.
</event>
<event>
 5    1  0.1757379E-008  0.3797304E+03  0.7957747E-01  0.3452333E+00
         13   -1    0    0    0    0  0.00000000000E+00  0.00000000000E+00  0.14999999963E+04  0.15000000000E+04  0.10566000000E+00 0. -1.
        994   -1    0    0    0    0 -0.00000000000E+00 -0.00000000000E+00  0.11368683772E-12  0.17120000000E+03  0.17120000000E+03 0.  0.
         13    1    1    2    0    0 -0.33029517245E+02  0.24022575748E+02  0.21357577425E+03  0.21744575339E+03  0.10566000000E+00 0. -1.
        994    1    1    2    0    0 -0.15677402342E+01 -0.21692467949E+02  0.58536002951E+01  0.17267520265E+03  0.17120000000E+03 0.  0.
        998    1    1    2    0    0  0.34597257479E+02 -0.23301077993E+01  0.12805706217E+04  0.12810790440E+04  0.10000000000E+02 0. -1.
</event>
<event>
 5    1  0.1757379E-008  0.3838695E+03  0.7957747E-01  0.3434481E+00
         13   -1    0    0    0    0  0.00000000000E+00  0.00000000000E+00  0.14999999963E+04  0.15000000000E+04  0.10566000000E+00 0. -1.
        994   -1    0    0    0    0 -0.00000000000E+00 -0.00000000000E+00  0.11368683772E-12  0.17120000000E+03  0.17120000000E+03 0.  0.
         13    1    1    2    0    0 -0.22897895961E+02 -0.88370544297E+01  0.13487550918E+03  0.13709055879E+03  0.10566000000E+00 0. -1.
        994    1    1    2    0    0  0.14365408018E+02  0.94805610967E+01  0.31708800110E+01  0.17209224406E+03  0.17120000000E+03 0.  0.
        998    1    1    2    0    0  0.85324879432E+01 -0.64350666701E+00  0.13619536071E+04  0.13620171971E+04  0.10000000000E+02 0. -1.
</event>
<event>
 5    1  0.1757379E-008  0.3846520E+03  0.7957747E-01  0.3431150E+00
         13   -1    0    0    0    0  0.00000000000E+00  0.00000000000E+00  0.14999999963E+04  0.15000000000E+04  0.10566000000E+00 0.  1.
        994   -1    0    0    0    0 -0.00000000000E+00 -0.00000000000E+00  0.11368683772E-12  0.17120000000E+03  0.17120000000E+03 0.  0.
         13    1    1    2    0    0  0.76033266628E+01 -0.11289892916E+02  0.50179365112E+02  0.51992808209E+02  0.10566000000E+00 0.  1.
        994    1    1    2    0    0 -0.86088471771E+01  0.95583952930E+01  0.23480225107E+01  0.17169865573E+03  0.17120000000E+03 0.  0.
        998    1    1    2    0    0  0.10055205143E+01  0.17314976225E+01  0.14474726087E+04  0.14475085361E+04  0.10000000000E+02 0.  1.
</event>
<event>
 5    1  0.1757379E-008  0.3835823E+03  0.7957747E-01  0.3435707E+00
         13   -1    0    0    0    0  0.00000000000E+00  0.00000000000E+00  0.14999999963E+04  0.15000000000E+04  0.10566000000E+00 0.  1.
        994   -1    0    0    0    0 -0.00000000000E+00 -0.00000000000E+00  0.11368683772E-12  0.17120000000E+03  0.17120000000E+03 0.  0.
         13    1    1    2    0    0  0.40670659967E+00 -0.29948218062E+02  0.16885371502E+03  0.17148950235E+03  0.10566000000E+00 0.  1.
        994    1    1    2    0    0  0.67926636793E+01  0.32592164422E+02  0.60061770359E+01  0.17451046852E+03  0.17120000000E+03 0.  0.
        998    1    1    2    0    0 -0.71993702790E+01 -0.26439463605E+01  0.13251401042E+04  0.13252000291E+04  0.10000000000E+02 0.  1.
</event>
<event>
 5    1  0.1757379E-008  0.3827320E+03  0.7957747E-01  0.3439348E+00
         13   -1    0    0    0    0  0.00000000000E+00  0.00000000000E+00  0.14999999963E+04  0.15000000000E+04  0.10566000000E+00 0. -1.
        994   -1    0    0    0    0 -0.00000000000E+00 -0.00000000000E+00  0.11368683772E-12  0.17120000000E+03  0.17120000000E+03 0.  0.
         13    1    1    2    0    0 -0.64877012535E+01 -0.14988281025E+02  0.46495618766E+02  0.49280752471E+02  0.10566000000E+00 0. -1.
        994    1    1    2    0    0  0.59874312336E+01  0.14316000510E+02  0.35585081555E+01  0.17193865238E+03  0.17120000000E+03 0.  0.
        998    1    1    2    0    0  0.50027001999E+00  0.67228051493E+00  0.14499458694E+04  0.14499805951E+04  0.10000000000E+02 0. -1.
</event>
<event>
 5    1  0.2821155E-008  0.3855073E+03  0.7957747E-01  0.3427524E+00
         13   -1    0    0    0    0  0.00000000000E+00  0.00000000000E+00  0.14999999963E+04  0.15000000000E+04  0.10566000000E+00 0.  1.
        994   -1    0    0    0    0 -0.00000000000E+00 -0.00000000000E+00  0.11368683772E-12  0.17120000000E+03  0.17120000000E+03 0.  0.
         13    1    1    2    0    0 -0.37732138638E+01  0.10088443817E+02  0.41405630402E+02  0.42783773028E+02  0.10566000000E+00 0.  1.
        994    1    1    2    0    0  0.54251147726E+01 -0.95433201278E+01  0.17742596708E+01  0.17156076133E+03  0.17120000000E+03 0.  0.
        998    1    1    2    0    0 -0.16519009088E+01 -0.54512368902E+00  0.14568201062E+04  0.14568554656E+04  0.10000000000E+02 0.  1.
</event>
<event>
 5    1  0.1757379E-008  0.3967517E+03  0.7957747E-01  0.3381311E+00
         13   -1    0    0    0    0  0.00000000000E+00  0.00000000000E+00  0.14999999963E+04  0.15000000000E+04  0.10566000000E+00 0.  1.
        994   -1    0    0    0    0 -0.00000000000E+00 -0.00000000000E+00  0.11368683772E-12  0.17120000000E+03  0.17120000000E+03 0.  0.
         13    1    1    2    0    0  0.12742456168E+02  0.10322030694E+03  0.18187569021E+03  0.20951271992E+03  0.10566000000E+00 0.  1.
        994    1    1    2    0    0 -0.17630508882E+02 -0.95050350034E+02  0.62954521041E+02  0.20644155494E+03  0.17120000000E+03 0.  0.
        998    1    1    2    0    0  0.48880527132E+01 -0.81699569041E+01  0.12551697850E+04  0.12552457251E+04  0.10000000000E+02 0.  1.
</event>
<event>
 5    1  0.1757379E-008  0.3728571E+03  0.7957747E-01  0.3482862E+00
         13   -1    0    0    0    0  0.00000000000E+00  0.00000000000E+00  0.14999999963E+04  0.15000000000E+04  0.10566000000E+00 0.  1.
        994   -1    0    0    0    0 -0.00000000000E+00 -0.00000000000E+00  0.11368683772E-12  0.17120000000E+03  0.17120000000E+03 0.  0.
         13    1    1    2    0    0 -0.45923466671E+02 -0.25085955348E+02  0.18341536756E+03  0.19073405089E+03  0.10566000000E+00 0.  1.
        994    1    1    2    0    0  0.21027311607E+02  0.38235099434E+01  0.93488070307E+01  0.17278196449E+03  0.17120000000E+03 0.  0.
        998    1    1    2    0    0  0.24896155064E+02  0.21262445405E+02  0.13072358217E+04  0.13076839846E+04  0.10000000000E+02 0.  1.
</event>
<event>
 5    1  0.1757379E-008  0.3789635E+03  0.7957747E-01  0.3455684E+00
         13   -1    0    0    0    0  0.00000000000E+00  0.00000000000E+00  0.14999999963E+04  0.15000000000E+04  0.10566000000E+00 0.  1.
        994   -1    0    0    0    0 -0.00000000000E+00 -0.00000000000E+00  0.11368683772E-12  0.17120000000E+03  0.17120000000E+03 0.  0.
         13    1    1    2    0    0  0.48347201287E+02  0.13924902325E+02  0.25846886951E+03  0.26332018997E+03  0.10566000000E+00 0.  1.
        994    1    1    2    0    0 -0.35769861643E+02  0.14154659598E-01  0.89611710869E+01  0.17512631381E+03  0.17120000000E+03 0.  0.
        998    1    1    2    0    0 -0.12577339644E+02 -0.13939056985E+02  0.12325699557E+04  0.12327534962E+04  0.10000000000E+02 0.  1.
</event>
<event>
 5    1  0.1757379E-008  0.3709280E+03  0.7957747E-01  0.3491637E+00
         13   -1    0    0    0    0  0.00000000000E+00  0.00000000000E+00  0.14999999963E+04  0.15000000000E+04  0.10566000000E+00 0. -1.
        994   -1    0    0    0    0 -0.00000000000E+00 -0.00000000000E+00  0.11368683772E-12  0.17120000000E+03  0.17120000000E+03 0.  0.
         13    1    1    2    0    0  0.23879961047E+02  0.42434205943E+02  0.11913294826E+03  0.12869959168E+03  0.10566000000E+00 0. -1.
        994    1    1    2    0    0 -0.23244504175E+02 -0.49468232790E+02  0.19152621704E+02  0.18073094906E+03  0.17120000000E+03 0.  0.
        998    1    1    2    0    0 -0.63545687202E+00  0.70340268469E+01  0.13617144263E+04  0.13617694593E+04  0.10000000000E+02 0. -1.
</event>
<event>
 5    1  0.1757379E-008  0.3838628E+03  0.7957747E-01  0.3434510E+00
         13   -1    0    0    0    0  0.00000000000E+00  0.00000000000E+00  0.14999999963E+04  0.15000000000E+04  0.10566000000E+00 0. -1.
        994   -1    0    0    0    0 -0.00000000000E+00 -0.00000000000E+00  0.11368683772E-12  0.17120000000E+03  0.17120000000E+03 0.  0.
         13    1    1    2    0    0  0.80611942565E+01  0.12681844786E+02  0.49772146731E+02  0.51991247285E+02  0.10566000000E+00 0. -1.
        994    1    1    2    0    0 -0.53008990332E+01 -0.13922269209E+02  0.29286966581E+01  0.17187188943E+03  0.17120000000E+03 0.  0.
        998    1    1    2    0    0 -0.27602952233E+01  0.12404244232E+01  0.14472991529E+04  0.14473368633E+04  0.10000000000E+02 0. -1.
</event>
<event>
 5    1  0.1757379E-008  0.3995111E+03  0.7957747E-01  0.3370368E+00
         13   -1    0    0    0    0  0.00000000000E+00  0.00000000000E+00  0.14999999963E+04  0.15000000000E+04  0.10566000000E+00 0.  1.
        994   -1    0    0    0    0 -0.00000000000E+00 -0.00000000000E+00  0.11368683772E-12  0.17120000000E+03  0.17120000000E+03 0.  0.
         13    1    1    2    0    0 -0.90015973249E+01 -0.60023061451E+02  0.53985127325E+02  0.81229316116E+02  0.10566000000E+00 0.  1.
        994    1    1    2    0    0 -0.13862819715E+01  0.71361848199E+02  0.47676760331E+02  0.19151226758E+03  0.17120000000E+03 0.  0.
        998    1    1    2    0    0  0.10387879296E+02 -0.11338786748E+02  0.13983381086E+04  0.13984584163E+04  0.10000000000E+02 0.  1.
</event>
<event>
 5    1  0.1757379E-008  0.3805008E+03  0.7957747E-01  0.3448981E+00
         13   -1    0    0    0    0  0.00000000000E+00  0.00000000000E+00  0.14999999963E+04  0.15000000000E+04  0.10566000000E+00 0.  1.
        994   -1    0    0    0    0 -0.00000000000E+00 -0.00000000000E+00  0.11368683772E-12  0.17120000000E+03  0.17120000000E+03 0.  0.
         13    1    1    2    0    0 -0.39432740279E+01 -0.22641564238E+02  0.63091934620E+02  0.67147548126E+02  0.10566000000E+00 0.  1.
        994    1    1    2    0    0  0.12548292684E+02  0.25891871945E+02  0.66483509702E+01  0.17372820512E+03  0.17120000000E+03 0.  0.
        998    1    1    2    0    0 -0.86050186560E+01 -0.32503077077E+01  0.14302597107E+04  0.14303242468E+04  0.10000000000E+02 0.  1.
</event>
<event>
 5    1  0.1757379E-008  0.3723794E+03  0.7957747E-01  0.3485027E+00
         13   -1    0    0    0    0  0.00000000000E+00  0.00000000000E+00  0.14999999963E+04  0.15000000000E+04  0.10566000000E+00 0.  1.
        994   -1    0    0    0    0 -0.00000000000E+00 -0.00000000000E+00  0.11368683772E-12  0.17120000000E+03  0.17120000000E+03 0.  0.
         13    1    1    2    0    0  0.24300322693E+02  0.94688644981E+01  0.39173424346E+02  0.47060954271E+02  0.10566000000E+00 0.  1.
        994    1    1    2    0    0 -0.15734252627E+02 -0.74005556012E+01  0.90682029596E+01  0.17231949174E+03  0.17120000000E+03 0.  0.
        998    1    1    2    0    0 -0.85660700668E+01 -0.20683088968E+01  0.14517583690E+04  0.14518195540E+04  0.10000000000E+02 0.  1.
</event>
<event>
 5    1  0.1757379E-008  0.3798788E+03  0.7957747E-01  0.3451686E+00
         13   -1    0    0    0    0  0.00000000000E+00  0.00000000000E+00  0.14999999963E+04  0.15000000000E+04  0.10566000000E+00 0.  1.
        994   -1    0    0    0    0 -0.00000000000E+00 -0.00000000000E+00  0.11368683772E-12  0.17120000000E+03  0.17120000000E+03 0.  0.
         13    1    1    2    0    0 -0.10482745758E+02  0.14214792436E+02  0.37816760010E+02  0.41738073558E+02  0.10566000000E+00 0.  1.
        994    1    1    2    0    0 -0.13671584057E+01  0.72344834381E+01  0.43756436150E+01  0.17141409840E+03  0.17120000000E+03 0.  0.
        998    1    1    2    0    0  0.11849904164E+02 -0.21449275874E+02  0.14578075927E+04  0.14580478280E+04  0.10000000000E+02 0.  1.
</event>
<event>
 5    1  0.1757379E-008  0.3838396E+03  0.7957747E-01  0.3434608E+00
         13   -1    0    0    0    0  0.00000000000E+00  0.00000000000E+00  0.14999999963E+04  0.15000000000E+04  0.10566000000E+00 0.  1.
        994   -1    0    0    0    0 -0.00000000000E+00 -0.00000000000E+00  0.11368683772E-12  0.17120000000E+03  0.17120000000E+03 0.  0.
         13    1    1    2    0    0  0.91028248289E+01 -0.11288922283E+02  0.46611757577E+02  0.48815656244E+02  0.10566000000E+00 0.  1.
        994    1    1    2    0    0 -0.17552830062E+02  0.12304245565E+01  0.32300582186E+01  0.17213218486E+03  0.17120000000E+03 0.  0.
        998    1    1    2    0    0  0.84500052326E+01  0.10058497726E+02  0.14501581805E+04  0.14502521589E+04  0.10000000000E+02 0.  1.
</event>
<event>
 5    1  0.1757379E-008  0.3817873E+03  0.7957747E-01  0.3443413E+00
         13   -1    0    0    0    0  0.00000000000E+00  0.00000000000E+00  0.14999999963E+04  0.15000000000E+04  0.10566000000E+00 0. -1.
        994   -1    0    0    0    0 -0.00000000000E+00 -0.00000000000E+00  0.11368683772E-12  0.17120000000E+03  0.17120000000E+03 0.  0.
         13    1    1    2    0    0  0.11374644766E+02 -0.18798932035E+02  0.76428658569E+02  0.79524420173E+02  0.10566000000E+00 0. -1.
        994    1    1    2    0    0  0.20054143603E+02  0.20250895163E+02  0.59377110504E+01  0.17365760520E+03  0.17120000000E+03 0.  0.
        998    1    1    2    0    0 -0.31428788369E+02 -0.14519631283E+01  0.14176336267E+04  0.14180179746E+04  0.10000000000E+02 0. -1.
</event>
<event>
 5    1  0.1757379E-008  0.3806739E+03  0.7957747E-01  0.3448230E+00
         13   -1    0    0    0    0  0.00000000000E+00  0.00000000000E+00  0.14999999963E+04  0.15000000000E+04  0.10566000000E+00 0. -1.
        994   -1    0    0    0    0 -0.00000000000E+00 -0.00000000000E+00  0.11368683772E-12  0.17120000000E+03  0.17120000000E+03 0.  0.
         13    1    1    2    0    0 -0.21521873178E+02 -0.27504874070E+02  0.19315597262E+03  0.19628792639E+03  0.10566000000E+00 0. -1.
        994    1    1    2    0    0 -0.73303281046E+00 -0.47402187608E+01  0.38701213832E+01  0.17131090114E+03  0.17120000000E+03 0.  0.
        998    1    1    2    0    0  0.22254905988E+02  0.32245092831E+02  0.13029739023E+04  0.13036011725E+04  0.10000000000E+02 0. -1.
</event>
<event>
 5    1  0.1757379E-008  0.3789521E+03  0.7957747E-01  0.3455734E+00
         13   -1    0    0    0    0  0.00000000000E+00  0.00000000000E+00  0.14999999963E+04  0.15000000000E+04  0.10566000000E+00 0. -1.
        994   -1    0    0    0    0 -0.00000000000E+00 -0.00000000000E+00  0.11368683772E-12  0.17120000000E+03  0.17120000000E+03 0.  0.
         13    1    1    2    0    0 -0.56261899354E+02 -0.31223042163E+02  0.29662562668E+03  0.30352438658E+03  0.10566000000E+00 0. -1.
        994    1    1    2    0    0  0.75361669925E+02  0.39396669836E+02  0.29316972752E+02  0.19339184000E+03  0.17120000000E+03 0.  0.
        998    1    1    2    0    0 -0.19099770571E+02 -0.81736276728E+01  0.11740573968E+04  0.11742837734E+04  0.10000000000E+02 0. -1.
</event>
<event>
 5    1  0.1757379E-008  0.3745561E+03  0.7957747E-01  0.3475210E+00
         13   -1    0    0    0    0  0.00000000000E+00  0.00000000000E+00  0.14999999963E+04  0.15000000000E+04  0.10566000000E+00 0.  1.
        994   -1    0    0    0    0 -0.00000000000E+00 -0.00000000000E+00  0.11368683772E-12  0.17120000000E+03  0.17120000000E+03 0.  0.
         13    1    1    2    0    0 -0.32060404427E+02  0.13036455033E+02  0.40895179772E+02  0.53574672976E+02  0.10566000000E+00 0.  1.
        994    1    1    2    0    0  0.11073065565E+02 -0.36558097999E+01  0.13851735081E+02  0.17215483813E+03  0.17120000000E+03 0.  0.
        998    1    1    2    0    0  0.20987338861E+02 -0.93806452334E+01  0.14452530814E+04  0.14454704889E+04  0.10000000000E+02 0.  1.
</event>
<event>
 5    1  0.1757379E-008  0.3856117E+03  0.7957747E-01  0.3427082E+00
         13   -1    0    0    0    0  0.00000000000E+00  0.00000000000E+00  0.14999999963E+04  0.15000000000E+04  0.10566000000E+00 0. -1.
        994   -1    0    0    0    0 -0.00000000000E+00 -0.00000000000E+00  0.11368683772E-12  0.17120000000E+03  0.17120000000E+03 0.  0.
         13    1    1    2    0    0  0.15506794303E+02  0.48772933426E+00  0.90787668489E+02  0.92103802653E+02  0.10566000000E+00 0. -1.
        994    1    1    2    0    0 -0.10572709897E+02 -0.13777159569E+02  0.23172492119E+01  0.17209416598E+03  0.17120000000E+03 0.  0.
        998    1    1    2    0    0 -0.49340844058E+01  0.13289430235E+02  0.14068950786E+04  0.14070020314E+04  0.10000000000E+02 0. -1.
</event>
<event>
 5    1  0.1757379E-008  0.3809255E+03  0.7957747E-01  0.3447138E+00
         13   -1    0    0    0    0  0.00000000000E+00  0.00000000000E+00  0.14999999963E+04  0.15000000000E+04  0.10566000000E+00 0.  1.
        994   -1    0    0    0    0 -0.00000000000E+00 -0.00000000000E+00  0.11368683772E-12  0.17120000000E+03  0.17120000000E+03 0.  0.
         13    1    1    2    0    0  0.31798858023E+02 -0.11344842951E+02  0.17242270418E+03  0.17569710559E+03  0.10566000000E+00 0.  1.
        994    1    1    2    0    0 -0.49829801342E+01 -0.41616433677E+00  0.37500124142E+01  0.17131405627E+03  0.17120000000E+03 0.  0.
        998    1    1    2    0    0 -0.26815877888E+02  0.11761007287E+02  0.13238272797E+04  0.13241888381E+04  0.10000000000E+02 0.  1.
</event>
<event>
 5    1  0.2097793E-008  0.3845483E+03  0.7957747E-01  0.3431590E+00
         13   -1    0    0    0    0  0.00000000000E+00  0.00000000000E+00  0.14999999963E+04  0.15000000000E+04  0.10566000000E+00 0. -1.
        994   -1    0    0    0    0 -0.00000000000E+00 -0.00000000000E+00  0.11368683772E-12  0.17120000000E+03  0.17120000000E+03 0.  0.
         13    1    1    2    0    0 -0.98162822523E+01  0.49585035294E+01  0.31912323590E+02  0.33754314027E+02  0.10566000000E+00 0. -1.
        994    1    1    2    0    0  0.88922084178E+01 -0.40215367467E+01  0.21683346576E+01  0.17149164937E+03  0.17120000000E+03 0.  0.
        998    1    1    2    0    0  0.92407383449E+00 -0.93696678266E+00  0.14659193380E+04  0.14659540366E+04  0.10000000000E+02 0. -1.
</event>
<event>
 5    1  0.1757379E-008  0.4289912E+03  0.7957747E-01  0.3262146E+00
         13   -1    0    0    0    0  0.00000000000E+00  0.00000000000E+00  0.14999999963E+04  0.15000000000E+04  0.10566000000E+00 0.  1.
        994   -1    0    0    0    0 -0.00000000000E+00 -0.00000000000E+00  0.11368683772E-12  0.17120000000E+03  0.17120000000E+03 0.  0.
         13    1    1    2    0    0  0.79584310787E+01 -0.17092002346E+02 -0.15765514160E+02  0.24577139178E+02  0.10566000000E+00 0.  1.
        994    1    1    2    0    0 -0.84687320725E+01  0.15710430175E+02  0.47825994961E+02  0.17864854557E+03  0.17120000000E+03 0.  0.
        998    1    1    2    0    0  0.51030099376E+00  0.13815721714E+01  0.14679395155E+04  0.14679743153E+04  0.10000000000E+02 0.  1.
</event>
<event>
 5    1  0.1757379E-008  0.3758637E+03  0.7957747E-01  0.3469369E+00
         13   -1    0    0    0    0  0.00000000000E+00  0.00000000000E+00  0.14999999963E+04  0.15000000000E+04  0.10566000000E+00 0.  1.
        994   -1    0    0    0    0 -0.00000000000E+00 -0.00000000000E+00  0.11368683772E-12  0.17120000000E+03  0.17120000000E+03 0.  0.
         13    1    1    2    0    0  0.16833152372E+01  0.20271338206E+02  0.29907734201E+02  0.36169661761E+02  0.10566000000E+00 0.  1.
        994    1    1    2    0    0 -0.34803189368E+01 -0.22246186500E+02  0.79561457627E+01  0.17285758788E+03  0.17120000000E+03 0.  0.
        998    1    1    2    0    0  0.17970036996E+01  0.19748482944E+01  0.14621361163E+04  0.14621727504E+04  0.10000000000E+02 0.  1.
</event>
<event>
 5    1  0.1757379E-008  0.3702213E+03  0.7957747E-01  0.3494874E+00
         13   -1    0    0    0    0  0.00000000000E+00  0.00000000000E+00  0.14999999963E+04  0.15000000000E+04  0.10566000000E+00 0.  1.
        994   -1    0    0    0    0 -0.00000000000E+00 -0.00000000000E+00  0.11368683772E-12  0.17120000000E+03  0.17120000000E+03 0.  0.
         13    1    1    2    0    0  0.25975734709E+02 -0.13310938313E+03  0.48881990762E+03  0.50728469317E+03  0.10566000000E+00 0.  1.
        994    1    1    2    0    0 -0.13421687165E+02  0.14456245353E+03  0.88917441508E+02  0.24144191033E+03  0.17120000000E+03 0.  0.
        998    1    1    2    0    0 -0.12554047544E+02 -0.11453070400E+02  0.92226264715E+03  0.92247339650E+03  0.10000000000E+02 0. -1.
</event>
<event>
 5    1  0.1757379E-008  0.3832176E+03  0.7957747E-01  0.3437267E+00
         13   -1    0    0    0    0  0.00000000000E+00  0.00000000000E+00  0.14999999963E+04  0.15000000000E+04  0.10566000000E+00 0.  1.
        994   -1    0    0    0    0 -0.00000000000E+00 -0.00000000000E+00  0.11368683772E-12  0.17120000000E+03  0.17120000000E+03 0.  0.
         13    1    1    2    0    0 -0.15237311763E+02  0.15887151456E+02  0.98221306136E+02  0.10065790279E+03  0.10566000000E+00 0.  1.
        994    1    1    2    0    0  0.15621677212E+01 -0.11613119021E+02  0.29719821436E+01  0.17162627299E+03  0.17120000000E+03 0.  0.
        998    1    1    2    0    0  0.13675144041E+02 -0.42740324352E+01  0.13988067080E+04  0.13989158242E+04  0.10000000000E+02 0.  1.
</event>
<event>
 5    1  0.1757379E-008  0.3828649E+03  0.7957747E-01  0.3438778E+00
         13   -1    0    0    0    0  0.00000000000E+00  0.00000000000E+00  0.14999999963E+04  0.15000000000E+04  0.10566000000E+00 0. -1.
        994   -1    0    0    0    0 -0.00000000000E+00 -0.00000000000E+00  0.11368683772E-12  0.17120000000E+03  0.17120000000E+03 0.  0.
         13    1    1    2    0    0  0.18497165185E+02  0.57318118877E+01  0.79495107632E+02  0.81819814769E+02  0.10566000000E+00 0. -1.
        994    1    1    2    0    0  0.16320024478E+02 -0.92418963807E+01  0.38596271509E+01  0.17226750294E+03  0.17120000000E+03 0.  0.
        998    1    1    2    0    0 -0.34817189663E+02  0.35100844929E+01  0.14166452615E+04  0.14171126823E+04  0.10000000000E+02 0. -1.
</event>
<event>
 5    1  0.1757379E-008  0.3836278E+03  0.7957747E-01  0.3435513E+00
         13   -1    0    0    0    0  0.00000000000E+00  0.00000000000E+00  0.14999999963E+04  0.15000000000E+04  0.10566000000E+00 0. -1.
        994   -1    0    0    0    0 -0.00000000000E+00 -0.00000000000E+00  0.11368683772E-12  0.17120000000E+03  0.17120000000E+03 0.  0.
         13    1    1    2    0    0 -0.62432199308E+01 -0.15027158213E+02  0.56152322929E+02  0.58462704466E+02  0.10566000000E+00 0. -1.
        994    1    1    2    0    0  0.12112130069E+02  0.85343535479E+01  0.30385037664E+01  0.17186684203E+03  0.17120000000E+03 0.  0.
        998    1    1    2    0    0 -0.58689101378E+01  0.64928046646E+01  0.14408091696E+04  0.14408704535E+04  0.10000000000E+02 0. -1.
</event>
<event>
 5    1  0.1757379E-008  0.3851028E+03  0.7957747E-01  0.3429236E+00
         13   -1    0    0    0    0  0.00000000000E+00  0.00000000000E+00  0.14999999963E+04  0.15000000000E+04  0.10566000000E+00 0.  1.
        994   -1    0    0    0    0 -0.00000000000E+00 -0.00000000000E+00  0.11368683772E-12  0.17120000000E+03  0.17120000000E+03 0.  0.
         13    1    1    2    0    0 -0.17429978857E+01 -0.18110001568E+02  0.10529977682E+03  0.10686002227E+03  0.10566000000E+00 0.  1.
        994    1    1    2    0    0  0.59620987408E+01  0.10691176111E+02  0.20718821489E+01  0.17164958655E+03  0.17120000000E+03 0.  0.
        998    1    1    2    0    0 -0.42191008551E+01  0.74188254579E+01  0.13926283373E+04  0.13926903912E+04  0.10000000000E+02 0.  1.
</event>
<event>
 5    1  0.1757379E-008  0.3766333E+03  0.7957747E-01  0.3465950E+00
         13   -1    0    0    0    0  0.00000000000E+00  0.00000000000E+00  0.14999999963E+04  0.15000000000E+04  0.10566000000E+00 0. -1.
        994   -1    0    0    0    0 -0.00000000000E+00 -0.00000000000E+00  0.11368683772E-12  0.17120000000E+03  0.17120000000E+03 0.  0.
         13    1    1    2    0    0  0.73516632833E+01  0.72299084857E+02  0.40718774566E+03  0.41362189981E+03  0.10566000000E+00 0. -1.
        994    1    1    2    0    0 -0.67464307844E+00 -0.52133623542E+02  0.15087892801E+02  0.17959803550E+03  0.17120000000E+03 0.  0.
        998    1    1    2    0    0 -0.66770202049E+01 -0.20165461315E+02  0.10777243578E+04  0.10779800647E+04  0.10000000000E+02 0. -1.
</event>
<event>
 5    1  0.1757379E-008  0.3847325E+03  0.7957747E-01  0.3430807E+00
         13   -1    0    0    0    0  0.00000000000E+00  0.00000000000E+00  0.14999999963E+04  0.15000000000E+04  0.10566000000E+00 0.  1.
        994   -1    0    0    0    0 -0.00000000000E+00 -0.00000000000E+00  0.11368683772E-12  0.17120000000E+03  0.17120000000E+03 0.  0.
         13    1    1    2    0    0 -0.81522114363E+01  0.66302869235E+01  0.34744466137E+02  0.36298875288E+02  0.10566000000E+00 0.  1.
        994    1    1    2    0    0 -0.28769988106E+02 -0.81621065172E+01  0.47122464375E+01  0.17385619766E+03  0.17120000000E+03 0.  0.
        998    1    1    2    0    0  0.36922199542E+02  0.15318195937E+01  0.14605432837E+04  0.14610449271E+04  0.10000000000E+02 0.  1.
</event>
<event>
 5    1  0.1757379E-008  0.3849132E+03  0.7957747E-01  0.3430041E+00
         13   -1    0    0    0    0  0.00000000000E+00  0.00000000000E+00  0.14999999963E+04  0.15000000000E+04  0.10566000000E+00 0.  1.
        994   -1    0    0    0    0 -0.00000000000E+00 -0.00000000000E+00  0.11368683772E-12  0.17120000000E+03  0.17120000000E+03 0.  0.
         13    1    1    2    0    0  0.18569077295E+02  0.40490098159E+02  0.57114521057E+02  0.72431611608E+02  0.10566000000E+00 0.  1.
        994    1    1    2    0    0  0.42112650457E+02  0.52547239135E+02  0.35984651035E+02  0.18745405512E+03  0.17120000000E+03 0.  0.
        998    1    1    2    0    0 -0.60681727751E+02 -0.93037337294E+02  0.14069008242E+04  0.14113143333E+04  0.10000000000E+02 0.  1.
</event>
<event>
 5    1  0.1757379E-008  0.3831809E+03  0.7957747E-01  0.3437424E+00
         13   -1    0    0    0    0  0.00000000000E+00  0.00000000000E+00  0.14999999963E+04  0.15000000000E+04  0.10566000000E+00 0.  1.
        994   -1    0    0    0    0 -0.00000000000E+00 -0.00000000000E+00  0.11368683772E-12  0.17120000000E+03  0.17120000000E+03 0.  0.
         13    1    1    2    0    0 -0.13432665143E+02  0.17200428827E+02  0.10177665793E+03  0.10409029978E+03  0.10566000000E+00 0.  1.
        994    1    1    2    0    0 -0.32153950841E+01 -0.27736264532E+01  0.25956339192E+01  0.17127232434E+03  0.17120000000E+03 0.  0.
        998    1    1    2    0    0  0.16648060227E+02 -0.14426802374E+02  0.13956277044E+04  0.13958373759E+04  0.10000000000E+02 0.  1.
</event>
<event>
 5    1  0.1757379E-008  0.3833783E+03  0.7957747E-01  0.3436579E+00
         13   -1    0    0    0    0  0.00000000000E+00  0.00000000000E+00  0.14999999963E+04  0.15000000000E+04  0.10566000000E+00 0.  1.
        994   -1    0    0    0    0 -0.00000000000E+00 -0.00000000000E+00  0.11368683772E-12  0.17120000000E+03  0.17120000000E+03 0.  0.
         13    1    1    2    0    0 -0.19474632328E+02 -0.55189526112E+01  0.85378909089E+02  0.87745594895E+02  0.10566000000E+00 0.  1.
        994    1    1    2    0    0  0.89235977373E+01  0.13453955681E+01  0.27067380499E+01  0.17145905376E+03  0.17120000000E+03 0.  0.
        998    1    1    2    0    0  0.10551034591E+02  0.41735570431E+01  0.14119143491E+04  0.14119953513E+04  0.10000000000E+02 0.  1.
</event>
<event>
 5    1  0.1757379E-008  0.3751268E+03  0.7957747E-01  0.3472656E+00
         13   -1    0    0    0    0  0.00000000000E+00  0.00000000000E+00  0.14999999963E+04  0.15000000000E+04  0.10566000000E+00 0. -1.
        994   -1    0    0    0    0 -0.00000000000E+00 -0.00000000000E+00  0.11368683772E-12  0.17120000000E+03  0.17120000000E+03 0.  0.
         13    1    1    2    0    0 -0.30173266524E+02  0.91511807738E+01  0.76146300919E+02  0.82416263140E+02  0.10566000000E+00 0. -1.
        994    1    1    2    0    0  0.94127992500E+01  0.46131750935E+01  0.69870480889E+01  0.17166287023E+03  0.17120000000E+03 0.  0.
        998    1    1    2    0    0  0.20760467274E+02 -0.13764355867E+02  0.14168666473E+04  0.14171208666E+04  0.10000000000E+02 0. -1.
</event>
<event>
 5    1  0.1757379E-008  0.3734816E+03  0.7957747E-01  0.3480042E+00
         13   -1    0    0    0    0  0.00000000000E+00  0.00000000000E+00  0.14999999963E+04  0.15000000000E+04  0.10566000000E+00 0.  1.
        994   -1    0    0    0    0 -0.00000000000E+00 -0.00000000000E+00  0.11368683772E-12  0.17120000000E+03  0.17120000000E+03 0.  0.
         13    1    1    2    0    0  0.13064311739E+02  0.11930015772E+02  0.17455987410E+02  0.24854057577E+02  0.10566000000E+00 0.  1.
        994    1    1    2    0    0 -0.18978620847E+02 -0.82941421133E+01  0.89275980407E+01  0.17267924846E+03  0.17120000000E+03 0.  0.
        998    1    1    2    0    0  0.59143091080E+01 -0.36358736583E+01  0.14736164108E+04  0.14736666940E+04  0.10000000000E+02 0.  1.
</event>
<event>
 5    1  0.1757379E-008  0.3848785E+03  0.7957747E-01  0.3430188E+00
         13   -1    0    0    0    0  0.00000000000E+00  0.00000000000E+00  0.14999999963E+04  0.15000000000E+04  0.10566000000E+00 0.  1.
        994   -1    0    0    0    0 -0.00000000000E+00 -0.00000000000E+00  0.11368683772E-12  0.17120000000E+03  0.17120000000E+03 0.  0.
         13    1    1    2    0    0  0.96344496549E+01 -0.11265482955E+02  0.64229299692E+02  0.65917735317E+02  0.10566000000E+00 0.  1.
        994    1    1    2    0    0 -0.55118657358E+01  0.10484827548E+02  0.21522451467E+01  0.17162279695E+03  0.17120000000E+03 0.  0.
        998    1    1    2    0    0 -0.41225839191E+01  0.78065540777E+00  0.14336184514E+04  0.14336594677E+04  0.10000000000E+02 0.  1.
</event>
<event>
 5    1  0.2103929E-008  0.3863034E+03  0.7957747E-01  0.3424163E+00
         13   -1    0    0    0    0  0.00000000000E+00  0.00000000000E+00  0.14999999963E+04  0.15000000000E+04  0.10566000000E+00 0.  1.
        994   -1    0    0    0    0 -0.00000000000E+00 -0.00000000000E+00  0.11368683772E-12  0.17120000000E+03  0.17120000000E+03 0.  0.
         13    1    1    2    0    0 -0.76173964561E+01 -0.66176050158E+01  0.53422201939E+02  0.54366903985E+02  0.10566000000E+00 0.  1.
        994    1    1    2    0    0  0.11042023662E+01  0.60060428009E+01  0.11065437734E+01  0.17131245212E+03  0.17120000000E+03 0.  0.
        998    1    1    2    0    0  0.65131940898E+01  0.61156221495E+00  0.14454712506E+04  0.14455206439E+04  0.10000000000E+02 0.  1.
</event>
<event>
 5    1  0.1757379E-008  0.3818632E+03  0.7957747E-01  0.3443086E+00
         13   -1    0    0    0    0  0.00000000000E+00  0.00000000000E+00  0.14999999963E+04  0.15000000000E+04  0.10566000000E+00 0. -1.
        994   -1    0    0    0    0 -0.00000000000E+00 -0.00000000000E+00  0.11368683772E-12  0.17120000000E+03  0.17120000000E+03 0.  0.
         13    1    1    2    0    0 -0.17145702423E+02  0.49437982638E+01  0.46458681918E+02  0.49767826378E+02  0.10566000000E+00 0. -1.
        994    1    1    2    0    0  0.23581804607E+02 -0.32806622320E+01  0.50812166452E+01  0.17292230341E+03  0.17120000000E+03 0.  0.
        998    1    1    2    0    0 -0.64361021843E+01 -0.16631360318E+01  0.14484600977E+04  0.14485098702E+04  0.10000000000E+02 0. -1.
</event>
<event>
 5    1  0.1757379E-008  0.3787971E+03  0.7957747E-01  0.3456413E+00
         13   -1    0    0    0    0  0.00000000000E+00  0.00000000000E+00  0.14999999963E+04  0.15000000000E+04  0.10566000000E+00 0.  1.
        994   -1    0    0    0    0 -0.00000000000E+00 -0.00000000000E+00  0.11368683772E-12  0.17120000000E+03  0.17120000000E+03 0.  0.
         13    1    1    2    0    0  0.50708818276E+01  0.42419155690E+02  0.17213206409E+03  0.17735432688E+03  0.10566000000E+00 0.  1.
        994    1    1    2    0    0 -0.76945811563E+01 -0.40560251291E+02  0.10483176215E+02  0.17641903964E+03  0.17120000000E+03 0.  0.
        998    1    1    2    0    0  0.26236993287E+01 -0.18589043989E+01  0.13173847560E+04  0.13174266335E+04  0.10000000000E+02 0.  1.
</event>
<event>
 5    1  0.1757379E-008  0.3819889E+03  0.7957747E-01  0.3442544E+00
         13   -1    0    0    0    0  0.00000000000E+00  0.00000000000E+00  0.14999999963E+04  0.15000000000E+04  0.10566000000E+00 0.  1.
        994   -1    0    0    0    0 -0.00000000000E+00 -0.00000000000E+00  0.11368683772E-12  0.17120000000E+03  0.17120000000E+03 0.  0.
         13    1    1    2    0    0  0.24850092042E+01 -0.20137419612E+02  0.49924050524E+02  0.53889822083E+02  0.10566000000E+00 0.  1.
        994    1    1    2    0    0 -0.24235273478E+02  0.73168633893E+02  0.23120755974E+02  0.18916925443E+03  0.17120000000E+03 0.  0.
        998    1    1    2    0    0  0.21750264274E+02 -0.53031214281E+02  0.14269551898E+04  0.14281409235E+04  0.10000000000E+02 0.  1.
</event>
<event>
 5    1  0.1757379E-008  0.3841040E+03  0.7957747E-01  0.3433481E+00
         13   -1    0    0    0    0  0.00000000000E+00  0.00000000000E+00  0.14999999963E+04  0.15000000000E+04  0.10566000000E+00 0.  1.
        994   -1    0    0    0    0 -0.00000000000E+00 -0.00000000000E+00  0.11368683772E-12  0.17120000000E+03  0.17120000000E+03 0.  0.
         13    1    1    2    0    0  0.23739576286E+02 -0.70369913299E+01  0.13174723654E+03  0.13405384078E+03  0.10566000000E+00 0.  1.
        994    1    1    2    0    0 -0.28140665144E+02  0.75647024001E+01  0.48812727114E+01  0.17373079341E+03  0.17120000000E+03 0.  0.
        998    1    1    2    0    0  0.44010888577E+01 -0.52771107018E+00  0.13633714870E+04  0.13634153658E+04  0.10000000000E+02 0.  1.
</event>
<event>
 5    1  0.1757379E-008  0.3753933E+03  0.7957747E-01  0.3471466E+00
         13   -1    0    0    0    0  0.00000000000E+00  0.00000000000E+00  0.14999999963E+04  0.15000000000E+04  0.10566000000E+00 0. -1.
        994   -1    0    0    0    0 -0.00000000000E+00 -0.00000000000E+00  0.11368683772E-12  0.17120000000E+03  0.17120000000E+03 0.  0.
         13    1    1    2    0    0  0.22027272544E+02  0.81103870556E+02  0.22390453249E+03  0.23915745731E+03  0.10566000000E+00 0. -1.
        994    1    1    2    0    0 -0.15696500114E+01 -0.77138322003E+02  0.35348682690E+02  0.19108049061E+03  0.17120000000E+03 0.  0.
        998    1    1    2    0    0 -0.20457622533E+02 -0.39655485531E+01  0.12407467811E+04  0.12409620521E+04  0.10000000000E+02 0. -1.
</event>
<event>
 5    1  0.1757379E-008  0.3837062E+03  0.7957747E-01  0.3435178E+00
         13   -1    0    0    0    0  0.00000000000E+00  0.00000000000E+00  0.14999999963E+04  0.15000000000E+04  0.10566000000E+00 0. -1.
        994   -1    0    0    0    0 -0.00000000000E+00 -0.00000000000E+00  0.11368683772E-12  0.17120000000E+03  0.17120000000E+03 0.  0.
         13    1    1    2    0    0  0.24233410149E+02  0.97191096344E+01  0.13558956058E+03  0.13808062630E+03  0.10566000000E+00 0. -1.
        994    1    1    2    0    0 -0.28160378497E+02 -0.58340612712E+01  0.50099699212E+01  0.17367090426E+03  0.17120000000E+03 0.  0.
        998    1    1    2    0    0  0.39269683482E+01 -0.38850483632E+01  0.13594004658E+04  0.13594484694E+04  0.10000000000E+02 0. -1.
</event>
<event>
 5    1  0.1757379E-008  0.3782141E+03  0.7957747E-01  0.3458972E+00
         13   -1    0    0    0    0  0.00000000000E+00  0.00000000000E+00  0.14999999963E+04  0.15000000000E+04  0.10566000000E+00 0. -1.
        994   -1    0    0    0    0 -0.00000000000E+00 -0.00000000000E+00  0.11368683772E-12  0.17120000000E+03  0.17120000000E+03 0.  0.
         13    1    1    2    0    0  0.12890016294E+02 -0.22603191088E+01  0.14876538881E+02  0.19813736035E+02  0.10566000000E+00 0. -1.
        994    1    1    2    0    0 -0.10168448014E+02 -0.16725852177E+02  0.63268778298E+01  0.17243149611E+03  0.17120000000E+03 0.  0.
        998    1    1    2    0    0 -0.27215682800E+01  0.18986171286E+02  0.14787965796E+04  0.14789547679E+04  0.10000000000E+02 0. -1.
</event>
<event>
 5    1  0.1757379E-008  0.3860364E+03  0.7957747E-01  0.3425288E+00
         13   -1    0    0    0    0  0.00000000000E+00  0.00000000000E+00  0.14999999963E+04  0.15000000000E+04  0.10566000000E+00 0.  1.
        994   -1    0    0    0    0 -0.00000000000E+00 -0.00000000000E+00  0.11368683772E-12  0.17120000000E+03  0.17120000000E+03 0.  0.
         13    1    1    2    0    0  0.78350483837E+01  0.73564059835E+01  0.53481400437E+02  0.54550674138E+02  0.10566000000E+00 0.  1.
        994    1    1    2    0    0  0.18691571858E+01 -0.82308614428E+01  0.13499653334E+01  0.17141325280E+03  0.17120000000E+03 0.  0.
        998    1    1    2    0    0 -0.97042055695E+01  0.87445545927E+00  0.14451686305E+04  0.14452360731E+04  0.10000000000E+02 0.  1.
</event>
<event>
 5    1  0.1757379E-008  0.3856438E+03  0.7957747E-01  0.3426947E+00
         13   -1    0    0    0    0  0.00000000000E+00  0.00000000000E+00  0.14999999963E+04  0.15000000000E+04  0.10566000000E+00 0.  1.
        994   -1    0    0    0    0 -0.00000000000E+00 -0.00000000000E+00  0.11368683772E-12  0.17120000000E+03  0.17120000000E+03 0.  0.
         13    1    1    2    0    0  0.80441920962E+01 -0.62055307052E+01  0.40209618906E+02  0.41473392126E+02  0.10566000000E+00 0.  1.
        994    1    1    2    0    0 -0.99763018994E+00  0.52367584506E+01  0.14041327316E+01  0.17128873429E+03  0.17120000000E+03 0.  0.
        998    1    1    2    0    0 -0.70465619063E+01  0.96877225461E+00  0.14583862446E+04  0.14584378736E+04  0.10000000000E+02 0.  1.
</event>
<event>
 5    1  0.1757379E-008  0.3812340E+03  0.7957747E-01  0.3445803E+00
         13   -1    0    0    0    0  0.00000000000E+00  0.00000000000E+00  0.14999999963E+04  0.15000000000E+04  0.10566000000E+00 0. -1.
        994   -1    0    0    0    0 -0.00000000000E+00 -0.00000000000E+00  0.11368683772E-12  0.17120000000E+03  0.17120000000E+03 0.  0.
         13    1    1    2    0    0 -0.28642898760E+02  0.28166182104E+02  0.23635766022E+03  0.23974716718E+03  0.10566000000E+00 0. -1.
        994    1    1    2    0    0  0.21843171550E+02 -0.56353681761E+01  0.52076031101E+01  0.17275833018E+03  0.17120000000E+03 0.  0.
        998    1    1    2    0    0  0.67997272099E+01 -0.22530813928E+02  0.12584347329E+04  0.12586945026E+04  0.10000000000E+02 0. -1.
</event>
<event>
 5    1  0.1757379E-008  0.3816455E+03  0.7957747E-01  0.3444025E+00
         13   -1    0    0    0    0  0.00000000000E+00  0.00000000000E+00  0.14999999963E+04  0.15000000000E+04  0.10566000000E+00 0. -1.
        994   -1    0    0    0    0 -0.00000000000E+00 -0.00000000000E+00  0.11368683772E-12  0.17120000000E+03  0.17120000000E+03 0.  0.
         13    1    1    2    0    0 -0.15479571869E+02 -0.39663853690E+01  0.36912325442E+02  0.40222882688E+02  0.10566000000E+00 0. -1.
        994    1    1    2    0    0  0.14628060189E+02  0.17016790106E+01  0.40262224544E+01  0.17187939470E+03  0.17120000000E+03 0.  0.
        998    1    1    2    0    0  0.85151167959E+00  0.22647063584E+01  0.14590614484E+04  0.14590977226E+04  0.10000000000E+02 0. -1.
</event>
<event>
 5    1  0.1757379E-008  0.2580783E+03  0.7957747E-01  0.4249751E+00
         13   -1    0    0    0    0  0.00000000000E+00  0.00000000000E+00  0.14999999963E+04  0.15000000000E+04  0.10566000000E+00 0. -1.
        994   -1    0    0    0    0 -0.00000000000E+00 -0.00000000000E+00  0.11368683772E-12  0.17120000000E+03  0.17120000000E+03 0.  0.
         13    1    1    2    0    0  0.89938567749E+02  0.10579053350E+03  0.11771409994E+03  0.18203626956E+03  0.10566000000E+00 0. -1.
        994    1    1    2    0    0 -0.28427735030E+03 -0.29820608421E+02  0.69331005750E+03  0.76921463611E+03  0.17120000000E+03 0.  0.
        998    1    1    2    0    0  0.19433878255E+03 -0.75969925078E+02  0.68897583884E+03  0.71994909432E+03  0.10000000000E+02 0.  1.
</event>
<event>
 5    1  0.1757379E-008  0.3703826E+03  0.7957747E-01  0.3494134E+00
         13   -1    0    0    0    0  0.00000000000E+00  0.00000000000E+00  0.14999999963E+04  0.15000000000E+04  0.10566000000E+00 0.  1.
        994   -1    0    0    0    0 -0.00000000000E+00 -0.00000000000E+00  0.11368683772E-12  0.17120000000E+03  0.17120000000E+03 0.  0.
         13    1    1    2    0    0  0.19989320208E+02 -0.62329681646E+01  0.19922585343E+02  0.28902307612E+02  0.10566000000E+00 0.  1.
        994    1    1    2    0    0 -0.20672445293E+02  0.10617587925E+02  0.10936390676E+02  0.17311593748E+03  0.17120000000E+03 0.  0.
        998    1    1    2    0    0  0.68312508535E+00 -0.43846197609E+01  0.14691410203E+04  0.14691817549E+04  0.10000000000E+02 0.  1.
</event>
<event>
 5    1  0.1757379E-008  0.3809153E+03  0.7957747E-01  0.3447183E+00
         13   -1    0    0    0    0  0.00000000000E+00  0.00000000000E+00  0.14999999963E+04  0.15000000000E+04  0.10566000000E+00 0. -1.
        994   -1    0    0    0    0 -0.00000000000E+00 -0.00000000000E+00  0.11368683772E-12  0.17120000000E+03  0.17120000000E+03 0.  0.
         13    1    1    2    0    0 -0.32984715959E+02  0.64357087061E+02  0.16224293614E+03  0.17763053688E+03  0.10566000000E+00 0. -1.
        994    1    1    2    0    0  0.41396011993E+02 -0.77815310487E+01  0.23309102503E+02  0.17783963645E+03  0.17120000000E+03 0.  0.
        998    1    1    2    0    0 -0.84112960338E+01 -0.56575556013E+02  0.13144479576E+04  0.13157298267E+04  0.10000000000E+02 0. -1.
</event>
<event>
 5    1  0.1757379E-008  0.3860897E+03  0.7957747E-01  0.3425064E+00
         13   -1    0    0    0    0  0.00000000000E+00  0.00000000000E+00  0.14999999963E+04  0.15000000000E+04  0.10566000000E+00 0. -1.
        994   -1    0    0    0    0 -0.00000000000E+00 -0.00000000000E+00  0.11368683772E-12  0.17120000000E+03  0.17120000000E+03 0.  0.
         13    1    1    2    0    0 -0.32600775291E+01 -0.98187227797E+01  0.51100567569E+02  0.52137458630E+02  0.10566000000E+00 0. -1.
        994    1    1    2    0    0  0.11712998340E+02 -0.48336371267E+00  0.15405904777E+01  0.17160781273E+03  0.17120000000E+03 0.  0.
        998    1    1    2    0    0 -0.84529208105E+01  0.10302086492E+02  0.14473588382E+04  0.14474547286E+04  0.10000000000E+02 0. -1.
</event>
<event>
 5    1  0.1757379E-008  0.3857942E+03  0.7957747E-01  0.3426311E+00
         13   -1    0    0    0    0  0.00000000000E+00  0.00000000000E+00  0.14999999963E+04  0.15000000000E+04  0.10566000000E+00 0. -1.
        994   -1    0    0    0    0 -0.00000000000E+00 -0.00000000000E+00  0.11368683772E-12  0.17120000000E+03  0.17120000000E+03 0.  0.
         13    1    1    2    0    0  0.12892086966E+02  0.71726176508E+01  0.85834314408E+02  0.87093013752E+02  0.10566000000E+00 0. -1.
        994    1    1    2    0    0 -0.11631636145E+02 -0.71728050840E+01  0.18491463723E+01  0.17175448592E+03  0.17120000000E+03 0.  0.
        998    1    1    2    0    0 -0.12604508209E+01  0.18743320084E-03  0.14123165355E+04  0.14123525003E+04  0.10000000000E+02 0. -1.
</event>
<event>
 5    1  0.1757379E-008  0.3861288E+03  0.7957747E-01  0.3424899E+00
         13   -1    0    0    0    0  0.00000000000E+00  0.00000000000E+00  0.14999999963E+04  0.15000000000E+04  0.10566000000E+00 0. -1.
        994   -1    0    0    0    0 -0.00000000000E+00 -0.00000000000E+00  0.11368683772E-12  0.17120000000E+03  0.17120000000E+03 0.  0.
         13    1    1    2    0    0  0.78708790170E+01  0.81978824040E+01  0.66477315026E+02  0.67441831154E+02  0.10566000000E+00 0. -1.
        994    1    1    2    0    0 -0.45430690284E+01  0.81519600797E+01  0.13561486489E+01  0.17145953770E+03  0.17120000000E+03 0.  0.
        998    1    1    2    0    0 -0.33278099886E+01 -0.16349842484E+02  0.14321665326E+04  0.14322986311E+04  0.10000000000E+02 0. -1.
</event>
<event>
 5    1  0.1757379E-008  0.3701471E+03  0.7957747E-01  0.3495215E+00
         13   -1    0    0    0    0  0.00000000000E+00  0.00000000000E+00  0.14999999963E+04  0.15000000000E+04  0.10566000000E+00 0.  1.
        994   -1    0    0    0    0 -0.00000000000E+00 -0.00000000000E+00  0.11368683772E-12  0.17120000000E+03  0.17120000000E+03 0.  0.
         13    1    1    2    0    0  0.90436456037E+01  0.14835405353E+02  0.12226232948E+02  0.21245439839E+02  0.10566000000E+00 0.  1.
        994    1    1    2    0    0 -0.17861249956E+02 -0.93404897368E+01  0.10597477999E+02  0.17270789078E+03  0.17120000000E+03 0.  0.
        998    1    1    2    0    0  0.88176043525E+01 -0.54949156165E+01  0.14771762853E+04  0.14772466694E+04  0.10000000000E+02 0.  1.
</event>
<event>
 5    1  0.1757379E-008  0.3821031E+03  0.7957747E-01  0.3442052E+00
         13   -1    0    0    0    0  0.00000000000E+00  0.00000000000E+00  0.14999999963E+04  0.15000000000E+04  0.10566000000E+00 0.  1.
        994   -1    0    0    0    0 -0.00000000000E+00 -0.00000000000E+00  0.11368683772E-12  0.17120000000E+03  0.17120000000E+03 0.  0.
         13    1    1    2    0    0 -0.16798679918E+02 -0.10275251820E+02  0.59184349981E+02  0.62374473093E+02  0.10566000000E+00 0.  1.
        994    1    1    2    0    0  0.17671345701E+02  0.15348656227E+02  0.48961648639E+01  0.17286199738E+03  0.17120000000E+03 0.  0.
        998    1    1    2    0    0 -0.87266578316E+00 -0.50734044067E+01  0.14359194814E+04  0.14359635295E+04  0.10000000000E+02 0.  1.
</event>
<event>
 5    1  0.1757379E-008  0.3799591E+03  0.7957747E-01  0.3451337E+00
         13   -1    0    0    0    0  0.00000000000E+00  0.00000000000E+00  0.14999999963E+04  0.15000000000E+04  0.10566000000E+00 0.  1.
        994   -1    0    0    0    0 -0.00000000000E+00 -0.00000000000E+00  0.11368683772E-12  0.17120000000E+03  0.17120000000E+03 0.  0.
         13    1    1    2    0    0  0.68695138369E+02 -0.19774935716E+02  0.39108532652E+03  0.39756485496E+03  0.10566000000E+00 0.  1.
        994    1    1    2    0    0 -0.81927635088E+02  0.22098439738E+02  0.28615941722E+02  0.19320660069E+03  0.17120000000E+03 0.  0.
        998    1    1    2    0    0  0.13232496719E+02 -0.23235040215E+01  0.10802987280E+04  0.10804285443E+04  0.10000000000E+02 0.  1.
</event>
<event>
 5    1  0.1757379E-008  0.3697206E+03  0.7957747E-01  0.3497176E+00
         13   -1    0    0    0    0  0.00000000000E+00  0.00000000000E+00  0.14999999963E+04  0.15000000000E+04  0.10566000000E+00 0.  1.
        994   -1    0    0    0    0 -0.00000000000E+00 -0.00000000000E+00  0.11368683772E-12  0.17120000000E+03  0.17120000000E+03 0.  0.
         13    1    1    2    0    0  0.23797883837E+02 -0.91189103762E+00  0.27365399846E+02  0.36277363371E+02  0.10566000000E+00 0.  1.
        994    1    1    2    0    0  0.68299028354E+00 -0.11380672965E+02  0.98652053843E+01  0.17186258601E+03  0.17120000000E+03 0.  0.
        998    1    1    2    0    0 -0.24480874121E+02  0.12292564003E+02  0.14627693910E+04  0.14630600506E+04  0.10000000000E+02 0.  1.
</event>
<event>
 5    1  0.1757379E-008  0.3782398E+03  0.7957747E-01  0.3458859E+00
         13   -1    0    0    0    0  0.00000000000E+00  0.00000000000E+00  0.14999999963E+04  0.15000000000E+04  0.10566000000E+00 0.  1.
        994   -1    0    0    0    0 -0.00000000000E+00 -0.00000000000E+00  0.11368683772E-12  0.17120000000E+03  0.17120000000E+03 0.  0.
         13    1    1    2    0    0  0.99248049825E+01  0.13559224993E+02  0.26336675854E+02  0.31240774565E+02  0.10566000000E+00 0.  1.
        994    1    1    2    0    0 -0.56449937806E+00 -0.86144949122E+01  0.52749727128E+01  0.17149866915E+03  0.17120000000E+03 0.  0.
        998    1    1    2    0    0 -0.93603056044E+01 -0.49447300810E+01  0.14683883477E+04  0.14684605563E+04  0.10000000000E+02 0.  1.
</event>
<event>
 5    1  0.1757379E-008  0.3688411E+03  0.7957747E-01  0.3501234E+00
         13   -1    0    0    0    0  0.00000000000E+00  0.00000000000E+00  0.14999999963E+04  0.15000000000E+04  0.10566000000E+00 0. -1.
        994   -1    0    0    0    0 -0.00000000000E+00 -0.00000000000E+00  0.11368683772E-12  0.17120000000E+03  0.17120000000E+03 0.  0.
         13    1    1    2    0    0 -0.24775417213E+02  0.53247691905E+00  0.27511938545E+02  0.37027324455E+02  0.10566000000E+00 0. -1.
        994    1    1    2    0    0  0.99413448929E+01  0.20633705623E+02  0.11699286736E+02  0.17312103701E+03  0.17120000000E+03 0.  0.
        998    1    1    2    0    0  0.14834072321E+02 -0.21166182542E+02  0.14607887710E+04  0.14610516385E+04  0.10000000000E+02 0. -1.
</event>
<event>
 5    1  0.1757379E-008  0.3765821E+03  0.7957747E-01  0.3466177E+00
         13   -1    0    0    0    0  0.00000000000E+00  0.00000000000E+00  0.14999999963E+04  0.15000000000E+04  0.10566000000E+00 0.  1.
        994   -1    0    0    0    0 -0.00000000000E+00 -0.00000000000E+00  0.11368683772E-12  0.17120000000E+03  0.17120000000E+03 0.  0.
         13    1    1    2    0    0  0.20807404619E+01 -0.15652389894E+02  0.18658758503E+02  0.24443551770E+02  0.10566000000E+00 0.  1.
        994    1    1    2    0    0 -0.11784517323E+02  0.10994656745E+02  0.67472677186E+01  0.17208928772E+03  0.17120000000E+03 0.  0.
        998    1    1    2    0    0  0.97037768608E+01  0.46577331484E+01  0.14745939701E+04  0.14746671605E+04  0.10000000000E+02 0.  1.
</event>
<event>
 5    1  0.1757379E-008  0.3849404E+03  0.7957747E-01  0.3429925E+00
         13   -1    0    0    0    0  0.00000000000E+00  0.00000000000E+00  0.14999999963E+04  0.15000000000E+04  0.10566000000E+00 0.  1.
        994   -1    0    0    0    0 -0.00000000000E+00 -0.00000000000E+00  0.11368683772E-12  0.17120000000E+03  0.17120000000E+03 0.  0.
         13    1    1    2    0    0  0.11581294133E+01  0.16818145119E+02  0.82603976614E+02  0.84306698343E+02  0.10566000000E+00 0.  1.
        994    1    1    2    0    0 -0.61484269290E+01 -0.15677775664E+02  0.25931265678E+01  0.17204580817E+03  0.17120000000E+03 0.  0.
        998    1    1    2    0    0  0.49902975157E+01 -0.11403694544E+01  0.14148028931E+04  0.14148474935E+04  0.10000000000E+02 0.  1.
</event>
<event>
 5    1  0.1757379E-008  0.3775963E+03  0.7957747E-01  0.3461692E+00
         13   -1    0    0    0    0  0.00000000000E+00  0.00000000000E+00  0.14999999963E+04  0.15000000000E+04  0.10566000000E+00 0. -1.
        994   -1    0    0    0    0 -0.00000000000E+00 -0.00000000000E+00  0.11368683772E-12  0.17120000000E+03  0.17120000000E+03 0.  0.
         13    1    1    2    0    0  0.45143754968E+02  0.43808646053E+02  0.34316795855E+03  0.34888596277E+03  0.10566000000E+00 0. -1.
        994    1    1    2    0    0 -0.35206079022E+02 -0.26339961198E+02  0.11893802532E+02  0.17715576224E+03  0.17120000000E+03 0.  0.
        998    1    1    2    0    0 -0.99376759458E+01 -0.17468684855E+02  0.11449382352E+04  0.11451582750E+04  0.10000000000E+02 0. -1.
</event>
<event>
 5    1  0.1757379E-008  0.3855240E+03  0.7957747E-01  0.3427453E+00
         13   -1    0    0    0    0  0.00000000000E+00  0.00000000000E+00  0.14999999963E+04  0.15000000000E+04  0.10566000000E+00 0.  1.
        994   -1    0    0    0    0 -0.00000000000E+00 -0.00000000000E+00  0.11368683772E-12  0.17120000000E+03  0.17120000000E+03 0.  0.
         13    1    1    2    0    0  0.69617774576E+00  0.11316559194E+02  0.47775611770E+02  0.49102641676E+02  0.10566000000E+00 0.  1.
        994    1    1    2    0    0  0.93316879605E+00 -0.53549009162E+01  0.14672066417E+01  0.17129255227E+03  0.17120000000E+03 0.  0.
        998    1    1    2    0    0 -0.16293465418E+01 -0.59616582779E+01  0.14507571779E+04  0.14508048061E+04  0.10000000000E+02 0.  1.
</event>
<event>
 5    1  0.1757379E-008  0.3831789E+03  0.7957747E-01  0.3437433E+00
         13   -1    0    0    0    0  0.00000000000E+00  0.00000000000E+00  0.14999999963E+04  0.15000000000E+04  0.10566000000E+00 0.  1.
        994   -1    0    0    0    0 -0.00000000000E+00 -0.00000000000E+00  0.11368683772E-12  0.17120000000E+03  0.17120000000E+03 0.  0.
         13    1    1    2    0    0  0.61247490893E+01  0.20629048239E+02  0.99117009133E+02  0.10142614479E+03  0.10566000000E+00 0.  1.
        994    1    1    2    0    0  0.30193527101E+02 -0.97471224915E+01  0.58743158625E+01  0.17421424472E+03  0.17120000000E+03 0.  0.
        998    1    1    2    0    0 -0.36318276191E+02 -0.10881925748E+02  0.13950086713E+04  0.13955596105E+04  0.10000000000E+02 0.  1.
</event>
<event>
 5    1  0.1757379E-008  0.3782798E+03  0.7957747E-01  0.3458683E+00
         13   -1    0    0    0    0  0.00000000000E+00  0.00000000000E+00  0.14999999963E+04  0.15000000000E+04  0.10566000000E+00 0.  1.
        994   -1    0    0    0    0 -0.00000000000E+00 -0.00000000000E+00  0.11368683772E-12  0.17120000000E+03  0.17120000000E+03 0.  0.
         13    1    1    2    0    0 -0.48478663095E+02  0.15810285047E+02  0.82821693478E+02  0.97260423417E+02  0.10566000000E+00 0.  1.
        994    1    1    2    0    0  0.14304475953E+02 -0.18188589824E+02  0.17315886406E+02  0.17362235672E+03  0.17120000000E+03 0.  0.
        998    1    1    2    0    0  0.34174187142E+02  0.23783047770E+01  0.13998624164E+04  0.14003172199E+04  0.10000000000E+02 0.  1.
</event>
<event>
 5    1  0.1757379E-008  0.3785209E+03  0.7957747E-01  0.3457624E+00
         13   -1    0    0    0    0  0.00000000000E+00  0.00000000000E+00  0.14999999963E+04  0.15000000000E+04  0.10566000000E+00 0.  1.
        994   -1    0    0    0    0 -0.00000000000E+00 -0.00000000000E+00  0.11368683772E-12  0.17120000000E+03  0.17120000000E+03 0.  0.
         13    1    1    2    0    0  0.40609681525E+01 -0.13737976256E+02  0.18799361479E+02  0.23635790869E+02  0.10566000000E+00 0.  1.
        994    1    1    2    0    0 -0.85843952409E+01  0.11072533187E+02  0.55413347367E+01  0.17186168632E+03  0.17120000000E+03 0.  0.
        998    1    1    2    0    0  0.45234270884E+01  0.26654430693E+01  0.14756593001E+04  0.14757025228E+04  0.10000000000E+02 0.  1.
</event>
<event>
 5    1  0.1757379E-008  0.3793671E+03  0.7957747E-01  0.3453919E+00
         13   -1    0    0    0    0  0.00000000000E+00  0.00000000000E+00  0.14999999963E+04  0.15000000000E+04  0.10566000000E+00 0.  1.
        994   -1    0    0    0    0 -0.00000000000E+00 -0.00000000000E+00  0.11368683772E-12  0.17120000000E+03  0.17120000000E+03 0.  0.
         13    1    1    2    0    0 -0.46708787893E+02  0.17337599546E+02  0.27690461009E+03  0.28135116398E+03  0.10566000000E+00 0.  1.
        994    1    1    2    0    0  0.33745714317E+02  0.72014484931E+01  0.84518085051E+01  0.17484709652E+03  0.17120000000E+03 0.  0.
        998    1    1    2    0    0  0.12963073576E+02 -0.24539048039E+02  0.12146435777E+04  0.12150017395E+04  0.10000000000E+02 0.  1.
</event>
<event>
 5    1  0.1757379E-008  0.3830502E+03  0.7957747E-01  0.3437984E+00
         13   -1    0    0    0    0  0.00000000000E+00  0.00000000000E+00  0.14999999963E+04  0.15000000000E+04  0.10566000000E+00 0.  1.
        994   -1    0    0    0    0 -0.00000000000E+00 -0.00000000000E+00  0.11368683772E-12  0.17120000000E+03  0.17120000000E+03 0.  0.
         13    1    1    2    0    0  0.12472851211E+01 -0.18312331104E+02  0.64214708584E+02  0.66786504275E+02  0.10566000000E+00 0.  1.
        994    1    1    2    0    0 -0.55997715719E+01  0.10900358408E+02  0.30984751050E+01  0.17166600072E+03  0.17120000000E+03 0.  0.
        998    1    1    2    0    0  0.43524864508E+01  0.74119726963E+01  0.14326868126E+04  0.14327474950E+04  0.10000000000E+02 0.  1.
</event>
<event>
 5    1  0.1757379E-008  0.3781973E+03  0.7957747E-01  0.3459046E+00
         13   -1    0    0    0    0  0.00000000000E+00  0.00000000000E+00  0.14999999963E+04  0.15000000000E+04  0.10566000000E+00 0. -1.
        994   -1    0    0    0    0 -0.00000000000E+00 -0.00000000000E+00  0.11368683772E-12  0.17120000000E+03  0.17120000000E+03 0.  0.
         13    1    1    2    0    0  0.43459945962E+02 -0.11447100836E+02  0.26391743127E+03  0.26771668740E+03  0.10566000000E+00 0. -1.
        994    1    1    2    0    0  0.71969005855E+01 -0.56399175712E+01  0.53271405208E+01  0.17152673982E+03  0.17120000000E+03 0.  0.
        998    1    1    2    0    0 -0.50656846547E+02  0.17087018407E+02  0.12307554245E+04  0.12319565728E+04  0.10000000000E+02 0. -1.
</event>
<event>
 5    1  0.1757379E-008  0.3834525E+03  0.7957747E-01  0.3436262E+00
         13   -1    0    0    0    0  0.00000000000E+00  0.00000000000E+00  0.14999999963E+04  0.15000000000E+04  0.10566000000E+00 0.  1.
        994   -1    0    0    0    0 -0.00000000000E+00 -0.00000000000E+00  0.11368683772E-12  0.17120000000E+03  0.17120000000E+03 0.  0.
         13    1    1    2    0    0 -0.22594283262E+02  0.23324288841E+01  0.10659489379E+03  0.10898818472E+03  0.10566000000E+00 0.  1.
        994    1    1    2    0    0  0.13441133791E+02 -0.11522446318E+02  0.34370486360E+01  0.17214727459E+03  0.17120000000E+03 0.  0.
        998    1    1    2    0    0  0.91531494706E+01  0.91900174338E+01  0.13899680538E+04  0.13900645407E+04  0.10000000000E+02 0.  1.
</event>
<event>
 5    1  0.1757379E-008  0.3829287E+03  0.7957747E-01  0.3438505E+00
         13   -1    0    0    0    0  0.00000000000E+00  0.00000000000E+00  0.14999999963E+04  0.15000000000E+04  0.10566000000E+00 0. -1.
        994   -1    0    0    0    0 -0.00000000000E+00 -0.00000000000E+00  0.11368683772E-12  0.17120000000E+03  0.17120000000E+03 0.  0.
         13    1    1    2    0    0  0.15887011565E+02  0.52751903128E+01  0.50888346941E+02  0.53571072303E+02  0.10566000000E+00 0. -1.
        994    1    1    2    0    0 -0.13594662959E+02 -0.68586570975E+01  0.34300294762E+01  0.17191003793E+03  0.17120000000E+03 0.  0.
        998    1    1    2    0    0 -0.22923486054E+01  0.15834667848E+01  0.14456816199E+04  0.14457188898E+04  0.10000000000E+02 0. -1.
</event>
<event>
 5    1  0.1757379E-008  0.3802545E+03  0.7957747E-01  0.3450051E+00
         13   -1    0    0    0    0  0.00000000000E+00  0.00000000000E+00  0.14999999963E+04  0.15000000000E+04  0.10566000000E+00 0. -1.
        994   -1    0    0    0    0 -0.00000000000E+00 -0.00000000000E+00  0.11368683772E-12  0.17120000000E+03  0.17120000000E+03 0.  0.
         13    1    1    2    0    0 -0.74228374958E+01 -0.28426302215E+02  0.85628787829E+02  0.90528744845E+02  0.10566000000E+00 0. -1.
        994    1    1    2    0    0  0.10796331864E+02  0.62961534754E+02  0.17757251891E+02  0.18359051074E+03  0.17120000000E+03 0.  0.
        998    1    1    2    0    0 -0.33734943679E+01 -0.34535232539E+02  0.13966139566E+04  0.13970807444E+04  0.10000000000E+02 0. -1.
</event>
<event>
 5    1  0.1757379E-008  0.3770478E+03  0.7957747E-01  0.3464115E+00
         13   -1    0    0    0    0  0.00000000000E+00  0.00000000000E+00  0.14999999963E+04  0.15000000000E+04  0.10566000000E+00 0. -1.
        994   -1    0    0    0    0 -0.00000000000E+00 -0.00000000000E+00  0.11368683772E-12  0.17120000000E+03  0.17120000000E+03 0.  0.
         13    1    1    2    0    0 -0.37805839689E+02  0.22786624140E+01  0.12840899576E+03  0.13387813553E+03  0.10566000000E+00 0. -1.
        994    1    1    2    0    0  0.17345123244E+02 -0.13313647532E+02  0.72465661653E+01  0.17274275450E+03  0.17120000000E+03 0.  0.
        998    1    1    2    0    0  0.20460716445E+02  0.11034985118E+02  0.13643444344E+04  0.13645791100E+04  0.10000000000E+02 0. -1.
</event>
<event>
 5    1  0.1757379E-008  0.3775233E+03  0.7957747E-01  0.3462014E+00
         13   -1    0    0    0    0  0.00000000000E+00  0.00000000000E+00  0.14999999963E+04  0.15000000000E+04  0.10566000000E+00 0. -1.
        994   -1    0    0    0    0 -0.00000000000E+00 -0.00000000000E+00  0.11368683772E-12  0.17120000000E+03  0.17120000000E+03 0.  0.
         13    1    1    2    0    0  0.12451854848E+02 -0.60303374317E+01  0.15594031721E+02  0.20847029717E+02  0.10566000000E+00 0. -1.
        994    1    1    2    0    0 -0.35549588623E+01  0.42994176264E+01  0.54935167886E+01  0.17137894110E+03  0.17120000000E+03 0.  0.
        998    1    1    2    0    0 -0.88968959857E+01  0.17309198053E+01  0.14789124478E+04  0.14789740292E+04  0.10000000000E+02 0. -1.
</event>
<event>
 5    1  0.1757379E-008  0.3824522E+03  0.7957747E-01  0.3440550E+00
         13   -1    0    0    0    0  0.00000000000E+00  0.00000000000E+00  0.14999999963E+04  0.15000000000E+04  0.10566000000E+00 0.  1.
        994   -1    0    0    0    0 -0.00000000000E+00 -0.00000000000E+00  0.11368683772E-12  0.17120000000E+03  0.17120000000E+03 0.  0.
         13    1    1    2    0    0  0.30609633919E+02 -0.12972921697E+01  0.12832164053E+03  0.13192834134E+03  0.10566000000E+00 0.  1.
        994    1    1    2    0    0 -0.52794141451E+02  0.42017441568E+02  0.18146979745E+02  0.18490927408E+03  0.17120000000E+03 0.  0.
        998    1    1    2    0    0  0.22184507532E+02 -0.40720149398E+02  0.13535313760E+04  0.13543623846E+04  0.10000000000E+02 0.  1.
</event>
<event>
 5    1  0.1757379E-008  0.3686689E+03  0.7957747E-01  0.3502031E+00
         13   -1    0    0    0    0  0.00000000000E+00  0.00000000000E+00  0.14999999963E+04  0.15000000000E+04  0.10566000000E+00 0.  1.
        994   -1    0    0    0    0 -0.00000000000E+00 -0.00000000000E+00  0.11368683772E-12  0.17120000000E+03  0.17120000000E+03 0.  0.
         13    1    1    2    0    0 -0.11190521849E+02  0.11795471511E+02  0.83603564169E+01  0.18282988019E+02  0.10566000000E+00 0.  1.
        994    1    1    2    0    0  0.11633322865E+02 -0.30229378114E+01  0.10739557477E+02  0.17195711805E+03  0.17120000000E+03 0.  0.
        998    1    1    2    0    0 -0.44280101522E+00 -0.87725336999E+01  0.14809000824E+04  0.14809598939E+04  0.10000000000E+02 0.  1.
</event>
<event>
 5    1  0.1757379E-008  0.3787549E+03  0.7957747E-01  0.3456598E+00
         13   -1    0    0    0    0  0.00000000000E+00  0.00000000000E+00  0.14999999963E+04  0.15000000000E+04  0.10566000000E+00 0. -1.
        994   -1    0    0    0    0 -0.00000000000E+00 -0.00000000000E+00  0.11368683772E-12  0.17120000000E+03  0.17120000000E+03 0.  0.
         13    1    1    2    0    0 -0.38812185011E+02  0.62807807094E+00  0.19313049024E+03  0.19699283644E+03  0.10566000000E+00 0. -1.
        994    1    1    2    0    0 -0.71727726082E+01  0.28642870740E+01  0.49632621969E+01  0.17144598793E+03  0.17120000000E+03 0.  0.
        998    1    1    2    0    0  0.45984957619E+02 -0.34923651450E+01  0.13019062438E+04  0.13027611756E+04  0.10000000000E+02 0. -1.
</event>
<event>
 5    1  0.1757379E-008  0.3762285E+03  0.7957747E-01  0.3467747E+00
         13   -1    0    0    0    0  0.00000000000E+00  0.00000000000E+00  0.14999999963E+04  0.15000000000E+04  0.10566000000E+00 0. -1.
        994   -1    0    0    0    0 -0.00000000000E+00 -0.00000000000E+00  0.11368683772E-12  0.17120000000E+03  0.17120000000E+03 0.  0.
         13    1    1    2    0    0 -0.69548755577E+01 -0.38937806306E+02  0.55218566206E+02  0.67923665035E+02  0.10566000000E+00 0. -1.
        994    1    1    2    0    0  0.51409312628E+01 -0.15408262540E+02  0.15214380055E+02  0.17264055459E+03  0.17120000000E+03 0.  0.
        998    1    1    2    0    0  0.18139442949E+01  0.54346068845E+02  0.14295670500E+04  0.14306357804E+04  0.10000000000E+02 0. -1.
</event>
<event>
 5    1  0.1757379E-008  0.3690922E+03  0.7957747E-01  0.3500073E+00
         13   -1    0    0    0    0  0.00000000000E+00  0.00000000000E+00  0.14999999963E+04  0.15000000000E+04  0.10566000000E+00 0. -1.
        994   -1    0    0    0    0 -0.00000000000E+00 -0.00000000000E+00  0.11368683772E-12  0.17120000000E+03  0.17120000000E+03 0.  0.
         13    1    1    2    0    0  0.42820778828E+02  0.40143083963E+02  0.16382922845E+03  0.17402618639E+03  0.10566000000E+00 0. -1.
        994    1    1    2    0    0 -0.44216990851E+02 -0.22732191366E+02  0.18367556807E+02  0.17921691312E+03  0.17120000000E+03 0.  0.
        998    1    1    2    0    0  0.13962120224E+01 -0.17410892597E+02  0.13178032110E+04  0.13179569005E+04  0.10000000000E+02 0. -1.
</event>
<event>
 5    1  0.1757379E-008  0.3783796E+03  0.7957747E-01  0.3458244E+00
         13   -1    0    0    0    0  0.00000000000E+00  0.00000000000E+00  0.14999999963E+04  0.15000000000E+04  0.10566000000E+00 0. -1.
        994   -1    0    0    0    0 -0.00000000000E+00 -0.00000000000E+00  0.11368683772E-12  0.17120000000E+03  0.17120000000E+03 0.  0.
         13    1    1    2    0    0  0.49118593126E+01  0.23496664815E+02  0.54631760199E+02  0.59672941991E+02  0.10566000000E+00 0. -1.
        994    1    1    2    0    0 -0.23833881561E+02 -0.19327520916E+02  0.81244956069E+01  0.17411793246E+03  0.17120000000E+03 0.  0.
        998    1    1    2    0    0  0.18922022248E+02 -0.41691438988E+01  0.14372437405E+04  0.14374091255E+04  0.10000000000E+02 0. -1.
</event>
<event>
 5    1  0.1757379E-008  0.3824387E+03  0.7957747E-01  0.3440608E+00
         13   -1    0    0    0    0  0.00000000000E+00  0.00000000000E+00  0.14999999963E+04  0.15000000000E+04  0.10566000000E+00 0. -1.
        994   -1    0    0    0    0 -0.00000000000E+00 -0.00000000000E+00  0.11368683772E-12  0.17120000000E+03  0.17120000000E+03 0.  0.
         13    1    1    2    0    0  0.12768781051E+02  0.47976761988E+01  0.30889741947E+02  0.33767540450E+02  0.10566000000E+00 0. -1.
        994    1    1    2    0    0 -0.98792783873E+01 -0.21376619943E+01  0.32460151096E+01  0.17152884992E+03  0.17120000000E+03 0.  0.
        998    1    1    2    0    0 -0.28895026641E+01 -0.26600142045E+01  0.14658642392E+04  0.14659036096E+04  0.10000000000E+02 0. -1.
</event>
<event>
 5    1  0.1757379E-008  0.3854869E+03  0.7957747E-01  0.3427610E+00
         13   -1    0    0    0    0  0.00000000000E+00  0.00000000000E+00  0.14999999963E+04  0.15000000000E+04  0.10566000000E+00 0. -1.
        994   -1    0    0    0    0 -0.00000000000E+00 -0.00000000000E+00  0.11368683772E-12  0.17120000000E+03  0.17120000000E+03 0.  0.
         13    1    1    2    0    0 -0.13283983940E+02 -0.25305998930E+00  0.58339892429E+02  0.59833790464E+02  0.10566000000E+00 0. -1.
        994    1    1    2    0    0  0.22999087430E+02  0.26832908592E+01  0.31510295666E+01  0.17278751998E+03  0.17120000000E+03 0.  0.
        998    1    1    2    0    0 -0.97151034897E+01 -0.24302308700E+01  0.14385090743E+04  0.14385786896E+04  0.10000000000E+02 0. -1.
</event>
<event>
 5    1  0.1757379E-008  0.3848754E+03  0.7957747E-01  0.3430201E+00
         13   -1    0    0    0    0  0.00000000000E+00  0.00000000000E+00  0.14999999963E+04  0.15000000000E+04  0.10566000000E+00 0. -1.
        994   -1    0    0    0    0 -0.00000000000E+00 -0.00000000000E+00  0.11368683772E-12  0.17120000000E+03  0.17120000000E+03 0.  0.
         13    1    1    2    0    0  0.19560296158E+02  0.84612830763E+01  0.11620305466E+03  0.11814126956E+03  0.10566000000E+00 0. -1.
        994    1    1    2    0    0 -0.27979413181E+02 -0.13460132692E+02  0.48700847302E+01  0.17406085275E+03  0.17120000000E+03 0.  0.
        998    1    1    2    0    0  0.84191170230E+01  0.49988496155E+01  0.13789268569E+04  0.13789978777E+04  0.10000000000E+02 0. -1.
</event>
<event>
 5    1  0.1757379E-008  0.3814357E+03  0.7957747E-01  0.3444931E+00
         13   -1    0    0    0    0  0.00000000000E+00  0.00000000000E+00  0.14999999963E+04  0.15000000000E+04  0.10566000000E+00 0. -1.
        994   -1    0    0    0    0 -0.00000000000E+00 -0.00000000000E+00  0.11368683772E-12  0.17120000000E+03  0.17120000000E+03 0.  0.
         13    1    1    2    0    0 -0.20623297629E+02 -0.14011304768E+02  0.97413688055E+02  0.10055384056E+03  0.10566000000E+00 0. -1.
        994    1    1    2    0    0 -0.32674920195E+01  0.70893617157E+01  0.36129389285E+01  0.17141595282E+03  0.17120000000E+03 0.  0.
        998    1    1    2    0    0  0.23890789649E+02  0.69219430524E+01  0.13989733693E+04  0.13992302066E+04  0.10000000000E+02 0. -1.
</event>
<event>
 5    1  0.1757379E-008  0.3788264E+03  0.7957747E-01  0.3456285E+00
         13   -1    0    0    0    0  0.00000000000E+00  0.00000000000E+00  0.14999999963E+04  0.15000000000E+04  0.10566000000E+00 0.  1.
        994   -1    0    0    0    0 -0.00000000000E+00 -0.00000000000E+00  0.11368683772E-12  0.17120000000E+03  0.17120000000E+03 0.  0.
         13    1    1    2    0    0  0.13543285565E+02  0.39870637457E+02  0.18293471497E+03  0.18771843122E+03  0.10566000000E+00 0.  1.
        994    1    1    2    0    0  0.15733199229E+02 -0.34619049385E+02  0.95948220757E+01  0.17563460009E+03  0.17120000000E+03 0.  0.
        998    1    1    2    0    0 -0.29276484793E+02 -0.52515880721E+01  0.13074704592E+04  0.13078469687E+04  0.10000000000E+02 0.  1.
</event>
<event>
 5    1  0.1757379E-008  0.3793977E+03  0.7957747E-01  0.3453785E+00
         13   -1    0    0    0    0  0.00000000000E+00  0.00000000000E+00  0.14999999963E+04  0.15000000000E+04  0.10566000000E+00 0.  1.
        994   -1    0    0    0    0 -0.00000000000E+00 -0.00000000000E+00  0.11368683772E-12  0.17120000000E+03  0.17120000000E+03 0.  0.
         13    1    1    2    0    0  0.52114890900E+02 -0.29733325747E+02  0.22498208685E+03  0.23284540597E+03  0.10566000000E+00 0.  1.
        994    1    1    2    0    0 -0.11748473515E+03  0.32659114248E+02  0.55971289558E+02  0.21751208240E+03  0.17120000000E+03 0.  0.
        998    1    1    2    0    0  0.65369844251E+02 -0.29257885012E+01  0.12190466199E+04  0.12208425116E+04  0.10000000000E+02 0.  1.
</event>
<event>
 5    1  0.1757379E-008  0.3786880E+03  0.7957747E-01  0.3456891E+00
         13   -1    0    0    0    0  0.00000000000E+00  0.00000000000E+00  0.14999999963E+04  0.15000000000E+04  0.10566000000E+00 0. -1.
        994   -1    0    0    0    0 -0.00000000000E+00 -0.00000000000E+00  0.11368683772E-12  0.17120000000E+03  0.17120000000E+03 0.  0.
         13    1    1    2    0    0 -0.18984331402E+02  0.23831556508E+02  0.97551000483E+02  0.10219861439E+03  0.10566000000E+00 0. -1.
        994    1    1    2    0    0  0.95087518081E+01 -0.93311739603E+01  0.53930245527E+01  0.17180224644E+03  0.17120000000E+03 0.  0.
        998    1    1    2    0    0  0.94755795938E+01 -0.14500382548E+02  0.13970559712E+04  0.13971991392E+04  0.10000000000E+02 0. -1.
</event>
<event>
 5    1  0.1757379E-008  0.3849484E+03  0.7957747E-01  0.3429891E+00
         13   -1    0    0    0    0  0.00000000000E+00  0.00000000000E+00  0.14999999963E+04  0.15000000000E+04  0.10566000000E+00 0.  1.
        994   -1    0    0    0    0 -0.00000000000E+00 -0.00000000000E+00  0.11368683772E-12  0.17120000000E+03  0.17120000000E+03 0.  0.
         13    1    1    2    0    0  0.81696926107E+01 -0.13201433295E+02  0.73732975759E+02  0.75349748485E+02  0.10566000000E+00 0.  1.
        994    1    1    2    0    0 -0.13553514767E+01  0.88550749450E+01  0.19197650676E+01  0.17144496151E+03  0.17120000000E+03 0.  0.
        998    1    1    2    0    0 -0.68143411340E+01  0.43463583496E+01  0.14243472555E+04  0.14244052900E+04  0.10000000000E+02 0.  1.
</event>
<event>
 5    1  0.1757379E-008  0.3800662E+03  0.7957747E-01  0.3450870E+00
         13   -1    0    0    0    0  0.00000000000E+00  0.00000000000E+00  0.14999999963E+04  0.15000000000E+04  0.10566000000E+00 0.  1.
        994   -1    0    0    0    0 -0.00000000000E+00 -0.00000000000E+00  0.11368683772E-12  0.17120000000E+03  0.17120000000E+03 0.  0.
         13    1    1    2    0    0 -0.21927195574E+02 -0.10852639773E+02  0.73389870767E+02  0.77360623001E+02  0.10566000000E+00 0.  1.
        994    1    1    2    0    0  0.96255277150E+01  0.23809631682E+01  0.44284149748E+01  0.17154407780E+03  0.17120000000E+03 0.  0.
        998    1    1    2    0    0  0.12301667859E+02  0.84716766052E+01  0.14221817105E+04  0.14222952992E+04  0.10000000000E+02 0.  1.
</event>
<event>
 5    1  0.1757379E-008  0.3856150E+03  0.7957747E-01  0.3427068E+00
         13   -1    0    0    0    0  0.00000000000E+00  0.00000000000E+00  0.14999999963E+04  0.15000000000E+04  0.10566000000E+00 0.  1.
        994   -1    0    0    0    0 -0.00000000000E+00 -0.00000000000E+00  0.11368683772E-12  0.17120000000E+03  0.17120000000E+03 0.  0.
         13    1    1    2    0    0  0.62613246111E+01  0.10663918845E+02  0.59337593259E+02  0.60612576985E+02  0.10566000000E+00 0.  1.
        994    1    1    2    0    0 -0.45922428318E-01 -0.58060784326E+01  0.14357876684E+01  0.17130444869E+03  0.17120000000E+03 0.  0.
        998    1    1    2    0    0 -0.62154021828E+01 -0.48578404121E+01  0.14392266154E+04  0.14392829743E+04  0.10000000000E+02 0.  1.
</event>
<event>
 5    1  0.1757379E-008  0.3834923E+03  0.7957747E-01  0.3436092E+00
         13   -1    0    0    0    0  0.00000000000E+00  0.00000000000E+00  0.14999999963E+04  0.15000000000E+04  0.10566000000E+00 0. -1.
        994   -1    0    0    0    0 -0.00000000000E+00 -0.00000000000E+00  0.11368683772E-12  0.17120000000E+03  0.17120000000E+03 0.  0.
         13    1    1    2    0    0 -0.89906374443E+01 -0.10060411665E+02  0.39916559982E+02  0.42135333977E+02  0.10566000000E+00 0. -1.
        994    1    1    2    0    0 -0.85934682571E+01  0.70637882735E+00  0.26262731602E+01  0.17143711377E+03  0.17120000000E+03 0.  0.
        998    1    1    2    0    0  0.17584105701E+02  0.93540328375E+01  0.14574571631E+04  0.14576275523E+04  0.10000000000E+02 0. -1.
</event>
<event>
 5    1  0.1757379E-008  0.3840753E+03  0.7957747E-01  0.3433604E+00
         13   -1    0    0    0    0  0.00000000000E+00  0.00000000000E+00  0.14999999963E+04  0.15000000000E+04  0.10566000000E+00 0. -1.
        994   -1    0    0    0    0 -0.00000000000E+00 -0.00000000000E+00  0.11368683772E-12  0.17120000000E+03  0.17120000000E+03 0.  0.
         13    1    1    2    0    0  0.17979241946E+02  0.27361903382E+01  0.87256103769E+02  0.89131244172E+02  0.10566000000E+00 0. -1.
        994    1    1    2    0    0  0.44972416894E+01 -0.44294889572E+01  0.22213975740E+01  0.17133073327E+03  0.17120000000E+03 0.  0.
        998    1    1    2    0    0 -0.22476483636E+02  0.16932986190E+01  0.14105224949E+04  0.14107380226E+04  0.10000000000E+02 0. -1.
</event>
<event>
 5    1  0.1757379E-008  0.3780878E+03  0.7957747E-01  0.3459527E+00
         13   -1    0    0    0    0  0.00000000000E+00  0.00000000000E+00  0.14999999963E+04  0.15000000000E+04  0.10566000000E+00 0.  1.
        994   -1    0    0    0    0 -0.00000000000E+00 -0.00000000000E+00  0.11368683772E-12  0.17120000000E+03  0.17120000000E+03 0.  0.
         13    1    1    2    0    0  0.11141832160E+03  0.77609444023E+02  0.50277307033E+03  0.52078598254E+03  0.10566000000E+00 0.  1.
        994    1    1    2    0    0 -0.10329403974E+03 -0.34248733487E+02  0.59233812226E+02  0.21133082809E+03  0.17120000000E+03 0.  0.
        998    1    1    2    0    0 -0.81242818584E+01 -0.43360710537E+02  0.93799311372E+03  0.93908318937E+03  0.10000000000E+02 0.  1.
</event>
<event>
 5    1  0.1757379E-008  0.3819437E+03  0.7957747E-01  0.3442738E+00
         13   -1    0    0    0    0  0.00000000000E+00  0.00000000000E+00  0.14999999963E+04  0.15000000000E+04  0.10566000000E+00 0. -1.
        994   -1    0    0    0    0 -0.00000000000E+00 -0.00000000000E+00  0.11368683772E-12  0.17120000000E+03  0.17120000000E+03 0.  0.
         13    1    1    2    0    0 -0.23408865646E+02  0.11206838710E+02  0.99561625331E+02  0.10288875851E+03  0.10566000000E+00 0. -1.
        994    1    1    2    0    0  0.21798487212E+02 -0.15581007658E+02  0.55435174250E+01  0.17337275573E+03  0.17120000000E+03 0.  0.
        998    1    1    2    0    0  0.16103784339E+01  0.43741689478E+01  0.13948948535E+04  0.13949384858E+04  0.10000000000E+02 0. -1.
</event>
<event>
 5    1  0.1757379E-008  0.3707295E+03  0.7957747E-01  0.3492545E+00
         13   -1    0    0    0    0  0.00000000000E+00  0.00000000000E+00  0.14999999963E+04  0.15000000000E+04  0.10566000000E+00 0.  1.
        994   -1    0    0    0    0 -0.00000000000E+00 -0.00000000000E+00  0.11368683772E-12  0.17120000000E+03  0.17120000000E+03 0.  0.
         13    1    1    2    0    0 -0.81865544962E+02 -0.10254566800E+02  0.49433363114E+03  0.50117150121E+03  0.10566000000E+00 0.  1.
        994    1    1    2    0    0  0.23642403381E+02 -0.16536806019E+02  0.11764670492E+02  0.17401228883E+03  0.17120000000E+03 0.  0.
        998    1    1    2    0    0  0.58223141581E+02  0.26791372819E+02  0.99390169465E+03  0.99601620996E+03  0.10000000000E+02 0. -1.
</event>
<event>
 5    1  0.1757379E-008  0.3837706E+03  0.7957747E-01  0.3434903E+00
         13   -1    0    0    0    0  0.00000000000E+00  0.00000000000E+00  0.14999999963E+04  0.15000000000E+04  0.10566000000E+00 0. -1.
        994   -1    0    0    0    0 -0.00000000000E+00 -0.00000000000E+00  0.11368683772E-12  0.17120000000E+03  0.17120000000E+03 0.  0.
         13    1    1    2    0    0 -0.70006642507E+01  0.12589796995E+02  0.45055189546E+02  0.47302151720E+02  0.10566000000E+00 0. -1.
        994    1    1    2    0    0  0.72920683340E+01 -0.10562629182E+02  0.27859048795E+01  0.17170307121E+03  0.17120000000E+03 0.  0.
        998    1    1    2    0    0 -0.29140408329E+00 -0.20271678137E+01  0.14521589019E+04  0.14521947771E+04  0.10000000000E+02 0.  0.
</event>
<event>
 5    1  0.1757379E-008  0.3851394E+03  0.7957747E-01  0.3429081E+00
         13   -1    0    0    0    0  0.00000000000E+00  0.00000000000E+00  0.14999999963E+04  0.15000000000E+04  0.10566000000E+00 0. -1.
        994   -1    0    0    0    0 -0.00000000000E+00 -0.00000000000E+00  0.11368683772E-12  0.17120000000E+03  0.17120000000E+03 0.  0.
         13    1    1    2    0    0  0.13524297980E+02 -0.39258089000E+01  0.70940453074E+02  0.72324806655E+02  0.10566000000E+00 0. -1.
        994    1    1    2    0    0  0.10655476255E+02  0.14750188231E+02  0.26500854355E+01  0.17218469787E+03  0.17120000000E+03 0.  0.
        998    1    1    2    0    0 -0.24179774234E+02 -0.10824379331E+02  0.14264094578E+04  0.14266904955E+04  0.10000000000E+02 0. -1.
</event>
<event>
 5    1  0.1757379E-008  0.4062652E+03  0.7957747E-01  0.3344205E+00
         13   -1    0    0    0    0  0.00000000000E+00  0.00000000000E+00  0.14999999963E+04  0.15000000000E+04  0.10566000000E+00 0. -1.
        994   -1    0    0    0    0 -0.00000000000E+00 -0.00000000000E+00  0.11368683772E-12  0.17120000000E+03  0.17120000000E+03 0.  0.
         13    1    1    2    0    0  0.63445199448E+02  0.25994660039E+02  0.64023198077E+02  0.93808297818E+02  0.10566000000E+00 0. -1.
        994    1    1    2    0    0 -0.49575997236E+02 -0.21163594346E+02  0.43343416608E+02  0.18464498095E+03  0.17120000000E+03 0.  0.
        998    1    1    2    0    0 -0.13869202212E+02 -0.48310656922E+01  0.13926333816E+04  0.13927467212E+04  0.10000000000E+02 0. -1.
</event>
<event>
 5    1  0.1757379E-008  0.3852608E+03  0.7957747E-01  0.3428567E+00
         13   -1    0    0    0    0  0.00000000000E+00  0.00000000000E+00  0.14999999963E+04  0.15000000000E+04  0.10566000000E+00 0.  1.
        994   -1    0    0    0    0 -0.00000000000E+00 -0.00000000000E+00  0.11368683772E-12  0.17120000000E+03  0.17120000000E+03 0.  0.
         13    1    1    2    0    0  0.14021272787E+02 -0.23581375866E+00  0.61948100605E+02  0.63515588884E+02  0.10566000000E+00 0.  1.
        994    1    1    2    0    0 -0.18478475358E+02  0.61264479847E+00  0.26247287249E+01  0.17221544236E+03  0.17120000000E+03 0.  0.
        998    1    1    2    0    0  0.44572025710E+01 -0.37683103981E+00  0.14354271669E+04  0.14354689688E+04  0.10000000000E+02 0.  1.
</event>
<event>
 5    1  0.1757379E-008  0.3786839E+03  0.7957747E-01  0.3456909E+00
         13   -1    0    0    0    0  0.00000000000E+00  0.00000000000E+00  0.14999999963E+04  0.15000000000E+04  0.10566000000E+00 0. -1.
        994   -1    0    0    0    0 -0.00000000000E+00 -0.00000000000E+00  0.11368683772E-12  0.17120000000E+03  0.17120000000E+03 0.  0.
         13    1    1    2    0    0 -0.23272440671E+02  0.55470080179E+01  0.58088819741E+02  0.62822750144E+02  0.10566000000E+00 0. -1.
        994    1    1    2    0    0  0.13002399147E+02 -0.68480862617E+01  0.55243840594E+01  0.17191834541E+03  0.17120000000E+03 0.  0.
        998    1    1    2    0    0  0.10270041525E+02  0.13010782437E+01  0.14363867925E+04  0.14364589044E+04  0.10000000000E+02 0. -1.
</event>
<event>
 5    1  0.1757379E-008  0.3736687E+03  0.7957747E-01  0.3479198E+00
         13   -1    0    0    0    0  0.00000000000E+00  0.00000000000E+00  0.14999999963E+04  0.15000000000E+04  0.10566000000E+00 0.  1.
        994   -1    0    0    0    0 -0.00000000000E+00 -0.00000000000E+00  0.11368683772E-12  0.17120000000E+03  0.17120000000E+03 0.  0.
         13    1    1    2    0    0  0.17411440369E+02 -0.14683062304E+02  0.33080860563E+02  0.40163479356E+02  0.10566000000E+00 0.  1.
        994    1    1    2    0    0 -0.10625342804E+02 -0.38526122028E+01  0.78002759214E+01  0.17174989035E+03  0.17120000000E+03 0.  0.
        998    1    1    2    0    0 -0.67860975656E+01  0.18535674507E+02  0.14591188598E+04  0.14592866303E+04  0.10000000000E+02 0.  1.
</event>
<event>
 5    1  0.1757379E-008  0.3813682E+03  0.7957747E-01  0.3445223E+00
         13   -1    0    0    0    0  0.00000000000E+00  0.00000000000E+00  0.14999999963E+04  0.15000000000E+04  0.10566000000E+00 0.  1.
        994   -1    0    0    0    0 -0.00000000000E+00 -0.00000000000E+00  0.11368683772E-12  0.17120000000E+03  0.17120000000E+03 0.  0.
         13    1    1    2    0    0  0.19675141872E+02 -0.26728119888E+02  0.23373774604E+02  0.40593695369E+02  0.10566000000E+00 0.  1.
        994    1    1    2    0    0 -0.23575883073E+01  0.66698894557E+02  0.33487520430E+02  0.18677568038E+03  0.17120000000E+03 0.  0.
        998    1    1    2    0    0 -0.17317553565E+02 -0.39970774669E+02  0.14431387012E+04  0.14438306242E+04  0.10000000000E+02 0.  1.
</event>
<event>
 5    1  0.1757379E-008  0.3822064E+03  0.7957747E-01  0.3441607E+00
         13   -1    0    0    0    0  0.00000000000E+00  0.00000000000E+00  0.14999999963E+04  0.15000000000E+04  0.10566000000E+00 0. -1.
        994   -1    0    0    0    0 -0.00000000000E+00 -0.00000000000E+00  0.11368683772E-12  0.17120000000E+03  0.17120000000E+03 0.  0.
         13    1    1    2    0    0 -0.10560758849E+02  0.21502421836E+02  0.86760753936E+02  0.90007351699E+02  0.10566000000E+00 0. -1.
        994    1    1    2    0    0  0.23901172761E+02 -0.21256137656E+02  0.64262894983E+01  0.17428088433E+03  0.17120000000E+03 0.  0.
        998    1    1    2    0    0 -0.13340413912E+02 -0.24628417969E+00  0.14068129528E+04  0.14069117640E+04  0.10000000000E+02 0. -1.
</event>
<event>
 5    1  0.1757379E-008  0.3845935E+03  0.7957747E-01  0.3431398E+00
         13   -1    0    0    0    0  0.00000000000E+00  0.00000000000E+00  0.14999999963E+04  0.15000000000E+04  0.10566000000E+00 0. -1.
        994   -1    0    0    0    0 -0.00000000000E+00 -0.00000000000E+00  0.11368683772E-12  0.17120000000E+03  0.17120000000E+03 0.  0.
         13    1    1    2    0    0 -0.11023061305E+02  0.45757034421E+01  0.37626727573E+02  0.39474380735E+02  0.10566000000E+00 0. -1.
        994    1    1    2    0    0  0.12041890557E+02 -0.58586476874E+01  0.24228552795E+01  0.17174003933E+03  0.17120000000E+03 0.  0.
        998    1    1    2    0    0 -0.10188292520E+01  0.12829442453E+01  0.14599504134E+04  0.14599855799E+04  0.10000000000E+02 0. -1.
</event>
<event>
 5    1  0.1757379E-008  0.3685100E+03  0.7957747E-01  0.3502767E+00
         13   -1    0    0    0    0  0.00000000000E+00  0.00000000000E+00  0.14999999963E+04  0.15000000000E+04  0.10566000000E+00 0.  1.
        994   -1    0    0    0    0 -0.00000000000E+00 -0.00000000000E+00  0.11368683772E-12  0.17120000000E+03  0.17120000000E+03 0.  0.
         13    1    1    2    0    0  0.55673819618E+02  0.34268239035E+02  0.32543662010E+03  0.33193808348E+03  0.10566000000E+00 0.  1.
        994    1    1    2    0    0  0.17834522178E+02  0.16303492706E+02  0.12081900060E+02  0.17331845362E+03  0.17120000000E+03 0.  0.
        998    1    1    2    0    0 -0.73508341796E+02 -0.50571731741E+02  0.11624814761E+04  0.11659434629E+04  0.10000000000E+02 0.  1.
</event>
<event>
 5    1  0.1757379E-008  0.3800940E+03  0.7957747E-01  0.3450749E+00
         13   -1    0    0    0    0  0.00000000000E+00  0.00000000000E+00  0.14999999963E+04  0.15000000000E+04  0.10566000000E+00 0. -1.
        994   -1    0    0    0    0 -0.00000000000E+00 -0.00000000000E+00  0.11368683772E-12  0.17120000000E+03  0.17120000000E+03 0.  0.
         13    1    1    2    0    0 -0.23695368435E+02  0.12597775548E+01  0.70825891520E+02  0.74695218042E+02  0.10566000000E+00 0. -1.
        994    1    1    2    0    0  0.39549844519E+01  0.70306738715E+00  0.41396258507E+01  0.17129714740E+03  0.17120000000E+03 0.  0.
        998    1    1    2    0    0  0.19740383983E+02 -0.19628449420E+01  0.14250344789E+04  0.14252076346E+04  0.10000000000E+02 0. -1.
</event>
<event>
 5    1  0.1757379E-008  0.3815963E+03  0.7957747E-01  0.3444237E+00
         13   -1    0    0    0    0  0.00000000000E+00  0.00000000000E+00  0.14999999963E+04  0.15000000000E+04  0.10566000000E+00 0.  1.
        994   -1    0    0    0    0 -0.00000000000E+00 -0.00000000000E+00  0.11368683772E-12  0.17120000000E+03  0.17120000000E+03 0.  0.
         13    1    1    2    0    0 -0.10598506214E+01 -0.10080226927E+02  0.13897563198E+02  0.17201386139E+02  0.10566000000E+00 0.  1.
        994    1    1    2    0    0  0.12525343530E+02  0.95948871433E+01  0.41577817291E+01  0.17197579260E+03  0.17120000000E+03 0.  0.
        998    1    1    2    0    0 -0.11465492909E+02  0.48533978352E+00  0.14819446514E+04  0.14820228213E+04  0.10000000000E+02 0.  1.
</event>
<event>
 5    1  0.1757379E-008  0.3833261E+03  0.7957747E-01  0.3436803E+00
         13   -1    0    0    0    0  0.00000000000E+00  0.00000000000E+00  0.14999999963E+04  0.15000000000E+04  0.10566000000E+00 0.  1.
        994   -1    0    0    0    0 -0.00000000000E+00 -0.00000000000E+00  0.11368683772E-12  0.17120000000E+03  0.17120000000E+03 0.  0.
         13    1    1    2    0    0 -0.24708541937E+01 -0.16427033210E+02  0.56720236088E+02  0.59102866990E+02  0.10566000000E+00 0.  1.
        994    1    1    2    0    0 -0.71982625256E+01  0.70636187069E+01  0.27998641138E+01  0.17151964591E+03  0.17120000000E+03 0.  0.
        998    1    1    2    0    0  0.96691167193E+01  0.93634145031E+01  0.14404798961E+04  0.14405774871E+04  0.10000000000E+02 0.  1.
</event>
<event>
 5    1  0.1757379E-008  0.3832876E+03  0.7957747E-01  0.3436967E+00
         13   -1    0    0    0    0  0.00000000000E+00  0.00000000000E+00  0.14999999963E+04  0.15000000000E+04  0.10566000000E+00 0. -1.
        994   -1    0    0    0    0 -0.00000000000E+00 -0.00000000000E+00  0.11368683772E-12  0.17120000000E+03  0.17120000000E+03 0.  0.
         13    1    1    2    0    0  0.75724766182E+02  0.14851049323E+03  0.99702877740E+03  0.10108689336E+04  0.10566000000E+00 0. -1.
        994    1    1    2    0    0 -0.98432861369E+02 -0.15364880308E+03  0.12173728312E+03  0.27825597745E+03  0.17120000000E+03 0.  0.
        998    1    1    2    0    0  0.22708095187E+02  0.51383098515E+01  0.38123393576E+03  0.38207508895E+03  0.10000000000E+02 0.  1.
</event>
<event>
 5    1  0.1757379E-008  0.3835307E+03  0.7957747E-01  0.3435928E+00
         13   -1    0    0    0    0  0.00000000000E+00  0.00000000000E+00  0.14999999963E+04  0.15000000000E+04  0.10566000000E+00 0.  1.
        994   -1    0    0    0    0 -0.00000000000E+00 -0.00000000000E+00  0.11368683772E-12  0.17120000000E+03  0.17120000000E+03 0.  0.
         13    1    1    2    0    0  0.12090137033E+02  0.95391605705E+01  0.47475056453E+02  0.49910511389E+02  0.10566000000E+00 0.  1.
        994    1    1    2    0    0 -0.17933912191E+02 -0.90549373893E+01  0.36962091303E+01  0.17241438182E+03  0.17120000000E+03 0.  0.
        998    1    1    2    0    0  0.58437751576E+01 -0.48422318115E+00  0.14488287307E+04  0.14488751068E+04  0.10000000000E+02 0.  1.
</event>
<event>
 5    1  0.1757379E-008  0.3838483E+03  0.7957747E-01  0.3434571E+00
         13   -1    0    0    0    0  0.00000000000E+00  0.00000000000E+00  0.14999999963E+04  0.15000000000E+04  0.10566000000E+00 0.  1.
        994   -1    0    0    0    0 -0.00000000000E+00 -0.00000000000E+00  0.11368683772E-12  0.17120000000E+03  0.17120000000E+03 0.  0.
         13    1    1    2    0    0  0.83648341494E+01  0.18643432124E+02  0.11667435996E+03  0.11845026572E+03  0.10566000000E+00 0.  1.
        994    1    1    2    0    0  0.12264032841E+02  0.10726027064E+02  0.30797632262E+01  0.17200110203E+03  0.17120000000E+03 0.  0.
        998    1    1    2    0    0 -0.20628866991E+02 -0.29369459187E+02  0.13802458731E+04  0.13807486323E+04  0.10000000000E+02 0.  1.
</event>
<event>
 5    1  0.1757379E-008  0.3847906E+03  0.7957747E-01  0.3430561E+00
         13   -1    0    0    0    0  0.00000000000E+00  0.00000000000E+00  0.14999999963E+04  0.15000000000E+04  0.10566000000E+00 0. -1.
        994   -1    0    0    0    0 -0.00000000000E+00 -0.00000000000E+00  0.11368683772E-12  0.17120000000E+03  0.17120000000E+03 0.  0.
         13    1    1    2    0    0  0.15588683452E+02  0.10587577527E+02  0.10156556395E+03  0.10329897770E+03  0.10566000000E+00 0. -1.
        994    1    1    2    0    0 -0.56186949315E+01 -0.14983487319E+02  0.25773255438E+01  0.17196556990E+03  0.17120000000E+03 0.  0.
        998    1    1    2    0    0 -0.99699885201E+01  0.43959097912E+01  0.13958571068E+04  0.13959354524E+04  0.10000000000E+02 0. -1.
</event>
<event>
 5    1  0.1757379E-008  0.3843749E+03  0.7957747E-01  0.3432328E+00
         13   -1    0    0    0    0  0.00000000000E+00  0.00000000000E+00  0.14999999963E+04  0.15000000000E+04  0.10566000000E+00 0.  1.
        994   -1    0    0    0    0 -0.00000000000E+00 -0.00000000000E+00  0.11368683772E-12  0.17120000000E+03  0.17120000000E+03 0.  0.
         13    1    1    2    0    0  0.55250020568E+01 -0.17127535469E+02  0.90155344037E+02  0.91934081501E+02  0.10566000000E+00 0.  1.
        994    1    1    2    0    0  0.10922857359E+02  0.36747715370E+01  0.23785774030E+01  0.17160393466E+03  0.17120000000E+03 0.  0.
        998    1    1    2    0    0 -0.16447859416E+02  0.13452763932E+02  0.14074660748E+04  0.14076619838E+04  0.10000000000E+02 0.  1.
</event>
<event>
 5    1  0.1757379E-008  0.3695826E+03  0.7957747E-01  0.3497811E+00
         13   -1    0    0    0    0  0.00000000000E+00  0.00000000000E+00  0.14999999963E+04  0.15000000000E+04  0.10566000000E+00 0. -1.
        994   -1    0    0    0    0 -0.00000000000E+00 -0.00000000000E+00  0.11368683772E-12  0.17120000000E+03  0.17120000000E+03 0.  0.
         13    1    1    2    0    0 -0.49697128115E+02  0.51706307802E+02  0.23114764139E+03  0.24201774748E+03  0.10566000000E+00 0. -1.
        994    1    1    2    0    0  0.26221093080E+02 -0.39470150461E+02  0.18598206955E+02  0.17860787161E+03  0.17120000000E+03 0.  0.
        998    1    1    2    0    0  0.23476035035E+02 -0.12236157340E+02  0.12502541479E+04  0.12505743809E+04  0.10000000000E+02 0. -1.
</event>
<event>
 5    1  0.1757379E-008  0.3795200E+03  0.7957747E-01  0.3453251E+00
         13   -1    0    0    0    0  0.00000000000E+00  0.00000000000E+00  0.14999999963E+04  0.15000000000E+04  0.10566000000E+00 0.  1.
        994   -1    0    0    0    0 -0.00000000000E+00 -0.00000000000E+00  0.11368683772E-12  0.17120000000E+03  0.17120000000E+03 0.  0.
         13    1    1    2    0    0  0.49290459008E+02 -0.30051580346E+02  0.30875123207E+03  0.31410186453E+03  0.10566000000E+00 0.  1.
        994    1    1    2    0    0 -0.53731512980E+02  0.19516858529E+02  0.15396376673E+02  0.18114765157E+03  0.17120000000E+03 0.  0.
        998    1    1    2    0    0  0.44410539715E+01  0.10534721816E+02  0.11758523875E+04  0.11759504839E+04  0.10000000000E+02 0.  1.
</event>
<event>
 5    1  0.1757379E-008  0.3798752E+03  0.7957747E-01  0.3451702E+00
         13   -1    0    0    0    0  0.00000000000E+00  0.00000000000E+00  0.14999999963E+04  0.15000000000E+04  0.10566000000E+00 0.  1.
        994   -1    0    0    0    0 -0.00000000000E+00 -0.00000000000E+00  0.11368683772E-12  0.17120000000E+03  0.17120000000E+03 0.  0.
         13    1    1    2    0    0  0.44181076771E+01  0.10989770319E+02  0.14616615511E+02  0.18813594556E+02  0.10566000000E+00 0.  1.
        994    1    1    2    0    0 -0.60483199716E+01 -0.15349180059E+02  0.51069520190E+01  0.17206888290E+03  0.17120000000E+03 0.  0.
        998    1    1    2    0    0  0.16302122945E+01  0.43594097408E+01  0.14802764287E+04  0.14803175225E+04  0.10000000000E+02 0.  1.
</event>
<event>
 5    1  0.1757379E-008  0.3751111E+03  0.7957747E-01  0.3472726E+00
         13   -1    0    0    0    0  0.00000000000E+00  0.00000000000E+00  0.14999999963E+04  0.15000000000E+04  0.10566000000E+00 0. -1.
        994   -1    0    0    0    0 -0.00000000000E+00 -0.00000000000E+00  0.11368683772E-12  0.17120000000E+03  0.17120000000E+03 0.  0.
         13    1    1    2    0    0  0.51733341451E+01 -0.97425276370E+01  0.61028710987E+01  0.12606999271E+02  0.10566000000E+00 0. -1.
        994    1    1    2    0    0 -0.73204981480E+01  0.88450092612E+01  0.70697253538E+01  0.17173015140E+03  0.17120000000E+03 0.  0.
        998    1    1    2    0    0  0.21471640029E+01  0.89751837575E+00  0.14868273998E+04  0.14868628493E+04  0.10000000000E+02 0. -1.
</event>
<event>
 5    1  0.1757379E-008  0.3695163E+03  0.7957747E-01  0.3498117E+00
         13   -1    0    0    0    0  0.00000000000E+00  0.00000000000E+00  0.14999999963E+04  0.15000000000E+04  0.10566000000E+00 0.  1.
        994   -1    0    0    0    0 -0.00000000000E+00 -0.00000000000E+00  0.11368683772E-12  0.17120000000E+03  0.17120000000E+03 0.  0.
         13    1    1    2    0    0 -0.48275669307E+02  0.28179190859E+02  0.18222898007E+03  0.19060959940E+03  0.10566000000E+00 0.  1.
        994    1    1    2    0    0 -0.95558873950E+00 -0.18603095624E+02  0.10724790973E+02  0.17254405078E+03  0.17120000000E+03 0.  0.
        998    1    1    2    0    0  0.49231258046E+02 -0.95760952348E+01  0.13070462252E+04  0.13080463498E+04  0.10000000000E+02 0.  1.
</event>
<event>
 5    1  0.1757379E-008  0.3840060E+03  0.7957747E-01  0.3433899E+00
         13   -1    0    0    0    0  0.00000000000E+00  0.00000000000E+00  0.14999999963E+04  0.15000000000E+04  0.10566000000E+00 0.  1.
        994   -1    0    0    0    0 -0.00000000000E+00 -0.00000000000E+00  0.11368683772E-12  0.17120000000E+03  0.17120000000E+03 0.  0.
         13    1    1    2    0    0 -0.90705065912E+01 -0.17268645258E+02  0.86371373374E+02  0.88546628967E+02  0.10566000000E+00 0.  1.
        994    1    1    2    0    0  0.10750068095E+02  0.13900943029E+02  0.31439417313E+01  0.17212822125E+03  0.17120000000E+03 0.  0.
        998    1    1    2    0    0 -0.16795615034E+01  0.33677022296E+01  0.14104846812E+04  0.14105251498E+04  0.10000000000E+02 0.  0.
</event>
<event>
 5    1  0.1757379E-008  0.3732055E+03  0.7957747E-01  0.3481287E+00
         13   -1    0    0    0    0  0.00000000000E+00  0.00000000000E+00  0.14999999963E+04  0.15000000000E+04  0.10566000000E+00 0.  1.
        994   -1    0    0    0    0 -0.00000000000E+00 -0.00000000000E+00  0.11368683772E-12  0.17120000000E+03  0.17120000000E+03 0.  0.
         13    1    1    2    0    0  0.16679601871E+02  0.70454796593E+01  0.18131691364E+02  0.25624544834E+02  0.10566000000E+00 0.  1.
        994    1    1    2    0    0 -0.15002950062E+02 -0.64500482007E+01  0.85156892659E+01  0.17218782941E+03  0.17120000000E+03 0.  0.
        998    1    1    2    0    0 -0.16766518085E+01 -0.59543145859E+00  0.14733526156E+04  0.14733876258E+04  0.10000000000E+02 0.  1.
</event>
<event>
 5    1  0.1757379E-008  0.3784613E+03  0.7957747E-01  0.3457886E+00
         13   -1    0    0    0    0  0.00000000000E+00  0.00000000000E+00  0.14999999963E+04  0.15000000000E+04  0.10566000000E+00 0.  1.
        994   -1    0    0    0    0 -0.00000000000E+00 -0.00000000000E+00  0.11368683772E-12  0.17120000000E+03  0.17120000000E+03 0.  0.
         13    1    1    2    0    0  0.28460620617E+02  0.88990784802E+01  0.97264692237E+02  0.10173314132E+03  0.10566000000E+00 0.  1.
        994    1    1    2    0    0  0.50128512857E+01 -0.13475012223E+02  0.56067434696E+01  0.17189409590E+03  0.17120000000E+03 0.  0.
        998    1    1    2    0    0 -0.33473471903E+02  0.45759337432E+01  0.13971285606E+04  0.13975727628E+04  0.10000000000E+02 0.  1.
</event>
<event>
 5    1  0.1757379E-008  0.3744225E+03  0.7957747E-01  0.3475810E+00
         13   -1    0    0    0    0  0.00000000000E+00  0.00000000000E+00  0.14999999963E+04  0.15000000000E+04  0.10566000000E+00 0. -1.
        994   -1    0    0    0    0 -0.00000000000E+00 -0.00000000000E+00  0.11368683772E-12  0.17120000000E+03  0.17120000000E+03 0.  0.
         13    1    1    2    0    0  0.15475610730E+02 -0.18812235725E+02  0.41720169128E+02  0.48311265938E+02  0.10566000000E+00 0. -1.
        994    1    1    2    0    0 -0.86844793718E+01 -0.74606801175E+01  0.74221642179E+01  0.17174286143E+03  0.17120000000E+03 0.  0.
        998    1    1    2    0    0 -0.67911313582E+01  0.26272915842E+02  0.14508576629E+04  0.14511458726E+04  0.10000000000E+02 0. -1.
</event>
<event>
 5    1  0.1757379E-008  0.3837077E+03  0.7957747E-01  0.3435171E+00
         13   -1    0    0    0    0  0.00000000000E+00  0.00000000000E+00  0.14999999963E+04  0.15000000000E+04  0.10566000000E+00 0.  1.
        994   -1    0    0    0    0 -0.00000000000E+00 -0.00000000000E+00  0.11368683772E-12  0.17120000000E+03  0.17120000000E+03 0.  0.
         13    1    1    2    0    0  0.12807603815E+02  0.10401839950E+01  0.36241267482E+02  0.38452013354E+02  0.10566000000E+00 0.  1.
        994    1    1    2    0    0 -0.66685828116E+01  0.18861458719E+02  0.35959284812E+01  0.17240242261E+03  0.17120000000E+03 0.  0.
        998    1    1    2    0    0 -0.61390210035E+01 -0.19901642714E+02  0.14601628003E+04  0.14603455640E+04  0.10000000000E+02 0.  1.
</event>
<event>
 5    1  0.1757379E-008  0.3838738E+03  0.7957747E-01  0.3434462E+00
         13   -1    0    0    0    0  0.00000000000E+00  0.00000000000E+00  0.14999999963E+04  0.15000000000E+04  0.10566000000E+00 0. -1.
        994   -1    0    0    0    0 -0.00000000000E+00 -0.00000000000E+00  0.11368683772E-12  0.17120000000E+03  0.17120000000E+03 0.  0.
         13    1    1    2    0    0 -0.13743299246E+02 -0.15347035193E+02  0.10801667715E+03  0.10996373706E+03  0.10566000000E+00 0. -1.
        994    1    1    2    0    0 -0.61332042031E+01  0.18998758949E+01  0.23263792492E+01  0.17133615428E+03  0.17120000000E+03 0.  0.
        998    1    1    2    0    0  0.19876503449E+02  0.13447159298E+02  0.13896569399E+04  0.13899001087E+04  0.10000000000E+02 0. -1.
</event>
<event>
 5    1  0.1757379E-008  0.3824728E+03  0.7957747E-01  0.3440462E+00
         13   -1    0    0    0    0  0.00000000000E+00  0.00000000000E+00  0.14999999963E+04  0.15000000000E+04  0.10566000000E+00 0. -1.
        994   -1    0    0    0    0 -0.00000000000E+00 -0.00000000000E+00  0.11368683772E-12  0.17120000000E+03  0.17120000000E+03 0.  0.
         13    1    1    2    0    0 -0.23725776320E+01  0.10044514142E+02  0.17324120121E+02  0.20165755403E+02  0.10566000000E+00 0. -1.
        994    1    1    2    0    0  0.36553788852E+01 -0.58591557318E+01  0.30482411524E+01  0.17136634230E+03  0.17120000000E+03 0.  0.
        998    1    1    2    0    0 -0.12828012532E+01 -0.41853584100E+01  0.14796276350E+04  0.14796679023E+04  0.10000000000E+02 0. -1.
</event>
<event>
 5    1  0.1757379E-008  0.3692169E+03  0.7957747E-01  0.3499497E+00
         13   -1    0    0    0    0  0.00000000000E+00  0.00000000000E+00  0.14999999963E+04  0.15000000000E+04  0.10566000000E+00 0. -1.
        994   -1    0    0    0    0 -0.00000000000E+00 -0.00000000000E+00  0.11368683772E-12  0.17120000000E+03  0.17120000000E+03 0.  0.
         13    1    1    2    0    0  0.17153246681E+03  0.13407527616E+03  0.12003196705E+04  0.12199044592E+04  0.10566000000E+00 0. -1.
        994    1    1    2    0    0 -0.16459634897E+03 -0.10958379649E+03  0.15495382825E+03  0.30400772266E+03  0.17120000000E+03 0.  0.
        998    1    1    2    0    0 -0.69361178403E+01 -0.24491479676E+02  0.14472649750E+03  0.14728781818E+03  0.10000000000E+02 0.  1.
</event>
<event>
 5    1  0.1757379E-008  0.3824538E+03  0.7957747E-01  0.3440543E+00
         13   -1    0    0    0    0  0.00000000000E+00  0.00000000000E+00  0.14999999963E+04  0.15000000000E+04  0.10566000000E+00 0.  1.
        994   -1    0    0    0    0 -0.00000000000E+00 -0.00000000000E+00  0.11368683772E-12  0.17120000000E+03  0.17120000000E+03 0.  0.
         13    1    1    2    0    0 -0.22176534317E+02 -0.11315469888E+01  0.76596566838E+02  0.79750387386E+02  0.10566000000E+00 0.  1.
        994    1    1    2    0    0  0.31552101978E+02  0.96576240782E+01  0.65185111087E+01  0.17447273664E+03  0.17120000000E+03 0.  0.
        998    1    1    2    0    0 -0.93755676616E+01 -0.85260770895E+01  0.14168849183E+04  0.14169768760E+04  0.10000000000E+02 0.  1.
</event>
<event>
 5    1  0.1757379E-008  0.3781141E+03  0.7957747E-01  0.3459411E+00
         13   -1    0    0    0    0  0.00000000000E+00  0.00000000000E+00  0.14999999963E+04  0.15000000000E+04  0.10566000000E+00 0. -1.
        994   -1    0    0    0    0 -0.00000000000E+00 -0.00000000000E+00  0.11368683772E-12  0.17120000000E+03  0.17120000000E+03 0.  0.
         13    1    1    2    0    0 -0.14089429262E+02  0.45894701372E+01  0.19788290083E+02  0.24721707900E+02  0.10566000000E+00 0. -1.
        994    1    1    2    0    0  0.50687479478E+01  0.63077016828E+01  0.53084723735E+01  0.17147331916E+03  0.17120000000E+03 0.  0.
        998    1    1    2    0    0  0.90206813139E+01 -0.10897171820E+02  0.14749032338E+04  0.14750049729E+04  0.10000000000E+02 0. -1.
</event>
<event>
 5    1  0.1757379E-008  0.3783972E+03  0.7957747E-01  0.3458167E+00
         13   -1    0    0    0    0  0.00000000000E+00  0.00000000000E+00  0.14999999963E+04  0.15000000000E+04  0.10566000000E+00 0. -1.
        994   -1    0    0    0    0 -0.00000000000E+00 -0.00000000000E+00  0.11368683772E-12  0.17120000000E+03  0.17120000000E+03 0.  0.
         13    1    1    2    0    0  0.15542196679E+02  0.52513183282E+01  0.25305230910E+02  0.30157952471E+02  0.10566000000E+00 0. -1.
        994    1    1    2    0    0 -0.85178722568E+01 -0.41512244827E+01  0.52462116312E+01  0.17154226753E+03  0.17120000000E+03 0.  0.
        998    1    1    2    0    0 -0.70243244219E+01 -0.11000938455E+01  0.14694485537E+04  0.14694997800E+04  0.10000000000E+02 0. -1.
</event>
<event>
 5    1  0.1757379E-008  0.3797506E+03  0.7957747E-01  0.3452245E+00
         13   -1    0    0    0    0  0.00000000000E+00  0.00000000000E+00  0.14999999963E+04  0.15000000000E+04  0.10566000000E+00 0.  1.
        994   -1    0    0    0    0 -0.00000000000E+00 -0.00000000000E+00  0.11368683772E-12  0.17120000000E+03  0.17120000000E+03 0.  0.
         13    1    1    2    0    0  0.20124518181E+02  0.35118225128E+02  0.19692339030E+03  0.20104009247E+03  0.10566000000E+00 0.  1.
        994    1    1    2    0    0 -0.11746590610E+02 -0.15295165674E+02  0.55043925047E+01  0.17237071335E+03  0.17120000000E+03 0.  0.
        998    1    1    2    0    0 -0.83779275707E+01 -0.19823059453E+02  0.12975722135E+04  0.12977891942E+04  0.10000000000E+02 0.  1.
</event>
<event>
 5    1  0.1757379E-008  0.3743207E+03  0.7957747E-01  0.3476266E+00
         13   -1    0    0    0    0  0.00000000000E+00  0.00000000000E+00  0.14999999963E+04  0.15000000000E+04  0.10566000000E+00 0. -1.
        994   -1    0    0    0    0 -0.00000000000E+00 -0.00000000000E+00  0.11368683772E-12  0.17120000000E+03  0.17120000000E+03 0.  0.
         13    1    1    2    0    0 -0.10446218733E+02 -0.16515804443E+02  0.23708778514E+02  0.30724788443E+02  0.10566000000E+00 0. -1.
        994    1    1    2    0    0  0.11524450424E+02  0.18678206359E+02  0.86707862558E+01  0.17281872261E+03  0.17120000000E+03 0.  0.
        998    1    1    2    0    0 -0.10782316916E+01 -0.21624019161E+01  0.14676204315E+04  0.14676564889E+04  0.10000000000E+02 0. -1.
</event>
<event>
 5    1  0.1757379E-008  0.3764908E+03  0.7957747E-01  0.3466582E+00
         13   -1    0    0    0    0  0.00000000000E+00  0.00000000000E+00  0.14999999963E+04  0.15000000000E+04  0.10566000000E+00 0.  1.
        994   -1    0    0    0    0 -0.00000000000E+00 -0.00000000000E+00  0.11368683772E-12  0.17120000000E+03  0.17120000000E+03 0.  0.
         13    1    1    2    0    0  0.28776500736E+02 -0.42083044496E+02  0.19199369027E+03  0.19864706868E+03  0.10566000000E+00 0.  1.
        994    1    1    2    0    0 -0.30739123970E+02  0.39845059505E+02  0.14529133605E+02  0.17903367905E+03  0.17120000000E+03 0.  0.
        998    1    1    2    0    0  0.19626232341E+01  0.22379849906E+01  0.12934771724E+04  0.12935192523E+04  0.10000000000E+02 0.  1.
</event>
<event>
 5    1  0.1757379E-008  0.3804727E+03  0.7957747E-01  0.3449103E+00
         13   -1    0    0    0    0  0.00000000000E+00  0.00000000000E+00  0.14999999963E+04  0.15000000000E+04  0.10566000000E+00 0.  1.
        994   -1    0    0    0    0 -0.00000000000E+00 -0.00000000000E+00  0.11368683772E-12  0.17120000000E+03  0.17120000000E+03 0.  0.
         13    1    1    2    0    0 -0.23988183475E+02  0.29845152240E+01  0.74466991891E+02  0.78292300534E+02  0.10566000000E+00 0.  1.
        994    1    1    2    0    0  0.12567606756E+02 -0.24398427328E+01  0.44419424553E+01  0.17173546059E+03  0.17120000000E+03 0.  0.
        998    1    1    2    0    0  0.11420576719E+02 -0.54467249116E+00  0.14210910619E+04  0.14211722389E+04  0.10000000000E+02 0.  1.
</event>
<event>
 5    1  0.1757379E-008  0.3781435E+03  0.7957747E-01  0.3459282E+00
         13   -1    0    0    0    0  0.00000000000E+00  0.00000000000E+00  0.14999999963E+04  0.15000000000E+04  0.10566000000E+00 0. -1.
        994   -1    0    0    0    0 -0.00000000000E+00 -0.00000000000E+00  0.11368683772E-12  0.17120000000E+03  0.17120000000E+03 0.  0.
         13    1    1    2    0    0  0.11287068623E+02 -0.23902712573E+02  0.65786963152E+02  0.70899035757E+02  0.10566000000E+00 0. -1.
        994    1    1    2    0    0 -0.11605567729E+02  0.18184431848E+02  0.66400595968E+01  0.17268147890E+03  0.17120000000E+03 0.  0.
        998    1    1    2    0    0  0.31849910564E+00  0.57182807247E+01  0.14275729735E+04  0.14276194853E+04  0.10000000000E+02 0. -1.
</event>
<event>
 5    1  0.1757379E-008  0.4240582E+03  0.7957747E-01  0.3279224E+00
         13   -1    0    0    0    0  0.00000000000E+00  0.00000000000E+00  0.14999999963E+04  0.15000000000E+04  0.10566000000E+00 0.  1.
        994   -1    0    0    0    0 -0.00000000000E+00 -0.00000000000E+00  0.11368683772E-12  0.17120000000E+03  0.17120000000E+03 0.  0.
         13    1    1    2    0    0 -0.10379686944E+03 -0.93439673383E+01  0.14530917588E+03  0.17881797334E+03  0.10566000000E+00 0.  1.
        994    1    1    2    0    0 -0.15187636327E+02  0.95697354802E+02  0.85214515966E+02  0.21438190629E+03  0.17120000000E+03 0.  0.
        998    1    1    2    0    0  0.11898450577E+03 -0.86353387464E+02  0.12694763044E+04  0.12780001204E+04  0.10000000000E+02 0.  1.
</event>
<event>
 5    1  0.1757379E-008  0.3849706E+03  0.7957747E-01  0.3429797E+00
         13   -1    0    0    0    0  0.00000000000E+00  0.00000000000E+00  0.14999999963E+04  0.15000000000E+04  0.10566000000E+00 0. -1.
        994   -1    0    0    0    0 -0.00000000000E+00 -0.00000000000E+00  0.11368683772E-12  0.17120000000E+03  0.17120000000E+03 0.  0.
         13    1    1    2    0    0 -0.84118611368E+01 -0.90292724591E+01  0.46379134382E+02  0.47992941554E+02  0.10566000000E+00 0. -1.
        994    1    1    2    0    0  0.15525611728E+00  0.10248585444E+02  0.19903406793E+01  0.17151810127E+03  0.17120000000E+03 0.  0.
        998    1    1    2    0    0  0.82566050195E+01 -0.12193129847E+01  0.14516305212E+04  0.14516889572E+04  0.10000000000E+02 0. -1.
</event>
<event>
 5    1  0.1757379E-008  0.3860241E+03  0.7957747E-01  0.3425341E+00
         13   -1    0    0    0    0  0.00000000000E+00  0.00000000000E+00  0.14999999963E+04  0.15000000000E+04  0.10566000000E+00 0. -1.
        994   -1    0    0    0    0 -0.00000000000E+00 -0.00000000000E+00  0.11368683772E-12  0.17120000000E+03  0.17120000000E+03 0.  0.
         13    1    1    2    0    0 -0.27110378156E+02  0.24255859636E+02  0.23846109362E+02  0.43496751903E+02  0.10566000000E+00 0. -1.
        994    1    1    2    0    0 -0.64558392126E+02 -0.12130203471E+03  0.93539726801E+02  0.23862332264E+03  0.17120000000E+03 0.  0.
        998    1    1    2    0    0  0.91668770282E+02  0.97046175079E+02  0.13826141601E+04  0.13890799255E+04  0.10000000000E+02 0. -1.
</event>
<event>
 5    1  0.1757379E-008  0.3819381E+03  0.7957747E-01  0.3442763E+00
         13   -1    0    0    0    0  0.00000000000E+00  0.00000000000E+00  0.14999999963E+04  0.15000000000E+04  0.10566000000E+00 0.  1.
        994   -1    0    0    0    0 -0.00000000000E+00 -0.00000000000E+00  0.11368683772E-12  0.17120000000E+03  0.17120000000E+03 0.  0.
         13    1    1    2    0    0  0.37938059554E+00 -0.34460461649E+02  0.19832476042E+03  0.20129676874E+03  0.10566000000E+00 0.  1.
        994    1    1    2    0    0 -0.63676211022E+01  0.13061669789E+02  0.38596680632E+01  0.17185892719E+03  0.17120000000E+03 0.  0.
        998    1    1    2    0    0  0.59882405067E+01  0.21398791860E+02  0.12978155678E+04  0.12980443041E+04  0.10000000000E+02 0.  1.
</event>
<event>
 5    1  0.1757379E-008  0.3862960E+03  0.7957747E-01  0.3424194E+00
         13   -1    0    0    0    0  0.00000000000E+00  0.00000000000E+00  0.14999999963E+04  0.15000000000E+04  0.10566000000E+00 0. -1.
        994   -1    0    0    0    0 -0.00000000000E+00 -0.00000000000E+00  0.11368683772E-12  0.17120000000E+03  0.17120000000E+03 0.  0.
         13    1    1    2    0    0 -0.96097323752E+01  0.10900374697E+02  0.85826403687E+02  0.87047962978E+02  0.10566000000E+00 0. -1.
        994    1    1    2    0    0  0.22689568536E+02 -0.27909327591E+02  0.52364301808E+01  0.17501602009E+03  0.17120000000E+03 0.  0.
        998    1    1    2    0    0 -0.13079836160E+02  0.17008952894E+02  0.14089371624E+04  0.14091360169E+04  0.10000000000E+02 0. -1.
</event>
<event>
 5    1  0.1757379E-008  0.3768344E+03  0.7957747E-01  0.3465059E+00
         13   -1    0    0    0    0  0.00000000000E+00  0.00000000000E+00  0.14999999963E+04  0.15000000000E+04  0.10566000000E+00 0. -1.
        994   -1    0    0    0    0 -0.00000000000E+00 -0.00000000000E+00  0.11368683772E-12  0.17120000000E+03  0.17120000000E+03 0.  0.
         13    1    1    2    0    0  0.78398282846E+01  0.35548176980E+02  0.11531421278E+03  0.12092359003E+03  0.10566000000E+00 0. -1.
        994    1    1    2    0    0  0.94724855975E+01 -0.21154417458E+02  0.75568066144E+01  0.17292710224E+03  0.17120000000E+03 0.  0.
        998    1    1    2    0    0 -0.17312313882E+02 -0.14393759522E+02  0.13771289769E+04  0.13773493077E+04  0.10000000000E+02 0. -1.
</event>
<event>
 5    1  0.1757379E-008  0.3837947E+03  0.7957747E-01  0.3434800E+00
         13   -1    0    0    0    0  0.00000000000E+00  0.00000000000E+00  0.14999999963E+04  0.15000000000E+04  0.10566000000E+00 0.  1.
        994   -1    0    0    0    0 -0.00000000000E+00 -0.00000000000E+00  0.11368683772E-12  0.17120000000E+03  0.17120000000E+03 0.  0.
         13    1    1    2    0    0  0.12805366110E+02  0.21977138874E+01  0.38190867738E+02  0.40340561352E+02  0.10566000000E+00 0.  1.
        994    1    1    2    0    0 -0.12268116219E+01 -0.10836365899E+02  0.26225010302E+01  0.17156704055E+03  0.17120000000E+03 0.  0.
        998    1    1    2    0    0 -0.11578554488E+02  0.86386520111E+01  0.14591866275E+04  0.14592923981E+04  0.10000000000E+02 0.  1.
</event>
<event>
 5    1  0.1757379E-008  0.3868838E+03  0.7957747E-01  0.3421722E+00
         13   -1    0    0    0    0  0.00000000000E+00  0.00000000000E+00  0.14999999963E+04  0.15000000000E+04  0.10566000000E+00 0.  1.
        994   -1    0    0    0    0 -0.00000000000E+00 -0.00000000000E+00  0.11368683772E-12  0.17120000000E+03  0.17120000000E+03 0.  0.
         13    1    1    2    0    0  0.47496279345E+02 -0.21208836833E+01  0.47913571716E+02  0.67499009014E+02  0.10566000000E+00 0.  1.
        994    1    1    2    0    0 -0.37140900184E+02  0.49188885175E+02  0.34424633015E+02  0.18518501087E+03  0.17120000000E+03 0.  0.
        998    1    1    2    0    0 -0.10355379162E+02 -0.47068001492E+02  0.14176617915E+04  0.14185159801E+04  0.10000000000E+02 0.  1.
</event>
<event>
 5    1  0.1757379E-008  0.3859162E+03  0.7957747E-01  0.3425796E+00
         13   -1    0    0    0    0  0.00000000000E+00  0.00000000000E+00  0.14999999963E+04  0.15000000000E+04  0.10566000000E+00 0.  1.
        994   -1    0    0    0    0 -0.00000000000E+00 -0.00000000000E+00  0.11368683772E-12  0.17120000000E+03  0.17120000000E+03 0.  0.
         13    1    1    2    0    0  0.77719536790E+01  0.10972229078E+02  0.78188871516E+02  0.79336648958E+02  0.10566000000E+00 0.  1.
        994    1    1    2    0    0 -0.30186234058E+01 -0.76768239786E+01  0.13990765615E+01  0.17140432646E+03  0.17120000000E+03 0.  0.
        998    1    1    2    0    0 -0.47533302732E+01 -0.32954050999E+01  0.14204120482E+04  0.14204590246E+04  0.10000000000E+02 0.  1.
</event>
<event>
 5    1  0.1757379E-008  0.3859190E+03  0.7957747E-01  0.3425784E+00
         13   -1    0    0    0    0  0.00000000000E+00  0.00000000000E+00  0.14999999963E+04  0.15000000000E+04  0.10566000000E+00 0. -1.
        994   -1    0    0    0    0 -0.00000000000E+00 -0.00000000000E+00  0.11368683772E-12  0.17120000000E+03  0.17120000000E+03 0.  0.
         13    1    1    2    0    0  0.12883961705E+02  0.46260005880E+01  0.76772186576E+02  0.77983178611E+02  0.10566000000E+00 0. -1.
        994    1    1    2    0    0 -0.13729061472E+02 -0.63652119912E+01  0.19257871569E+01  0.17187830494E+03  0.17120000000E+03 0.  0.
        998    1    1    2    0    0  0.84509976791E+00  0.17392114032E+01  0.14213020225E+04  0.14213385164E+04  0.10000000000E+02 0. -1.
</event>
<event>
 5    1  0.1757379E-008  0.3829121E+03  0.7957747E-01  0.3438576E+00
         13   -1    0    0    0    0  0.00000000000E+00  0.00000000000E+00  0.14999999963E+04  0.15000000000E+04  0.10566000000E+00 0. -1.
        994   -1    0    0    0    0 -0.00000000000E+00 -0.00000000000E+00  0.11368683772E-12  0.17120000000E+03  0.17120000000E+03 0.  0.
         13    1    1    2    0    0  0.32584314357E+02 -0.53428488064E+01  0.16880309505E+03  0.17200226637E+03  0.10566000000E+00 0. -1.
        994    1    1    2    0    0 -0.38310272768E+02  0.52404128963E+02  0.16750152816E+02  0.18385830781E+03  0.17120000000E+03 0.  0.
        998    1    1    2    0    0  0.57259584114E+01 -0.47061280156E+02  0.13144467484E+04  0.13153394258E+04  0.10000000000E+02 0. -1.
</event>
<event>
 5    1  0.1757379E-008  0.3783866E+03  0.7957747E-01  0.3458214E+00
         13   -1    0    0    0    0  0.00000000000E+00  0.00000000000E+00  0.14999999963E+04  0.15000000000E+04  0.10566000000E+00 0.  1.
        994   -1    0    0    0    0 -0.00000000000E+00 -0.00000000000E+00  0.11368683772E-12  0.17120000000E+03  0.17120000000E+03 0.  0.
         13    1    1    2    0    0 -0.61101798448E+02 -0.31320311244E+01  0.29903449566E+03  0.30522922559E+03  0.10566000000E+00 0.  1.
        994    1    1    2    0    0  0.62464468138E+02  0.36289269328E+01  0.18222126663E+02  0.18318423729E+03  0.17120000000E+03 0.  0.
        998    1    1    2    0    0 -0.13626696892E+01 -0.49689580847E+00  0.11827433740E+04  0.11827865371E+04  0.10000000000E+02 0.  0.
</event>
<event>
 5    1  0.1757379E-008  0.3800134E+03  0.7957747E-01  0.3451100E+00
         13   -1    0    0    0    0  0.00000000000E+00  0.00000000000E+00  0.14999999963E+04  0.15000000000E+04  0.10566000000E+00 0.  1.
        994   -1    0    0    0    0 -0.00000000000E+00 -0.00000000000E+00  0.11368683772E-12  0.17120000000E+03  0.17120000000E+03 0.  0.
         13    1    1    2    0    0 -0.64456334968E+01 -0.47081475860E+02  0.28138822797E+03  0.28537266436E+03  0.10566000000E+00 0.  1.
        994    1    1    2    0    0  0.25547018773E+02  0.21143677825E+02  0.78111648950E+01  0.17455703818E+03  0.17120000000E+03 0.  0.
        998    1    1    2    0    0 -0.19101385277E+02  0.25937798035E+02  0.12108006034E+04  0.12112702975E+04  0.10000000000E+02 0.  1.
</event>
<event>
 5    1  0.1757379E-008  0.3727889E+03  0.7957747E-01  0.3483171E+00
         13   -1    0    0    0    0  0.00000000000E+00  0.00000000000E+00  0.14999999963E+04  0.15000000000E+04  0.10566000000E+00 0.  1.
        994   -1    0    0    0    0 -0.00000000000E+00 -0.00000000000E+00  0.11368683772E-12  0.17120000000E+03  0.17120000000E+03 0.  0.
         13    1    1    2    0    0 -0.52064379394E+02 -0.32153384142E+02  0.14133911555E+03  0.15401719535E+03  0.10566000000E+00 0.  1.
        994    1    1    2    0    0  0.50729898940E+02  0.81327590508E+01  0.21799465412E+02  0.18006754596E+03  0.17120000000E+03 0.  0.
        998    1    1    2    0    0  0.13344804538E+01  0.24020625091E+02  0.13368614153E+04  0.13371152587E+04  0.10000000000E+02 0.  1.
</event>
<event>
 5    1  0.1757379E-008  0.3816347E+03  0.7957747E-01  0.3444071E+00
         13   -1    0    0    0    0  0.00000000000E+00  0.00000000000E+00  0.14999999963E+04  0.15000000000E+04  0.10566000000E+00 0.  1.
        994   -1    0    0    0    0 -0.00000000000E+00 -0.00000000000E+00  0.11368683772E-12  0.17120000000E+03  0.17120000000E+03 0.  0.
         13    1    1    2    0    0  0.12938766193E+02  0.15082763650E+02  0.60457634382E+02  0.63639910033E+02  0.10566000000E+00 0.  1.
        994    1    1    2    0    0 -0.29439525464E+01 -0.47650309073E+01  0.34145572084E+01  0.17132563024E+03  0.17120000000E+03 0.  0.
        998    1    1    2    0    0 -0.99948136467E+01 -0.10317732742E+02  0.14361278047E+04  0.14362344597E+04  0.10000000000E+02 0.  1.
</event>
<event>
 5    1  0.1757379E-008  0.3798913E+03  0.7957747E-01  0.3451632E+00
         13   -1    0    0    0    0  0.00000000000E+00  0.00000000000E+00  0.14999999963E+04  0.15000000000E+04  0.10566000000E+00 0. -1.
        994   -1    0    0    0    0 -0.00000000000E+00 -0.00000000000E+00  0.11368683772E-12  0.17120000000E+03  0.17120000000E+03 0.  0.
         13    1    1    2    0    0  0.14119251218E+02  0.19135658594E+02  0.73908122977E+02  0.77639864057E+02  0.10566000000E+00 0. -1.
        994    1    1    2    0    0  0.49648526904E+02 -0.26264210840E+02  0.14811073678E+02  0.18078604177E+03  0.17120000000E+03 0.  0.
        998    1    1    2    0    0 -0.63767778123E+02  0.71285522462E+01  0.14112807996E+04  0.14127740942E+04  0.10000000000E+02 0. -1.
</event>
<event>
 5    1  0.1757379E-008  0.3712241E+03  0.7957747E-01  0.3490284E+00
         13   -1    0    0    0    0  0.00000000000E+00  0.00000000000E+00  0.14999999963E+04  0.15000000000E+04  0.10566000000E+00 0.  1.
        994   -1    0    0    0    0 -0.00000000000E+00 -0.00000000000E+00  0.11368683772E-12  0.17120000000E+03  0.17120000000E+03 0.  0.
         13    1    1    2    0    0 -0.56531931655E+01  0.10750039403E+02  0.95034628900E+00  0.12183442134E+02  0.10566000000E+00 0.  1.
        994    1    1    2    0    0  0.56741992015E+01 -0.13020675927E+02  0.12296122773E+02  0.17222766669E+03  0.17120000000E+03 0.  0.
        998    1    1    2    0    0 -0.21006035940E-01  0.22706365238E+01  0.14867535272E+04  0.14867888912E+04  0.10000000000E+02 0.  1.
</event>
<event>
 5    1  0.1757379E-008  0.3772635E+03  0.7957747E-01  0.3463161E+00
         13   -1    0    0    0    0  0.00000000000E+00  0.00000000000E+00  0.14999999963E+04  0.15000000000E+04  0.10566000000E+00 0.  1.
        994   -1    0    0    0    0 -0.00000000000E+00 -0.00000000000E+00  0.11368683772E-12  0.17120000000E+03  0.17120000000E+03 0.  0.
         13    1    1    2    0    0 -0.85052317749E+01 -0.73385469192E+01 -0.26887055064E+01  0.11551343635E+02  0.10566000000E+00 0.  1.
        994    1    1    2    0    0  0.12296563709E+02  0.95513166674E+01  0.15702391032E+02  0.17262224136E+03  0.17120000000E+03 0.  0.
        998    1    1    2    0    0 -0.37913319345E+01 -0.22127697482E+01  0.14869863108E+04  0.14870264150E+04  0.10000000000E+02 0.  1.
</event>
<event>
 5    1  0.1757379E-008  0.3842992E+03  0.7957747E-01  0.3432650E+00
         13   -1    0    0    0    0  0.00000000000E+00  0.00000000000E+00  0.14999999963E+04  0.15000000000E+04  0.10566000000E+00 0.  1.
        994   -1    0    0    0    0 -0.00000000000E+00 -0.00000000000E+00  0.11368683772E-12  0.17120000000E+03  0.17120000000E+03 0.  0.
         13    1    1    2    0    0 -0.36535392790E+01 -0.23236905093E+02  0.13502455660E+03  0.13705817800E+03  0.10566000000E+00 0.  1.
        994    1    1    2    0    0  0.42570578693E+01  0.17869382344E+02  0.30914787840E+01  0.17221043699E+03  0.17120000000E+03 0.  0.
        998    1    1    2    0    0 -0.60351859028E+00  0.53675227485E+01  0.13618839609E+04  0.13619313850E+04  0.10000000000E+02 0.  1.
</event>
<event>
 5    1  0.1757379E-008  0.3721241E+03  0.7957747E-01  0.3486186E+00
         13   -1    0    0    0    0  0.00000000000E+00  0.00000000000E+00  0.14999999963E+04  0.15000000000E+04  0.10566000000E+00 0.  1.
        994   -1    0    0    0    0 -0.00000000000E+00 -0.00000000000E+00  0.11368683772E-12  0.17120000000E+03  0.17120000000E+03 0.  0.
         13    1    1    2    0    0 -0.23060436209E+01 -0.58047094213E+02  0.29284695795E+03  0.29855340381E+03  0.10566000000E+00 0.  1.
        994    1    1    2    0    0 -0.17059519076E+02 -0.15383201457E+02  0.99763761702E+01  0.17302207420E+03  0.17120000000E+03 0.  0.
        998    1    1    2    0    0  0.19365562697E+02  0.73430295671E+02  0.11971766622E+04  0.11996245220E+04  0.10000000000E+02 0.  1.
</event>
<event>
 5    1  0.1757379E-008  0.3802907E+03  0.7957747E-01  0.3449894E+00
         13   -1    0    0    0    0  0.00000000000E+00  0.00000000000E+00  0.14999999963E+04  0.15000000000E+04  0.10566000000E+00 0. -1.
        994   -1    0    0    0    0 -0.00000000000E+00 -0.00000000000E+00  0.11368683772E-12  0.17120000000E+03  0.17120000000E+03 0.  0.
         13    1    1    2    0    0 -0.10025912033E+02 -0.35498173858E+02  0.18571611958E+03  0.18934393969E+03  0.10566000000E+00 0. -1.
        994    1    1    2    0    0 -0.85728471153E+01  0.11782153143E+02  0.46958638243E+01  0.17188311138E+03  0.17120000000E+03 0.  0.
        998    1    1    2    0    0  0.18598759149E+02  0.23716020715E+02  0.13095880129E+04  0.13099729489E+04  0.10000000000E+02 0. -1.
</event>
<event>
 5    1  0.1757379E-008  0.3751219E+03  0.7957747E-01  0.3472678E+00
         13   -1    0    0    0    0  0.00000000000E+00  0.00000000000E+00  0.14999999963E+04  0.15000000000E+04  0.10566000000E+00 0.  1.
        994   -1    0    0    0    0 -0.00000000000E+00 -0.00000000000E+00  0.11368683772E-12  0.17120000000E+03  0.17120000000E+03 0.  0.
         13    1    1    2    0    0  0.35085553402E+02 -0.21974824878E+03  0.88412386169E+03  0.91169912958E+03  0.10566000000E+00 0.  1.
        994    1    1    2    0    0 -0.44437519806E+02  0.22572991283E+03  0.21517816324E+03  0.35852443243E+03  0.17120000000E+03 0.  0.
        998    1    1    2    0    0  0.93519664042E+01 -0.59816640475E+01  0.40069797136E+03  0.40097643800E+03  0.10000000000E+02 0.  1.
</event>
<event>
 5    1  0.1757379E-008  0.3852156E+03  0.7957747E-01  0.3428758E+00
         13   -1    0    0    0    0  0.00000000000E+00  0.00000000000E+00  0.14999999963E+04  0.15000000000E+04  0.10566000000E+00 0.  1.
        994   -1    0    0    0    0 -0.00000000000E+00 -0.00000000000E+00  0.11368683772E-12  0.17120000000E+03  0.17120000000E+03 0.  0.
         13    1    1    2    0    0  0.63061618960E+01 -0.92097050800E+01  0.40074309287E+02  0.41599853057E+02  0.10566000000E+00 0.  1.
        994    1    1    2    0    0 -0.32498790782E+01  0.11565534361E+02  0.19975536462E+01  0.17163261205E+03  0.17120000000E+03 0.  0.
        998    1    1    2    0    0 -0.30562828178E+01 -0.23558292811E+01  0.14579281333E+04  0.14579675349E+04  0.10000000000E+02 0.  1.
</event>
<event>
 5    1  0.1757379E-008  0.3830523E+03  0.7957747E-01  0.3437975E+00
         13   -1    0    0    0    0  0.00000000000E+00  0.00000000000E+00  0.14999999963E+04  0.15000000000E+04  0.10566000000E+00 0.  1.
        994   -1    0    0    0    0 -0.00000000000E+00 -0.00000000000E+00  0.11368683772E-12  0.17120000000E+03  0.17120000000E+03 0.  0.
         13    1    1    2    0    0  0.13059195456E+02 -0.37203390403E+00  0.31032672657E+02  0.33670742960E+02  0.10566000000E+00 0.  1.
        994    1    1    2    0    0 -0.17003347820E+02 -0.39012804070E+01  0.36080767177E+01  0.17212435052E+03  0.17120000000E+03 0.  0.
        998    1    1    2    0    0  0.39441523637E+01  0.42733143111E+01  0.14653592469E+04  0.14654049065E+04  0.10000000000E+02 0.  1.
</event>
<event>
 5    1  0.1838881E-008  0.3863852E+03  0.7957747E-01  0.3423819E+00
         13   -1    0    0    0    0  0.00000000000E+00  0.00000000000E+00  0.14999999963E+04  0.15000000000E+04  0.10566000000E+00 0.  1.
        994   -1    0    0    0    0 -0.00000000000E+00 -0.00000000000E+00  0.11368683772E-12  0.17120000000E+03  0.17120000000E+03 0.  0.
         13    1    1    2    0    0  0.81895086122E+01 -0.10154289158E+02  0.78671611664E+02  0.79745917045E+02  0.10566000000E+00 0.  1.
        994    1    1    2    0    0 -0.25421882893E+02  0.13279137030E+02  0.36417876826E+01  0.17362404853E+03  0.17120000000E+03 0.  0.
        998    1    1    2    0    0  0.17232374281E+02 -0.31248478711E+01  0.14176865969E+04  0.14178300344E+04  0.10000000000E+02 0.  1.
</event>
<event>
 5    1  0.1757379E-008  0.3827871E+03  0.7957747E-01  0.3439112E+00
         13   -1    0    0    0    0  0.00000000000E+00  0.00000000000E+00  0.14999999963E+04  0.15000000000E+04  0.10566000000E+00 0. -1.
        994   -1    0    0    0    0 -0.00000000000E+00 -0.00000000000E+00  0.11368683772E-12  0.17120000000E+03  0.17120000000E+03 0.  0.
         13    1    1    2    0    0 -0.18564079591E+02 -0.61792445195E+01  0.69119605955E+02  0.71835501009E+02  0.10566000000E+00 0. -1.
        994    1    1    2    0    0  0.13946155664E+02 -0.12150627606E+01  0.33822254394E+01  0.17180468877E+03  0.17120000000E+03 0.  0.
        998    1    1    2    0    0  0.46179239264E+01  0.73943072801E+01  0.14274981649E+04  0.14275598102E+04  0.10000000000E+02 0. -1.
</event>
<event>
 5    1  0.1757379E-008  0.3730905E+03  0.7957747E-01  0.3481807E+00
         13   -1    0    0    0    0  0.00000000000E+00  0.00000000000E+00  0.14999999963E+04  0.15000000000E+04  0.10566000000E+00 0. -1.
        994   -1    0    0    0    0 -0.00000000000E+00 -0.00000000000E+00  0.11368683772E-12  0.17120000000E+03  0.17120000000E+03 0.  0.
         13    1    1    2    0    0 -0.25759382232E+01 -0.10468270787E+02  0.39670093001E+01  0.11487753384E+02  0.10566000000E+00 0. -1.
        994    1    1    2    0    0  0.60936861227E+01  0.12621038540E+02  0.83348707555E+01  0.17197480541E+03  0.17120000000E+03 0.  0.
        998    1    1    2    0    0 -0.35177478994E+01 -0.21527677526E+01  0.14876981162E+04  0.14877374412E+04  0.10000000000E+02 0. -1.
</event>
<event>
 5    1  0.1757379E-008  0.3858555E+03  0.7957747E-01  0.3426052E+00
         13   -1    0    0    0    0  0.00000000000E+00  0.00000000000E+00  0.14999999963E+04  0.15000000000E+04  0.10566000000E+00 0. -1.
        994   -1    0    0    0    0 -0.00000000000E+00 -0.00000000000E+00  0.11368683772E-12  0.17120000000E+03  0.17120000000E+03 0.  0.
         13    1    1    2    0    0 -0.10299561816E+01 -0.13552267115E+02  0.75173753494E+02  0.76392598673E+02  0.10566000000E+00 0. -1.
        994    1    1    2    0    0  0.19409751435E+01  0.12403628655E+02  0.17230924269E+01  0.17166836178E+03  0.17120000000E+03 0.  0.
        998    1    1    2    0    0 -0.91101896193E+00  0.11486384607E+01  0.14231031504E+04  0.14231390395E+04  0.10000000000E+02 0. -1.
</event>
<event>
 5    1  0.2005105E-008  0.3862786E+03  0.7957747E-01  0.3424267E+00
         13   -1    0    0    0    0  0.00000000000E+00  0.00000000000E+00  0.14999999963E+04  0.15000000000E+04  0.10566000000E+00 0. -1.
        994   -1    0    0    0    0 -0.00000000000E+00 -0.00000000000E+00  0.11368683772E-12  0.17120000000E+03  0.17120000000E+03 0.  0.
         13    1    1    2    0    0  0.96400317311E+01 -0.39813224426E+01  0.56204898642E+02  0.57164525150E+02  0.10566000000E+00 0. -1.
        994    1    1    2    0    0 -0.45774470193E+01  0.28885276359E+01  0.10926016193E+01  0.17128902589E+03  0.17120000000E+03 0.  0.
        998    1    1    2    0    0 -0.50625847118E+01  0.10927948066E+01  0.14427024960E+04  0.14427464490E+04  0.10000000000E+02 0. -1.
</event>
<event>
 5    1  0.1757379E-008  0.3842929E+03  0.7957747E-01  0.3432677E+00
         13   -1    0    0    0    0  0.00000000000E+00  0.00000000000E+00  0.14999999963E+04  0.15000000000E+04  0.10566000000E+00 0. -1.
        994   -1    0    0    0    0 -0.00000000000E+00 -0.00000000000E+00  0.11368683772E-12  0.17120000000E+03  0.17120000000E+03 0.  0.
         13    1    1    2    0    0  0.23142774844E+02 -0.15849329144E+02  0.15851686467E+03  0.16097949190E+03  0.10566000000E+00 0. -1.
        994    1    1    2    0    0 -0.31549524404E+02  0.28879113865E+02  0.80350532276E+01  0.17664477855E+03  0.17120000000E+03 0.  0.
        998    1    1    2    0    0  0.84067495593E+01 -0.13029784721E+02  0.13334480784E+04  0.13335757296E+04  0.10000000000E+02 0. -1.
</event>
<event>
 5    1  0.1757379E-008  0.3719411E+03  0.7957747E-01  0.3487017E+00
         13   -1    0    0    0    0  0.00000000000E+00  0.00000000000E+00  0.14999999963E+04  0.15000000000E+04  0.10566000000E+00 0. -1.
        994   -1    0    0    0    0 -0.00000000000E+00 -0.00000000000E+00  0.11368683772E-12  0.17120000000E+03  0.17120000000E+03 0.  0.
         13    1    1    2    0    0 -0.60698220563E+02  0.10834792831E+03  0.59268350765E+03  0.60555536407E+03  0.10566000000E+00 0. -1.
        994    1    1    2    0    0  0.77778169221E+02 -0.91019428810E+02  0.59221681368E+02  0.21714195258E+03  0.17120000000E+03 0.  0.
        998    1    1    2    0    0 -0.17079948658E+02 -0.17328499504E+02  0.84809480726E+03  0.84850268334E+03  0.10000000000E+02 0. -1.
</event>
<event>
 5    1  0.1757379E-008  0.3862809E+03  0.7957747E-01  0.3424258E+00
         13   -1    0    0    0    0  0.00000000000E+00  0.00000000000E+00  0.14999999963E+04  0.15000000000E+04  0.10566000000E+00 0.  1.
        994   -1    0    0    0    0 -0.00000000000E+00 -0.00000000000E+00  0.11368683772E-12  0.17120000000E+03  0.17120000000E+03 0.  0.
         13    1    1    2    0    0 -0.58151635646E+01  0.89415991508E+01  0.64168869492E+02  0.65049391224E+02  0.10566000000E+00 0.  1.
        994    1    1    2    0    0 -0.44420640465E+01  0.30840181953E+01  0.10912869007E+01  0.17128886131E+03  0.17120000000E+03 0.  0.
        998    1    1    2    0    0  0.10257227611E+02 -0.12025617346E+02  0.14347398399E+04  0.14348617475E+04  0.10000000000E+02 0.  1.
</event>
<event>
 5    1  0.1757379E-008  0.3701796E+03  0.7957747E-01  0.3495066E+00
         13   -1    0    0    0    0  0.00000000000E+00  0.00000000000E+00  0.14999999963E+04  0.15000000000E+04  0.10566000000E+00 0. -1.
        994   -1    0    0    0    0 -0.00000000000E+00 -0.00000000000E+00  0.11368683772E-12  0.17120000000E+03  0.17120000000E+03 0.  0.
         13    1    1    2    0    0  0.15983736556E+02 -0.69087998369E+02  0.36077514108E+03  0.36767831720E+03  0.10566000000E+00 0. -1.
        994    1    1    2    0    0  0.10137480785E+02  0.65105122520E+01  0.96769824406E+01  0.17189601297E+03  0.17120000000E+03 0.  0.
        998    1    1    2    0    0 -0.26121217341E+02  0.62577486117E+02  0.11295478728E+04  0.11316256698E+04  0.10000000000E+02 0. -1.
</event>
<event>
 5    1  0.1757379E-008  0.3849234E+03  0.7957747E-01  0.3429997E+00
         13   -1    0    0    0    0  0.00000000000E+00  0.00000000000E+00  0.14999999963E+04  0.15000000000E+04  0.10566000000E+00 0.  1.
        994   -1    0    0    0    0 -0.00000000000E+00 -0.00000000000E+00  0.11368683772E-12  0.17120000000E+03  0.17120000000E+03 0.  0.
         13    1    1    2    0    0  0.62853870151E+01  0.11172288721E+02  0.50055984189E+02  0.51671450941E+02  0.10566000000E+00 0.  1.
        994    1    1    2    0    0  0.29080463430E+01 -0.77626428911E+01  0.18942252507E+01  0.17141103654E+03  0.17120000000E+03 0.  0.
        998    1    1    2    0    0 -0.91934333581E+01 -0.34096458298E+01  0.14480497868E+04  0.14481175125E+04  0.10000000000E+02 0.  1.
</event>
<event>
 5    1  0.1757379E-008  0.3799503E+03  0.7957747E-01  0.3451375E+00
         13   -1    0    0    0    0  0.00000000000E+00  0.00000000000E+00  0.14999999963E+04  0.15000000000E+04  0.10566000000E+00 0.  1.
        994   -1    0    0    0    0 -0.00000000000E+00 -0.00000000000E+00  0.11368683772E-12  0.17120000000E+03  0.17120000000E+03 0.  0.
         13    1    1    2    0    0  0.95204523573E+01  0.13645387023E+02  0.30927753922E+02  0.35119406697E+02  0.10566000000E+00 0.  1.
        994    1    1    2    0    0 -0.12511602356E+02 -0.14034968998E+02  0.53410973568E+01  0.17231218143E+03  0.17120000000E+03 0.  0.
        998    1    1    2    0    0  0.29911499989E+01  0.38958197572E+00  0.14637311450E+04  0.14637684119E+04  0.10000000000E+02 0.  1.
</event>
<event>
 5    1  0.1757379E-008  0.3819259E+03  0.7957747E-01  0.3442815E+00
         13   -1    0    0    0    0  0.00000000000E+00  0.00000000000E+00  0.14999999963E+04  0.15000000000E+04  0.10566000000E+00 0. -1.
        994   -1    0    0    0    0 -0.00000000000E+00 -0.00000000000E+00  0.11368683772E-12  0.17120000000E+03  0.17120000000E+03 0.  0.
         13    1    1    2    0    0 -0.77025633807E+01 -0.17035934301E+02  0.58736193136E+02  0.61640117524E+02  0.10566000000E+00 0. -1.
        994    1    1    2    0    0 -0.10322672505E+01 -0.58153493531E+01  0.32800169153E+01  0.17133324947E+03  0.17120000000E+03 0.  0.
        998    1    1    2    0    0  0.87348306312E+01  0.22851283654E+02  0.14379837862E+04  0.14382266330E+04  0.10000000000E+02 0. -1.
</event>
<event>
 5    1  0.1757379E-008  0.3700936E+03  0.7957747E-01  0.3495461E+00
         13   -1    0    0    0    0  0.00000000000E+00  0.00000000000E+00  0.14999999963E+04  0.15000000000E+04  0.10566000000E+00 0. -1.
        994   -1    0    0    0    0 -0.00000000000E+00 -0.00000000000E+00  0.11368683772E-12  0.17120000000E+03  0.17120000000E+03 0.  0.
         13    1    1    2    0    0 -0.10337717773E+02 -0.11347326370E+02  0.57261010593E+01  0.16383821956E+02  0.10566000000E+00 0. -1.
        994    1    1    2    0    0  0.30511508266E+01  0.14250367364E+02  0.11731375691E+02  0.17221918496E+03  0.17120000000E+03 0.  0.
        998    1    1    2    0    0  0.72865669467E+01 -0.29030409944E+01  0.14825425195E+04  0.14825969931E+04  0.10000000000E+02 0. -1.
</event>
<event>
 5    1  0.1757379E-008  0.3975844E+03  0.7957747E-01  0.3377993E+00
         13   -1    0    0    0    0  0.00000000000E+00  0.00000000000E+00  0.14999999963E+04  0.15000000000E+04  0.10566000000E+00 0.  1.
        994   -1    0    0    0    0 -0.00000000000E+00 -0.00000000000E+00  0.11368683772E-12  0.17120000000E+03  0.17120000000E+03 0.  0.
         13    1    1    2    0    0 -0.35122392005E+02 -0.39657353956E+02  0.49477160605E+02  0.72486472727E+02  0.10566000000E+00 0.  1.
        994    1    1    2    0    0  0.14090674377E+02 -0.24497229157E+02  0.29444737312E+02  0.17599742582E+03  0.17120000000E+03 0.  0.
        998    1    1    2    0    0  0.21031717628E+02  0.64154583113E+02  0.14210780984E+04  0.14227161015E+04  0.10000000000E+02 0.  1.
</event>
<event>
 5    1  0.1757379E-008  0.3837015E+03  0.7957747E-01  0.3435198E+00
         13   -1    0    0    0    0  0.00000000000E+00  0.00000000000E+00  0.14999999963E+04  0.15000000000E+04  0.10566000000E+00 0. -1.
        994   -1    0    0    0    0 -0.00000000000E+00 -0.00000000000E+00  0.11368683772E-12  0.17120000000E+03  0.17120000000E+03 0.  0.
         13    1    1    2    0    0 -0.10649903617E+02 -0.30419501513E+01  0.26560322583E+02  0.28777348862E+02  0.10566000000E+00 0. -1.
        994    1    1    2    0    0  0.39564897634E+01  0.14636929444E+01  0.23349682063E+01  0.17126788457E+03  0.17120000000E+03 0.  0.
        998    1    1    2    0    0  0.66934138541E+01  0.15782572069E+01  0.14711047055E+04  0.14711547666E+04  0.10000000000E+02 0. -1.
</event>
<event>
 5    1  0.1757379E-008  0.3755836E+03  0.7957747E-01  0.3470617E+00
         13   -1    0    0    0    0  0.00000000000E+00  0.00000000000E+00  0.14999999963E+04  0.15000000000E+04  0.10566000000E+00 0.  1.
        994   -1    0    0    0    0 -0.00000000000E+00 -0.00000000000E+00  0.11368683772E-12  0.17120000000E+03  0.17120000000E+03 0.  0.
         13    1    1    2    0    0 -0.16588344665E+02  0.16705727079E+02  0.39656632733E+02  0.46118479807E+02  0.10566000000E+00 0.  1.
        994    1    1    2    0    0  0.16629350358E+02 -0.20344918139E+02  0.87252447285E+01  0.17342439529E+03  0.17120000000E+03 0.  0.
        998    1    1    2    0    0 -0.41005692790E-01  0.36391910608E+01  0.14516181188E+04  0.14516571249E+04  0.10000000000E+02 0.  1.
</event>
<event>
 5    1  0.1757379E-008  0.3839082E+03  0.7957747E-01  0.3434316E+00
         13   -1    0    0    0    0  0.00000000000E+00  0.00000000000E+00  0.14999999963E+04  0.15000000000E+04  0.10566000000E+00 0. -1.
        994   -1    0    0    0    0 -0.00000000000E+00 -0.00000000000E+00  0.11368683772E-12  0.17120000000E+03  0.17120000000E+03 0.  0.
         13    1    1    2    0    0 -0.72892992214E+01  0.17107151879E+02  0.79033709321E+02  0.81191914017E+02  0.10566000000E+00 0. -1.
        994    1    1    2    0    0  0.12541643774E+02 -0.78479474143E+01  0.28958858008E+01  0.17186247194E+03  0.17120000000E+03 0.  0.
        998    1    1    2    0    0 -0.52523445526E+01 -0.92592044651E+01  0.14180704012E+04  0.14181456140E+04  0.10000000000E+02 0. -1.
</event>
<event>
 5    1  0.1757379E-008  0.3856691E+03  0.7957747E-01  0.3426840E+00
         13   -1    0    0    0    0  0.00000000000E+00  0.00000000000E+00  0.14999999963E+04  0.15000000000E+04  0.10566000000E+00 0.  1.
        994   -1    0    0    0    0 -0.00000000000E+00 -0.00000000000E+00  0.11368683772E-12  0.17120000000E+03  0.17120000000E+03 0.  0.
         13    1    1    2    0    0 -0.61387004140E+01 -0.12432038014E+02  0.77220090603E+02  0.78455036605E+02  0.10566000000E+00 0.  1.
        994    1    1    2    0    0  0.38444407332E+01  0.32164363573E+01  0.13807730183E+01  0.17127892959E+03  0.17120000000E+03 0.  0.
        998    1    1    2    0    0  0.22942596809E+01  0.92156016568E+01  0.14213991327E+04  0.14214660338E+04  0.10000000000E+02 0.  1.
</event>
<event>
 5    1  0.1757379E-008  0.3771604E+03  0.7957747E-01  0.3463617E+00
         13   -1    0    0    0    0  0.00000000000E+00  0.00000000000E+00  0.14999999963E+04  0.15000000000E+04  0.10566000000E+00 0. -1.
        994   -1    0    0    0    0 -0.00000000000E+00 -0.00000000000E+00  0.11368683772E-12  0.17120000000E+03  0.17120000000E+03 0.  0.
         13    1    1    2    0    0 -0.91301895523E+02 -0.58186300210E+01  0.34254623890E+03  0.35455299960E+03  0.10566000000E+00 0. -1.
        994    1    1    2    0    0  0.19549478237E+02  0.86324189247E+01  0.16415601206E+02  0.17330785533E+03  0.17120000000E+03 0.  0.
        998    1    1    2    0    0  0.71752417286E+02 -0.28137889037E+01  0.11410381562E+04  0.11433391451E+04  0.10000000000E+02 0. -1.
</event>
<event>
 5    1  0.1757379E-008  0.3692626E+03  0.7957747E-01  0.3499287E+00
         13   -1    0    0    0    0  0.00000000000E+00  0.00000000000E+00  0.14999999963E+04  0.15000000000E+04  0.10566000000E+00 0. -1.
        994   -1    0    0    0    0 -0.00000000000E+00 -0.00000000000E+00  0.11368683772E-12  0.17120000000E+03  0.17120000000E+03 0.  0.
         13    1    1    2    0    0  0.46003324703E+02 -0.15803080910E+02  0.11135570306E+03  0.12151603605E+03  0.10566000000E+00 0. -1.
        994    1    1    2    0    0 -0.44675261378E+02  0.16934046872E+02  0.17609730896E+02  0.17861182364E+03  0.17120000000E+03 0.  0.
        998    1    1    2    0    0 -0.13280633247E+01 -0.11309659620E+01  0.13710345623E+04  0.13710721403E+04  0.10000000000E+02 0. -1.
</event>
<event>
 5    1  0.1757379E-008  0.3768546E+03  0.7957747E-01  0.3464970E+00
         13   -1    0    0    0    0  0.00000000000E+00  0.00000000000E+00  0.14999999963E+04  0.15000000000E+04  0.10566000000E+00 0. -1.
        994   -1    0    0    0    0 -0.00000000000E+00 -0.00000000000E+00  0.11368683772E-12  0.17120000000E+03  0.17120000000E+03 0.  0.
         13    1    1    2    0    0 -0.19126800899E+02  0.34514350431E+01  0.30083137924E+02  0.35815545059E+02  0.10566000000E+00 0. -1.
        994    1    1    2    0    0  0.13132208472E+02 -0.35456314624E+02  0.10573985920E+02  0.17564411269E+03  0.17120000000E+03 0.  0.
        998    1    1    2    0    0  0.59945924266E+01  0.32004879581E+02  0.14593428724E+04  0.14597403422E+04  0.10000000000E+02 0. -1.
</event>
<event>
 5    1  0.1757379E-008  0.3726750E+03  0.7957747E-01  0.3483687E+00
         13   -1    0    0    0    0  0.00000000000E+00  0.00000000000E+00  0.14999999963E+04  0.15000000000E+04  0.10566000000E+00 0. -1.
        994   -1    0    0    0    0 -0.00000000000E+00 -0.00000000000E+00  0.11368683772E-12  0.17120000000E+03  0.17120000000E+03 0.  0.
         13    1    1    2    0    0  0.98568169011E+01  0.15406345702E+02  0.18100945963E+02  0.25732620078E+02  0.10566000000E+00 0. -1.
        994    1    1    2    0    0 -0.78732968599E+01 -0.27944296764E+01  0.81166913695E+01  0.17159579925E+03  0.17120000000E+03 0.  0.
        998    1    1    2    0    0 -0.19835200412E+01 -0.12611916025E+02  0.14737823589E+04  0.14738715807E+04  0.10000000000E+02 0. -1.
</event>
<event>
 5    1  0.1757379E-008  0.3837389E+03  0.7957747E-01  0.3435039E+00
         13   -1    0    0    0    0  0.00000000000E+00  0.00000000000E+00  0.14999999963E+04  0.15000000000E+04  0.10566000000E+00 0. -1.
        994   -1    0    0    0    0 -0.00000000000E+00 -0.00000000000E+00  0.11368683772E-12  0.17120000000E+03  0.17120000000E+03 0.  0.
         13    1    1    2    0    0  0.58074199952E+01  0.11448018554E+02  0.35144895360E+02  0.37416013814E+02  0.10566000000E+00 0. -1.
        994    1    1    2    0    0 -0.37594354579E+01 -0.13376531557E+02  0.28953551090E+01  0.17178733374E+03  0.17120000000E+03 0.  0.
        998    1    1    2    0    0 -0.20479845372E+01  0.19285130024E+01  0.14619597458E+04  0.14619966524E+04  0.10000000000E+02 0. -1.
</event>
<event>
 5    1  0.1757379E-008  0.3773403E+03  0.7957747E-01  0.3462822E+00
         13   -1    0    0    0    0  0.00000000000E+00  0.00000000000E+00  0.14999999963E+04  0.15000000000E+04  0.10566000000E+00 0.  1.
        994   -1    0    0    0    0 -0.00000000000E+00 -0.00000000000E+00  0.11368683772E-12  0.17120000000E+03  0.17120000000E+03 0.  0.
         13    1    1    2    0    0  0.41362483329E+00  0.11206371055E+02  0.90141601568E+01  0.14388192558E+02  0.10566000000E+00 0.  1.
        994    1    1    2    0    0 -0.33974569364E+01 -0.72149347677E+01  0.56963311079E+01  0.17148027929E+03  0.17120000000E+03 0.  0.
        998    1    1    2    0    0  0.29838321031E+01 -0.39914362869E+01  0.14852895050E+04  0.14853315282E+04  0.10000000000E+02 0.  1.
</event>
<event>
 5    1  0.1757379E-008  0.3824070E+03  0.7957747E-01  0.3440744E+00
         13   -1    0    0    0    0  0.00000000000E+00  0.00000000000E+00  0.14999999963E+04  0.15000000000E+04  0.10566000000E+00 0. -1.
        994   -1    0    0    0    0 -0.00000000000E+00 -0.00000000000E+00  0.11368683772E-12  0.17120000000E+03  0.17120000000E+03 0.  0.
         13    1    1    2    0    0 -0.91841573591E+01  0.14435162318E+02  0.51415168109E+02  0.54187206361E+02  0.10566000000E+00 0. -1.
        994    1    1    2    0    0  0.54766188666E+01  0.24810224266E+01  0.30429168225E+01  0.17133256599E+03  0.17120000000E+03 0.  0.
        998    1    1    2    0    0  0.37075384925E+01 -0.16916184745E+02  0.14455419113E+04  0.14456802276E+04  0.10000000000E+02 0. -1.
</event>
<event>
 5    1  0.1757379E-008  0.3861282E+03  0.7957747E-01  0.3424901E+00
         13   -1    0    0    0    0  0.00000000000E+00  0.00000000000E+00  0.14999999963E+04  0.15000000000E+04  0.10566000000E+00 0.  1.
        994   -1    0    0    0    0 -0.00000000000E+00 -0.00000000000E+00  0.11368683772E-12  0.17120000000E+03  0.17120000000E+03 0.  0.
         13    1    1    2    0    0  0.61044059973E+01 -0.10322170168E+02  0.69122179709E+02  0.70154813529E+02  0.10566000000E+00 0.  1.
        994    1    1    2    0    0 -0.98924652585E+01  0.12994780055E+01  0.13972866327E+01  0.17149618632E+03  0.17120000000E+03 0.  0.
        998    1    1    2    0    0  0.37880592612E+01  0.90226921620E+01  0.14294805299E+04  0.14295490002E+04  0.10000000000E+02 0.  1.
</event>
<event>
 5    1  0.1757379E-008  0.3845145E+03  0.7957747E-01  0.3431734E+00
         13   -1    0    0    0    0  0.00000000000E+00  0.00000000000E+00  0.14999999963E+04  0.15000000000E+04  0.10566000000E+00 0.  1.
        994   -1    0    0    0    0 -0.00000000000E+00 -0.00000000000E+00  0.11368683772E-12  0.17120000000E+03  0.17120000000E+03 0.  0.
         13    1    1    2    0    0  0.24899173060E+02 -0.72540689808E+01  0.15269405471E+03  0.15488084402E+03  0.10566000000E+00 0.  1.
        994    1    1    2    0    0 -0.29758712096E+02  0.19347976123E+02  0.60323921390E+01  0.17494500530E+03  0.17120000000E+03 0.  0.
        998    1    1    2    0    0  0.48595390362E+01 -0.12093907142E+02  0.13412735494E+04  0.13413741507E+04  0.10000000000E+02 0.  1.
</event>
<event>
 5    1  0.1757379E-008  0.3824127E+03  0.7957747E-01  0.3440720E+00
         13   -1    0    0    0    0  0.00000000000E+00  0.00000000000E+00  0.14999999963E+04  0.15000000000E+04  0.10566000000E+00 0.  1.
        994   -1    0    0    0    0 -0.00000000000E+00 -0.00000000000E+00  0.11368683772E-12  0.17120000000E+03  0.17120000000E+03 0.  0.
         13    1    1    2    0    0 -0.26414620483E+02 -0.16612708974E+02  0.17496148654E+03  0.17772238804E+03  0.10566000000E+00 0.  1.
        994    1    1    2    0    0  0.22456433537E+02 -0.12076554838E+02  0.50792981964E+01  0.17316285356E+03  0.17120000000E+03 0.  0.
        998    1    1    2    0    0  0.39581869463E+01  0.28689263813E+02  0.13199592115E+04  0.13203147584E+04  0.10000000000E+02 0.  1.
</event>
<event>
 5    1  0.1757379E-008  0.3855043E+03  0.7957747E-01  0.3427536E+00
         13   -1    0    0    0    0  0.00000000000E+00  0.00000000000E+00  0.14999999963E+04  0.15000000000E+04  0.10566000000E+00 0.  1.
        994   -1    0    0    0    0 -0.00000000000E+00 -0.00000000000E+00  0.11368683772E-12  0.17120000000E+03  0.17120000000E+03 0.  0.
         13    1    1    2    0    0  0.36693643352E+01  0.10206601433E+02  0.42600821107E+02  0.43959982604E+02  0.10566000000E+00 0.  1.
        994    1    1    2    0    0  0.14247750131E+01 -0.90838901153E+01  0.16576098427E+01  0.17145475996E+03  0.17120000000E+03 0.  0.
        998    1    1    2    0    0 -0.50941393483E+01 -0.11227113180E+01  0.14557415653E+04  0.14557852574E+04  0.10000000000E+02 0.  1.
</event>
<event>
 5    1  0.1757379E-008  0.3817775E+03  0.7957747E-01  0.3443455E+00
         13   -1    0    0    0    0  0.00000000000E+00  0.00000000000E+00  0.14999999963E+04  0.15000000000E+04  0.10566000000E+00 0.  1.
        994   -1    0    0    0    0 -0.00000000000E+00 -0.00000000000E+00  0.11368683772E-12  0.17120000000E+03  0.17120000000E+03 0.  0.
         13    1    1    2    0    0  0.13995316409E+02 -0.26785545845E+02  0.17677977139E+03  0.17934445373E+03  0.10566000000E+00 0.  1.
        994    1    1    2    0    0  0.93122300823E+01 -0.76404062117E+01  0.37208926659E+01  0.17166356188E+03  0.17120000000E+03 0.  0.
        998    1    1    2    0    0 -0.23307546491E+02  0.34425952057E+02  0.13194993322E+04  0.13201919844E+04  0.10000000000E+02 0.  1.
</event>
<event>
 5    1  0.1757379E-008  0.3801242E+03  0.7957747E-01  0.3450618E+00
         13   -1    0    0    0    0  0.00000000000E+00  0.00000000000E+00  0.14999999963E+04  0.15000000000E+04  0.10566000000E+00 0. -1.
        994   -1    0    0    0    0 -0.00000000000E+00 -0.00000000000E+00  0.11368683772E-12  0.17120000000E+03  0.17120000000E+03 0.  0.
         13    1    1    2    0    0 -0.88783001266E+01  0.12177788740E+02  0.25701604755E+02  0.29794402205E+02  0.10566000000E+00 0. -1.
        994    1    1    2    0    0  0.11831558797E+02 -0.13249377818E+02  0.51255480555E+01  0.17219536300E+03  0.17120000000E+03 0.  0.
        998    1    1    2    0    0 -0.29532586701E+01  0.10715890781E+01  0.14691728435E+04  0.14692102348E+04  0.10000000000E+02 0. -1.
</event>
<event>
 5    1  0.1757379E-008  0.3850672E+03  0.7957747E-01  0.3429387E+00
         13   -1    0    0    0    0  0.00000000000E+00  0.00000000000E+00  0.14999999963E+04  0.15000000000E+04  0.10566000000E+00 0. -1.
        994   -1    0    0    0    0 -0.00000000000E+00 -0.00000000000E+00  0.11368683772E-12  0.17120000000E+03  0.17120000000E+03 0.  0.
         13    1    1    2    0    0 -0.62817088692E+01 -0.16249824443E+02  0.10516693413E+03  0.10660024324E+03  0.10566000000E+00 0. -1.
        994    1    1    2    0    0  0.38577466776E+01 -0.24135599243E+01  0.16648635637E+01  0.17126855885E+03  0.17120000000E+03 0.  0.
        998    1    1    2    0    0  0.24239621916E+01  0.18663384367E+02  0.13931681986E+04  0.13933311979E+04  0.10000000000E+02 0. -1.
</event>
<event>
 5    1  0.1757379E-008  0.3820480E+03  0.7957747E-01  0.3442289E+00
         13   -1    0    0    0    0  0.00000000000E+00  0.00000000000E+00  0.14999999963E+04  0.15000000000E+04  0.10566000000E+00 0. -1.
        994   -1    0    0    0    0 -0.00000000000E+00 -0.00000000000E+00  0.11368683772E-12  0.17120000000E+03  0.17120000000E+03 0.  0.
         13    1    1    2    0    0  0.11857662294E+02 -0.12923892036E+02  0.51944843046E+02  0.54826170973E+02  0.10566000000E+00 0. -1.
        994    1    1    2    0    0  0.30095583228E+01 -0.30857846863E+01  0.31645890779E+01  0.17128349054E+03  0.17120000000E+03 0.  0.
        998    1    1    2    0    0 -0.14867220617E+02  0.16009676723E+02  0.14448905642E+04  0.14450903385E+04  0.10000000000E+02 0. -1.
</event>
<event>
 5    1  0.1757379E-008  0.3694590E+03  0.7957747E-01  0.3498381E+00
         13   -1    0    0    0    0  0.00000000000E+00  0.00000000000E+00  0.14999999963E+04  0.15000000000E+04  0.10566000000E+00 0.  1.
        994   -1    0    0    0    0 -0.00000000000E+00 -0.00000000000E+00  0.11368683772E-12  0.17120000000E+03  0.17120000000E+03 0.  0.
         13    1    1    2    0    0  0.58154671124E+02 -0.73176824432E+02  0.26140267796E+03  0.27761157148E+03  0.10566000000E+00 0.  1.
        994    1    1    2    0    0 -0.49394488682E+02  0.13183143925E+03  0.83391867443E+02  0.23681846939E+03  0.17120000000E+03 0.  0.
        998    1    1    2    0    0 -0.87601824424E+01 -0.58654614818E+02  0.11552054509E+04  0.11567699591E+04  0.10000000000E+02 0.  1.
</event>
<event>
 5    1  0.1757379E-008  0.3740922E+03  0.7957747E-01  0.3477293E+00
         13   -1    0    0    0    0  0.00000000000E+00  0.00000000000E+00  0.14999999963E+04  0.15000000000E+04  0.10566000000E+00 0. -1.
        994   -1    0    0    0    0 -0.00000000000E+00 -0.00000000000E+00  0.11368683772E-12  0.17120000000E+03  0.17120000000E+03 0.  0.
         13    1    1    2    0    0  0.64660808993E+01 -0.12709412059E+02  0.11052635419E+02  0.18041930907E+02  0.10566000000E+00 0. -1.
        994    1    1    2    0    0 -0.49066620011E+01  0.84571261468E+01  0.74716370621E+01  0.17164167231E+03  0.17120000000E+03 0.  0.
        998    1    1    2    0    0 -0.15594188982E+01  0.42522859126E+01  0.14814757238E+04  0.14815163968E+04  0.10000000000E+02 0. -1.
</event>
<event>
 5    1  0.1757379E-008  0.3809111E+03  0.7957747E-01  0.3447201E+00
         13   -1    0    0    0    0  0.00000000000E+00  0.00000000000E+00  0.14999999963E+04  0.15000000000E+04  0.10566000000E+00 0. -1.
        994   -1    0    0    0    0 -0.00000000000E+00 -0.00000000000E+00  0.11368683772E-12  0.17120000000E+03  0.17120000000E+03 0.  0.
         13    1    1    2    0    0 -0.11203338550E+02 -0.13437944974E+02  0.39491230066E+02  0.43193304759E+02  0.10566000000E+00 0. -1.
        994    1    1    2    0    0  0.11888163210E+02  0.12572923882E+02  0.46724739896E+01  0.17213564086E+03  0.17120000000E+03 0.  0.
        998    1    1    2    0    0 -0.68482466041E+00  0.86502109233E+00  0.14558362922E+04  0.14558710544E+04  0.10000000000E+02 0. -1.
</event>
<event>
 5    1  0.1757379E-008  0.3803528E+03  0.7957747E-01  0.3449624E+00
         13   -1    0    0    0    0  0.00000000000E+00  0.00000000000E+00  0.14999999963E+04  0.15000000000E+04  0.10566000000E+00 0.  1.
        994   -1    0    0    0    0 -0.00000000000E+00 -0.00000000000E+00  0.11368683772E-12  0.17120000000E+03  0.17120000000E+03 0.  0.
         13    1    1    2    0    0  0.43198701834E+02 -0.11596634019E+02  0.54144675738E+02  0.70230099213E+02  0.10566000000E+00 0.  1.
        994    1    1    2    0    0 -0.31429390857E+02  0.14432440214E+02  0.20873121353E+02  0.17590119140E+03  0.17120000000E+03 0.  0.
        998    1    1    2    0    0 -0.11769310977E+02 -0.28358061956E+01  0.14249821992E+04  0.14250687094E+04  0.10000000000E+02 0.  1.
</event>
<event>
 5    1  0.1757379E-008  0.3842911E+03  0.7957747E-01  0.3432684E+00
         13   -1    0    0    0    0  0.00000000000E+00  0.00000000000E+00  0.14999999963E+04  0.15000000000E+04  0.10566000000E+00 0.  1.
        994   -1    0    0    0    0 -0.00000000000E+00 -0.00000000000E+00  0.11368683772E-12  0.17120000000E+03  0.17120000000E+03 0.  0.
         13    1    1    2    0    0 -0.17943474388E+02  0.52762375627E+01  0.10025942619E+03  0.10198907128E+03  0.10566000000E+00 0.  1.
        994    1    1    2    0    0 -0.91305156254E+00  0.16699534437E+02  0.29050335277E+01  0.17203949353E+03  0.17120000000E+03 0.  0.
        998    1    1    2    0    0  0.18856525950E+02 -0.21975772000E+02  0.13968355366E+04  0.13971714352E+04  0.10000000000E+02 0.  1.
</event>
<event>
 5    1  0.1757379E-008  0.3723834E+03  0.7957747E-01  0.3485009E+00
         13   -1    0    0    0    0  0.00000000000E+00  0.00000000000E+00  0.14999999963E+04  0.15000000000E+04  0.10566000000E+00 0. -1.
        994   -1    0    0    0    0 -0.00000000000E+00 -0.00000000000E+00  0.11368683772E-12  0.17120000000E+03  0.17120000000E+03 0.  0.
         13    1    1    2    0    0  0.75829853832E+02 -0.80040364832E+02  0.46074878643E+03  0.47375740848E+03  0.10566000000E+00 0. -1.
        994    1    1    2    0    0 -0.86053012553E+02  0.84341583514E+02  0.59589564227E+02  0.21766713083E+03  0.17120000000E+03 0.  0.
        998    1    1    2    0    0  0.10223158721E+02 -0.43012186815E+01  0.97966164563E+03  0.97977546069E+03  0.10000000000E+02 0. -1.
</event>
<event>
 5    1  0.1757379E-008  0.3745382E+03  0.7957747E-01  0.3475291E+00
         13   -1    0    0    0    0  0.00000000000E+00  0.00000000000E+00  0.14999999963E+04  0.15000000000E+04  0.10566000000E+00 0. -1.
        994   -1    0    0    0    0 -0.00000000000E+00 -0.00000000000E+00  0.11368683772E-12  0.17120000000E+03  0.17120000000E+03 0.  0.
         13    1    1    2    0    0  0.75568673027E+01 -0.75357881508E+01  0.50283901597E+01  0.11797890410E+02  0.10566000000E+00 0. -1.
        994    1    1    2    0    0 -0.42918390503E+01  0.82969053140E+01  0.72132002293E+01  0.17160631917E+03  0.17120000000E+03 0.  0.
        998    1    1    2    0    0 -0.32650282524E+01 -0.76111716324E+00  0.14877584059E+04  0.14877957904E+04  0.10000000000E+02 0. -1.
</event>
<event>
 5    1  0.1757379E-008  0.3725986E+03  0.7957747E-01  0.3484033E+00
         13   -1    0    0    0    0  0.00000000000E+00  0.00000000000E+00  0.14999999963E+04  0.15000000000E+04  0.10566000000E+00 0.  1.
        994   -1    0    0    0    0 -0.00000000000E+00 -0.00000000000E+00  0.11368683772E-12  0.17120000000E+03  0.17120000000E+03 0.  0.
         13    1    1    2    0    0  0.93185840720E+01 -0.15493563327E+02  0.18763812343E+02  0.26057212655E+02  0.10566000000E+00 0.  1.
        994    1    1    2    0    0  0.74052110001E+02  0.10596914589E+02  0.27344901086E+02  0.18882053175E+03  0.17120000000E+03 0.  0.
        998    1    1    2    0    0 -0.83370694073E+02  0.48966487372E+01  0.14538912828E+04  0.14563222556E+04  0.10000000000E+02 0.  1.
</event>
<event>
 5    1  0.1757379E-008  0.3816274E+03  0.7957747E-01  0.3444103E+00
         13   -1    0    0    0    0  0.00000000000E+00  0.00000000000E+00  0.14999999963E+04  0.15000000000E+04  0.10566000000E+00 0.  1.
        994   -1    0    0    0    0 -0.00000000000E+00 -0.00000000000E+00  0.11368683772E-12  0.17120000000E+03  0.17120000000E+03 0.  0.
         13    1    1    2    0    0  0.46622423540E+01  0.14965962166E+02  0.39589038089E+02  0.42579568200E+02  0.10566000000E+00 0.  1.
        994    1    1    2    0    0  0.22912370833E+01  0.16020715383E+02  0.41852470711E+01  0.17201415460E+03  0.17120000000E+03 0.  0.
        998    1    1    2    0    0 -0.69534794372E+01 -0.30986677548E+02  0.14562257111E+04  0.14566062772E+04  0.10000000000E+02 0.  1.
</event>
<event>
 5    1  0.1757379E-008  0.3854239E+03  0.7957747E-01  0.3427877E+00
         13   -1    0    0    0    0  0.00000000000E+00  0.00000000000E+00  0.14999999963E+04  0.15000000000E+04  0.10566000000E+00 0. -1.
        994   -1    0    0    0    0 -0.00000000000E+00 -0.00000000000E+00  0.11368683772E-12  0.17120000000E+03  0.17120000000E+03 0.  0.
         13    1    1    2    0    0  0.10088839252E+02  0.41465237433E+01  0.41194939989E+02  0.42614699123E+02  0.10566000000E+00 0. -1.
        994    1    1    2    0    0 -0.10107923947E+02 -0.41272666094E+01  0.18114265321E+01  0.17155735403E+03  0.17120000000E+03 0.  0.
        998    1    1    2    0    0  0.19084694678E-01 -0.19257133824E-01  0.14569936298E+04  0.14570279468E+04  0.10000000000E+02 0. -1.
</event>
<event>
 5    1  0.1757379E-008  0.3758479E+03  0.7957747E-01  0.3469439E+00
         13   -1    0    0    0    0  0.00000000000E+00  0.00000000000E+00  0.14999999963E+04  0.15000000000E+04  0.10566000000E+00 0. -1.
        994   -1    0    0    0    0 -0.00000000000E+00 -0.00000000000E+00  0.11368683772E-12  0.17120000000E+03  0.17120000000E+03 0.  0.
         13    1    1    2    0    0 -0.20043301720E+02 -0.31333821033E+02  0.10344742247E+03  0.10993144529E+03  0.10566000000E+00 0. -1.
        994    1    1    2    0    0  0.12951066420E+02  0.31695984996E+02  0.10228003297E+02  0.17488972994E+03  0.17120000000E+03 0.  0.
        998    1    1    2    0    0  0.70922353000E+01 -0.36216396308E+00  0.13863245705E+04  0.13863788248E+04  0.10000000000E+02 0. -1.
</event>
<event>
 5    1  0.1757379E-008  0.3687967E+03  0.7957747E-01  0.3501439E+00
         13   -1    0    0    0    0  0.00000000000E+00  0.00000000000E+00  0.14999999963E+04  0.15000000000E+04  0.10566000000E+00 0.  1.
        994   -1    0    0    0    0 -0.00000000000E+00 -0.00000000000E+00  0.11368683772E-12  0.17120000000E+03  0.17120000000E+03 0.  0.
         13    1    1    2    0    0  0.15070385011E+02 -0.15263801938E+02  0.21256886125E+02  0.30198783515E+02  0.10566000000E+00 0.  1.
        994    1    1    2    0    0  0.15001707193E+02 -0.33257083736E+02  0.14535137832E+02  0.17564679066E+03  0.17120000000E+03 0.  0.
        998    1    1    2    0    0 -0.30072092204E+02  0.48520885674E+02  0.14642079723E+04  0.14653544258E+04  0.10000000000E+02 0.  1.
</event>
<event>
 5    1  0.1757379E-008  0.3799393E+03  0.7957747E-01  0.3451423E+00
         13   -1    0    0    0    0  0.00000000000E+00  0.00000000000E+00  0.14999999963E+04  0.15000000000E+04  0.10566000000E+00 0. -1.
        994   -1    0    0    0    0 -0.00000000000E+00 -0.00000000000E+00  0.11368683772E-12  0.17120000000E+03  0.17120000000E+03 0.  0.
         13    1    1    2    0    0 -0.47182634443E+02  0.20154829359E+03  0.98435924710E+03  0.10058881917E+04  0.10566000000E+00 0. -1.
        994    1    1    2    0    0  0.59547275027E+02 -0.20642538793E+03  0.17816997429E+03  0.32743136454E+03  0.17120000000E+03 0.  0.
        998    1    1    2    0    0 -0.12364640584E+02  0.48770943400E+01  0.33747077489E+03  0.33788044378E+03  0.10000000000E+02 0. -1.
</event>
<event>
 5    1  0.1757379E-008  0.3693315E+03  0.7957747E-01  0.3498969E+00
         13   -1    0    0    0    0  0.00000000000E+00  0.00000000000E+00  0.14999999963E+04  0.15000000000E+04  0.10566000000E+00 0. -1.
        994   -1    0    0    0    0 -0.00000000000E+00 -0.00000000000E+00  0.11368683772E-12  0.17120000000E+03  0.17120000000E+03 0.  0.
         13    1    1    2    0    0 -0.73029816792E+01  0.95316740392E+01  0.29217097233E+01  0.12358555868E+02  0.10566000000E+00 0. -1.
        994    1    1    2    0    0  0.16744147888E+02 -0.12411093896E+02  0.11125796806E+02  0.17282252485E+03  0.17120000000E+03 0.  0.
        998    1    1    2    0    0 -0.94411662090E+01  0.28794198564E+01  0.14859524897E+04  0.14860189193E+04  0.10000000000E+02 0. -1.
</event>
<event>
 5    1  0.1757379E-008  0.3744257E+03  0.7957747E-01  0.3475795E+00
         13   -1    0    0    0    0  0.00000000000E+00  0.00000000000E+00  0.14999999963E+04  0.15000000000E+04  0.10566000000E+00 0. -1.
        994   -1    0    0    0    0 -0.00000000000E+00 -0.00000000000E+00  0.11368683772E-12  0.17120000000E+03  0.17120000000E+03 0.  0.
         13    1    1    2    0    0 -0.70149905499E+02 -0.23910861484E+02  0.32963653404E+03  0.33786534932E+03  0.10566000000E+00 0. -1.
        994    1    1    2    0    0  0.54483858415E+02  0.43495478679E+02  0.23711999199E+02  0.18636535729E+03  0.17120000000E+03 0.  0.
        998    1    1    2    0    0  0.15666047085E+02 -0.19584617194E+02  0.11466514630E+04  0.11469692934E+04  0.10000000000E+02 0. -1.
</event>
<event>
 5    1  0.1757379E-008  0.3837237E+03  0.7957747E-01  0.3435103E+00
         13   -1    0    0    0    0  0.00000000000E+00  0.00000000000E+00  0.14999999963E+04  0.15000000000E+04  0.10566000000E+00 0.  1.
        994   -1    0    0    0    0 -0.00000000000E+00 -0.00000000000E+00  0.11368683772E-12  0.17120000000E+03  0.17120000000E+03 0.  0.
         13    1    1    2    0    0 -0.17637597648E+02 -0.16942047276E+01  0.10149151371E+03  0.10302666499E+03  0.10566000000E+00 0.  1.
        994    1    1    2    0    0 -0.37937477109E+02 -0.30453104270E+02  0.10120046810E+02  0.17826524921E+03  0.17120000000E+03 0.  0.
        998    1    1    2    0    0  0.55575074757E+02  0.32147308997E+02  0.13883884358E+04  0.13899080858E+04  0.10000000000E+02 0.  1.
</event>
<event>
 5    1  0.1757379E-008  0.3833433E+03  0.7957747E-01  0.3436729E+00
         13   -1    0    0    0    0  0.00000000000E+00  0.00000000000E+00  0.14999999963E+04  0.15000000000E+04  0.10566000000E+00 0. -1.
        994   -1    0    0    0    0 -0.00000000000E+00 -0.00000000000E+00  0.11368683772E-12  0.17120000000E+03  0.17120000000E+03 0.  0.
         13    1    1    2    0    0  0.30005131571E+02 -0.74686011335E+01  0.17513228892E+03  0.17784098996E+03  0.10566000000E+00 0. -1.
        994    1    1    2    0    0 -0.27909806497E+02  0.13175125026E+02  0.56107732480E+01  0.17405017091E+03  0.17120000000E+03 0.  0.
        998    1    1    2    0    0 -0.20953250744E+01 -0.57065238924E+01  0.13192569341E+04  0.13193088391E+04  0.10000000000E+02 0. -1.
</event>
<event>
 5    1  0.1757379E-008  0.3734941E+03  0.7957747E-01  0.3479985E+00
         13   -1    0    0    0    0  0.00000000000E+00  0.00000000000E+00  0.14999999963E+04  0.15000000000E+04  0.10566000000E+00 0. -1.
        994   -1    0    0    0    0 -0.00000000000E+00 -0.00000000000E+00  0.11368683772E-12  0.17120000000E+03  0.17120000000E+03 0.  0.
         13    1    1    2    0    0 -0.20759410952E+01  0.12165065649E+02  0.67981175751E-02  0.12341376096E+02  0.10566000000E+00 0. -1.
        994    1    1    2    0    0 -0.10501159418E+00 -0.11640808117E+02  0.13278206695E+02  0.17210830954E+03  0.17120000000E+03 0.  0.
        998    1    1    2    0    0  0.21809526894E+01 -0.52425753196E+00  0.14867149915E+04  0.14867503144E+04  0.10000000000E+02 0. -1.
</event>
<event>
 5    1  0.1757379E-008  0.3843314E+03  0.7957747E-01  0.3432513E+00
         13   -1    0    0    0    0  0.00000000000E+00  0.00000000000E+00  0.14999999963E+04  0.15000000000E+04  0.10566000000E+00 0.  1.
        994   -1    0    0    0    0 -0.00000000000E+00 -0.00000000000E+00  0.11368683772E-12  0.17120000000E+03  0.17120000000E+03 0.  0.
         13    1    1    2    0    0 -0.21037647096E+02  0.45971378074E+01  0.12458557991E+03  0.12643296310E+03  0.10566000000E+00 0.  1.
        994    1    1    2    0    0  0.49336437079E+01 -0.84856721583E+01  0.22800398213E+01  0.17149631499E+03  0.17120000000E+03 0.  0.
        998    1    1    2    0    0  0.16104003388E+02  0.38885343510E+01  0.13731343765E+04  0.13732707219E+04  0.10000000000E+02 0.  1.
</event>
<event>
 5    1  0.1783299E-008  0.3840801E+03  0.7957747E-01  0.3433583E+00
         13   -1    0    0    0    0  0.00000000000E+00  0.00000000000E+00  0.14999999963E+04  0.15000000000E+04  0.10566000000E+00 0. -1.
        994   -1    0    0    0    0 -0.00000000000E+00 -0.00000000000E+00  0.11368683772E-12  0.17120000000E+03  0.17120000000E+03 0.  0.
         13    1    1    2    0    0 -0.11746817670E+02  0.40654894356E+01  0.36067214781E+02  0.38149326020E+02  0.10566000000E+00 0. -1.
        994    1    1    2    0    0  0.10159355887E+02 -0.47480919627E+01  0.25024788947E+01  0.17158513715E+03  0.17120000000E+03 0.  0.
        998    1    1    2    0    0  0.15874617829E+01  0.68260252709E+00  0.14614303026E+04  0.14614655368E+04  0.10000000000E+02 0. -1.
</event>
<event>
 5    1  0.1757379E-008  0.3847822E+03  0.7957747E-01  0.3430596E+00
         13   -1    0    0    0    0  0.00000000000E+00  0.00000000000E+00  0.14999999963E+04  0.15000000000E+04  0.10566000000E+00 0. -1.
        994   -1    0    0    0    0 -0.00000000000E+00 -0.00000000000E+00  0.11368683772E-12  0.17120000000E+03  0.17120000000E+03 0.  0.
         13    1    1    2    0    0  0.13246486044E+02 -0.11534524809E+02  0.90490638313E+02  0.92179615107E+02  0.10566000000E+00 0. -1.
        994    1    1    2    0    0 -0.32722359353E+01  0.92174045322E+01  0.20532144915E+01  0.17149146849E+03  0.17120000000E+03 0.  0.
        998    1    1    2    0    0 -0.99742501089E+01  0.23171202766E+01  0.14074561435E+04  0.14075289164E+04  0.10000000000E+02 0. -1.
</event>
<event>
 5    1  0.1757379E-008  0.3841001E+03  0.7957747E-01  0.3433498E+00
         13   -1    0    0    0    0  0.00000000000E+00  0.00000000000E+00  0.14999999963E+04  0.15000000000E+04  0.10566000000E+00 0.  1.
        994   -1    0    0    0    0 -0.00000000000E+00 -0.00000000000E+00  0.11368683772E-12  0.17120000000E+03  0.17120000000E+03 0.  0.
         13    1    1    2    0    0 -0.10891375912E+02  0.18498347560E+02  0.10043876743E+03  0.10270719594E+03  0.10566000000E+00 0.  1.
        994    1    1    2    0    0  0.14893641372E+02 -0.22853594213E+02  0.45357202564E+01  0.17341891500E+03  0.17120000000E+03 0.  0.
        998    1    1    2    0    0 -0.40022654604E+01  0.43552466529E+01  0.13950255086E+04  0.13950738891E+04  0.10000000000E+02 0.  1.
</event>
<event>
 5    1  0.1757379E-008  0.3856815E+03  0.7957747E-01  0.3426787E+00
         13   -1    0    0    0    0  0.00000000000E+00  0.00000000000E+00  0.14999999963E+04  0.15000000000E+04  0.10566000000E+00 0. -1.
        994   -1    0    0    0    0 -0.00000000000E+00 -0.00000000000E+00  0.11368683772E-12  0.17120000000E+03  0.17120000000E+03 0.  0.
         13    1    1    2    0    0 -0.12046388676E+02 -0.12149871250E+01  0.58079030519E+02  0.59327705365E+02  0.10566000000E+00 0. -1.
        994    1    1    2    0    0  0.47616864005E+01  0.10122391778E+02  0.17028843925E+01  0.17157353027E+03  0.17120000000E+03 0.  0.
        998    1    1    2    0    0  0.72847022759E+01 -0.89074046528E+01  0.14402180814E+04  0.14402987644E+04  0.10000000000E+02 0. -1.
</event>
<event>
 5    1  0.1757379E-008  0.3784807E+03  0.7957747E-01  0.3457801E+00
         13   -1    0    0    0    0  0.00000000000E+00  0.00000000000E+00  0.14999999963E+04  0.15000000000E+04  0.10566000000E+00 0.  1.
        994   -1    0    0    0    0 -0.00000000000E+00 -0.00000000000E+00  0.11368683772E-12  0.17120000000E+03  0.17120000000E+03 0.  0.
         13    1    1    2    0    0 -0.10813771104E+02  0.35046640768E+02  0.36427147850E+02  0.51692871261E+02  0.10566000000E+00 0.  1.
        994    1    1    2    0    0  0.15268108438E+02 -0.33907046328E+02  0.20494376009E+02  0.17638668423E+03  0.17120000000E+03 0.  0.
        998    1    1    2    0    0 -0.44543373337E+01 -0.11395944407E+01  0.14430784724E+04  0.14431204445E+04  0.10000000000E+02 0.  1.
</event>
<event>
 5    1  0.1757379E-008  0.3836132E+03  0.7957747E-01  0.3435575E+00
         13   -1    0    0    0    0  0.00000000000E+00  0.00000000000E+00  0.14999999963E+04  0.15000000000E+04  0.10566000000E+00 0. -1.
        994   -1    0    0    0    0 -0.00000000000E+00 -0.00000000000E+00  0.11368683772E-12  0.17120000000E+03  0.17120000000E+03 0.  0.
         13    1    1    2    0    0  0.89857975463E+01 -0.60422661173E+01  0.24213713323E+02  0.26524867847E+02  0.10566000000E+00 0. -1.
        994    1    1    2    0    0 -0.42949465203E+01  0.13254311288E+02  0.29617722331E+01  0.17179154644E+03  0.17120000000E+03 0.  0.
        998    1    1    2    0    0 -0.46908510260E+01 -0.72120451704E+01  0.14728245107E+04  0.14728835857E+04  0.10000000000E+02 0. -1.
</event>
<event>
 5    1  0.1757379E-008  0.3862551E+03  0.7957747E-01  0.3424367E+00
         13   -1    0    0    0    0  0.00000000000E+00  0.00000000000E+00  0.14999999963E+04  0.15000000000E+04  0.10566000000E+00 0.  1.
        994   -1    0    0    0    0 -0.00000000000E+00 -0.00000000000E+00  0.11368683772E-12  0.17120000000E+03  0.17120000000E+03 0.  0.
         13    1    1    2    0    0 -0.23177249139E+01  0.12991163992E+02  0.78289474748E+02  0.79393924270E+02  0.10566000000E+00 0.  1.
        994    1    1    2    0    0 -0.26751842695E+01 -0.22804695597E+02  0.27369703747E+01  0.17275457088E+03  0.17120000000E+03 0.  0.
        998    1    1    2    0    0  0.49929091833E+01  0.98135316043E+01  0.14189735512E+04  0.14190515049E+04  0.10000000000E+02 0.  1.
</event>
<event>
 5    1  0.1757379E-008  0.3833571E+03  0.7957747E-01  0.3436670E+00
         13   -1    0    0    0    0  0.00000000000E+00  0.00000000000E+00  0.14999999963E+04  0.15000000000E+04  0.10566000000E+00 0. -1.
        994   -1    0    0    0    0 -0.00000000000E+00 -0.00000000000E+00  0.11368683772E-12  0.17120000000E+03  0.17120000000E+03 0.  0.
         13    1    1    2    0    0  0.71651505839E+01  0.18322502385E+02  0.76010267490E+02  0.78515128507E+02  0.10566000000E+00 0. -1.
        994    1    1    2    0    0 -0.70685741899E+01 -0.16623047069E+02  0.35275274837E+01  0.17218645093E+03  0.17120000000E+03 0.  0.
        998    1    1    2    0    0 -0.96576394051E-01 -0.16994553161E+01  0.14204622013E+04  0.14204984206E+04  0.10000000000E+02 0. -1.
</event>
<event>
 5    1  0.1757379E-008  0.3858785E+03  0.7957747E-01  0.3425955E+00
         13   -1    0    0    0    0  0.00000000000E+00  0.00000000000E+00  0.14999999963E+04  0.15000000000E+04  0.10566000000E+00 0.  1.
        994   -1    0    0    0    0 -0.00000000000E+00 -0.00000000000E+00  0.11368683772E-12  0.17120000000E+03  0.17120000000E+03 0.  0.
         13    1    1    2    0    0  0.15596722625E+01  0.11812337415E+02  0.59813637602E+02  0.60988903089E+02  0.10566000000E+00 0.  1.
        994    1    1    2    0    0 -0.33819951865E+00 -0.84504888015E+01  0.14291839530E+01  0.17141472430E+03  0.17120000000E+03 0.  0.
        998    1    1    2    0    0 -0.12214727438E+01 -0.33618486130E+01  0.14387571747E+04  0.14387963726E+04  0.10000000000E+02 0.  1.
</event>
<event>
 5    1  0.1757379E-008  0.3858191E+03  0.7957747E-01  0.3426206E+00
         13   -1    0    0    0    0  0.00000000000E+00  0.00000000000E+00  0.14999999963E+04  0.15000000000E+04  0.10566000000E+00 0. -1.
        994   -1    0    0    0    0 -0.00000000000E+00 -0.00000000000E+00  0.11368683772E-12  0.17120000000E+03  0.17120000000E+03 0.  0.
         13    1    1    2    0    0 -0.38344883787E+01 -0.12627374105E+02  0.54884667658E+02  0.56449019352E+02  0.10566000000E+00 0. -1.
        994    1    1    2    0    0 -0.39726684072E+01  0.54803771872E+02  0.11190235070E+02  0.18014965131E+03  0.17120000000E+03 0.  0.
        998    1    1    2    0    0  0.78071567859E+01 -0.42176397767E+02  0.14339250936E+04  0.14346013293E+04  0.10000000000E+02 0. -1.
</event>
<event>
 5    1  0.1757379E-008  0.3850331E+03  0.7957747E-01  0.3429532E+00
         13   -1    0    0    0    0  0.00000000000E+00  0.00000000000E+00  0.14999999963E+04  0.15000000000E+04  0.10566000000E+00 0. -1.
        994   -1    0    0    0    0 -0.00000000000E+00 -0.00000000000E+00  0.11368683772E-12  0.17120000000E+03  0.17120000000E+03 0.  0.
         13    1    1    2    0    0 -0.27826764282E+01  0.14534518851E+02  0.69010613196E+02  0.70579539699E+02  0.10566000000E+00 0. -1.
        994    1    1    2    0    0  0.28232520199E+01 -0.68484850683E+01  0.17941499574E+01  0.17136957569E+03  0.17120000000E+03 0.  0.
        998    1    1    2    0    0 -0.40575591742E-01 -0.76860337823E+01  0.14291952331E+04  0.14292508846E+04  0.10000000000E+02 0. -1.
</event>
<event>
 5    1  0.1757379E-008  0.3676671E+03  0.7957747E-01  0.3506682E+00
         13   -1    0    0    0    0  0.00000000000E+00  0.00000000000E+00  0.14999999963E+04  0.15000000000E+04  0.10566000000E+00 0. -1.
        994   -1    0    0    0    0 -0.00000000000E+00 -0.00000000000E+00  0.11368683772E-12  0.17120000000E+03  0.17120000000E+03 0.  0.
         13    1    1    2    0    0 -0.26835802165E+03  0.61814702152E+02  0.10178372051E+04  0.10544333419E+04  0.10566000000E+00 0. -1.
        994    1    1    2    0    0  0.26100884027E+03 -0.50678012294E+02  0.30676140579E+03  0.44057448373E+03  0.17120000000E+03 0.  0.
        998    1    1    2    0    0  0.73491813787E+01 -0.11136689858E+02  0.17540138536E+03  0.17619217438E+03  0.10000000000E+02 0. -1.
</event>
<event>
 5    1  0.1757379E-008  0.3780539E+03  0.7957747E-01  0.3459676E+00
         13   -1    0    0    0    0  0.00000000000E+00  0.00000000000E+00  0.14999999963E+04  0.15000000000E+04  0.10566000000E+00 0.  1.
        994   -1    0    0    0    0 -0.00000000000E+00 -0.00000000000E+00  0.11368683772E-12  0.17120000000E+03  0.17120000000E+03 0.  0.
         13    1    1    2    0    0 -0.25660541707E+02 -0.69019671308E+01  0.66136376354E+02  0.71275044667E+02  0.10566000000E+00 0.  1.
        994    1    1    2    0    0  0.19448231215E+02  0.64921021875E+01  0.65344246881E+01  0.17254715238E+03  0.17120000000E+03 0.  0.
        998    1    1    2    0    0  0.62123104921E+01  0.40986494330E+00  0.14273291952E+04  0.14273778030E+04  0.10000000000E+02 0.  1.
</event>
<event>
 5    1  0.1757379E-008  0.3686559E+03  0.7957747E-01  0.3502091E+00
         13   -1    0    0    0    0  0.00000000000E+00  0.00000000000E+00  0.14999999963E+04  0.15000000000E+04  0.10566000000E+00 0.  1.
        994   -1    0    0    0    0 -0.00000000000E+00 -0.00000000000E+00  0.11368683772E-12  0.17120000000E+03  0.17120000000E+03 0.  0.
         13    1    1    2    0    0  0.56603033720E+02 -0.13553076284E+02  0.21232063252E+03  0.22015369963E+03  0.10566000000E+00 0.  1.
        994    1    1    2    0    0  0.11804029576E+02  0.40124579401E+01  0.10513442140E+02  0.17197501969E+03  0.17120000000E+03 0.  0.
        998    1    1    2    0    0 -0.68407063296E+02  0.95406183438E+01  0.12771659216E+04  0.12790712807E+04  0.10000000000E+02 0.  1.
</event>
<event>
 5    1  0.1757379E-008  0.3824171E+03  0.7957747E-01  0.3440701E+00
         13   -1    0    0    0    0  0.00000000000E+00  0.00000000000E+00  0.14999999963E+04  0.15000000000E+04  0.10566000000E+00 0.  1.
        994   -1    0    0    0    0 -0.00000000000E+00 -0.00000000000E+00  0.11368683772E-12  0.17120000000E+03  0.17120000000E+03 0.  0.
         13    1    1    2    0    0  0.11398859062E+01  0.22412275446E+02  0.84801496327E+02  0.87720661043E+02  0.10566000000E+00 0.  1.
        994    1    1    2    0    0 -0.10297400059E+02 -0.14880300708E+02  0.40046846092E+01  0.17220028251E+03  0.17120000000E+03 0.  0.
        998    1    1    2    0    0  0.91575141529E+01 -0.75319747384E+01  0.14111938153E+04  0.14112790564E+04  0.10000000000E+02 0.  1.
</event>
<event>
 5    1  0.1757379E-008  0.3829815E+03  0.7957747E-01  0.3438278E+00
         13   -1    0    0    0    0  0.00000000000E+00  0.00000000000E+00  0.14999999963E+04  0.15000000000E+04  0.10566000000E+00 0. -1.
        994   -1    0    0    0    0 -0.00000000000E+00 -0.00000000000E+00  0.11368683772E-12  0.17120000000E+03  0.17120000000E+03 0.  0.
         13    1    1    2    0    0  0.10542465067E+02 -0.28322924905E+01  0.21576934824E+02  0.24181412921E+02  0.10566000000E+00 0. -1.
        994    1    1    2    0    0 -0.81486181400E+01  0.26843816233E+01  0.28793255521E+01  0.17143901656E+03  0.17120000000E+03 0.  0.
        998    1    1    2    0    0 -0.23938469265E+01  0.14791086722E+00  0.14755437359E+04  0.14755795705E+04  0.10000000000E+02 0. -1.
</event>
<event>
 5    1  0.1757379E-008  0.3789163E+03  0.7957747E-01  0.3455891E+00
         13   -1    0    0    0    0  0.00000000000E+00  0.00000000000E+00  0.14999999963E+04  0.15000000000E+04  0.10566000000E+00 0. -1.
        994   -1    0    0    0    0 -0.00000000000E+00 -0.00000000000E+00  0.11368683772E-12  0.17120000000E+03  0.17120000000E+03 0.  0.
         13    1    1    2    0    0 -0.24404526009E+02 -0.39256968186E+02  0.21987920394E+03  0.22468548225E+03  0.10566000000E+00 0. -1.
        994    1    1    2    0    0  0.16560181027E+01  0.35580493049E+02  0.89494134582E+01  0.17509496247E+03  0.17120000000E+03 0.  0.
        998    1    1    2    0    0  0.22748507906E+02  0.36764751372E+01  0.12711713789E+04  0.12714195553E+04  0.10000000000E+02 0. -1.
</event>
<event>
 5    1  0.1757379E-008  0.3854186E+03  0.7957747E-01  0.3427899E+00
         13   -1    0    0    0    0  0.00000000000E+00  0.00000000000E+00  0.14999999963E+04  0.15000000000E+04  0.10566000000E+00 0.  1.
        994   -1    0    0    0    0 -0.00000000000E+00 -0.00000000000E+00  0.11368683772E-12  0.17120000000E+03  0.17120000000E+03 0.  0.
         13    1    1    2    0    0  0.12480664004E+02  0.95116965352E+01  0.84043107819E+02  0.85495581645E+02  0.10566000000E+00 0.  1.
        994    1    1    2    0    0 -0.93327541802E+01 -0.11870411844E+02  0.21716455608E+01  0.17187833785E+03  0.17120000000E+03 0.  0.
        998    1    1    2    0    0 -0.31479098237E+01  0.23587153089E+01  0.14137852429E+04  0.14138260805E+04  0.10000000000E+02 0.  1.
</event>
<event>
 5    1  0.1757379E-008  0.3715892E+03  0.7957747E-01  0.3488619E+00
         13   -1    0    0    0    0  0.00000000000E+00  0.00000000000E+00  0.14999999963E+04  0.15000000000E+04  0.10566000000E+00 0.  1.
        994   -1    0    0    0    0 -0.00000000000E+00 -0.00000000000E+00  0.11368683772E-12  0.17120000000E+03  0.17120000000E+03 0.  0.
         13    1    1    2    0    0  0.93485553560E+02  0.25453789314E+02  0.53040509039E+03  0.53918180162E+03  0.10566000000E+00 0.  1.
        994    1    1    2    0    0 -0.25982047431E+02  0.26464410198E+01  0.14183114090E+02  0.17376038433E+03  0.17120000000E+03 0.  0.
        998    1    1    2    0    0 -0.67503506129E+02 -0.28100230333E+02  0.95541179180E+03  0.95825781405E+03  0.10000000000E+02 0.  1.
</event>
<event>
 5    1  0.1757379E-008  0.3850832E+03  0.7957747E-01  0.3429320E+00
         13   -1    0    0    0    0  0.00000000000E+00  0.00000000000E+00  0.14999999963E+04  0.15000000000E+04  0.10566000000E+00 0.  1.
        994   -1    0    0    0    0 -0.00000000000E+00 -0.00000000000E+00  0.11368683772E-12  0.17120000000E+03  0.17120000000E+03 0.  0.
         13    1    1    2    0    0  0.14204704297E+02 -0.32280644972E+01  0.66578233899E+02  0.68153256839E+02  0.10566000000E+00 0.  1.
        994    1    1    2    0    0 -0.73202429461E+01  0.14779159473E+02  0.24836588856E+01  0.17201051733E+03  0.17120000000E+03 0.  0.
        998    1    1    2    0    0 -0.68844613514E+01 -0.11551094976E+02  0.14309381035E+04  0.14310362258E+04  0.10000000000E+02 0.  1.
</event>
<event>
 5    1  0.1757379E-008  0.3434081E+03  0.7957747E-01  0.3627804E+00
         13   -1    0    0    0    0  0.00000000000E+00  0.00000000000E+00  0.14999999963E+04  0.15000000000E+04  0.10566000000E+00 0. -1.
        994   -1    0    0    0    0 -0.00000000000E+00 -0.00000000000E+00  0.11368683772E-12  0.17120000000E+03  0.17120000000E+03 0.  0.
         13    1    1    2    0    0 -0.22899369618E+03  0.11459334195E+02  0.11041318050E+04  0.11276863408E+04  0.10566000000E+00 0. -1.
        994    1    1    2    0    0  0.15315457924E+03 -0.42602320924E+02  0.13487254607E+03  0.26976161064E+03  0.17120000000E+03 0.  0.
        998    1    1    2    0    0  0.75839116943E+02  0.31142986729E+02  0.26099564524E+03  0.27375204860E+03  0.10000000000E+02 0.  1.
</event>
<event>
 5    1  0.1757379E-008  0.3850235E+03  0.7957747E-01  0.3429573E+00
         13   -1    0    0    0    0  0.00000000000E+00  0.00000000000E+00  0.14999999963E+04  0.15000000000E+04  0.10566000000E+00 0.  1.
        994   -1    0    0    0    0 -0.00000000000E+00 -0.00000000000E+00  0.11368683772E-12  0.17120000000E+03  0.17120000000E+03 0.  0.
         13    1    1    2    0    0 -0.68845616146E+01 -0.16478667227E+02  0.92306749871E+02  0.94018566773E+02  0.10566000000E+00 0.  1.
        994    1    1    2    0    0  0.41100478338E+01  0.20288178413E+02  0.30288382728E+01  0.17247352416E+03  0.17120000000E+03 0.  0.
        998    1    1    2    0    0  0.27745137808E+01 -0.38095111864E+01  0.14046644081E+04  0.14047079091E+04  0.10000000000E+02 0.  1.
</event>
<event>
 5    1  0.1757379E-008  0.3802934E+03  0.7957747E-01  0.3449882E+00
         13   -1    0    0    0    0  0.00000000000E+00  0.00000000000E+00  0.14999999963E+04  0.15000000000E+04  0.10566000000E+00 0.  1.
        994   -1    0    0    0    0 -0.00000000000E+00 -0.00000000000E+00  0.11368683772E-12  0.17120000000E+03  0.17120000000E+03 0.  0.
         13    1    1    2    0    0  0.21627201916E+02 -0.18584856064E+02  0.99297253365E+02  0.10331064044E+03  0.10566000000E+00 0.  1.
        994    1    1    2    0    0 -0.40550546091E+01  0.26294573180E+02  0.63526787401E+01  0.17337140645E+03  0.17120000000E+03 0.  0.
        998    1    1    2    0    0 -0.17572147307E+02 -0.77097171158E+01  0.13943500642E+04  0.13945179531E+04  0.10000000000E+02 0.  1.
</event>
<event>
 5    1  0.1757379E-008  0.3851367E+03  0.7957747E-01  0.3429093E+00
         13   -1    0    0    0    0  0.00000000000E+00  0.00000000000E+00  0.14999999963E+04  0.15000000000E+04  0.10566000000E+00 0.  1.
        994   -1    0    0    0    0 -0.00000000000E+00 -0.00000000000E+00  0.11368683772E-12  0.17120000000E+03  0.17120000000E+03 0.  0.
         13    1    1    2    0    0  0.99093426179E+01  0.31796721217E+01  0.33881805839E+02  0.35444228259E+02  0.10566000000E+00 0.  1.
        994    1    1    2    0    0 -0.88499833040E+01 -0.88573309308E+01  0.20777960694E+01  0.17166983355E+03  0.17120000000E+03 0.  0.
        998    1    1    2    0    0 -0.10593593139E+01  0.56776588091E+01  0.14640403944E+04  0.14640859382E+04  0.10000000000E+02 0.  1.
</event>
<event>
 5    1  0.1757379E-008  0.3692551E+03  0.7957747E-01  0.3499321E+00
         13   -1    0    0    0    0  0.00000000000E+00  0.00000000000E+00  0.14999999963E+04  0.15000000000E+04  0.10566000000E+00 0. -1.
        994   -1    0    0    0    0 -0.00000000000E+00 -0.00000000000E+00  0.11368683772E-12  0.17120000000E+03  0.17120000000E+03 0.  0.
         13    1    1    2    0    0 -0.60278124614E+02  0.12271107403E+02  0.22263942276E+03  0.23098128954E+03  0.10566000000E+00 0. -1.
        994    1    1    2    0    0  0.77202269079E+01 -0.13384279019E+02  0.10486970904E+02  0.17221543888E+03  0.17120000000E+03 0.  0.
        998    1    1    2    0    0  0.52557897706E+02  0.11131716154E+01  0.12668736026E+04  0.12680032716E+04  0.10000000000E+02 0. -1.
</event>
<event>
 5    1  0.1757379E-008  0.3852068E+03  0.7957747E-01  0.3428796E+00
         13   -1    0    0    0    0  0.00000000000E+00  0.00000000000E+00  0.14999999963E+04  0.15000000000E+04  0.10566000000E+00 0. -1.
        994   -1    0    0    0    0 -0.00000000000E+00 -0.00000000000E+00  0.11368683772E-12  0.17120000000E+03  0.17120000000E+03 0.  0.
         13    1    1    2    0    0 -0.15113900759E+02  0.62919133892E+01  0.82633376633E+02  0.84239564743E+02  0.10566000000E+00 0. -1.
        994    1    1    2    0    0  0.12703673811E+02 -0.20028636194E+02  0.33784308236E+01  0.17286810981E+03  0.17120000000E+03 0.  0.
        998    1    1    2    0    0  0.24102269474E+01  0.13736722804E+02  0.14139881888E+04  0.14140923254E+04  0.10000000000E+02 0. -1.
</event>
<event>
 5    1  0.1757379E-008  0.3774658E+03  0.7957747E-01  0.3462268E+00
         13   -1    0    0    0    0  0.00000000000E+00  0.00000000000E+00  0.14999999963E+04  0.15000000000E+04  0.10566000000E+00 0.  1.
        994   -1    0    0    0    0 -0.00000000000E+00 -0.00000000000E+00  0.11368683772E-12  0.17120000000E+03  0.17120000000E+03 0.  0.
         13    1    1    2    0    0  0.14414517560E+02  0.70408009779E+02  0.35901597614E+03  0.36613870111E+03  0.10566000000E+00 0.  1.
        994    1    1    2    0    0 -0.17737129322E+02 -0.70366514609E+02  0.23381546873E+02  0.18740914831E+03  0.17120000000E+03 0.  0.
        998    1    1    2    0    0  0.33226117614E+01 -0.41495169758E-01  0.11176024733E+04  0.11176521506E+04  0.10000000000E+02 0.  1.
</event>
<event>
 5    1  0.1757379E-008  0.3854147E+03  0.7957747E-01  0.3427915E+00
         13   -1    0    0    0    0  0.00000000000E+00  0.00000000000E+00  0.14999999963E+04  0.15000000000E+04  0.10566000000E+00 0.  1.
        994   -1    0    0    0    0 -0.00000000000E+00 -0.00000000000E+00  0.11368683772E-12  0.17120000000E+03  0.17120000000E+03 0.  0.
         13    1    1    2    0    0 -0.87362026763E+01 -0.63371631872E+01  0.42521603949E+02  0.43870022121E+02  0.10566000000E+00 0.  1.
        994    1    1    2    0    0  0.34766844613E+01 -0.37657676373E+01  0.15106685144E+01  0.17128336306E+03  0.17120000000E+03 0.  0.
        998    1    1    2    0    0  0.52595182150E+01  0.10102930825E+02  0.14559677238E+04  0.14560466148E+04  0.10000000000E+02 0.  1.
</event>
<event>
 5    1  0.1757379E-008  0.3808406E+03  0.7957747E-01  0.3447507E+00
         13   -1    0    0    0    0  0.00000000000E+00  0.00000000000E+00  0.14999999963E+04  0.15000000000E+04  0.10566000000E+00 0. -1.
        994   -1    0    0    0    0 -0.00000000000E+00 -0.00000000000E+00  0.11368683772E-12  0.17120000000E+03  0.17120000000E+03 0.  0.
         13    1    1    2    0    0 -0.15110011435E+02  0.15610829906E+02  0.64122679960E+02  0.67703321228E+02  0.10566000000E+00 0. -1.
        994    1    1    2    0    0 -0.46000394662E-01 -0.10311280502E+02  0.40639628005E+01  0.17155838777E+03  0.17120000000E+03 0.  0.
        998    1    1    2    0    0  0.15156011830E+02 -0.52995494035E+01  0.14318133535E+04  0.14319382910E+04  0.10000000000E+02 0. -1.
</event>
<event>
 5    1  0.1757379E-008  0.3803502E+03  0.7957747E-01  0.3449635E+00
         13   -1    0    0    0    0  0.00000000000E+00  0.00000000000E+00  0.14999999963E+04  0.15000000000E+04  0.10566000000E+00 0.  1.
        994   -1    0    0    0    0 -0.00000000000E+00 -0.00000000000E+00  0.11368683772E-12  0.17120000000E+03  0.17120000000E+03 0.  0.
         13    1    1    2    0    0 -0.28979888353E+02 -0.46338270693E+00  0.10013711002E+03  0.10424730509E+03  0.10566000000E+00 0.  1.
        994    1    1    2    0    0  0.26299528458E+02  0.37567350223E+01  0.63166607040E+01  0.17336412102E+03  0.17120000000E+03 0.  0.
        998    1    1    2    0    0  0.26803598954E+01 -0.32933523153E+01  0.13935462256E+04  0.13935885739E+04  0.10000000000E+02 0.  0.
</event>
<event>
 5    1  0.1757379E-008  0.3825020E+03  0.7957747E-01  0.3440336E+00
         13   -1    0    0    0    0  0.00000000000E+00  0.00000000000E+00  0.14999999963E+04  0.15000000000E+04  0.10566000000E+00 0. -1.
        994   -1    0    0    0    0 -0.00000000000E+00 -0.00000000000E+00  0.11368683772E-12  0.17120000000E+03  0.17120000000E+03 0.  0.
         13    1    1    2    0    0 -0.12134852751E+02 -0.59600955510E+01  0.31337561939E+02  0.34129625585E+02  0.10566000000E+00 0. -1.
        994    1    1    2    0    0  0.48453341497E+01 -0.70526862810E+00  0.29549482232E+01  0.17129549435E+03  0.17120000000E+03 0.  0.
        998    1    1    2    0    0  0.72895186010E+01  0.66653641791E+01  0.14657074861E+04  0.14657748801E+04  0.10000000000E+02 0. -1.
</event>
<event>
 5    1  0.1757379E-008  0.3746132E+03  0.7957747E-01  0.3474954E+00
         13   -1    0    0    0    0  0.00000000000E+00  0.00000000000E+00  0.14999999963E+04  0.15000000000E+04  0.10566000000E+00 0.  1.
        994   -1    0    0    0    0 -0.00000000000E+00 -0.00000000000E+00  0.11368683772E-12  0.17120000000E+03  0.17120000000E+03 0.  0.
         13    1    1    2    0    0 -0.24722790716E+02 -0.30229214759E+02  0.10725461625E+03  0.11414283016E+03  0.10566000000E+00 0.  1.
        994    1    1    2    0    0  0.22023059807E+02  0.16091824460E+02  0.94138034596E+01  0.17361457794E+03  0.17120000000E+03 0.  0.
        998    1    1    2    0    0  0.26997309087E+01  0.14137390300E+02  0.13833315766E+04  0.13834425919E+04  0.10000000000E+02 0.  1.
</event>
<event>
 5    1  0.1757379E-008  0.3821915E+03  0.7957747E-01  0.3441671E+00
         13   -1    0    0    0    0  0.00000000000E+00  0.00000000000E+00  0.14999999963E+04  0.15000000000E+04  0.10566000000E+00 0. -1.
        994   -1    0    0    0    0 -0.00000000000E+00 -0.00000000000E+00  0.11368683772E-12  0.17120000000E+03  0.17120000000E+03 0.  0.
         13    1    1    2    0    0  0.13437501284E+01 -0.12317916004E+02  0.24698132298E+02  0.27632329293E+02  0.10566000000E+00 0. -1.
        994    1    1    2    0    0  0.84350010124E+01  0.28502323112E+01  0.32940962828E+01  0.17146301099E+03  0.17120000000E+03 0.  0.
        998    1    1    2    0    0 -0.97787511408E+01  0.94676836932E+01  0.14720077677E+04  0.14721046597E+04  0.10000000000E+02 0. -1.
</event>
<event>
 5    1  0.2120075E-008  0.3861905E+03  0.7957747E-01  0.3424639E+00
         13   -1    0    0    0    0  0.00000000000E+00  0.00000000000E+00  0.14999999963E+04  0.15000000000E+04  0.10566000000E+00 0.  1.
        994   -1    0    0    0    0 -0.00000000000E+00 -0.00000000000E+00  0.11368683772E-12  0.17120000000E+03  0.17120000000E+03 0.  0.
         13    1    1    2    0    0 -0.10153299374E+02 -0.40073096013E+01  0.55957269057E+02  0.57012061380E+02  0.10566000000E+00 0.  1.
        994    1    1    2    0    0  0.11896893467E+02  0.42072891248E+01  0.15620575372E+01  0.17167153922E+03  0.17120000000E+03 0.  0.
        998    1    1    2    0    0 -0.17435940928E+01 -0.19997952350E+00  0.14424806697E+04  0.14425163994E+04  0.10000000000E+02 0.  1.
</event>
<event>
 5    1  0.1757379E-008  0.3749780E+03  0.7957747E-01  0.3473321E+00
         13   -1    0    0    0    0  0.00000000000E+00  0.00000000000E+00  0.14999999963E+04  0.15000000000E+04  0.10566000000E+00 0.  1.
        994   -1    0    0    0    0 -0.00000000000E+00 -0.00000000000E+00  0.11368683772E-12  0.17120000000E+03  0.17120000000E+03 0.  0.
         13    1    1    2    0    0 -0.37946260106E+01  0.18383715006E+02  0.23661887904E+02  0.30203580371E+02  0.10566000000E+00 0.  1.
        994    1    1    2    0    0 -0.25708085629E+01 -0.11333489434E+02  0.71492832815E+01  0.17174285805E+03  0.17120000000E+03 0.  0.
        998    1    1    2    0    0  0.63654345735E+01 -0.70502255719E+01  0.14691888251E+04  0.14692535616E+04  0.10000000000E+02 0.  1.
</event>
<event>
 5    1  0.1757379E-008  0.3807094E+03  0.7957747E-01  0.3448075E+00
         13   -1    0    0    0    0  0.00000000000E+00  0.00000000000E+00  0.14999999963E+04  0.15000000000E+04  0.10566000000E+00 0. -1.
        994   -1    0    0    0    0 -0.00000000000E+00 -0.00000000000E+00  0.11368683772E-12  0.17120000000E+03  0.17120000000E+03 0.  0.
         13    1    1    2    0    0 -0.12112292782E+03  0.10138595662E+03  0.46419496123E+03  0.49033340599E+03  0.10566000000E+00 0. -1.
        994    1    1    2    0    0  0.12684718772E+03 -0.98278506284E+02  0.11738516126E+03  0.26236918629E+03  0.17120000000E+03 0.  0.
        998    1    1    2    0    0 -0.57242599063E+01 -0.31074503371E+01  0.91841987379E+03  0.91849740772E+03  0.10000000000E+02 0.  0.
</event>
<event>
 5    1  0.1757379E-008  0.3844802E+03  0.7957747E-01  0.3431880E+00
         13   -1    0    0    0    0  0.00000000000E+00  0.00000000000E+00  0.14999999963E+04  0.15000000000E+04  0.10566000000E+00 0.  1.
        994   -1    0    0    0    0 -0.00000000000E+00 -0.00000000000E+00  0.11368683772E-12  0.17120000000E+03  0.17120000000E+03 0.  0.
         13    1    1    2    0    0  0.68732841274E+01  0.18624424023E+02  0.10573112725E+03  0.10757877876E+03  0.10566000000E+00 0.  1.
        994    1    1    2    0    0  0.58171803917E+01 -0.13490428199E+02  0.25997613534E+01  0.17184885801E+03  0.17120000000E+03 0.  0.
        998    1    1    2    0    0 -0.12690464519E+02 -0.51339958245E+01  0.13916691077E+04  0.13917723632E+04  0.10000000000E+02 0.  1.
</event>
<event>
 5    1  0.1757379E-008  0.3853925E+03  0.7957747E-01  0.3428009E+00
         13   -1    0    0    0    0  0.00000000000E+00  0.00000000000E+00  0.14999999963E+04  0.15000000000E+04  0.10566000000E+00 0. -1.
        994   -1    0    0    0    0 -0.00000000000E+00 -0.00000000000E+00  0.11368683772E-12  0.17120000000E+03  0.17120000000E+03 0.  0.
         13    1    1    2    0    0 -0.13363097692E+02 -0.16945497271E+00  0.62864044616E+02  0.64268968908E+02  0.10566000000E+00 0. -1.
        994    1    1    2    0    0  0.79488023450E+01 -0.40476446659E+01  0.16967770939E+01  0.17144061928E+03  0.17120000000E+03 0.  0.
        998    1    1    2    0    0  0.54142953470E+01  0.42170996386E+01  0.14354391746E+04  0.14354904118E+04  0.10000000000E+02 0. -1.
</event>
<event>
 5    1  0.1757379E-008  0.3751200E+03  0.7957747E-01  0.3472686E+00
         13   -1    0    0    0    0  0.00000000000E+00  0.00000000000E+00  0.14999999963E+04  0.15000000000E+04  0.10566000000E+00 0. -1.
        994   -1    0    0    0    0 -0.00000000000E+00 -0.00000000000E+00  0.11368683772E-12  0.17120000000E+03  0.17120000000E+03 0.  0.
         13    1    1    2    0    0 -0.49369664498E+01  0.28759817825E+02  0.61910781074E+02  0.68443091223E+02  0.10566000000E+00 0. -1.
        994    1    1    2    0    0  0.13569695752E+02 -0.16379061530E+02  0.81558361245E+01  0.17270891107E+03  0.17120000000E+03 0.  0.
        998    1    1    2    0    0 -0.86327293020E+01 -0.12380756295E+02  0.14299333791E+04  0.14300479977E+04  0.10000000000E+02 0. -1.
</event>
<event>
 5    1  0.1757379E-008  0.3856487E+03  0.7957747E-01  0.3426926E+00
         13   -1    0    0    0    0  0.00000000000E+00  0.00000000000E+00  0.14999999963E+04  0.15000000000E+04  0.10566000000E+00 0. -1.
        994   -1    0    0    0    0 -0.00000000000E+00 -0.00000000000E+00  0.11368683772E-12  0.17120000000E+03  0.17120000000E+03 0.  0.
         13    1    1    2    0    0  0.61446710483E+01 -0.11141412567E+02  0.62998078411E+02  0.64270188297E+02  0.10566000000E+00 0. -1.
        994    1    1    2    0    0 -0.30906487868E+01  0.60850963864E+01  0.14613076309E+01  0.17134221876E+03  0.17120000000E+03 0.  0.
        998    1    1    2    0    0 -0.30540222615E+01  0.50563161810E+01  0.14355406102E+04  0.14355875929E+04  0.10000000000E+02 0. -1.
</event>
<event>
 5    1  0.1757379E-008  0.3697249E+03  0.7957747E-01  0.3497156E+00
         13   -1    0    0    0    0  0.00000000000E+00  0.00000000000E+00  0.14999999963E+04  0.15000000000E+04  0.10566000000E+00 0. -1.
        994   -1    0    0    0    0 -0.00000000000E+00 -0.00000000000E+00  0.11368683772E-12  0.17120000000E+03  0.17120000000E+03 0.  0.
         13    1    1    2    0    0  0.31449138291E+01 -0.54083803843E+02  0.16457513370E+03  0.17326261604E+03  0.10566000000E+00 0. -1.
        994    1    1    2    0    0 -0.12562735016E+01 -0.15162850078E+02  0.11602294051E+02  0.17226590920E+03  0.17120000000E+03 0.  0.
        998    1    1    2    0    0 -0.18886403275E+01  0.69246653922E+02  0.13238225685E+04  0.13256714748E+04  0.10000000000E+02 0. -1.
</event>
<event>
 5    1  0.1757379E-008  0.3801611E+03  0.7957747E-01  0.3450457E+00
         13   -1    0    0    0    0  0.00000000000E+00  0.00000000000E+00  0.14999999963E+04  0.15000000000E+04  0.10566000000E+00 0.  1.
        994   -1    0    0    0    0 -0.00000000000E+00 -0.00000000000E+00  0.11368683772E-12  0.17120000000E+03  0.17120000000E+03 0.  0.
         13    1    1    2    0    0  0.97206275130E+01  0.17178612883E+02  0.46883135151E+02  0.50868800511E+02  0.10566000000E+00 0.  1.
        994    1    1    2    0    0  0.10461158303E+00 -0.12809261255E+02  0.46002733686E+01  0.17174018351E+03  0.17120000000E+03 0.  0.
        998    1    1    2    0    0 -0.98252390960E+01 -0.43693516281E+01  0.14485165878E+04  0.14485910160E+04  0.10000000000E+02 0.  1.
</event>
<event>
 5    1  0.1757379E-008  0.3718132E+03  0.7957747E-01  0.3487599E+00
         13   -1    0    0    0    0  0.00000000000E+00  0.00000000000E+00  0.14999999963E+04  0.15000000000E+04  0.10566000000E+00 0.  1.
        994   -1    0    0    0    0 -0.00000000000E+00 -0.00000000000E+00  0.11368683772E-12  0.17120000000E+03  0.17120000000E+03 0.  0.
         13    1    1    2    0    0  0.58257143053E+01 -0.58719282505E+02  0.22490083859E+03  0.23251299199E+03  0.10566000000E+00 0.  1.
        994    1    1    2    0    0  0.97971845081E+01  0.20976267572E+02  0.10168334541E+02  0.17305728431E+03  0.17120000000E+03 0.  0.
        998    1    1    2    0    0 -0.15622898813E+02  0.37743014934E+02  0.12649308232E+04  0.12656297237E+04  0.10000000000E+02 0.  1.
</event>
<event>
 5    1  0.1757379E-008  0.3852258E+03  0.7957747E-01  0.3428715E+00
         13   -1    0    0    0    0  0.00000000000E+00  0.00000000000E+00  0.14999999963E+04  0.15000000000E+04  0.10566000000E+00 0. -1.
        994   -1    0    0    0    0 -0.00000000000E+00 -0.00000000000E+00  0.11368683772E-12  0.17120000000E+03  0.17120000000E+03 0.  0.
         13    1    1    2    0    0  0.11838545711E+02 -0.30974901556E+01  0.48258191552E+02  0.49785638749E+02  0.10566000000E+00 0. -1.
        994    1    1    2    0    0 -0.12489530932E+02  0.70561445520E+00  0.20325038354E+01  0.17166845181E+03  0.17120000000E+03 0.  0.
        998    1    1    2    0    0  0.65098522142E+00  0.23918757004E+01  0.14497093009E+04  0.14497459094E+04  0.10000000000E+02 0. -1.
</event>
<event>
 5    1  0.1757379E-008  0.3843352E+03  0.7957747E-01  0.3432497E+00
         13   -1    0    0    0    0  0.00000000000E+00  0.00000000000E+00  0.14999999963E+04  0.15000000000E+04  0.10566000000E+00 0.  1.
        994   -1    0    0    0    0 -0.00000000000E+00 -0.00000000000E+00  0.11368683772E-12  0.17120000000E+03  0.17120000000E+03 0.  0.
         13    1    1    2    0    0 -0.22731400101E+02  0.23882164366E+01  0.13174660471E+03  0.13371461829E+03  0.10566000000E+00 0.  1.
        994    1    1    2    0    0  0.17194074733E+02  0.14472099428E+02  0.36269304620E+01  0.17270689764E+03  0.17120000000E+03 0.  0.
        998    1    1    2    0    0  0.55373253682E+01 -0.16860315865E+02  0.13646264611E+04  0.13647784841E+04  0.10000000000E+02 0.  1.
</event>
<event>
 5    1  0.1757379E-008  0.3851196E+03  0.7957747E-01  0.3429165E+00
         13   -1    0    0    0    0  0.00000000000E+00  0.00000000000E+00  0.14999999963E+04  0.15000000000E+04  0.10566000000E+00 0. -1.
        994   -1    0    0    0    0 -0.00000000000E+00 -0.00000000000E+00  0.11368683772E-12  0.17120000000E+03  0.17120000000E+03 0.  0.
         13    1    1    2    0    0 -0.16181840803E+02 -0.20765368280E+01  0.87742260779E+02  0.89246173406E+02  0.10566000000E+00 0. -1.
        994    1    1    2    0    0  0.36955332847E+01  0.29637880463E+02  0.45088282551E+01  0.17384427070E+03  0.17120000000E+03 0.  0.
        998    1    1    2    0    0  0.12486307519E+02 -0.27561343635E+02  0.14077489072E+04  0.14081095559E+04  0.10000000000E+02 0. -1.
</event>
<event>
 5    1  0.1757379E-008  0.3762501E+03  0.7957747E-01  0.3467651E+00
         13   -1    0    0    0    0  0.00000000000E+00  0.00000000000E+00  0.14999999963E+04  0.15000000000E+04  0.10566000000E+00 0. -1.
        994   -1    0    0    0    0 -0.00000000000E+00 -0.00000000000E+00  0.11368683772E-12  0.17120000000E+03  0.17120000000E+03 0.  0.
         13    1    1    2    0    0 -0.14880506072E+02  0.62061848230E+00  0.12177373368E+01  0.14943516203E+02  0.10566000000E+00 0. -1.
        994    1    1    2    0    0  0.14146895736E+02  0.58222287238E+01  0.15119500933E+02  0.17254585569E+03  0.17120000000E+03 0.  0.
        998    1    1    2    0    0  0.73361033607E+00 -0.64428472061E+01  0.14836627580E+04  0.14837106281E+04  0.10000000000E+02 0. -1.
</event>
<event>
 5    1  0.1757379E-008  0.3850978E+03  0.7957747E-01  0.3429257E+00
         13   -1    0    0    0    0  0.00000000000E+00  0.00000000000E+00  0.14999999963E+04  0.15000000000E+04  0.10566000000E+00 0. -1.
        994   -1    0    0    0    0 -0.00000000000E+00 -0.00000000000E+00  0.11368683772E-12  0.17120000000E+03  0.17120000000E+03 0.  0.
         13    1    1    2    0    0 -0.35675201572E+01 -0.17744278416E+02  0.10613180044E+03  0.10766409265E+03  0.10566000000E+00 0. -1.
        994    1    1    2    0    0  0.12125010324E+02  0.66524897532E+01  0.22106627986E+01  0.17177193754E+03  0.17120000000E+03 0.  0.
        998    1    1    2    0    0 -0.85574901667E+01  0.11091788663E+02  0.13916575330E+04  0.13917639698E+04  0.10000000000E+02 0. -1.
</event>
<event>
 5    1  0.1757379E-008  0.3850005E+03  0.7957747E-01  0.3429670E+00
         13   -1    0    0    0    0  0.00000000000E+00  0.00000000000E+00  0.14999999963E+04  0.15000000000E+04  0.10566000000E+00 0.  1.
        994   -1    0    0    0    0 -0.00000000000E+00 -0.00000000000E+00  0.11368683772E-12  0.17120000000E+03  0.17120000000E+03 0.  0.
         13    1    1    2    0    0 -0.17097429924E+02 -0.60445668427E+01  0.84784258672E+02  0.86702021782E+02  0.10566000000E+00 0.  1.
        994    1    1    2    0    0  0.38158722518E+02  0.22233116528E+01  0.64495199308E+01  0.17553366494E+03  0.17120000000E+03 0.  0.
        998    1    1    2    0    0 -0.21061292594E+02  0.38212551899E+01  0.14087662177E+04  0.14089643133E+04  0.10000000000E+02 0.  1.
</event>
<event>
 5    1  0.1757379E-008  0.3788546E+03  0.7957747E-01  0.3456161E+00
         13   -1    0    0    0    0  0.00000000000E+00  0.00000000000E+00  0.14999999963E+04  0.15000000000E+04  0.10566000000E+00 0.  1.
        994   -1    0    0    0    0 -0.00000000000E+00 -0.00000000000E+00  0.11368683772E-12  0.17120000000E+03  0.17120000000E+03 0.  0.
         13    1    1    2    0    0 -0.21909980854E+02  0.11501879919E+02  0.61835363964E+02  0.66603032238E+02  0.10566000000E+00 0.  1.
        994    1    1    2    0    0  0.17344840132E+02 -0.13173172180E+02  0.63058859191E+01  0.17269504956E+03  0.17120000000E+03 0.  0.
        998    1    1    2    0    0  0.45651407220E+01  0.16712922608E+01  0.14318587464E+04  0.14319019182E+04  0.10000000000E+02 0.  1.
</event>
<event>
 5    1  0.1757379E-008  0.3723960E+03  0.7957747E-01  0.3484951E+00
         13   -1    0    0    0    0  0.00000000000E+00  0.00000000000E+00  0.14999999963E+04  0.15000000000E+04  0.10566000000E+00 0. -1.
        994   -1    0    0    0    0 -0.00000000000E+00 -0.00000000000E+00  0.11368683772E-12  0.17120000000E+03  0.17120000000E+03 0.  0.
         13    1    1    2    0    0 -0.14247919825E+03  0.28116343871E+02  0.67802817438E+03  0.69340685542E+03  0.10566000000E+00 0. -1.
        994    1    1    2    0    0  0.14091379626E+03 -0.27286085806E+02  0.82349417017E+02  0.23810101835E+03  0.17120000000E+03 0.  0.
        998    1    1    2    0    0  0.15654019889E+01 -0.83025806503E+00  0.73962240488E+03  0.73969212623E+03  0.10000000000E+02 0.  0.
</event>
<event>
 5    1  0.1757379E-008  0.3818536E+03  0.7957747E-01  0.3443127E+00
         13   -1    0    0    0    0  0.00000000000E+00  0.00000000000E+00  0.14999999963E+04  0.15000000000E+04  0.10566000000E+00 0. -1.
        994   -1    0    0    0    0 -0.00000000000E+00 -0.00000000000E+00  0.11368683772E-12  0.17120000000E+03  0.17120000000E+03 0.  0.
         13    1    1    2    0    0  0.24629390477E+02 -0.17784643240E+02  0.17096401966E+03  0.17364218264E+03  0.10566000000E+00 0. -1.
        994    1    1    2    0    0  0.14015668058E+01 -0.59063163061E+01  0.33228353178E+01  0.17133980914E+03  0.17120000000E+03 0.  0.
        998    1    1    2    0    0 -0.26030957283E+02  0.23690959546E+02  0.13257131413E+04  0.13262180082E+04  0.10000000000E+02 0. -1.
</event>
<event>
 5    1  0.1757379E-008  0.3814730E+03  0.7957747E-01  0.3444770E+00
         13   -1    0    0    0    0  0.00000000000E+00  0.00000000000E+00  0.14999999963E+04  0.15000000000E+04  0.10566000000E+00 0.  1.
        994   -1    0    0    0    0 -0.00000000000E+00 -0.00000000000E+00  0.11368683772E-12  0.17120000000E+03  0.17120000000E+03 0.  0.
         13    1    1    2    0    0 -0.81307515882E+01 -0.16128671513E+02  0.53356340229E+02  0.56330749798E+02  0.10566000000E+00 0.  1.
        994    1    1    2    0    0 -0.83892470871E+01 -0.16672988623E+02  0.45512175256E+01  0.17227455296E+03  0.17120000000E+03 0.  0.
        998    1    1    2    0    0  0.16519998675E+02  0.32801660136E+02  0.14420924385E+04  0.14425946972E+04  0.10000000000E+02 0.  1.
</event>
<event>
 5    1  0.1757379E-008  0.3862441E+03  0.7957747E-01  0.3424413E+00
         13   -1    0    0    0    0  0.00000000000E+00  0.00000000000E+00  0.14999999963E+04  0.15000000000E+04  0.10566000000E+00 0.  1.
        994   -1    0    0    0    0 -0.00000000000E+00 -0.00000000000E+00  0.11368683772E-12  0.17120000000E+03  0.17120000000E+03 0.  0.
         13    1    1    2    0    0  0.98477021380E+01 -0.42974530609E+01  0.58128917027E+02  0.59113682841E+02  0.10566000000E+00 0.  1.
        994    1    1    2    0    0  0.53577002448E+01  0.32960158831E+02  0.46746288979E+01  0.17448887981E+03  0.17120000000E+03 0.  0.
        998    1    1    2    0    0 -0.15205402383E+02 -0.28662705770E+02  0.14371964504E+04  0.14375974373E+04  0.10000000000E+02 0.  1.
</event>
<event>
 5    1  0.1757379E-008  0.3860517E+03  0.7957747E-01  0.3425224E+00
         13   -1    0    0    0    0  0.00000000000E+00  0.00000000000E+00  0.14999999963E+04  0.15000000000E+04  0.10566000000E+00 0.  1.
        994   -1    0    0    0    0 -0.00000000000E+00 -0.00000000000E+00  0.11368683772E-12  0.17120000000E+03  0.17120000000E+03 0.  0.
         13    1    1    2    0    0 -0.43165291477E+01 -0.10572697325E+02  0.57176784906E+02  0.58306176764E+02  0.10566000000E+00 0.  1.
        994    1    1    2    0    0  0.76985099835E+00  0.14171842805E+02  0.17693472585E+01  0.17179640389E+03  0.17120000000E+03 0.  0.
        998    1    1    2    0    0  0.35466781493E+01 -0.35991454804E+01  0.14410538641E+04  0.14410974193E+04  0.10000000000E+02 0.  1.
</event>
<event>
 5    1  0.1757379E-008  0.3793776E+03  0.7957747E-01  0.3453873E+00
         13   -1    0    0    0    0  0.00000000000E+00  0.00000000000E+00  0.14999999963E+04  0.15000000000E+04  0.10566000000E+00 0.  1.
        994   -1    0    0    0    0 -0.00000000000E+00 -0.00000000000E+00  0.11368683772E-12  0.17120000000E+03  0.17120000000E+03 0.  0.
         13    1    1    2    0    0 -0.11855509647E+02  0.12872685497E+02  0.32342088529E+02  0.36773373456E+02  0.10566000000E+00 0.  1.
        994    1    1    2    0    0  0.17424614620E+02 -0.43803118941E+01  0.55297271029E+01  0.17222898191E+03  0.17120000000E+03 0.  0.
        998    1    1    2    0    0 -0.55691049722E+01 -0.84923736025E+01  0.14621281806E+04  0.14621976446E+04  0.10000000000E+02 0.  1.
</event>
<event>
 5    1  0.1757379E-008  0.3852913E+03  0.7957747E-01  0.3428438E+00
         13   -1    0    0    0    0  0.00000000000E+00  0.00000000000E+00  0.14999999963E+04  0.15000000000E+04  0.10566000000E+00 0.  1.
        994   -1    0    0    0    0 -0.00000000000E+00 -0.00000000000E+00  0.11368683772E-12  0.17120000000E+03  0.17120000000E+03 0.  0.
         13    1    1    2    0    0  0.14012460398E+02  0.24346293191E+01  0.68499465962E+02  0.69960449308E+02  0.10566000000E+00 0.  1.
        994    1    1    2    0    0 -0.10307971141E+02  0.67411752162E+01  0.19841419720E+01  0.17165393829E+03  0.17120000000E+03 0.  0.
        998    1    1    2    0    0 -0.37044892567E+01 -0.91758045353E+01  0.14295163883E+04  0.14295856124E+04  0.10000000000E+02 0.  1.
</event>
<event>
 5    1  0.1757379E-008  0.3819214E+03  0.7957747E-01  0.3442835E+00
         13   -1    0    0    0    0  0.00000000000E+00  0.00000000000E+00  0.14999999963E+04  0.15000000000E+04  0.10566000000E+00 0.  1.
        994   -1    0    0    0    0 -0.00000000000E+00 -0.00000000000E+00  0.11368683772E-12  0.17120000000E+03  0.17120000000E+03 0.  0.
         13    1    1    2    0    0  0.58172373234E+01 -0.32025944151E+02  0.18834153539E+03  0.19113358278E+03  0.10566000000E+00 0.  1.
        994    1    1    2    0    0 -0.20061766632E+01  0.36693031827E+01  0.32244582032E+01  0.17128142241E+03  0.17120000000E+03 0.  0.
        998    1    1    2    0    0 -0.38110606602E+01  0.28356640968E+02  0.13084340027E+04  0.13087849948E+04  0.10000000000E+02 0.  1.
</event>
<event>
 5    1  0.1757379E-008  0.3776546E+03  0.7957747E-01  0.3461435E+00
         13   -1    0    0    0    0  0.00000000000E+00  0.00000000000E+00  0.14999999963E+04  0.15000000000E+04  0.10566000000E+00 0.  1.
        994   -1    0    0    0    0 -0.00000000000E+00 -0.00000000000E+00  0.11368683772E-12  0.17120000000E+03  0.17120000000E+03 0.  0.
         13    1    1    2    0    0  0.12375353389E+02 -0.15410257167E+02  0.34444488999E+02  0.39712206989E+02  0.10566000000E+00 0.  1.
        994    1    1    2    0    0  0.91086116635E+00  0.19265083591E+02  0.65759697006E+01  0.17240840029E+03  0.17120000000E+03 0.  0.
        998    1    1    2    0    0 -0.13286214556E+02 -0.38548264238E+01  0.14589795376E+04  0.14590793927E+04  0.10000000000E+02 0.  1.
</event>
<event>
 5    1  0.1757379E-008  0.3772076E+03  0.7957747E-01  0.3463408E+00
         13   -1    0    0    0    0  0.00000000000E+00  0.00000000000E+00  0.14999999963E+04  0.15000000000E+04  0.10566000000E+00 0. -1.
        994   -1    0    0    0    0 -0.00000000000E+00 -0.00000000000E+00  0.11368683772E-12  0.17120000000E+03  0.17120000000E+03 0.  0.
         13    1    1    2    0    0 -0.59687593458E+01  0.26595819598E+02  0.62596913993E+02  0.68274069116E+02  0.10566000000E+00 0. -1.
        994    1    1    2    0    0 -0.14074313830E+01 -0.28011181551E+02  0.82080617980E+01  0.17367619133E+03  0.17120000000E+03 0.  0.
        998    1    1    2    0    0  0.73761907288E+01  0.14153619532E+01  0.14291950205E+04  0.14292497396E+04  0.10000000000E+02 0. -1.
</event>
<event>
 5    1  0.1757379E-008  0.3830830E+03  0.7957747E-01  0.3437843E+00
         13   -1    0    0    0    0  0.00000000000E+00  0.00000000000E+00  0.14999999963E+04  0.15000000000E+04  0.10566000000E+00 0. -1.
        994   -1    0    0    0    0 -0.00000000000E+00 -0.00000000000E+00  0.11368683772E-12  0.17120000000E+03  0.17120000000E+03 0.  0.
         13    1    1    2    0    0  0.14054711421E+02  0.24863702736E+01  0.39220606309E+02  0.41737082715E+02  0.10566000000E+00 0. -1.
        994    1    1    2    0    0 -0.47483896405E+01 -0.56782125412E+01  0.27662252733E+01  0.17138226660E+03  0.17120000000E+03 0.  0.
        998    1    1    2    0    0 -0.93063217802E+01  0.31918422676E+01  0.14580131647E+04  0.14580806507E+04  0.10000000000E+02 0. -1.
</event>
<event>
 5    1  0.1757379E-008  0.3851346E+03  0.7957747E-01  0.3429102E+00
         13   -1    0    0    0    0  0.00000000000E+00  0.00000000000E+00  0.14999999963E+04  0.15000000000E+04  0.10566000000E+00 0. -1.
        994   -1    0    0    0    0 -0.00000000000E+00 -0.00000000000E+00  0.11368683772E-12  0.17120000000E+03  0.17120000000E+03 0.  0.
         13    1    1    2    0    0  0.53692015275E+01 -0.14634683747E+02  0.80619979281E+02  0.82113302922E+02  0.10566000000E+00 0. -1.
        994    1    1    2    0    0 -0.13840226736E+02  0.84880097428E+00  0.21956226593E+01  0.17177465790E+03  0.17120000000E+03 0.  0.
        998    1    1    2    0    0  0.84710252085E+01  0.13785882773E+02  0.14171843943E+04  0.14173120392E+04  0.10000000000E+02 0. -1.
</event>
<event>
 5    1  0.1757379E-008  0.3757414E+03  0.7957747E-01  0.3469913E+00
         13   -1    0    0    0    0  0.00000000000E+00  0.00000000000E+00  0.14999999963E+04  0.15000000000E+04  0.10566000000E+00 0.  1.
        994   -1    0    0    0    0 -0.00000000000E+00 -0.00000000000E+00  0.11368683772E-12  0.17120000000E+03  0.17120000000E+03 0.  0.
         13    1    1    2    0    0  0.58357027948E+02 -0.90003502739E+02  0.58180621680E+03  0.59161191527E+03  0.10566000000E+00 0.  1.
        994    1    1    2    0    0 -0.42596621878E+02  0.94618175193E+02  0.43728467528E+02  0.20491142024E+03  0.17120000000E+03 0.  0.
        998    1    1    2    0    0 -0.15760406070E+02 -0.46146724545E+01  0.87446531195E+03  0.87467666449E+03  0.10000000000E+02 0.  1.
</event>
<event>
 5    1  0.1757379E-008  0.3765235E+03  0.7957747E-01  0.3466437E+00
         13   -1    0    0    0    0  0.00000000000E+00  0.00000000000E+00  0.14999999963E+04  0.15000000000E+04  0.10566000000E+00 0. -1.
        994   -1    0    0    0    0 -0.00000000000E+00 -0.00000000000E+00  0.11368683772E-12  0.17120000000E+03  0.17120000000E+03 0.  0.
         13    1    1    2    0    0 -0.45711764243E+02  0.77514378753E+01  0.81819939318E+02  0.94043414514E+02  0.10566000000E+00 0. -1.
        994    1    1    2    0    0 -0.18069030150E+02  0.40650075791E+02  0.21544795179E+02  0.17819241485E+03  0.17120000000E+03 0.  0.
        998    1    1    2    0    0  0.63780794393E+02 -0.48401513666E+02  0.13966352618E+04  0.13989641706E+04  0.10000000000E+02 0. -1.
</event>
<event>
 5    1  0.1757379E-008  0.3717004E+03  0.7957747E-01  0.3488113E+00
         13   -1    0    0    0    0  0.00000000000E+00  0.00000000000E+00  0.14999999963E+04  0.15000000000E+04  0.10566000000E+00 0.  1.
        994   -1    0    0    0    0 -0.00000000000E+00 -0.00000000000E+00  0.11368683772E-12  0.17120000000E+03  0.17120000000E+03 0.  0.
         13    1    1    2    0    0  0.33991009266E+02  0.25947544259E+02  0.10234515605E+03  0.11091981741E+03  0.10566000000E+00 0.  1.
        994    1    1    2    0    0 -0.27724353119E+02 -0.22559155486E+02  0.12787320620E+02  0.17535823568E+03  0.17120000000E+03 0.  0.
        998    1    1    2    0    0 -0.62666561472E+01 -0.33883887729E+01  0.13848675196E+04  0.13849219469E+04  0.10000000000E+02 0.  1.
</event>
<event>
 5    1  0.1757379E-008  0.3738747E+03  0.7957747E-01  0.3478271E+00
         13   -1    0    0    0    0  0.00000000000E+00  0.00000000000E+00  0.14999999963E+04  0.15000000000E+04  0.10566000000E+00 0. -1.
        994   -1    0    0    0    0 -0.00000000000E+00 -0.00000000000E+00  0.11368683772E-12  0.17120000000E+03  0.17120000000E+03 0.  0.
         13    1    1    2    0    0  0.52513191090E+01  0.10038562486E+02 -0.11575037676E+01  0.11388593775E+02  0.10566000000E+00 0. -1.
        994    1    1    2    0    0 -0.85917579852E+01 -0.11484451530E+02  0.13731815755E+02  0.17234765358E+03  0.17120000000E+03 0.  0.
        998    1    1    2    0    0  0.33404388763E+01  0.14458890442E+01  0.14874256843E+04  0.14874637526E+04  0.10000000000E+02 0. -1.
</event>
<event>
 5    1  0.1757379E-008  0.3754018E+03  0.7957747E-01  0.3471428E+00
         13   -1    0    0    0    0  0.00000000000E+00  0.00000000000E+00  0.14999999963E+04  0.15000000000E+04  0.10566000000E+00 0. -1.
        994   -1    0    0    0    0 -0.00000000000E+00 -0.00000000000E+00  0.11368683772E-12  0.17120000000E+03  0.17120000000E+03 0.  0.
         13    1    1    2    0    0  0.61863998470E+02  0.35325540052E+01  0.32042931821E+03  0.32636573407E+03  0.10566000000E+00 0. -1.
        994    1    1    2    0    0 -0.24397775586E+02 -0.24244244617E+02  0.10498997703E+02  0.17493628498E+03  0.17120000000E+03 0.  0.
        998    1    1    2    0    0 -0.37466222884E+02  0.20711690612E+02  0.11690716804E+04  0.11698979809E+04  0.10000000000E+02 0. -1.
</event>
<event>
 5    1  0.1757379E-008  0.3838043E+03  0.7957747E-01  0.3434759E+00
         13   -1    0    0    0    0  0.00000000000E+00  0.00000000000E+00  0.14999999963E+04  0.15000000000E+04  0.10566000000E+00 0.  1.
        994   -1    0    0    0    0 -0.00000000000E+00 -0.00000000000E+00  0.11368683772E-12  0.17120000000E+03  0.17120000000E+03 0.  0.
         13    1    1    2    0    0 -0.11714733255E+02  0.85011806964E+01  0.49897972897E+02  0.51955018157E+02  0.10566000000E+00 0.  1.
        994    1    1    2    0    0 -0.37894416238E+01  0.26827246468E+01  0.22961169128E+01  0.17127833790E+03  0.17120000000E+03 0.  0.
        998    1    1    2    0    0  0.15504174879E+02 -0.11183905343E+02  0.14478059065E+04  0.14479666439E+04  0.10000000000E+02 0.  1.
</event>
<event>
 5    1  0.1757379E-008  0.3823531E+03  0.7957747E-01  0.3440976E+00
         13   -1    0    0    0    0  0.00000000000E+00  0.00000000000E+00  0.14999999963E+04  0.15000000000E+04  0.10566000000E+00 0. -1.
        994   -1    0    0    0    0 -0.00000000000E+00 -0.00000000000E+00  0.11368683772E-12  0.17120000000E+03  0.17120000000E+03 0.  0.
         13    1    1    2    0    0  0.39354894201E+01 -0.10940691734E+02  0.22023212683E+02  0.24904213971E+02  0.10566000000E+00 0. -1.
        994    1    1    2    0    0 -0.36399813346E+01  0.35595848719E+01  0.30359846062E+01  0.17130258991E+03  0.17120000000E+03 0.  0.
        998    1    1    2    0    0 -0.29550808550E+00  0.73811068619E+01  0.14749407990E+04  0.14749931961E+04  0.10000000000E+02 0. -1.
</event>
<event>
 5    1  0.1757379E-008  0.3825544E+03  0.7957747E-01  0.3440111E+00
         13   -1    0    0    0    0  0.00000000000E+00  0.00000000000E+00  0.14999999963E+04  0.15000000000E+04  0.10566000000E+00 0. -1.
        994   -1    0    0    0    0 -0.00000000000E+00 -0.00000000000E+00  0.11368683772E-12  0.17120000000E+03  0.17120000000E+03 0.  0.
         13    1    1    2    0    0 -0.19846929559E+02  0.22520239486E+02  0.13153550845E+03  0.13491724481E+03  0.10566000000E+00 0. -1.
        994    1    1    2    0    0  0.26729391144E+02 -0.35431467965E+02  0.94067790040E+01  0.17710950501E+03  0.17120000000E+03 0.  0.
        998    1    1    2    0    0 -0.68824615849E+01  0.12911228479E+02  0.13590577088E+04  0.13591732502E+04  0.10000000000E+02 0. -1.
</event>
<event>
 5    1  0.1757379E-008  0.3841390E+03  0.7957747E-01  0.3433332E+00
         13   -1    0    0    0    0  0.00000000000E+00  0.00000000000E+00  0.14999999963E+04  0.15000000000E+04  0.10566000000E+00 0.  1.
        994   -1    0    0    0    0 -0.00000000000E+00 -0.00000000000E+00  0.11368683772E-12  0.17120000000E+03  0.17120000000E+03 0.  0.
         13    1    1    2    0    0  0.16116014453E+02 -0.29870317126E+01  0.61679951164E+02  0.63820653553E+02  0.10566000000E+00 0.  1.
        994    1    1    2    0    0 -0.19335371265E+02  0.49260474321E+01  0.33722699032E+01  0.17239180587E+03  0.17120000000E+03 0.  0.
        998    1    1    2    0    0  0.32193568125E+01 -0.19390157195E+01  0.14349477752E+04  0.14349875406E+04  0.10000000000E+02 0.  1.
</event>
<event>
 5    1  0.1757379E-008  0.3730044E+03  0.7957747E-01  0.3482196E+00
         13   -1    0    0    0    0  0.00000000000E+00  0.00000000000E+00  0.14999999963E+04  0.15000000000E+04  0.10566000000E+00 0. -1.
        994   -1    0    0    0    0 -0.00000000000E+00 -0.00000000000E+00  0.11368683772E-12  0.17120000000E+03  0.17120000000E+03 0.  0.
         13    1    1    2    0    0 -0.35626472258E+02  0.82458835224E+01  0.89565284054E+02  0.96742913912E+02  0.10566000000E+00 0. -1.
        994    1    1    2    0    0  0.38845717342E+01 -0.99150252189E+01  0.80952389861E+01  0.17172178230E+03  0.17120000000E+03 0.  0.
        998    1    1    2    0    0  0.31741900524E+02  0.16691416965E+01  0.14023394732E+04  0.14027353038E+04  0.10000000000E+02 0. -1.
</event>
<event>
 5    1  0.1757379E-008  0.3779738E+03  0.7957747E-01  0.3460029E+00
         13   -1    0    0    0    0  0.00000000000E+00  0.00000000000E+00  0.14999999963E+04  0.15000000000E+04  0.10566000000E+00 0.  1.
        994   -1    0    0    0    0 -0.00000000000E+00 -0.00000000000E+00  0.11368683772E-12  0.17120000000E+03  0.17120000000E+03 0.  0.
         13    1    1    2    0    0  0.25414215012E+02  0.43365390641E+02  0.26777311597E+03  0.27244979763E+03  0.10566000000E+00 0.  1.
        994    1    1    2    0    0 -0.33366924355E+02 -0.12790940351E+01  0.89210912153E+01  0.17465398247E+03  0.17120000000E+03 0.  0.
        998    1    1    2    0    0  0.79527093433E+01 -0.42086296606E+02  0.12233057891E+04  0.12240962199E+04  0.10000000000E+02 0.  1.
</event>
<event>
 5    1  0.1757379E-008  0.3843596E+03  0.7957747E-01  0.3432393E+00
         13   -1    0    0    0    0  0.00000000000E+00  0.00000000000E+00  0.14999999963E+04  0.15000000000E+04  0.10566000000E+00 0. -1.
        994   -1    0    0    0    0 -0.00000000000E+00 -0.00000000000E+00  0.11368683772E-12  0.17120000000E+03  0.17120000000E+03 0.  0.
         13    1    1    2    0    0 -0.95295940146E+01  0.10395238133E+02  0.49325995276E+02  0.51302427934E+02  0.10566000000E+00 0. -1.
        994    1    1    2    0    0  0.90827244776E+01 -0.11728498320E+02  0.26739220293E+01  0.17186228038E+03  0.17120000000E+03 0.  0.
        998    1    1    2    0    0  0.44686953701E+00  0.13332601870E+01  0.14480000790E+04  0.14480352917E+04  0.10000000000E+02 0. -1.
</event>
<event>
 5    1  0.1757379E-008  0.3765384E+03  0.7957747E-01  0.3466371E+00
         13   -1    0    0    0    0  0.00000000000E+00  0.00000000000E+00  0.14999999963E+04  0.15000000000E+04  0.10566000000E+00 0. -1.
        994   -1    0    0    0    0 -0.00000000000E+00 -0.00000000000E+00  0.11368683772E-12  0.17120000000E+03  0.17120000000E+03 0.  0.
         13    1    1    2    0    0 -0.14425964715E+02  0.66262898359E+02  0.38656337472E+03  0.39246672979E+03  0.10566000000E+00 0. -1.
        994    1    1    2    0    0  0.25629442168E+01 -0.39561686437E+02  0.11224277233E+02  0.17608838723E+03  0.17120000000E+03 0.  0.
        998    1    1    2    0    0  0.11863020498E+02 -0.26701211923E+02  0.11022123443E+04  0.11026448830E+04  0.10000000000E+02 0. -1.
</event>
<event>
 5    1  0.1757379E-008  0.3829790E+03  0.7957747E-01  0.3438289E+00
         13   -1    0    0    0    0  0.00000000000E+00  0.00000000000E+00  0.14999999963E+04  0.15000000000E+04  0.10566000000E+00 0. -1.
        994   -1    0    0    0    0 -0.00000000000E+00 -0.00000000000E+00  0.11368683772E-12  0.17120000000E+03  0.17120000000E+03 0.  0.
         13    1    1    2    0    0 -0.34521187864E+01  0.29565904133E+02  0.14188808952E+03  0.14497689789E+03  0.10566000000E+00 0. -1.
        994    1    1    2    0    0 -0.47190094553E+01 -0.41140242835E+02  0.83342246123E+01  0.17633402375E+03  0.17120000000E+03 0.  0.
        998    1    1    2    0    0  0.81711282417E+01  0.11574338702E+02  0.13497776822E+04  0.13498890784E+04  0.10000000000E+02 0. -1.
</event>
<event>
 5    1  0.1757379E-008  0.3809654E+03  0.7957747E-01  0.3446966E+00
         13   -1    0    0    0    0  0.00000000000E+00  0.00000000000E+00  0.14999999963E+04  0.15000000000E+04  0.10566000000E+00 0.  1.
        994   -1    0    0    0    0 -0.00000000000E+00 -0.00000000000E+00  0.11368683772E-12  0.17120000000E+03  0.17120000000E+03 0.  0.
         13    1    1    2    0    0 -0.43860332387E+01  0.13907601098E+02  0.28703154982E+02  0.32195355656E+02  0.10566000000E+00 0.  1.
        994    1    1    2    0    0 -0.29264934899E+02 -0.82274589419E+01  0.67321873074E+01  0.17400830394E+03  0.17120000000E+03 0.  0.
        998    1    1    2    0    0  0.33650968138E+02 -0.56801421566E+01  0.14645646540E+04  0.14649963404E+04  0.10000000000E+02 0.  1.
</event>
<event>
 5    1  0.1757379E-008  0.3826343E+03  0.7957747E-01  0.3439768E+00
         13   -1    0    0    0    0  0.00000000000E+00  0.00000000000E+00  0.14999999963E+04  0.15000000000E+04  0.10566000000E+00 0. -1.
        994   -1    0    0    0    0 -0.00000000000E+00 -0.00000000000E+00  0.11368683772E-12  0.17120000000E+03  0.17120000000E+03 0.  0.
         13    1    1    2    0    0 -0.20818632220E+02  0.20492764231E+02  0.16856389860E+03  0.17107649725E+03  0.10566000000E+00 0. -1.
        994    1    1    2    0    0  0.28677155471E+01 -0.26457561966E+01  0.28596739498E+01  0.17126833202E+03  0.17120000000E+03 0.  0.
        998    1    1    2    0    0  0.17950916673E+02 -0.17847008034E+02  0.13285764237E+04  0.13288551707E+04  0.10000000000E+02 0. -1.
</event>
<event>
 5    1  0.1757379E-008  0.3808527E+03  0.7957747E-01  0.3447454E+00
         13   -1    0    0    0    0  0.00000000000E+00  0.00000000000E+00  0.14999999963E+04  0.15000000000E+04  0.10566000000E+00 0. -1.
        994   -1    0    0    0    0 -0.00000000000E+00 -0.00000000000E+00  0.11368683772E-12  0.17120000000E+03  0.17120000000E+03 0.  0.
         13    1    1    2    0    0 -0.30692726890E+02  0.98860741817E+01  0.13288980188E+03  0.13674607327E+03  0.10566000000E+00 0. -1.
        994    1    1    2    0    0  0.32800752893E+02  0.13279300683E+02  0.78889432020E+01  0.17499687038E+03  0.17120000000E+03 0.  0.
        998    1    1    2    0    0 -0.21080260024E+01 -0.23165374865E+02  0.13592212512E+04  0.13594570564E+04  0.10000000000E+02 0. -1.
</event>
<event>
 5    1  0.1757379E-008  0.3687864E+03  0.7957747E-01  0.3501487E+00
         13   -1    0    0    0    0  0.00000000000E+00  0.00000000000E+00  0.14999999963E+04  0.15000000000E+04  0.10566000000E+00 0. -1.
        994   -1    0    0    0    0 -0.00000000000E+00 -0.00000000000E+00  0.11368683772E-12  0.17120000000E+03  0.17120000000E+03 0.  0.
         13    1    1    2    0    0 -0.26361300853E+03  0.15756523701E+03  0.89992718223E+03  0.95088777817E+03  0.10566000000E+00 0. -1.
        994    1    1    2    0    0  0.25897249478E+03 -0.14681686858E+03  0.43355201527E+03  0.55308112957E+03  0.17120000000E+03 0.  0.
        998    1    1    2    0    0  0.46405137553E+01 -0.10748368431E+02  0.16652079878E+03  0.16723109226E+03  0.10000000000E+02 0.  0.
</event>
<event>
 5    1  0.1757379E-008  0.4479888E+03  0.7957747E-01  0.3199800E+00
         13   -1    0    0    0    0  0.00000000000E+00  0.00000000000E+00  0.14999999963E+04  0.15000000000E+04  0.10566000000E+00 0.  1.
        994   -1    0    0    0    0 -0.00000000000E+00 -0.00000000000E+00  0.11368683772E-12  0.17120000000E+03  0.17120000000E+03 0.  0.
         13    1    1    2    0    0  0.89582125951E+02 -0.62254130043E+02  0.77994809882E+02  0.13410345085E+03  0.10566000000E+00 0.  1.
        994    1    1    2    0    0 -0.81999761911E+02  0.69975102102E+02  0.12043985161E+03  0.23544781529E+03  0.17120000000E+03 0.  0.
        998    1    1    2    0    0 -0.75823640396E+01 -0.77209720581E+01  0.13015653348E+04  0.13016487339E+04  0.10000000000E+02 0.  1.
</event>
<event>
 5    1  0.1757379E-008  0.3787088E+03  0.7957747E-01  0.3456800E+00
         13   -1    0    0    0    0  0.00000000000E+00  0.00000000000E+00  0.14999999963E+04  0.15000000000E+04  0.10566000000E+00 0. -1.
        994   -1    0    0    0    0 -0.00000000000E+00 -0.00000000000E+00  0.11368683772E-12  0.17120000000E+03  0.17120000000E+03 0.  0.
         13    1    1    2    0    0  0.71159323743E+02 -0.77937114079E+02  0.57718084022E+03  0.58675001200E+03  0.10566000000E+00 0. -1.
        994    1    1    2    0    0 -0.65579017654E+02  0.10259081694E+03  0.56288777195E+02  0.21749333258E+03  0.17120000000E+03 0.  0.
        998    1    1    2    0    0 -0.55803060890E+01 -0.24653702863E+02  0.86653037887E+03  0.86695665542E+03  0.10000000000E+02 0. -1.
</event>
<event>
 5    1  0.1757379E-008  0.3842534E+03  0.7957747E-01  0.3432845E+00
         13   -1    0    0    0    0  0.00000000000E+00  0.00000000000E+00  0.14999999963E+04  0.15000000000E+04  0.10566000000E+00 0. -1.
        994   -1    0    0    0    0 -0.00000000000E+00 -0.00000000000E+00  0.11368683772E-12  0.17120000000E+03  0.17120000000E+03 0.  0.
         13    1    1    2    0    0 -0.53137076901E+01  0.12050692043E+02  0.45242912110E+02  0.47120981827E+02  0.10566000000E+00 0. -1.
        994    1    1    2    0    0 -0.89678940773E+01 -0.19281444683E+01  0.22786730179E+01  0.17146070458E+03  0.17120000000E+03 0.  0.
        998    1    1    2    0    0  0.14281601767E+02 -0.10122547575E+02  0.14524784112E+04  0.14526183136E+04  0.10000000000E+02 0. -1.
</event>
<event>
 5    1  0.1757379E-008  0.3807138E+03  0.7957747E-01  0.3448056E+00
         13   -1    0    0    0    0  0.00000000000E+00  0.00000000000E+00  0.14999999963E+04  0.15000000000E+04  0.10566000000E+00 0.  1.
        994   -1    0    0    0    0 -0.00000000000E+00 -0.00000000000E+00  0.11368683772E-12  0.17120000000E+03  0.17120000000E+03 0.  0.
         13    1    1    2    0    0 -0.13191795859E+02  0.36580560143E+02  0.21464720277E+03  0.21814122416E+03  0.10566000000E+00 0.  1.
        994    1    1    2    0    0  0.15185299795E+02 -0.87606286937E+01  0.47989287651E+01  0.17216216676E+03  0.17120000000E+03 0.  0.
        998    1    1    2    0    0 -0.19935039358E+01 -0.27819931450E+02  0.12805538647E+04  0.12808966091E+04  0.10000000000E+02 0.  1.
</event>
<event>
 5    1  0.1757379E-008  0.3823551E+03  0.7957747E-01  0.3440967E+00
         13   -1    0    0    0    0  0.00000000000E+00  0.00000000000E+00  0.14999999963E+04  0.15000000000E+04  0.10566000000E+00 0. -1.
        994   -1    0    0    0    0 -0.00000000000E+00 -0.00000000000E+00  0.11368683772E-12  0.17120000000E+03  0.17120000000E+03 0.  0.
         13    1    1    2    0    0  0.70615677847E+01 -0.16964595028E+02  0.55637685817E+02  0.58593740887E+02  0.10566000000E+00 0. -1.
        994    1    1    2    0    0 -0.12575283948E+02  0.10582911486E+02  0.38455737971E+01  0.17203012591E+03  0.17120000000E+03 0.  0.
        998    1    1    2    0    0  0.55137161632E+01  0.63816835414E+01  0.14405167367E+04  0.14405761332E+04  0.10000000000E+02 0. -1.
</event>
<event>
 5    1  0.1757379E-008  0.3826523E+03  0.7957747E-01  0.3439691E+00
         13   -1    0    0    0    0  0.00000000000E+00  0.00000000000E+00  0.14999999963E+04  0.15000000000E+04  0.10566000000E+00 0. -1.
        994   -1    0    0    0    0 -0.00000000000E+00 -0.00000000000E+00  0.11368683772E-12  0.17120000000E+03  0.17120000000E+03 0.  0.
         13    1    1    2    0    0  0.13742512815E+02 -0.37999712590E+01  0.35467840169E+02  0.38226630643E+02  0.10566000000E+00 0. -1.
        994    1    1    2    0    0 -0.71252834603E+01  0.70986364289E+01  0.31355566050E+01  0.17152385262E+03  0.17120000000E+03 0.  0.
        998    1    1    2    0    0 -0.66172293552E+01 -0.32986651699E+01  0.14613965995E+04  0.14614495167E+04  0.10000000000E+02 0. -1.
</event>
<event>
 5    1  0.1757379E-008  0.3778133E+03  0.7957747E-01  0.3460736E+00
         13   -1    0    0    0    0  0.00000000000E+00  0.00000000000E+00  0.14999999963E+04  0.15000000000E+04  0.10566000000E+00 0. -1.
        994   -1    0    0    0    0 -0.00000000000E+00 -0.00000000000E+00  0.11368683772E-12  0.17120000000E+03  0.17120000000E+03 0.  0.
         13    1    1    2    0    0  0.98886187703E+01  0.12936817018E+02  0.23170431280E+02  0.28320064715E+02  0.10566000000E+00 0. -1.
        994    1    1    2    0    0 -0.76761657131E+01 -0.69029828788E+01  0.56000253267E+01  0.17160237462E+03  0.17120000000E+03 0.  0.
        998    1    1    2    0    0 -0.22124530571E+01 -0.60338341391E+01  0.14712295397E+04  0.14712775607E+04  0.10000000000E+02 0. -1.
</event>
<event>
 5    1  0.1757379E-008  0.3761313E+03  0.7957747E-01  0.3468179E+00
         13   -1    0    0    0    0  0.00000000000E+00  0.00000000000E+00  0.14999999963E+04  0.15000000000E+04  0.10566000000E+00 0. -1.
        994   -1    0    0    0    0 -0.00000000000E+00 -0.00000000000E+00  0.11368683772E-12  0.17120000000E+03  0.17120000000E+03 0.  0.
         13    1    1    2    0    0 -0.93609552592E+01 -0.43743206213E+02  0.12056099326E+03  0.12859261189E+03  0.10566000000E+00 0. -1.
        994    1    1    2    0    0 -0.38858227169E+01  0.92355401234E+02  0.35605320232E+02  0.19779231174E+03  0.17120000000E+03 0.  0.
        998    1    1    2    0    0  0.13246777976E+02 -0.48612195021E+02  0.13438336828E+04  0.13448150764E+04  0.10000000000E+02 0. -1.
</event>
<event>
 5    1  0.4321158E-008  0.3865053E+03  0.7957747E-01  0.3423313E+00
         13   -1    0    0    0    0  0.00000000000E+00  0.00000000000E+00  0.14999999963E+04  0.15000000000E+04  0.10566000000E+00 0.  1.
        994   -1    0    0    0    0 -0.00000000000E+00 -0.00000000000E+00  0.11368683772E-12  0.17120000000E+03  0.17120000000E+03 0.  0.
         13    1    1    2    0    0 -0.69172667833E+01  0.79105909858E+01  0.63272709196E+02  0.64139480218E+02  0.10566000000E+00 0.  1.
        994    1    1    2    0    0  0.35055039509E+01 -0.75740661358E+01  0.11126106420E+01  0.17140692208E+03  0.17120000000E+03 0.  0.
        998    1    1    2    0    0  0.34117628324E+01 -0.33652484996E+00  0.14356146764E+04  0.14356535977E+04  0.10000000000E+02 0.  1.
</event>
<event>
 5    1  0.1757379E-008  0.3718293E+03  0.7957747E-01  0.3487526E+00
         13   -1    0    0    0    0  0.00000000000E+00  0.00000000000E+00  0.14999999963E+04  0.15000000000E+04  0.10566000000E+00 0.  1.
        994   -1    0    0    0    0 -0.00000000000E+00 -0.00000000000E+00  0.11368683772E-12  0.17120000000E+03  0.17120000000E+03 0.  0.
         13    1    1    2    0    0 -0.61518679130E+02 -0.69053146966E+02  0.46054738192E+03  0.46974119167E+03  0.10566000000E+00 0.  1.
        994    1    1    2    0    0  0.69644842463E+02  0.27751405999E+02  0.27882710124E+02  0.18896409749E+03  0.17120000000E+03 0.  0.
        998    1    1    2    0    0 -0.81261633327E+01  0.41301740967E+02  0.10115699042E+04  0.10124947108E+04  0.10000000000E+02 0.  1.
</event>
<event>
 5    1  0.1757379E-008  0.3824247E+03  0.7957747E-01  0.3440668E+00
         13   -1    0    0    0    0  0.00000000000E+00  0.00000000000E+00  0.14999999963E+04  0.15000000000E+04  0.10566000000E+00 0. -1.
        994   -1    0    0    0    0 -0.00000000000E+00 -0.00000000000E+00  0.11368683772E-12  0.17120000000E+03  0.17120000000E+03 0.  0.
         13    1    1    2    0    0  0.28371930865E+02  0.99367316649E+01  0.14154386121E+03  0.14470100521E+03  0.10566000000E+00 0. -1.
        994    1    1    2    0    0 -0.37728984273E+02  0.14328482386E+02  0.83346212012E+01  0.17608999850E+03  0.17120000000E+03 0.  0.
        998    1    1    2    0    0  0.93570534083E+01 -0.24265214051E+02  0.13501215139E+04  0.13504089963E+04  0.10000000000E+02 0. -1.
</event>
<event>
 5    1  0.1757379E-008  0.3829783E+03  0.7957747E-01  0.3438292E+00
         13   -1    0    0    0    0  0.00000000000E+00  0.00000000000E+00  0.14999999963E+04  0.15000000000E+04  0.10566000000E+00 0.  1.
        994   -1    0    0    0    0 -0.00000000000E+00 -0.00000000000E+00  0.11368683772E-12  0.17120000000E+03  0.17120000000E+03 0.  0.
         13    1    1    2    0    0 -0.94946404690E+01  0.13507904869E+02  0.48849470080E+02  0.51564460462E+02  0.10566000000E+00 0.  1.
        994    1    1    2    0    0  0.11247532528E+02 -0.16658080057E+02  0.39757335102E+01  0.17242170709E+03  0.17120000000E+03 0.  0.
        998    1    1    2    0    0 -0.17528920588E+01  0.31501751884E+01  0.14471747927E+04  0.14472138324E+04  0.10000000000E+02 0.  1.
</event>
<event>
 5    1  0.1757379E-008  0.3769830E+03  0.7957747E-01  0.3464401E+00
         13   -1    0    0    0    0  0.00000000000E+00  0.00000000000E+00  0.14999999963E+04  0.15000000000E+04  0.10566000000E+00 0. -1.
        994   -1    0    0    0    0 -0.00000000000E+00 -0.00000000000E+00  0.11368683772E-12  0.17120000000E+03  0.17120000000E+03 0.  0.
         13    1    1    2    0    0 -0.26021536975E+02 -0.34315267625E+02  0.15795302520E+03  0.16371874453E+03  0.10566000000E+00 0. -1.
        994    1    1    2    0    0  0.27419960711E+02  0.16408270248E+02  0.91194472869E+01  0.17439521179E+03  0.17120000000E+03 0.  0.
        998    1    1    2    0    0 -0.13984237363E+01  0.17906997376E+02  0.13329275238E+04  0.13330860437E+04  0.10000000000E+02 0. -1.
</event>
<event>
 5    1  0.1757379E-008  0.3722113E+03  0.7957747E-01  0.3485790E+00
         13   -1    0    0    0    0  0.00000000000E+00  0.00000000000E+00  0.14999999963E+04  0.15000000000E+04  0.10566000000E+00 0. -1.
        994   -1    0    0    0    0 -0.00000000000E+00 -0.00000000000E+00  0.11368683772E-12  0.17120000000E+03  0.17120000000E+03 0.  0.
         13    1    1    2    0    0 -0.60193368791E+02 -0.43673478979E+02  0.21294025281E+03  0.22555304663E+03  0.10566000000E+00 0. -1.
        994    1    1    2    0    0 -0.69982295059E+01  0.11223567473E+03  0.58110263160E+02  0.21291327949E+03  0.17120000000E+03 0.  0.
        998    1    1    2    0    0  0.67191598297E+02 -0.68562195755E+02  0.12289494803E+04  0.12327336739E+04  0.10000000000E+02 0. -1.
</event>
<event>
 5    1  0.1757379E-008  0.3809485E+03  0.7957747E-01  0.3447039E+00
         13   -1    0    0    0    0  0.00000000000E+00  0.00000000000E+00  0.14999999963E+04  0.15000000000E+04  0.10566000000E+00 0. -1.
        994   -1    0    0    0    0 -0.00000000000E+00 -0.00000000000E+00  0.11368683772E-12  0.17120000000E+03  0.17120000000E+03 0.  0.
         13    1    1    2    0    0  0.26875495876E+02  0.28441266390E+02  0.23277806897E+03  0.23604414517E+03  0.10566000000E+00 0. -1.
        994    1    1    2    0    0  0.89598632374E+01 -0.23095136619E+02  0.57028286610E+01  0.17307693879E+03  0.17120000000E+03 0.  0.
        998    1    1    2    0    0 -0.35835359114E+02 -0.53461297711E+01  0.12615190986E+04  0.12620789160E+04  0.10000000000E+02 0. -1.
</event>
<event>
 5    1  0.1757379E-008  0.3782402E+03  0.7957747E-01  0.3458857E+00
         13   -1    0    0    0    0  0.00000000000E+00  0.00000000000E+00  0.14999999963E+04  0.15000000000E+04  0.10566000000E+00 0.  1.
        994   -1    0    0    0    0 -0.00000000000E+00 -0.00000000000E+00  0.11368683772E-12  0.17120000000E+03  0.17120000000E+03 0.  0.
         13    1    1    2    0    0  0.30248647708E+02  0.15602284085E+02  0.12018206999E+03  0.12490857884E+03  0.10566000000E+00 0.  1.
        994    1    1    2    0    0 -0.61899792646E+01 -0.87944485007E+01  0.54131336332E+01  0.17162284284E+03  0.17120000000E+03 0.  0.
        998    1    1    2    0    0 -0.24058668444E+02 -0.68078355840E+01  0.13744047927E+04  0.13746685783E+04  0.10000000000E+02 0.  1.
</event>
<event>
 5    1  0.1757379E-008  0.3794278E+03  0.7957747E-01  0.3453654E+00
         13   -1    0    0    0    0  0.00000000000E+00  0.00000000000E+00  0.14999999963E+04  0.15000000000E+04  0.10566000000E+00 0. -1.
        994   -1    0    0    0    0 -0.00000000000E+00 -0.00000000000E+00  0.11368683772E-12  0.17120000000E+03  0.17120000000E+03 0.  0.
         13    1    1    2    0    0  0.62914306051E+01 -0.18243717015E+02  0.40654915040E+02  0.45002762033E+02  0.10566000000E+00 0. -1.
        994    1    1    2    0    0 -0.88153168159E+01  0.85341046106E+01  0.49266106833E+01  0.17170979077E+03  0.17120000000E+03 0.  0.
        998    1    1    2    0    0  0.25238862107E+01  0.97096124049E+01  0.14544184706E+04  0.14544874472E+04  0.10000000000E+02 0. -1.
</event>
<event>
 5    1  0.1757379E-008  0.3778625E+03  0.7957747E-01  0.3460519E+00
         13   -1    0    0    0    0  0.00000000000E+00  0.00000000000E+00  0.14999999963E+04  0.15000000000E+04  0.10566000000E+00 0. -1.
        994   -1    0    0    0    0 -0.00000000000E+00 -0.00000000000E+00  0.11368683772E-12  0.17120000000E+03  0.17120000000E+03 0.  0.
         13    1    1    2    0    0  0.54258971483E+02  0.40019347523E+02  0.32739992598E+03  0.33426981146E+03  0.10566000000E+00 0. -1.
        994    1    1    2    0    0 -0.57077474637E+02 -0.43090951765E+02  0.22633711927E+02  0.18691279558E+03  0.17120000000E+03 0.  0.
        998    1    1    2    0    0  0.28185031539E+01  0.30716042423E+01  0.11499663584E+04  0.11500173930E+04  0.10000000000E+02 0. -1.
</event>
<event>
 5    1  0.1757379E-008  0.3815839E+03  0.7957747E-01  0.3444291E+00
         13   -1    0    0    0    0  0.00000000000E+00  0.00000000000E+00  0.14999999963E+04  0.15000000000E+04  0.10566000000E+00 0. -1.
        994   -1    0    0    0    0 -0.00000000000E+00 -0.00000000000E+00  0.11368683772E-12  0.17120000000E+03  0.17120000000E+03 0.  0.
         13    1    1    2    0    0 -0.26200571898E+02  0.14373380472E+02  0.11179323439E+03  0.11571863486E+03  0.10566000000E+00 0. -1.
        994    1    1    2    0    0  0.41371227865E+02 -0.23211491525E+02  0.10855723843E+02  0.17798212993E+03  0.17120000000E+03 0.  0.
        998    1    1    2    0    0 -0.15170655967E+02  0.88381110524E+01  0.13773510380E+04  0.13774992352E+04  0.10000000000E+02 0. -1.
</event>
<event>
 5    1  0.1757379E-008  0.3857886E+03  0.7957747E-01  0.3426334E+00
         13   -1    0    0    0    0  0.00000000000E+00  0.00000000000E+00  0.14999999963E+04  0.15000000000E+04  0.10566000000E+00 0. -1.
        994   -1    0    0    0    0 -0.00000000000E+00 -0.00000000000E+00  0.11368683772E-12  0.17120000000E+03  0.17120000000E+03 0.  0.
         13    1    1    2    0    0 -0.90003000750E+00 -0.13994653593E+02  0.76404539578E+02  0.77680919249E+02  0.10566000000E+00 0. -1.
        994    1    1    2    0    0 -0.30094635990E+01  0.15422527998E+02  0.20494636937E+01  0.17193182237E+03  0.17120000000E+03 0.  0.
        998    1    1    2    0    0  0.39094936065E+01 -0.14278744047E+01  0.14215459930E+04  0.14215872584E+04  0.10000000000E+02 0. -1.
</event>
<event>
 5    1  0.1757379E-008  0.3742788E+03  0.7957747E-01  0.3476455E+00
         13   -1    0    0    0    0  0.00000000000E+00  0.00000000000E+00  0.14999999963E+04  0.15000000000E+04  0.10566000000E+00 0. -1.
        994   -1    0    0    0    0 -0.00000000000E+00 -0.00000000000E+00  0.11368683772E-12  0.17120000000E+03  0.17120000000E+03 0.  0.
         13    1    1    2    0    0  0.22878519076E+02  0.97171825107E+01  0.17445152045E+02  0.30367659854E+02  0.10566000000E+00 0. -1.
        994    1    1    2    0    0 -0.26140203466E+02 -0.50011456646E+01  0.15737416557E+02  0.17396961797E+03  0.17120000000E+03 0.  0.
        998    1    1    2    0    0  0.32616843893E+01 -0.47160368461E+01  0.14668174277E+04  0.14668627222E+04  0.10000000000E+02 0. -1.
</event>
<event>
 5    1  0.1757379E-008  0.3841065E+03  0.7957747E-01  0.3433471E+00
         13   -1    0    0    0    0  0.00000000000E+00  0.00000000000E+00  0.14999999963E+04  0.15000000000E+04  0.10566000000E+00 0. -1.
        994   -1    0    0    0    0 -0.00000000000E+00 -0.00000000000E+00  0.11368683772E-12  0.17120000000E+03  0.17120000000E+03 0.  0.
         13    1    1    2    0    0 -0.43438657990E+01 -0.19029882871E+02  0.92969967537E+02  0.94997008585E+02  0.10566000000E+00 0. -1.
        994    1    1    2    0    0  0.34298968924E+01  0.94201203438E+01  0.24059521418E+01  0.17151014975E+03  0.17120000000E+03 0.  0.
        998    1    1    2    0    0  0.91396890662E+00  0.96097625271E+01  0.14046240766E+04  0.14046928417E+04  0.10000000000E+02 0. -1.
</event>
<event>
 5    1  0.1757379E-008  0.3828250E+03  0.7957747E-01  0.3438949E+00
         13   -1    0    0    0    0  0.00000000000E+00  0.00000000000E+00  0.14999999963E+04  0.15000000000E+04  0.10566000000E+00 0.  1.
        994   -1    0    0    0    0 -0.00000000000E+00 -0.00000000000E+00  0.11368683772E-12  0.17120000000E+03  0.17120000000E+03 0.  0.
         13    1    1    2    0    0  0.18147139710E+02 -0.59272224757E+01  0.68475665331E+02  0.71087119455E+02  0.10566000000E+00 0.  1.
        994    1    1    2    0    0 -0.56450049358E+01  0.24989179361E+01  0.28400684043E+01  0.17133480866E+03  0.17120000000E+03 0.  0.
        998    1    1    2    0    0 -0.12502134774E+02  0.34283045396E+01  0.14286842625E+04  0.14287780719E+04  0.10000000000E+02 0.  1.
</event>
<event>
 5    1  0.1757379E-008  0.3803449E+03  0.7957747E-01  0.3449658E+00
         13   -1    0    0    0    0  0.00000000000E+00  0.00000000000E+00  0.14999999963E+04  0.15000000000E+04  0.10566000000E+00 0.  1.
        994   -1    0    0    0    0 -0.00000000000E+00 -0.00000000000E+00  0.11368683772E-12  0.17120000000E+03  0.17120000000E+03 0.  0.
         13    1    1    2    0    0  0.25523166799E+02 -0.12315421139E+01  0.76173917264E+02  0.80345663074E+02  0.10566000000E+00 0.  1.
        994    1    1    2    0    0 -0.29725901174E+02 -0.26759864012E+01  0.69392756830E+01  0.17392062457E+03  0.17120000000E+03 0.  0.
        998    1    1    2    0    0  0.42027343745E+01  0.39075285151E+01  0.14168868033E+04  0.14169337124E+04  0.10000000000E+02 0.  1.
</event>
<event>
 5    1  0.1757379E-008  0.3841409E+03  0.7957747E-01  0.3433324E+00
         13   -1    0    0    0    0  0.00000000000E+00  0.00000000000E+00  0.14999999963E+04  0.15000000000E+04  0.10566000000E+00 0. -1.
        994   -1    0    0    0    0 -0.00000000000E+00 -0.00000000000E+00  0.11368683772E-12  0.17120000000E+03  0.17120000000E+03 0.  0.
         13    1    1    2    0    0 -0.21270777217E+02  0.17837333456E+01  0.12343873747E+03  0.12527074974E+03  0.10566000000E+00 0. -1.
        994    1    1    2    0    0 -0.11351215759E+01 -0.59910004751E+01  0.21798685744E+01  0.17132242239E+03  0.17120000000E+03 0.  0.
        998    1    1    2    0    0  0.22405898793E+02  0.42072671295E+01  0.13743813902E+04  0.13746068279E+04  0.10000000000E+02 0. -1.
</event>
<event>
 5    1  0.1757379E-008  0.3836587E+03  0.7957747E-01  0.3435381E+00
         13   -1    0    0    0    0  0.00000000000E+00  0.00000000000E+00  0.14999999963E+04  0.15000000000E+04  0.10566000000E+00 0. -1.
        994   -1    0    0    0    0 -0.00000000000E+00 -0.00000000000E+00  0.11368683772E-12  0.17120000000E+03  0.17120000000E+03 0.  0.
         13    1    1    2    0    0 -0.89394502122E+01  0.21238351969E+02  0.11700545067E+03  0.11925295810E+03  0.10566000000E+00 0. -1.
        994    1    1    2    0    0 -0.10743318893E+01 -0.13332730320E+02  0.28887367758E+01  0.17174603543E+03  0.17120000000E+03 0.  0.
        998    1    1    2    0    0  0.10013782102E+02 -0.79056216488E+01  0.13801058088E+04  0.13802010065E+04  0.10000000000E+02 0. -1.
</event>
<event>
 5    1  0.1757379E-008  0.3813590E+03  0.7957747E-01  0.3445263E+00
         13   -1    0    0    0    0  0.00000000000E+00  0.00000000000E+00  0.14999999963E+04  0.15000000000E+04  0.10566000000E+00 0. -1.
        994   -1    0    0    0    0 -0.00000000000E+00 -0.00000000000E+00  0.11368683772E-12  0.17120000000E+03  0.17120000000E+03 0.  0.
         13    1    1    2    0    0 -0.17282511895E+02  0.12173595974E+02  0.60720290273E+02  0.64294995694E+02  0.10566000000E+00 0. -1.
        994    1    1    2    0    0  0.18016013798E+02 -0.16326277752E+02  0.54184423941E+01  0.17300266939E+03  0.17120000000E+03 0.  0.
        998    1    1    2    0    0 -0.73350190335E+00  0.41526817775E+01  0.14338612636E+04  0.14339023349E+04  0.10000000000E+02 0. -1.
</event>
<event>
 5    1  0.1757379E-008  0.3795408E+03  0.7957747E-01  0.3453160E+00
         13   -1    0    0    0    0  0.00000000000E+00  0.00000000000E+00  0.14999999963E+04  0.15000000000E+04  0.10566000000E+00 0. -1.
        994   -1    0    0    0    0 -0.00000000000E+00 -0.00000000000E+00  0.11368683772E-12  0.17120000000E+03  0.17120000000E+03 0.  0.
         13    1    1    2    0    0 -0.29435742568E+02  0.37898660210E+01  0.91233145670E+02  0.95939168528E+02  0.10566000000E+00 0. -1.
        994    1    1    2    0    0  0.35433628930E+02 -0.70350840826E+01  0.87467543790E+01  0.17518841337E+03  0.17120000000E+03 0.  0.
        998    1    1    2    0    0 -0.59978863622E+01  0.32452180616E+01  0.14000200962E+04  0.14000724181E+04  0.10000000000E+02 0. -1.
</event>
<event>
 5    1  0.1757379E-008  0.3772300E+03  0.7957747E-01  0.3463309E+00
         13   -1    0    0    0    0  0.00000000000E+00  0.00000000000E+00  0.14999999963E+04  0.15000000000E+04  0.10566000000E+00 0. -1.
        994   -1    0    0    0    0 -0.00000000000E+00 -0.00000000000E+00  0.11368683772E-12  0.17120000000E+03  0.17120000000E+03 0.  0.
         13    1    1    2    0    0 -0.35719809417E+02 -0.11049076625E+02  0.12579730106E+03  0.13123627166E+03  0.10566000000E+00 0. -1.
        994    1    1    2    0    0  0.16226494355E+02  0.15377342551E+02  0.72259328252E+01  0.17280455980E+03  0.17120000000E+03 0.  0.
        998    1    1    2    0    0  0.19493315062E+02 -0.43282659262E+01  0.13669767624E+04  0.13671591685E+04  0.10000000000E+02 0. -1.
</event>
<event>
 5    1  0.1757379E-008  0.3825454E+03  0.7957747E-01  0.3440150E+00
         13   -1    0    0    0    0  0.00000000000E+00  0.00000000000E+00  0.14999999963E+04  0.15000000000E+04  0.10566000000E+00 0.  1.
        994   -1    0    0    0    0 -0.00000000000E+00 -0.00000000000E+00  0.11368683772E-12  0.17120000000E+03  0.17120000000E+03 0.  0.
         13    1    1    2    0    0 -0.10994619361E+02  0.13623219419E+02  0.52111260576E+02  0.54973342677E+02  0.10566000000E+00 0.  1.
        994    1    1    2    0    0  0.11162569047E+02 -0.94625867304E+01  0.35639365803E+01  0.17186123804E+03  0.17120000000E+03 0.  0.
        998    1    1    2    0    0 -0.16794968569E+00 -0.41606326889E+01  0.14443247991E+04  0.14443654193E+04  0.10000000000E+02 0.  1.
</event>
<event>
 5    1  0.1757379E-008  0.3766099E+03  0.7957747E-01  0.3466054E+00
         13   -1    0    0    0    0  0.00000000000E+00  0.00000000000E+00  0.14999999963E+04  0.15000000000E+04  0.10566000000E+00 0.  1.
        994   -1    0    0    0    0 -0.00000000000E+00 -0.00000000000E+00  0.11368683772E-12  0.17120000000E+03  0.17120000000E+03 0.  0.
         13    1    1    2    0    0  0.24173916370E+02  0.48604023689E+02  0.22465839783E+03  0.23112363841E+03  0.10566000000E+00 0.  1.
        994    1    1    2    0    0 -0.28151060132E+02 -0.38658161221E+02  0.13625482291E+02  0.17827515077E+03  0.17120000000E+03 0.  0.
        998    1    1    2    0    0  0.39771437618E+01 -0.99458624677E+01  0.12617161162E+04  0.12618012108E+04  0.10000000000E+02 0.  1.
</event>
<event>
 5    1  0.1757379E-008  0.3828935E+03  0.7957747E-01  0.3438656E+00
         13   -1    0    0    0    0  0.00000000000E+00  0.00000000000E+00  0.14999999963E+04  0.15000000000E+04  0.10566000000E+00 0.  1.
        994   -1    0    0    0    0 -0.00000000000E+00 -0.00000000000E+00  0.11368683772E-12  0.17120000000E+03  0.17120000000E+03 0.  0.
         13    1    1    2    0    0 -0.98430350599E+01  0.96166989416E+01  0.35242856804E+02  0.37834327765E+02  0.10566000000E+00 0.  1.
        994    1    1    2    0    0  0.42269991849E+00 -0.44093677919E+01  0.27445741499E+01  0.17127928622E+03  0.17120000000E+03 0.  0.
        998    1    1    2    0    0  0.94203351414E+01 -0.52073311497E+01  0.14620125653E+04  0.14620863860E+04  0.10000000000E+02 0.  1.
</event>
<event>
 5    1  0.1757379E-008  0.3771376E+03  0.7957747E-01  0.3463718E+00
         13   -1    0    0    0    0  0.00000000000E+00  0.00000000000E+00  0.14999999963E+04  0.15000000000E+04  0.10566000000E+00 0. -1.
        994   -1    0    0    0    0 -0.00000000000E+00 -0.00000000000E+00  0.11368683772E-12  0.17120000000E+03  0.17120000000E+03 0.  0.
         13    1    1    2    0    0  0.24717991644E+02 -0.56875303567E+02  0.32971451427E+03  0.33549582912E+03  0.10566000000E+00 0. -1.
        994    1    1    2    0    0  0.34693585559E+02  0.64960821220E+02  0.24113521681E+02  0.18792140671E+03  0.17120000000E+03 0.  0.
        998    1    1    2    0    0 -0.59411577203E+02 -0.80855176532E+01  0.11461719603E+04  0.11477827642E+04  0.10000000000E+02 0. -1.
</event>
<event>
 5    1  0.1757379E-008  0.3812975E+03  0.7957747E-01  0.3445528E+00
         13   -1    0    0    0    0  0.00000000000E+00  0.00000000000E+00  0.14999999963E+04  0.15000000000E+04  0.10566000000E+00 0.  1.
        994   -1    0    0    0    0 -0.00000000000E+00 -0.00000000000E+00  0.11368683772E-12  0.17120000000E+03  0.17120000000E+03 0.  0.
         13    1    1    2    0    0 -0.21352122713E+02 -0.19969132286E+02  0.15027611250E+03  0.15309343729E+03  0.10566000000E+00 0.  1.
        994    1    1    2    0    0  0.12135353099E+02 -0.29199474433E+02  0.68149960608E+01  0.17422904544E+03  0.17120000000E+03 0.  0.
        998    1    1    2    0    0  0.92167696141E+01  0.49168606719E+02  0.13429088877E+04  0.13438775173E+04  0.10000000000E+02 0.  1.
</event>
<event>
 5    1  0.1757379E-008  0.4053756E+03  0.7957747E-01  0.3347601E+00
         13   -1    0    0    0    0  0.00000000000E+00  0.00000000000E+00  0.14999999963E+04  0.15000000000E+04  0.10566000000E+00 0.  1.
        994   -1    0    0    0    0 -0.00000000000E+00 -0.00000000000E+00  0.11368683772E-12  0.17120000000E+03  0.17120000000E+03 0.  0.
         13    1    1    2    0    0  0.23605211819E+02  0.88964229729E+02  0.11861377535E+03  0.15013686777E+03  0.10566000000E+00 0.  1.
        994    1    1    2    0    0 -0.14689522190E+02 -0.88041033287E+02  0.63699272258E+02  0.20330775413E+03  0.17120000000E+03 0.  0.
        998    1    1    2    0    0 -0.89156896287E+01 -0.92319644249E+00  0.13176869487E+04  0.13177553781E+04  0.10000000000E+02 0.  1.
</event>
<event>
 5    1  0.1757379E-008  0.4003505E+03  0.7957747E-01  0.3367068E+00
         13   -1    0    0    0    0  0.00000000000E+00  0.00000000000E+00  0.14999999963E+04  0.15000000000E+04  0.10566000000E+00 0. -1.
        994   -1    0    0    0    0 -0.00000000000E+00 -0.00000000000E+00  0.11368683772E-12  0.17120000000E+03  0.17120000000E+03 0.  0.
         13    1    1    2    0    0  0.93386615009E+02  0.63851631483E+00  0.16557591495E+03  0.19009698141E+03  0.10566000000E+00 0. -1.
        994    1    1    2    0    0 -0.30250468477E+02  0.36407223322E+02  0.36822573649E+02  0.18139988612E+03  0.17120000000E+03 0.  0.
        998    1    1    2    0    0 -0.63136146532E+02 -0.37045739637E+02  0.12976015077E+04  0.12997031325E+04  0.10000000000E+02 0. -1.
</event>
<event>
 5    1  0.1757379E-008  0.3860901E+03  0.7957747E-01  0.3425062E+00
         13   -1    0    0    0    0  0.00000000000E+00  0.00000000000E+00  0.14999999963E+04  0.15000000000E+04  0.10566000000E+00 0. -1.
        994   -1    0    0    0    0 -0.00000000000E+00 -0.00000000000E+00  0.11368683772E-12  0.17120000000E+03  0.17120000000E+03 0.  0.
         13    1    1    2    0    0 -0.59347978576E+00  0.10824487032E+02  0.60216867269E+02  0.61184998206E+02  0.10566000000E+00 0. -1.
        994    1    1    2    0    0 -0.36089130738E+01  0.54068008907E+01  0.12283609860E+01  0.17132777539E+03  0.17120000000E+03 0.  0.
        998    1    1    2    0    0  0.42023928595E+01 -0.16231287923E+02  0.14385547680E+04  0.14386872264E+04  0.10000000000E+02 0. -1.
</event>
<event>
 5    1  0.1757379E-008  0.3978287E+03  0.7957747E-01  0.3377022E+00
         13   -1    0    0    0    0  0.00000000000E+00  0.00000000000E+00  0.14999999963E+04  0.15000000000E+04  0.10566000000E+00 0.  1.
        994   -1    0    0    0    0 -0.00000000000E+00 -0.00000000000E+00  0.11368683772E-12  0.17120000000E+03  0.17120000000E+03 0.  0.
         13    1    1    2    0    0 -0.29570087134E+02  0.21459027932E+02  0.14203570446E+02  0.39199904468E+02  0.10566000000E+00 0.  1.
        994    1    1    2    0    0  0.29068170355E+02 -0.24808455071E+02  0.32174370774E+02  0.17833969862E+03  0.17120000000E+03 0.  0.
        998    1    1    2    0    0  0.50191677856E+00  0.33494271387E+01  0.14536220551E+04  0.14536603969E+04  0.10000000000E+02 0.  1.
</event>
<event>
 5    1  0.1757379E-008  0.3905815E+03  0.7957747E-01  0.3406340E+00
         13   -1    0    0    0    0  0.00000000000E+00  0.00000000000E+00  0.14999999963E+04  0.15000000000E+04  0.10566000000E+00 0. -1.
        994   -1    0    0    0    0 -0.00000000000E+00 -0.00000000000E+00  0.11368683772E-12  0.17120000000E+03  0.17120000000E+03 0.  0.
         13    1    1    2    0    0  0.71145089516E+02  0.84477980752E+02  0.57909370792E+03  0.58953175208E+03  0.10566000000E+00 0. -1.
        994    1    1    2    0    0  0.33740113071E+02  0.72575542934E+01  0.26769364257E+02  0.17668363305E+03  0.17120000000E+03 0.  0.
        998    1    1    2    0    0 -0.10488520259E+03 -0.91735535045E+02  0.89413692410E+03  0.90498461487E+03  0.10000000000E+02 0.  1.
</event>
<event>
 5    1  0.1757379E-008  0.3827251E+03  0.7957747E-01  0.3439378E+00
         13   -1    0    0    0    0  0.00000000000E+00  0.00000000000E+00  0.14999999963E+04  0.15000000000E+04  0.10566000000E+00 0. -1.
        994   -1    0    0    0    0 -0.00000000000E+00 -0.00000000000E+00  0.11368683772E-12  0.17120000000E+03  0.17120000000E+03 0.  0.
         13    1    1    2    0    0  0.16246434835E+02 -0.14457061967E+01  0.52941931924E+02  0.55397617559E+02  0.10566000000E+00 0. -1.
        994    1    1    2    0    0  0.12855620789E+02 -0.12177625515E+02  0.38033364990E+01  0.17215535692E+03  0.17120000000E+03 0.  0.
        998    1    1    2    0    0 -0.29102055625E+02  0.13623331711E+02  0.14432547279E+04  0.14436470255E+04  0.10000000000E+02 0. -1.
</event>
<event>
 5    1  0.1757379E-008  0.3806510E+03  0.7957747E-01  0.3448329E+00
         13   -1    0    0    0    0  0.00000000000E+00  0.00000000000E+00  0.14999999963E+04  0.15000000000E+04  0.10566000000E+00 0. -1.
        994   -1    0    0    0    0 -0.00000000000E+00 -0.00000000000E+00  0.11368683772E-12  0.17120000000E+03  0.17120000000E+03 0.  0.
         13    1    1    2    0    0 -0.27882647549E+02  0.33970218567E+02  0.19979225506E+03  0.20456875160E+03  0.10566000000E+00 0. -1.
        994    1    1    2    0    0 -0.70930023176E+01 -0.86594883709E+02  0.29410943293E+02  0.19422519958E+03  0.17120000000E+03 0.  0.
        998    1    1    2    0    0  0.34975649866E+02  0.52624665142E+02  0.12707967979E+04  0.12724060488E+04  0.10000000000E+02 0. -1.
</event>
<event>
 5    1  0.1757379E-008  0.3741211E+03  0.7957747E-01  0.3477163E+00
         13   -1    0    0    0    0  0.00000000000E+00  0.00000000000E+00  0.14999999963E+04  0.15000000000E+04  0.10566000000E+00 0.  1.
        994   -1    0    0    0    0 -0.00000000000E+00 -0.00000000000E+00  0.11368683772E-12  0.17120000000E+03  0.17120000000E+03 0.  0.
         13    1    1    2    0    0  0.92070021934E+01  0.15927233020E+02  0.20467818661E+02  0.27520690504E+02  0.10566000000E+00 0.  1.
        994    1    1    2    0    0 -0.10897424829E+02 -0.13709178472E+02  0.81770415884E+01  0.17228754874E+03  0.17120000000E+03 0.  0.
        998    1    1    2    0    0  0.16904226359E+01 -0.22180545474E+01  0.14713551360E+04  0.14713917608E+04  0.10000000000E+02 0.  1.
</event>
<event>
 5    1  0.1757379E-008  0.3694941E+03  0.7957747E-01  0.3498219E+00
         13   -1    0    0    0    0  0.00000000000E+00  0.00000000000E+00  0.14999999963E+04  0.15000000000E+04  0.10566000000E+00 0.  1.
        994   -1    0    0    0    0 -0.00000000000E+00 -0.00000000000E+00  0.11368683772E-12  0.17120000000E+03  0.17120000000E+03 0.  0.
         13    1    1    2    0    0 -0.12535740013E+02  0.88333096048E+01  0.79803414398E+01  0.17287832420E+02  0.10566000000E+00 0.  1.
        994    1    1    2    0    0  0.11387104677E+02 -0.87471442894E+01  0.10248167136E+02  0.17210648917E+03  0.17120000000E+03 0.  0.
        998    1    1    2    0    0  0.11486353363E+01 -0.86165315473E-01  0.14817714877E+04  0.14818056784E+04  0.10000000000E+02 0.  1.
</event>
<event>
 5    1  0.1757379E-008  0.3854059E+03  0.7957747E-01  0.3427953E+00
         13   -1    0    0    0    0  0.00000000000E+00  0.00000000000E+00  0.14999999963E+04  0.15000000000E+04  0.10566000000E+00 0.  1.
        994   -1    0    0    0    0 -0.00000000000E+00 -0.00000000000E+00  0.11368683772E-12  0.17120000000E+03  0.17120000000E+03 0.  0.
         13    1    1    2    0    0 -0.80288843541E+01  0.84089380172E+01  0.48331387382E+02  0.49710234287E+02  0.10566000000E+00 0.  1.
        994    1    1    2    0    0  0.18912292115E+01 -0.46334492963E+01  0.15110213009E+01  0.17127979678E+03  0.17120000000E+03 0.  0.
        998    1    1    2    0    0  0.61376551426E+01 -0.37754887209E+01  0.14501575876E+04  0.14502099689E+04  0.10000000000E+02 0.  1.
</event>
<event>
 5    1  0.1757379E-008  0.3857901E+03  0.7957747E-01  0.3426328E+00
         13   -1    0    0    0    0  0.00000000000E+00  0.00000000000E+00  0.14999999963E+04  0.15000000000E+04  0.10566000000E+00 0.  1.
        994   -1    0    0    0    0 -0.00000000000E+00 -0.00000000000E+00  0.11368683772E-12  0.17120000000E+03  0.17120000000E+03 0.  0.
         13    1    1    2    0    0  0.57956747565E+01 -0.34820482154E+02  0.24795527523E+02  0.43137978308E+02  0.10566000000E+00 0.  1.
        994    1    1    2    0    0  0.15839706733E+02  0.17354129772E+02  0.21591207625E+02  0.17414844925E+03  0.17120000000E+03 0.  0.
        998    1    1    2    0    0 -0.21635381489E+02  0.17466352381E+02  0.14536132611E+04  0.14539135724E+04  0.10000000000E+02 0.  1.
</event>
<event>
 5    1  0.1757379E-008  0.3857272E+03  0.7957747E-01  0.3426594E+00
         13   -1    0    0    0    0  0.00000000000E+00  0.00000000000E+00  0.14999999963E+04  0.15000000000E+04  0.10566000000E+00 0. -1.
        994   -1    0    0    0    0 -0.00000000000E+00 -0.00000000000E+00  0.11368683772E-12  0.17120000000E+03  0.17120000000E+03 0.  0.
         13    1    1    2    0    0 -0.41386809542E+01  0.12306284349E+02  0.73903252742E+02  0.75035160055E+02  0.10566000000E+00 0. -1.
        994    1    1    2    0    0 -0.41419249329E+01  0.30399788457E+01  0.13561490321E+01  0.17128244555E+03  0.17120000000E+03 0.  0.
        998    1    1    2    0    0  0.82806058871E+01 -0.15346263195E+02  0.14247405945E+04  0.14248823944E+04  0.10000000000E+02 0. -1.
</event>
<event>
 5    1  0.1757379E-008  0.3821579E+03  0.7957747E-01  0.3441816E+00
         13   -1    0    0    0    0  0.00000000000E+00  0.00000000000E+00  0.14999999963E+04  0.15000000000E+04  0.10566000000E+00 0. -1.
        994   -1    0    0    0    0 -0.00000000000E+00 -0.00000000000E+00  0.11368683772E-12  0.17120000000E+03  0.17120000000E+03 0.  0.
         13    1    1    2    0    0 -0.33012879251E+02 -0.14270639171E+02  0.20048791382E+03  0.20368828167E+03  0.10566000000E+00 0. -1.
        994    1    1    2    0    0  0.24357559219E+02  0.11816281925E+02  0.54843260069E+01  0.17341405088E+03  0.17120000000E+03 0.  0.
        998    1    1    2    0    0  0.86553200327E+01  0.24543572457E+01  0.12940277565E+04  0.12940976675E+04  0.10000000000E+02 0. -1.
</event>
<event>
 5    1  0.1757379E-008  0.3855996E+03  0.7957747E-01  0.3427133E+00
         13   -1    0    0    0    0  0.00000000000E+00  0.00000000000E+00  0.14999999963E+04  0.15000000000E+04  0.10566000000E+00 0. -1.
        994   -1    0    0    0    0 -0.00000000000E+00 -0.00000000000E+00  0.11368683772E-12  0.17120000000E+03  0.17120000000E+03 0.  0.
         13    1    1    2    0    0  0.11274007728E+02  0.31144374107E+01  0.50067994743E+02  0.51416128134E+02  0.10566000000E+00 0. -1.
        994    1    1    2    0    0 -0.12831670912E+02 -0.18229771921E+01  0.18842922609E+01  0.17170022010E+03  0.17120000000E+03 0.  0.
        998    1    1    2    0    0  0.15576631836E+01 -0.12914602186E+01  0.14480477093E+04  0.14480836518E+04  0.10000000000E+02 0. -1.
</event>
<event>
 5    1  0.1757379E-008  0.3789523E+03  0.7957747E-01  0.3455733E+00
         13   -1    0    0    0    0  0.00000000000E+00  0.00000000000E+00  0.14999999963E+04  0.15000000000E+04  0.10566000000E+00 0.  1.
        994   -1    0    0    0    0 -0.00000000000E+00 -0.00000000000E+00  0.11368683772E-12  0.17120000000E+03  0.17120000000E+03 0.  0.
         13    1    1    2    0    0  0.12309134008E+02 -0.82384957881E+01  0.21420839404E+02  0.26043254745E+02  0.10566000000E+00 0.  1.
        994    1    1    2    0    0 -0.11558816115E+02  0.60835982046E+01  0.52354900774E+01  0.17177737556E+03  0.17120000000E+03 0.  0.
        998    1    1    2    0    0 -0.75031789270E+00  0.21548975835E+01  0.14733436668E+04  0.14733793697E+04  0.10000000000E+02 0.  1.
</event>
<event>
 5    1  0.1757379E-008  0.3848210E+03  0.7957747E-01  0.3430432E+00
         13   -1    0    0    0    0  0.00000000000E+00  0.00000000000E+00  0.14999999963E+04  0.15000000000E+04  0.10566000000E+00 0.  1.
        994   -1    0    0    0    0 -0.00000000000E+00 -0.00000000000E+00  0.11368683772E-12  0.17120000000E+03  0.17120000000E+03 0.  0.
         13    1    1    2    0    0 -0.15639882614E+02  0.34082803348E+01  0.71823472471E+02  0.73585628114E+02  0.10566000000E+00 0.  1.
        994    1    1    2    0    0  0.16227551290E+02 -0.91639658993E+00  0.25888115707E+01  0.17198928789E+03  0.17120000000E+03 0.  0.
        998    1    1    2    0    0 -0.58766867602E+00 -0.24918837449E+01  0.14255877122E+04  0.14256250840E+04  0.10000000000E+02 0.  1.
</event>
<event>
 5    1  0.1757379E-008  0.3813856E+03  0.7957747E-01  0.3445147E+00
         13   -1    0    0    0    0  0.00000000000E+00  0.00000000000E+00  0.14999999963E+04  0.15000000000E+04  0.10566000000E+00 0. -1.
        994   -1    0    0    0    0 -0.00000000000E+00 -0.00000000000E+00  0.11368683772E-12  0.17120000000E+03  0.17120000000E+03 0.  0.
         13    1    1    2    0    0  0.27166692249E+02  0.22783746086E+03  0.10404571807E+04  0.10654572228E+04  0.10566000000E+00 0. -1.
        994    1    1    2    0    0 -0.35428579331E+02 -0.23308076484E+03  0.21823555706E+03  0.36403025361E+03  0.17120000000E+03 0.  0.
        998    1    1    2    0    0  0.82618870820E+01  0.52433039845E+01  0.24130725854E+03  0.24171252355E+03  0.10000000000E+02 0. -1.
</event>
<event>
 5    1  0.1757379E-008  0.3833601E+03  0.7957747E-01  0.3436657E+00
         13   -1    0    0    0    0  0.00000000000E+00  0.00000000000E+00  0.14999999963E+04  0.15000000000E+04  0.10566000000E+00 0. -1.
        994   -1    0    0    0    0 -0.00000000000E+00 -0.00000000000E+00  0.11368683772E-12  0.17120000000E+03  0.17120000000E+03 0.  0.
         13    1    1    2    0    0 -0.13323612807E+02 -0.18386478496E+02  0.11481962025E+03  0.11704331510E+03  0.10566000000E+00 0. -1.
        994    1    1    2    0    0  0.56733899664E+01 -0.27454227070E+01  0.25778673400E+01  0.17133537317E+03  0.17120000000E+03 0.  0.
        998    1    1    2    0    0  0.76502228408E+01  0.21131901203E+02  0.13826025087E+04  0.13828213117E+04  0.10000000000E+02 0. -1.
</event>
<event>
 5    1  0.1757379E-008  0.3820495E+03  0.7957747E-01  0.3442283E+00
         13   -1    0    0    0    0  0.00000000000E+00  0.00000000000E+00  0.14999999963E+04  0.15000000000E+04  0.10566000000E+00 0. -1.
        994   -1    0    0    0    0 -0.00000000000E+00 -0.00000000000E+00  0.11368683772E-12  0.17120000000E+03  0.17120000000E+03 0.  0.
         13    1    1    2    0    0  0.58947717296E+02  0.34571660435E+02  0.17781533023E+03  0.19049497607E+03  0.10566000000E+00 0. -1.
        994    1    1    2    0    0  0.47331319096E+02 -0.42865790853E+01  0.25749828049E+02  0.17953028205E+03  0.17120000000E+03 0.  0.
        998    1    1    2    0    0 -0.10627903639E+03 -0.30285081350E+02  0.12964348380E+04  0.13011747419E+04  0.10000000000E+02 0. -1.
</event>
<event>
 5    1  0.1757379E-008  0.3781973E+03  0.7957747E-01  0.3459046E+00
         13   -1    0    0    0    0  0.00000000000E+00  0.00000000000E+00  0.14999999963E+04  0.15000000000E+04  0.10566000000E+00 0.  1.
        994   -1    0    0    0    0 -0.00000000000E+00 -0.00000000000E+00  0.11368683772E-12  0.17120000000E+03  0.17120000000E+03 0.  0.
         13    1    1    2    0    0 -0.25497371046E+02 -0.18741165849E+02  0.90408021869E+02  0.95786057493E+02  0.10566000000E+00 0.  1.
        994    1    1    2    0    0  0.30702053622E+02  0.19112887973E+02  0.94570049181E+01  0.17523353996E+03  0.17120000000E+03 0.  0.
        998    1    1    2    0    0 -0.52046825758E+01 -0.37172212341E+00  0.14001349695E+04  0.14001804026E+04  0.10000000000E+02 0.  1.
</event>
<event>
 5    1  0.1780441E-008  0.3855523E+03  0.7957747E-01  0.3427333E+00
         13   -1    0    0    0    0  0.00000000000E+00  0.00000000000E+00  0.14999999963E+04  0.15000000000E+04  0.10566000000E+00 0. -1.
        994   -1    0    0    0    0 -0.00000000000E+00 -0.00000000000E+00  0.11368683772E-12  0.17120000000E+03  0.17120000000E+03 0.  0.
         13    1    1    2    0    0 -0.92574871030E+01  0.60204645497E+01  0.45252632803E+02  0.46580671963E+02  0.10566000000E+00 0. -1.
        994    1    1    2    0    0  0.28289602183E+01 -0.87452867615E+01  0.16335604797E+01  0.17145434254E+03  0.17120000000E+03 0.  0.
        998    1    1    2    0    0  0.64285268847E+01  0.27248222118E+01  0.14531138030E+04  0.14531649855E+04  0.10000000000E+02 0. -1.
</event>
<event>
 5    1  0.1757379E-008  0.3755141E+03  0.7957747E-01  0.3470927E+00
         13   -1    0    0    0    0  0.00000000000E+00  0.00000000000E+00  0.14999999963E+04  0.15000000000E+04  0.10566000000E+00 0. -1.
        994   -1    0    0    0    0 -0.00000000000E+00 -0.00000000000E+00  0.11368683772E-12  0.17120000000E+03  0.17120000000E+03 0.  0.
         13    1    1    2    0    0  0.16272091479E+02 -0.12283825631E+00  0.17494660374E+02  0.23892893420E+02  0.10566000000E+00 0. -1.
        994    1    1    2    0    0 -0.20263906843E+02 -0.22820061388E+01  0.78272718240E+01  0.17258777378E+03  0.17120000000E+03 0.  0.
        998    1    1    2    0    0  0.39918153637E+01  0.24048443951E+01  0.14746780641E+04  0.14747193328E+04  0.10000000000E+02 0. -1.
</event>
<event>
 5    1  0.1757379E-008  0.3813104E+03  0.7957747E-01  0.3445473E+00
         13   -1    0    0    0    0  0.00000000000E+00  0.00000000000E+00  0.14999999963E+04  0.15000000000E+04  0.10566000000E+00 0.  1.
        994   -1    0    0    0    0 -0.00000000000E+00 -0.00000000000E+00  0.11368683772E-12  0.17120000000E+03  0.17120000000E+03 0.  0.
         13    1    1    2    0    0  0.46434335442E+01 -0.12301518323E+02  0.23873960441E+02  0.27255567859E+02  0.10566000000E+00 0.  1.
        994    1    1    2    0    0  0.40351434572E+01  0.58639185675E+01  0.36418174511E+01  0.17138661196E+03  0.17120000000E+03 0.  0.
        998    1    1    2    0    0 -0.86785770014E+01  0.64375997550E+01  0.14724842184E+04  0.14725578202E+04  0.10000000000E+02 0.  1.
</event>
<event>
 5    1  0.1757379E-008  0.3823139E+03  0.7957747E-01  0.3441145E+00
         13   -1    0    0    0    0  0.00000000000E+00  0.00000000000E+00  0.14999999963E+04  0.15000000000E+04  0.10566000000E+00 0. -1.
        994   -1    0    0    0    0 -0.00000000000E+00 -0.00000000000E+00  0.11368683772E-12  0.17120000000E+03  0.17120000000E+03 0.  0.
         13    1    1    2    0    0  0.77653856616E+01  0.82239034544E+01  0.20372550897E+02  0.23302055630E+02  0.10566000000E+00 0. -1.
        994    1    1    2    0    0 -0.66248662969E+01 -0.50051996348E+01  0.31983814031E+01  0.17143106638E+03  0.17120000000E+03 0.  0.
        998    1    1    2    0    0 -0.11405193647E+01 -0.32187038196E+01  0.14764290640E+04  0.14764668780E+04  0.10000000000E+02 0. -1.
</event>
<event>
 5    1  0.1757379E-008  0.3791933E+03  0.7957747E-01  0.3454678E+00
         13   -1    0    0    0    0  0.00000000000E+00  0.00000000000E+00  0.14999999963E+04  0.15000000000E+04  0.10566000000E+00 0. -1.
        994   -1    0    0    0    0 -0.00000000000E+00 -0.00000000000E+00  0.11368683772E-12  0.17120000000E+03  0.17120000000E+03 0.  0.
         13    1    1    2    0    0 -0.39887310290E+02  0.20956885742E+02  0.23759676952E+03  0.24183139711E+03  0.10566000000E+00 0. -1.
        994    1    1    2    0    0  0.26030907436E+02  0.10873191966E+02  0.72129971923E+01  0.17365857818E+03  0.17120000000E+03 0.  0.
        998    1    1    2    0    0  0.13856402854E+02 -0.31830077708E+02  0.12551902296E+04  0.12557100247E+04  0.10000000000E+02 0. -1.
</event>
<event>
 5    1  0.1757379E-008  0.3820242E+03  0.7957747E-01  0.3442392E+00
         13   -1    0    0    0    0  0.00000000000E+00  0.00000000000E+00  0.14999999963E+04  0.15000000000E+04  0.10566000000E+00 0. -1.
        994   -1    0    0    0    0 -0.00000000000E+00 -0.00000000000E+00  0.11368683772E-12  0.17120000000E+03  0.17120000000E+03 0.  0.
         13    1    1    2    0    0 -0.31560911782E+01  0.26586633949E+02  0.11089997020E+03  0.11408604021E+03  0.10566000000E+00 0. -1.
        994    1    1    2    0    0  0.21957959366E+01 -0.20754456268E+02  0.45625490202E+01  0.17252775379E+03  0.17120000000E+03 0.  0.
        998    1    1    2    0    0  0.96029524161E+00 -0.58321776812E+01  0.13845374771E+04  0.13845862060E+04  0.10000000000E+02 0. -1.
</event>
<event>
 5    1  0.1757379E-008  0.3720223E+03  0.7957747E-01  0.3486648E+00
         13   -1    0    0    0    0  0.00000000000E+00  0.00000000000E+00  0.14999999963E+04  0.15000000000E+04  0.10566000000E+00 0. -1.
        994   -1    0    0    0    0 -0.00000000000E+00 -0.00000000000E+00  0.11368683772E-12  0.17120000000E+03  0.17120000000E+03 0.  0.
         13    1    1    2    0    0  0.40907468051E+02 -0.52669948298E+02  0.16653234168E+03  0.17938945450E+03  0.10566000000E+00 0. -1.
        994    1    1    2    0    0 -0.34344577242E+02  0.49593497940E+02  0.24937637306E+02  0.18322224422E+03  0.17120000000E+03 0.  0.
        998    1    1    2    0    0 -0.65628908089E+01  0.30764503581E+01  0.13085300173E+04  0.13085883013E+04  0.10000000000E+02 0. -1.
</event>
<event>
 5    1  0.1757379E-008  0.3854338E+03  0.7957747E-01  0.3427835E+00
         13   -1    0    0    0    0  0.00000000000E+00  0.00000000000E+00  0.14999999963E+04  0.15000000000E+04  0.10566000000E+00 0. -1.
        994   -1    0    0    0    0 -0.00000000000E+00 -0.00000000000E+00  0.11368683772E-12  0.17120000000E+03  0.17120000000E+03 0.  0.
         13    1    1    2    0    0 -0.29986076876E+01 -0.11790562081E+02  0.52100811094E+02  0.53502473616E+02  0.10566000000E+00 0. -1.
        994    1    1    2    0    0 -0.19680946917E+01  0.10229227110E+02  0.17713706338E+01  0.17152576552E+03  0.17120000000E+03 0.  0.
        998    1    1    2    0    0  0.49667023792E+01  0.15613349709E+01  0.14461278146E+04  0.14461717609E+04  0.10000000000E+02 0. -1.
</event>
<event>
 5    1  0.1757379E-008  0.3834724E+03  0.7957747E-01  0.3436177E+00
         13   -1    0    0    0    0  0.00000000000E+00  0.00000000000E+00  0.14999999963E+04  0.15000000000E+04  0.10566000000E+00 0. -1.
        994   -1    0    0    0    0 -0.00000000000E+00 -0.00000000000E+00  0.11368683772E-12  0.17120000000E+03  0.17120000000E+03 0.  0.
         13    1    1    2    0    0 -0.49168350110E+01  0.89660776966E+01  0.20973348936E+02  0.23333631210E+02  0.10566000000E+00 0. -1.
        994    1    1    2    0    0  0.67979725348E+01 -0.54543212679E+01  0.26415796916E+01  0.17144206017E+03  0.17120000000E+03 0.  0.
        998    1    1    2    0    0 -0.18811375239E+01 -0.35117564286E+01  0.14763850677E+04  0.14764243086E+04  0.10000000000E+02 0. -1.
</event>
<event>
 5    1  0.1757379E-008  0.3841559E+03  0.7957747E-01  0.3433260E+00
         13   -1    0    0    0    0  0.00000000000E+00  0.00000000000E+00  0.14999999963E+04  0.15000000000E+04  0.10566000000E+00 0. -1.
        994   -1    0    0    0    0 -0.00000000000E+00 -0.00000000000E+00  0.11368683772E-12  0.17120000000E+03  0.17120000000E+03 0.  0.
         13    1    1    2    0    0 -0.45590305388E+01  0.22108920063E+02  0.11099465166E+03  0.11326699858E+03  0.10566000000E+00 0. -1.
        994    1    1    2    0    0  0.94496398193E+01 -0.27766735554E+02  0.48918938732E+01  0.17376322373E+03  0.17120000000E+03 0.  0.
        998    1    1    2    0    0 -0.48906092805E+01  0.56578154910E+01  0.13841134507E+04  0.13841697777E+04  0.10000000000E+02 0. -1.
</event>
<event>
 5    1  0.1757379E-008  0.3823780E+03  0.7957747E-01  0.3440869E+00
         13   -1    0    0    0    0  0.00000000000E+00  0.00000000000E+00  0.14999999963E+04  0.15000000000E+04  0.10566000000E+00 0. -1.
        994   -1    0    0    0    0 -0.00000000000E+00 -0.00000000000E+00  0.11368683772E-12  0.17120000000E+03  0.17120000000E+03 0.  0.
         13    1    1    2    0    0 -0.11479718265E+02 -0.13182743352E+02  0.49283674074E+02  0.52292067735E+02  0.10566000000E+00 0. -1.
        994    1    1    2    0    0  0.11318169229E+02  0.16307070044E+02  0.42455453241E+01  0.17239920575E+03  0.17120000000E+03 0.  0.
        998    1    1    2    0    0  0.16154903587E+00 -0.31243266918E+01  0.14464707769E+04  0.14465087265E+04  0.10000000000E+02 0. -1.
</event>
<event>
 5    1  0.1757379E-008  0.3836599E+03  0.7957747E-01  0.3435376E+00
         13   -1    0    0    0    0  0.00000000000E+00  0.00000000000E+00  0.14999999963E+04  0.15000000000E+04  0.10566000000E+00 0. -1.
        994   -1    0    0    0    0 -0.00000000000E+00 -0.00000000000E+00  0.11368683772E-12  0.17120000000E+03  0.17120000000E+03 0.  0.
         13    1    1    2    0    0  0.44616501652E+01  0.10932951457E+02  0.29600194405E+02  0.31868768765E+02  0.10566000000E+00 0. -1.
        994    1    1    2    0    0 -0.31915718857E+01 -0.79299247280E+01  0.25383196423E+01  0.17143206498E+03  0.17120000000E+03 0.  0.
        998    1    1    2    0    0 -0.12700782794E+01 -0.30030267287E+01  0.14678614822E+04  0.14678991663E+04  0.10000000000E+02 0. -1.
</event>
<event>
 5    1  0.1757379E-008  0.3884755E+03  0.7957747E-01  0.3415065E+00
         13   -1    0    0    0    0  0.00000000000E+00  0.00000000000E+00  0.14999999963E+04  0.15000000000E+04  0.10566000000E+00 0. -1.
        994   -1    0    0    0    0 -0.00000000000E+00 -0.00000000000E+00  0.11368683772E-12  0.17120000000E+03  0.17120000000E+03 0.  0.
         13    1    1    2    0    0  0.75799461113E+02 -0.19813169284E+02  0.14348699183E+03  0.16348286751E+03  0.10566000000E+00 0. -1.
        994    1    1    2    0    0 -0.33016032095E+02  0.44270264338E+02  0.32560601047E+02  0.18281014037E+03  0.17120000000E+03 0.  0.
        998    1    1    2    0    0 -0.42783429018E+02 -0.24457095054E+02  0.13239524034E+04  0.13249069921E+04  0.10000000000E+02 0. -1.
</event>
<event>
 5    1  0.2901264E-008  0.3866715E+03  0.7957747E-01  0.3422614E+00
         13   -1    0    0    0    0  0.00000000000E+00  0.00000000000E+00  0.14999999963E+04  0.15000000000E+04  0.10566000000E+00 0.  1.
        994   -1    0    0    0    0 -0.00000000000E+00 -0.00000000000E+00  0.11368683772E-12  0.17120000000E+03  0.17120000000E+03 0.  0.
         13    1    1    2    0    0  0.61333864360E+01 -0.79445732123E+01  0.60586669916E+02  0.61412461343E+02  0.10566000000E+00 0.  1.
        994    1    1    2    0    0 -0.47733759947E+01  0.13989251698E+02  0.15175210099E+01  0.17184361248E+03  0.17120000000E+03 0.  0.
        998    1    1    2    0    0 -0.13600104413E+01 -0.60446784862E+01  0.14378958054E+04  0.14379439262E+04  0.10000000000E+02 0.  1.
</event>
<event>
 5    1  0.1757379E-008  0.3751153E+03  0.7957747E-01  0.3472707E+00
         13   -1    0    0    0    0  0.00000000000E+00  0.00000000000E+00  0.14999999963E+04  0.15000000000E+04  0.10566000000E+00 0.  1.
        994   -1    0    0    0    0 -0.00000000000E+00 -0.00000000000E+00  0.11368683772E-12  0.17120000000E+03  0.17120000000E+03 0.  0.
         13    1    1    2    0    0 -0.12861757991E+02  0.96429085464E+01  0.16380055039E+02  0.22950552738E+02  0.10566000000E+00 0.  1.
        994    1    1    2    0    0  0.14052182417E+02 -0.11436060848E+02  0.77356468917E+01  0.17232970595E+03  0.17120000000E+03 0.  0.
        998    1    1    2    0    0 -0.11904244252E+01  0.17931523011E+01  0.14758842943E+04  0.14759197413E+04  0.10000000000E+02 0.  1.
</event>
<event>
 5    1  0.1757379E-008  0.3801792E+03  0.7957747E-01  0.3450379E+00
         13   -1    0    0    0    0  0.00000000000E+00  0.00000000000E+00  0.14999999963E+04  0.15000000000E+04  0.10566000000E+00 0. -1.
        994   -1    0    0    0    0 -0.00000000000E+00 -0.00000000000E+00  0.11368683772E-12  0.17120000000E+03  0.17120000000E+03 0.  0.
         13    1    1    2    0    0  0.21578693940E+02  0.27634128099E+01  0.55589419872E+02  0.59694817600E+02  0.10566000000E+00 0. -1.
        994    1    1    2    0    0 -0.19661394605E+02 -0.88651857338E+01  0.55983384435E+01  0.17264397861E+03  0.17120000000E+03 0.  0.
        998    1    1    2    0    0 -0.19172993348E+01  0.61017729239E+01  0.14388122380E+04  0.14388612038E+04  0.10000000000E+02 0. -1.
</event>
<event>
 5    1  0.1757379E-008  0.3265751E+03  0.7957747E-01  0.3722845E+00
         13   -1    0    0    0    0  0.00000000000E+00  0.00000000000E+00  0.14999999963E+04  0.15000000000E+04  0.10566000000E+00 0. -1.
        994   -1    0    0    0    0 -0.00000000000E+00 -0.00000000000E+00  0.11368683772E-12  0.17120000000E+03  0.17120000000E+03 0.  0.
         13    1    1    2    0    0  0.19671711766E+03  0.19417368038E+02  0.87486835825E+03  0.89692213374E+03  0.10566000000E+00 0. -1.
        994    1    1    2    0    0 -0.16652210017E+03 -0.48560848408E+01  0.11888917097E+03  0.26682815889E+03  0.17120000000E+03 0.  0.
        998    1    1    2    0    0 -0.30195017494E+02 -0.14561283197E+02  0.50624246706E+03  0.50744970736E+03  0.10000000000E+02 0. -1.
</event>
<event>
 5    1  0.1757379E-008  0.3850179E+03  0.7957747E-01  0.3429596E+00
         13   -1    0    0    0    0  0.00000000000E+00  0.00000000000E+00  0.14999999963E+04  0.15000000000E+04  0.10566000000E+00 0.  1.
        994   -1    0    0    0    0 -0.00000000000E+00 -0.00000000000E+00  0.11368683772E-12  0.17120000000E+03  0.17120000000E+03 0.  0.
         13    1    1    2    0    0 -0.12664576060E+02 -0.10968845928E+01  0.52538791150E+02  0.54054883056E+02  0.10566000000E+00 0.  1.
        994    1    1    2    0    0 -0.12857657685E+01  0.60632048755E+01  0.17475775811E+01  0.17132107189E+03  0.17120000000E+03 0.  0.
        998    1    1    2    0    0  0.13950341829E+02 -0.49663202827E+01  0.14457136275E+04  0.14458240451E+04  0.10000000000E+02 0.  1.
</event>
<event>
 5    1  0.1757379E-008  0.3855260E+03  0.7957747E-01  0.3427444E+00
         13   -1    0    0    0    0  0.00000000000E+00  0.00000000000E+00  0.14999999963E+04  0.15000000000E+04  0.10566000000E+00 0.  1.
        994   -1    0    0    0    0 -0.00000000000E+00 -0.00000000000E+00  0.11368683772E-12  0.17120000000E+03  0.17120000000E+03 0.  0.
         13    1    1    2    0    0  0.43846491949E+01 -0.15409104767E+02  0.86414767215E+02  0.87887364365E+02  0.10566000000E+00 0.  1.
        994    1    1    2    0    0 -0.23257657037E+02  0.16223228048E+02  0.40136138250E+01  0.17357897579E+03  0.17120000000E+03 0.  0.
        998    1    1    2    0    0  0.18873007842E+02 -0.81412328062E+00  0.14095716152E+04  0.14097336598E+04  0.10000000000E+02 0.  1.
</event>
<event>
 5    1  0.1757379E-008  0.3708731E+03  0.7957747E-01  0.3491888E+00
         13   -1    0    0    0    0  0.00000000000E+00  0.00000000000E+00  0.14999999963E+04  0.15000000000E+04  0.10566000000E+00 0.  1.
        994   -1    0    0    0    0 -0.00000000000E+00 -0.00000000000E+00  0.11368683772E-12  0.17120000000E+03  0.17120000000E+03 0.  0.
         13    1    1    2    0    0  0.15281119449E+01 -0.57543484870E+02  0.17897764730E+03  0.18800690725E+03  0.10566000000E+00 0.  1.
        994    1    1    2    0    0  0.40725900690E+01  0.40898250662E+02  0.14659242580E+02  0.17667367175E+03  0.17120000000E+03 0.  0.
        998    1    1    2    0    0 -0.56007020139E+01  0.16645234208E+02  0.13063631064E+04  0.13065194210E+04  0.10000000000E+02 0.  1.
</event>
<event>
 5    1  0.1757379E-008  0.3838004E+03  0.7957747E-01  0.3434776E+00
         13   -1    0    0    0    0  0.00000000000E+00  0.00000000000E+00  0.14999999963E+04  0.15000000000E+04  0.10566000000E+00 0. -1.
        994   -1    0    0    0    0 -0.00000000000E+00 -0.00000000000E+00  0.11368683772E-12  0.17120000000E+03  0.17120000000E+03 0.  0.
         13    1    1    2    0    0  0.15355853716E+02  0.18434553750E+02  0.12399052212E+03  0.12629052123E+03  0.10566000000E+00 0. -1.
        994    1    1    2    0    0 -0.17111054839E+02 -0.11403676408E+02  0.36241257402E+01  0.17246856618E+03  0.17120000000E+03 0.  0.
        998    1    1    2    0    0  0.17552011230E+01 -0.70308773423E+01  0.13723853484E+04  0.13724409126E+04  0.10000000000E+02 0. -1.
</event>
<event>
 5    1  0.1757379E-008  0.3814790E+03  0.7957747E-01  0.3444744E+00
         13   -1    0    0    0    0  0.00000000000E+00  0.00000000000E+00  0.14999999963E+04  0.15000000000E+04  0.10566000000E+00 0.  1.
        994   -1    0    0    0    0 -0.00000000000E+00 -0.00000000000E+00  0.11368683772E-12  0.17120000000E+03  0.17120000000E+03 0.  0.
         13    1    1    2    0    0  0.27419017311E+02 -0.16881588464E+02  0.16629165334E+03  0.16938038751E+03  0.10566000000E+00 0.  1.
        994    1    1    2    0    0 -0.14109222220E+01  0.10728889306E+02  0.37780862381E+01  0.17158325589E+03  0.17120000000E+03 0.  0.
        998    1    1    2    0    0 -0.26008095089E+02  0.61526991577E+01  0.13299302567E+04  0.13302363566E+04  0.10000000000E+02 0.  1.
</event>
<event>
 5    1  0.1757379E-008  0.3814980E+03  0.7957747E-01  0.3444662E+00
         13   -1    0    0    0    0  0.00000000000E+00  0.00000000000E+00  0.14999999963E+04  0.15000000000E+04  0.10566000000E+00 0. -1.
        994   -1    0    0    0    0 -0.00000000000E+00 -0.00000000000E+00  0.11368683772E-12  0.17120000000E+03  0.17120000000E+03 0.  0.
         13    1    1    2    0    0 -0.57327515119E+01 -0.11188489309E+02  0.21993260088E+02  0.25333009814E+02  0.10566000000E+00 0. -1.
        994    1    1    2    0    0  0.45909220105E+01  0.83964077671E+01  0.36835522163E+01  0.17150680682E+03  0.17120000000E+03 0.  0.
        998    1    1    2    0    0  0.11418295014E+01  0.27920815415E+01  0.14743231840E+04  0.14743601834E+04  0.10000000000E+02 0. -1.
</event>
<event>
 5    1  0.1757379E-008  0.3783254E+03  0.7957747E-01  0.3458483E+00
         13   -1    0    0    0    0  0.00000000000E+00  0.00000000000E+00  0.14999999963E+04  0.15000000000E+04  0.10566000000E+00 0. -1.
        994   -1    0    0    0    0 -0.00000000000E+00 -0.00000000000E+00  0.11368683772E-12  0.17120000000E+03  0.17120000000E+03 0.  0.
         13    1    1    2    0    0  0.19446645433E+02  0.26798805799E+02  0.10268435232E+03  0.10789084941E+03  0.10566000000E+00 0. -1.
        994    1    1    2    0    0  0.21405986245E+00 -0.39083324455E+02  0.10132998307E+02  0.17589675872E+03  0.17120000000E+03 0.  0.
        998    1    1    2    0    0 -0.19660705295E+02  0.12284518656E+02  0.13871826457E+04  0.13874123919E+04  0.10000000000E+02 0. -1.
</event>
<event>
 5    1  0.1757379E-008  0.3723598E+03  0.7957747E-01  0.3485116E+00
         13   -1    0    0    0    0  0.00000000000E+00  0.00000000000E+00  0.14999999963E+04  0.15000000000E+04  0.10566000000E+00 0. -1.
        994   -1    0    0    0    0 -0.00000000000E+00 -0.00000000000E+00  0.11368683772E-12  0.17120000000E+03  0.17120000000E+03 0.  0.
         13    1    1    2    0    0 -0.41734139489E+02 -0.76131849595E+01  0.10393254378E+03  0.11225722162E+03  0.10566000000E+00 0. -1.
        994    1    1    2    0    0  0.37268656476E+02  0.87066618465E+01  0.13081284251E+02  0.17591281566E+03  0.17120000000E+03 0.  0.
        998    1    1    2    0    0  0.44654830126E+01 -0.10934768870E+01  0.13829861682E+04  0.13830299627E+04  0.10000000000E+02 0. -1.
</event>
<event>
 5    1  0.1757379E-008  0.3824442E+03  0.7957747E-01  0.3440585E+00
         13   -1    0    0    0    0  0.00000000000E+00  0.00000000000E+00  0.14999999963E+04  0.15000000000E+04  0.10566000000E+00 0. -1.
        994   -1    0    0    0    0 -0.00000000000E+00 -0.00000000000E+00  0.11368683772E-12  0.17120000000E+03  0.17120000000E+03 0.  0.
         13    1    1    2    0    0 -0.58542008421E+01  0.18857755450E+02  0.70126080602E+02  0.72853036675E+02  0.10566000000E+00 0. -1.
        994    1    1    2    0    0  0.38836148646E+01 -0.23149816545E+00  0.29546006356E+01  0.17126968710E+03  0.17120000000E+03 0.  0.
        998    1    1    2    0    0  0.19705859776E+01 -0.18626257284E+02  0.14269193150E+04  0.14270772762E+04  0.10000000000E+02 0. -1.
</event>
<event>
 5    1  0.1757379E-008  0.3826620E+03  0.7957747E-01  0.3439649E+00
         13   -1    0    0    0    0  0.00000000000E+00  0.00000000000E+00  0.14999999963E+04  0.15000000000E+04  0.10566000000E+00 0.  1.
        994   -1    0    0    0    0 -0.00000000000E+00 -0.00000000000E+00  0.11368683772E-12  0.17120000000E+03  0.17120000000E+03 0.  0.
         13    1    1    2    0    0 -0.21098236619E+02 -0.18072355853E+02  0.16050287089E+03  0.16288931323E+03  0.10566000000E+00 0.  1.
        994    1    1    2    0    0 -0.23643704478E+00 -0.41237207382E+01  0.28519112388E+01  0.17127356589E+03  0.17120000000E+03 0.  0.
        998    1    1    2    0    0  0.21334673664E+02  0.22196076591E+02  0.13366452141E+04  0.13370371209E+04  0.10000000000E+02 0.  1.
</event>
<event>
 5    1  0.1757379E-008  0.3758227E+03  0.7957747E-01  0.3469552E+00
         13   -1    0    0    0    0  0.00000000000E+00  0.00000000000E+00  0.14999999963E+04  0.15000000000E+04  0.10566000000E+00 0.  1.
        994   -1    0    0    0    0 -0.00000000000E+00 -0.00000000000E+00  0.11368683772E-12  0.17120000000E+03  0.17120000000E+03 0.  0.
         13    1    1    2    0    0  0.33653372833E+02 -0.92019809803E+02  0.50722713517E+03  0.51660388376E+03  0.10566000000E+00 0.  1.
        994    1    1    2    0    0 -0.36245677261E+02  0.89282940955E+02  0.38411738117E+02  0.20017515903E+03  0.17120000000E+03 0.  0.
        998    1    1    2    0    0  0.25923044285E+01  0.27368688487E+01  0.95436112299E+03  0.95442095721E+03  0.10000000000E+02 0.  0.
</event>
<event>
 5    1  0.1757379E-008  0.3753709E+03  0.7957747E-01  0.3471566E+00
         13   -1    0    0    0    0  0.00000000000E+00  0.00000000000E+00  0.14999999963E+04  0.15000000000E+04  0.10566000000E+00 0. -1.
        994   -1    0    0    0    0 -0.00000000000E+00 -0.00000000000E+00  0.11368683772E-12  0.17120000000E+03  0.17120000000E+03 0.  0.
         13    1    1    2    0    0  0.51609027087E+02  0.56459556191E+01  0.20326829668E+03  0.20979366075E+03  0.10566000000E+00 0. -1.
        994    1    1    2    0    0 -0.36896385973E+02  0.31744162894E+02  0.14573942909E+02  0.17858016404E+03  0.17120000000E+03 0.  0.
        998    1    1    2    0    0 -0.14712641114E+02 -0.37390118513E+02  0.12821577567E+04  0.12828261752E+04  0.10000000000E+02 0. -1.
</event>
<event>
 5    1  0.1757379E-008  0.3861690E+03  0.7957747E-01  0.3424729E+00
         13   -1    0    0    0    0  0.00000000000E+00  0.00000000000E+00  0.14999999963E+04  0.15000000000E+04  0.10566000000E+00 0.  1.
        994   -1    0    0    0    0 -0.00000000000E+00 -0.00000000000E+00  0.11368683772E-12  0.17120000000E+03  0.17120000000E+03 0.  0.
         13    1    1    2    0    0  0.11574174320E+02  0.71905175786E+01  0.79157688418E+02  0.80321951259E+02  0.10566000000E+00 0.  1.
        994    1    1    2    0    0 -0.24571583928E+02 -0.53794069465E+01  0.31264772994E+01  0.17306621743E+03  0.17120000000E+03 0.  0.
        998    1    1    2    0    0  0.12997409607E+02 -0.18111106322E+01  0.14177158306E+04  0.14178118313E+04  0.10000000000E+02 0.  1.
</event>
<event>
 5    1  0.1757379E-008  0.3843575E+03  0.7957747E-01  0.3432402E+00
         13   -1    0    0    0    0  0.00000000000E+00  0.00000000000E+00  0.14999999963E+04  0.15000000000E+04  0.10566000000E+00 0. -1.
        994   -1    0    0    0    0 -0.00000000000E+00 -0.00000000000E+00  0.11368683772E-12  0.17120000000E+03  0.17120000000E+03 0.  0.
         13    1    1    2    0    0  0.55512253034E+01  0.12953290358E+02  0.48895723005E+02  0.50886213513E+02  0.10566000000E+00 0. -1.
        994    1    1    2    0    0 -0.82966994527E+00 -0.17247913458E+02  0.29327135727E+01  0.17209363637E+03  0.17120000000E+03 0.  0.
        998    1    1    2    0    0 -0.47215553581E+01  0.42946230999E+01  0.14481715597E+04  0.14482201501E+04  0.10000000000E+02 0. -1.
</event>
<event>
 5    1  0.1757379E-008  0.3791748E+03  0.7957747E-01  0.3454760E+00
         13   -1    0    0    0    0  0.00000000000E+00  0.00000000000E+00  0.14999999963E+04  0.15000000000E+04  0.10566000000E+00 0. -1.
        994   -1    0    0    0    0 -0.00000000000E+00 -0.00000000000E+00  0.11368683772E-12  0.17120000000E+03  0.17120000000E+03 0.  0.
         13    1    1    2    0    0 -0.69363966185E+01  0.25684448676E+02  0.71618776280E+02  0.76400685741E+02  0.10566000000E+00 0. -1.
        994    1    1    2    0    0  0.14067669376E+02 -0.28518172264E+02  0.79472842423E+01  0.17430945126E+03  0.17120000000E+03 0.  0.
        998    1    1    2    0    0 -0.71312727571E+01  0.28337235878E+01  0.14204339358E+04  0.14204898630E+04  0.10000000000E+02 0. -1.
</event>
<event>
 5    1  0.1757379E-008  0.3830427E+03  0.7957747E-01  0.3438016E+00
         13   -1    0    0    0    0  0.00000000000E+00  0.00000000000E+00  0.14999999963E+04  0.15000000000E+04  0.10566000000E+00 0. -1.
        994   -1    0    0    0    0 -0.00000000000E+00 -0.00000000000E+00  0.11368683772E-12  0.17120000000E+03  0.17120000000E+03 0.  0.
         13    1    1    2    0    0 -0.67243822686E+01 -0.10972201749E+02  0.31332051150E+02  0.33872040409E+02  0.10566000000E+00 0. -1.
        994    1    1    2    0    0  0.10437800566E+01  0.54275303132E+01  0.27061520161E+01  0.17131056833E+03  0.17120000000E+03 0.  0.
        998    1    1    2    0    0  0.56806022120E+01  0.55446714354E+01  0.14659617931E+04  0.14660173913E+04  0.10000000000E+02 0. -1.
</event>
<event>
 5    1  0.1757379E-008  0.3842763E+03  0.7957747E-01  0.3432747E+00
         13   -1    0    0    0    0  0.00000000000E+00  0.00000000000E+00  0.14999999963E+04  0.15000000000E+04  0.10566000000E+00 0. -1.
        994   -1    0    0    0    0 -0.00000000000E+00 -0.00000000000E+00  0.11368683772E-12  0.17120000000E+03  0.17120000000E+03 0.  0.
         13    1    1    2    0    0  0.64341715856E+01  0.23114796590E+02  0.13535939864E+03  0.13746952516E+03  0.10566000000E+00 0. -1.
        994    1    1    2    0    0 -0.11472353140E+02 -0.20109639609E+02  0.37587567244E+01  0.17279924984E+03  0.17120000000E+03 0.  0.
        998    1    1    2    0    0  0.50381815540E+01 -0.30051569818E+01  0.13608818409E+04  0.13609312250E+04  0.10000000000E+02 0. -1.
</event>
<event>
 5    1  0.1757379E-008  0.3792034E+03  0.7957747E-01  0.3454634E+00
         13   -1    0    0    0    0  0.00000000000E+00  0.00000000000E+00  0.14999999963E+04  0.15000000000E+04  0.10566000000E+00 0.  1.
        994   -1    0    0    0    0 -0.00000000000E+00 -0.00000000000E+00  0.11368683772E-12  0.17120000000E+03  0.17120000000E+03 0.  0.
         13    1    1    2    0    0 -0.30511584613E+02 -0.14283960926E+02  0.15065427485E+03  0.15437522480E+03  0.10566000000E+00 0.  1.
        994    1    1    2    0    0  0.44774045025E+01 -0.34058338618E+02  0.85010563624E+01  0.17481912235E+03  0.17120000000E+03 0.  0.
        998    1    1    2    0    0  0.26034180110E+02  0.48342299544E+02  0.13408446651E+04  0.13420056529E+04  0.10000000000E+02 0.  1.
</event>
<event>
 5    1  0.1757379E-008  0.4067321E+03  0.7957747E-01  0.3342428E+00
         13   -1    0    0    0    0  0.00000000000E+00  0.00000000000E+00  0.14999999963E+04  0.15000000000E+04  0.10566000000E+00 0.  1.
        994   -1    0    0    0    0 -0.00000000000E+00 -0.00000000000E+00  0.11368683772E-12  0.17120000000E+03  0.17120000000E+03 0.  0.
         13    1    1    2    0    0  0.10391148003E+03 -0.19682025037E+02  0.20682385486E+03  0.23229527738E+03  0.10566000000E+00 0.  1.
        994    1    1    2    0    0 -0.14734724660E+01  0.55944118495E+02  0.44581198827E+02  0.18555009783E+03  0.17120000000E+03 0.  0.
        998    1    1    2    0    0 -0.10243800756E+03 -0.36262093457E+02  0.12485949426E+04  0.12533546248E+04  0.10000000000E+02 0.  1.
</event>
<event>
 5    1  0.1757379E-008  0.3837262E+03  0.7957747E-01  0.3435093E+00
         13   -1    0    0    0    0  0.00000000000E+00  0.00000000000E+00  0.14999999963E+04  0.15000000000E+04  0.10566000000E+00 0.  1.
        994   -1    0    0    0    0 -0.00000000000E+00 -0.00000000000E+00  0.11368683772E-12  0.17120000000E+03  0.17120000000E+03 0.  0.
         13    1    1    2    0    0  0.59335428083E+01 -0.30907102207E+02  0.17140557706E+03  0.17427087797E+03  0.10566000000E+00 0.  1.
        994    1    1    2    0    0 -0.22962669554E+02  0.43583467827E+02  0.10319470959E+02  0.17844532592E+03  0.17120000000E+03 0.  0.
        998    1    1    2    0    0  0.17029126746E+02 -0.12676365620E+02  0.13182749483E+04  0.13184837961E+04  0.10000000000E+02 0.  1.
</event>
<event>
 5    1  0.1757379E-008  0.3862594E+03  0.7957747E-01  0.3424348E+00
         13   -1    0    0    0    0  0.00000000000E+00  0.00000000000E+00  0.14999999963E+04  0.15000000000E+04  0.10566000000E+00 0.  1.
        994   -1    0    0    0    0 -0.00000000000E+00 -0.00000000000E+00  0.11368683772E-12  0.17120000000E+03  0.17120000000E+03 0.  0.
         13    1    1    2    0    0  0.99195867164E+01 -0.21964589213E+01  0.56621594960E+02  0.57525983801E+02  0.10566000000E+00 0.  1.
        994    1    1    2    0    0  0.20425158772E+01 -0.87888685442E+01  0.12728447666E+01  0.17144234079E+03  0.17120000000E+03 0.  0.
        998    1    1    2    0    0 -0.11962102594E+02  0.10985327466E+02  0.14421055566E+04  0.14422316754E+04  0.10000000000E+02 0.  1.
</event>
<event>
 5    1  0.1757379E-008  0.3784787E+03  0.7957747E-01  0.3457810E+00
         13   -1    0    0    0    0  0.00000000000E+00  0.00000000000E+00  0.14999999963E+04  0.15000000000E+04  0.10566000000E+00 0. -1.
        994   -1    0    0    0    0 -0.00000000000E+00 -0.00000000000E+00  0.11368683772E-12  0.17120000000E+03  0.17120000000E+03 0.  0.
         13    1    1    2    0    0  0.30731618429E+02 -0.10724124239E+03  0.45656370602E+03  0.46999526089E+03  0.10566000000E+00 0. -1.
        994    1    1    2    0    0 -0.86552528923E+02  0.30664412369E+02  0.46543715798E+02  0.19976837570E+03  0.17120000000E+03 0.  0.
        998    1    1    2    0    0  0.55820910494E+02  0.76576830024E+02  0.99689257446E+03  0.10014363634E+04  0.10000000000E+02 0. -1.
</event>
<event>
 5    1  0.1757379E-008  0.3812149E+03  0.7957747E-01  0.3445885E+00
         13   -1    0    0    0    0  0.00000000000E+00  0.00000000000E+00  0.14999999963E+04  0.15000000000E+04  0.10566000000E+00 0.  1.
        994   -1    0    0    0    0 -0.00000000000E+00 -0.00000000000E+00  0.11368683772E-12  0.17120000000E+03  0.17120000000E+03 0.  0.
         13    1    1    2    0    0 -0.33218331667E+02  0.48934943210E+01  0.17954578061E+03  0.18265843081E+03  0.10566000000E+00 0.  1.
        994    1    1    2    0    0  0.34318911687E+01 -0.20901510964E+01  0.35748741136E+01  0.17128446028E+03  0.17120000000E+03 0.  0.
        998    1    1    2    0    0  0.29786440498E+02 -0.28033432245E+01  0.13168793416E+04  0.13172571089E+04  0.10000000000E+02 0.  1.
</event>
<event>
 5    1  0.1757379E-008  0.3724297E+03  0.7957747E-01  0.3484799E+00
         13   -1    0    0    0    0  0.00000000000E+00  0.00000000000E+00  0.14999999963E+04  0.15000000000E+04  0.10566000000E+00 0. -1.
        994   -1    0    0    0    0 -0.00000000000E+00 -0.00000000000E+00  0.11368683772E-12  0.17120000000E+03  0.17120000000E+03 0.  0.
         13    1    1    2    0    0  0.11151766501E+02 -0.29262332291E+02  0.63521511937E+02  0.70821180660E+02  0.10566000000E+00 0. -1.
        994    1    1    2    0    0  0.78958266833E+01 -0.38142487358E+01  0.82683129616E+01  0.17162370924E+03  0.17120000000E+03 0.  0.
        998    1    1    2    0    0 -0.19047593184E+02  0.33076581027E+02  0.14282101714E+04  0.14287551101E+04  0.10000000000E+02 0. -1.
</event>
<event>
 5    1  0.1757379E-008  0.3849611E+03  0.7957747E-01  0.3429837E+00
         13   -1    0    0    0    0  0.00000000000E+00  0.00000000000E+00  0.14999999963E+04  0.15000000000E+04  0.10566000000E+00 0.  1.
        994   -1    0    0    0    0 -0.00000000000E+00 -0.00000000000E+00  0.11368683772E-12  0.17120000000E+03  0.17120000000E+03 0.  0.
         13    1    1    2    0    0 -0.13680378612E+02 -0.32723015633E+01  0.65154224674E+02  0.66655418935E+02  0.10566000000E+00 0.  1.
        994    1    1    2    0    0 -0.20698853152E+01 -0.70114463722E+01  0.18252665559E+01  0.17136573871E+03  0.17120000000E+03 0.  0.
        998    1    1    2    0    0  0.15750263927E+02  0.10283747935E+02  0.14330205050E+04  0.14331788424E+04  0.10000000000E+02 0.  1.
</event>
<event>
 5    1  0.1757379E-008  0.3835170E+03  0.7957747E-01  0.3435986E+00
         13   -1    0    0    0    0  0.00000000000E+00  0.00000000000E+00  0.14999999963E+04  0.15000000000E+04  0.10566000000E+00 0.  1.
        994   -1    0    0    0    0 -0.00000000000E+00 -0.00000000000E+00  0.11368683772E-12  0.17120000000E+03  0.17120000000E+03 0.  0.
         13    1    1    2    0    0  0.20554321971E+02 -0.85775645312E+02  0.14341184506E+03  0.16836540603E+03  0.10566000000E+00 0.  1.
        994    1    1    2    0    0  0.65658078109E+02  0.16878496536E+03  0.15123797115E+03  0.29151622883E+03  0.17120000000E+03 0.  0.
        998    1    1    2    0    0 -0.86212400080E+02 -0.83009320045E+02  0.12053501801E+04  0.12113183651E+04  0.10000000000E+02 0.  1.
</event>
<event>
 5    1  0.1757379E-008  0.3762872E+03  0.7957747E-01  0.3467486E+00
         13   -1    0    0    0    0  0.00000000000E+00  0.00000000000E+00  0.14999999963E+04  0.15000000000E+04  0.10566000000E+00 0.  1.
        994   -1    0    0    0    0 -0.00000000000E+00 -0.00000000000E+00  0.11368683772E-12  0.17120000000E+03  0.17120000000E+03 0.  0.
         13    1    1    2    0    0  0.21257524681E+02 -0.70793507399E+01  0.43161603835E+02  0.48630595021E+02  0.10566000000E+00 0.  1.
        994    1    1    2    0    0  0.12487881378E+02 -0.11143796045E+02  0.69678630054E+01  0.17215726092E+03  0.17120000000E+03 0.  0.
        998    1    1    2    0    0 -0.33745406059E+02  0.18223146785E+02  0.14498705294E+04  0.14504121441E+04  0.10000000000E+02 0.  1.
</event>
<event>
 5    1  0.1757379E-008  0.3822604E+03  0.7957747E-01  0.3441375E+00
         13   -1    0    0    0    0  0.00000000000E+00  0.00000000000E+00  0.14999999963E+04  0.15000000000E+04  0.10566000000E+00 0.  1.
        994   -1    0    0    0    0 -0.00000000000E+00 -0.00000000000E+00  0.11368683772E-12  0.17120000000E+03  0.17120000000E+03 0.  0.
         13    1    1    2    0    0 -0.36536356212E+02  0.18877625620E+01  0.21005896905E+03  0.21322113079E+03  0.10566000000E+00 0.  1.
        994    1    1    2    0    0  0.27420203798E+02 -0.79405756212E+01  0.57051559349E+01  0.17365744764E+03  0.17120000000E+03 0.  0.
        998    1    1    2    0    0  0.91161524138E+01  0.60528130593E+01  0.12842358713E+04  0.12843214216E+04  0.10000000000E+02 0.  1.
</event>
<event>
 5    1  0.1757379E-008  0.3805034E+03  0.7957747E-01  0.3448969E+00
         13   -1    0    0    0    0  0.00000000000E+00  0.00000000000E+00  0.14999999963E+04  0.15000000000E+04  0.10566000000E+00 0. -1.
        994   -1    0    0    0    0 -0.00000000000E+00 -0.00000000000E+00  0.11368683772E-12  0.17120000000E+03  0.17120000000E+03 0.  0.
         13    1    1    2    0    0 -0.93752559280E+01 -0.21078854023E+02  0.66393073238E+02  0.70287017640E+02  0.10566000000E+00 0. -1.
        994    1    1    2    0    0  0.58508383407E+01  0.16532080330E+02  0.49062927286E+01  0.17216577389E+03  0.17120000000E+03 0.  0.
        998    1    1    2    0    0  0.35244175873E+01  0.45467736933E+01  0.14287006303E+04  0.14287472085E+04  0.10000000000E+02 0. -1.
</event>
<event>
 5    1  0.1757379E-008  0.3856021E+03  0.7957747E-01  0.3427122E+00
         13   -1    0    0    0    0  0.00000000000E+00  0.00000000000E+00  0.14999999963E+04  0.15000000000E+04  0.10566000000E+00 0.  1.
        994   -1    0    0    0    0 -0.00000000000E+00 -0.00000000000E+00  0.11368683772E-12  0.17120000000E+03  0.17120000000E+03 0.  0.
         13    1    1    2    0    0  0.10828986940E+02  0.15606749385E+01  0.42188974686E+02  0.43584669478E+02  0.10566000000E+00 0.  1.
        994    1    1    2    0    0 -0.20679786703E+02  0.53960357212E+01  0.28321448152E+01  0.17255211336E+03  0.17120000000E+03 0.  0.
        998    1    1    2    0    0  0.98507997633E+01 -0.69567106597E+01  0.14549788768E+04  0.14550632172E+04  0.10000000000E+02 0.  1.
</event>
<event>
 5    1  0.1757379E-008  0.3800151E+03  0.7957747E-01  0.3451093E+00
         13   -1    0    0    0    0  0.00000000000E+00  0.00000000000E+00  0.14999999963E+04  0.15000000000E+04  0.10566000000E+00 0. -1.
        994   -1    0    0    0    0 -0.00000000000E+00 -0.00000000000E+00  0.11368683772E-12  0.17120000000E+03  0.17120000000E+03 0.  0.
         13    1    1    2    0    0  0.10139615979E+02  0.31217650771E+02  0.10643534026E+03  0.11138153506E+03  0.10566000000E+00 0. -1.
        994    1    1    2    0    0 -0.31619547591E+01 -0.58990986614E+02  0.15880997667E+02  0.18180093659E+03  0.17120000000E+03 0.  0.
        998    1    1    2    0    0 -0.69776612200E+01  0.27773335843E+02  0.13776836584E+04  0.13780175283E+04  0.10000000000E+02 0. -1.
</event>
<event>
 5    1  0.1757379E-008  0.3788224E+03  0.7957747E-01  0.3456302E+00
         13   -1    0    0    0    0  0.00000000000E+00  0.00000000000E+00  0.14999999963E+04  0.15000000000E+04  0.10566000000E+00 0.  1.
        994   -1    0    0    0    0 -0.00000000000E+00 -0.00000000000E+00  0.11368683772E-12  0.17120000000E+03  0.17120000000E+03 0.  0.
         13    1    1    2    0    0  0.52827836590E+00  0.15422006043E+02  0.22825405028E+02  0.27552270817E+02  0.10566000000E+00 0.  1.
        994    1    1    2    0    0  0.75444316293E+00 -0.16918304362E+02  0.56918664304E+01  0.17212970560E+03  0.17120000000E+03 0.  0.
        998    1    1    2    0    0 -0.12827215288E+01  0.14962983190E+01  0.14714827248E+04  0.14715180236E+04  0.10000000000E+02 0.  1.
</event>
<event>
 5    1  0.1757379E-008  0.3841824E+03  0.7957747E-01  0.3433147E+00
         13   -1    0    0    0    0  0.00000000000E+00  0.00000000000E+00  0.14999999963E+04  0.15000000000E+04  0.10566000000E+00 0.  1.
        994   -1    0    0    0    0 -0.00000000000E+00 -0.00000000000E+00  0.11368683772E-12  0.17120000000E+03  0.17120000000E+03 0.  0.
         13    1    1    2    0    0  0.46041859064E+01  0.10273762466E+02  0.31113515108E+02  0.33087923922E+02  0.10566000000E+00 0.  1.
        994    1    1    2    0    0  0.11227899138E+01 -0.43952640298E+01  0.21044735986E+01  0.17127302126E+03  0.17120000000E+03 0.  0.
        998    1    1    2    0    0 -0.57269758202E+01 -0.58784984362E+01  0.14667820076E+04  0.14668390548E+04  0.10000000000E+02 0.  1.
</event>
<event>
 5    1  0.1757379E-008  0.3827472E+03  0.7957747E-01  0.3439283E+00
         13   -1    0    0    0    0  0.00000000000E+00  0.00000000000E+00  0.14999999963E+04  0.15000000000E+04  0.10566000000E+00 0.  1.
        994   -1    0    0    0    0 -0.00000000000E+00 -0.00000000000E+00  0.11368683772E-12  0.17120000000E+03  0.17120000000E+03 0.  0.
         13    1    1    2    0    0 -0.16799418413E+02  0.14725900929E+02  0.12528650437E+03  0.12726268879E+03  0.10566000000E+00 0.  1.
        994    1    1    2    0    0 -0.34406585113E+02  0.76185052808E+01  0.68777513606E+01  0.17492454998E+03  0.17120000000E+03 0.  0.
        998    1    1    2    0    0  0.51206003526E+02 -0.22344406210E+02  0.13678357405E+04  0.13690127612E+04  0.10000000000E+02 0.  1.
</event>
<event>
 5    1  0.1757379E-008  0.3735772E+03  0.7957747E-01  0.3479611E+00
         13   -1    0    0    0    0  0.00000000000E+00  0.00000000000E+00  0.14999999963E+04  0.15000000000E+04  0.10566000000E+00 0.  1.
        994   -1    0    0    0    0 -0.00000000000E+00 -0.00000000000E+00  0.11368683772E-12  0.17120000000E+03  0.17120000000E+03 0.  0.
         13    1    1    2    0    0  0.76620013240E+02 -0.33762247553E+01  0.45294720663E+03  0.45939439317E+03  0.10566000000E+00 0.  1.
        994    1    1    2    0    0 -0.29433122239E+02  0.12866715811E+02  0.10943742248E+02  0.17453099024E+03  0.17120000000E+03 0.  0.
        998    1    1    2    0    0 -0.47186891001E+02 -0.94904910556E+01  0.10361090474E+04  0.10372746166E+04  0.10000000000E+02 0.  1.
</event>
<event>
 5    1  0.1757379E-008  0.3784831E+03  0.7957747E-01  0.3457790E+00
         13   -1    0    0    0    0  0.00000000000E+00  0.00000000000E+00  0.14999999963E+04  0.15000000000E+04  0.10566000000E+00 0. -1.
        994   -1    0    0    0    0 -0.00000000000E+00 -0.00000000000E+00  0.11368683772E-12  0.17120000000E+03  0.17120000000E+03 0.  0.
         13    1    1    2    0    0 -0.14330625497E+02  0.32584219027E+02  0.14531746257E+03  0.14961375020E+03  0.10566000000E+00 0. -1.
        994    1    1    2    0    0  0.16214001279E+02  0.79250882249E+01  0.59958746776E+01  0.17225298655E+03  0.17120000000E+03 0.  0.
        998    1    1    2    0    0 -0.18833757818E+01 -0.40509307252E+02  0.13486866590E+04  0.13493332633E+04  0.10000000000E+02 0. -1.
</event>
<event>
 5    1  0.1757379E-008  0.3715350E+03  0.7957747E-01  0.3488866E+00
         13   -1    0    0    0    0  0.00000000000E+00  0.00000000000E+00  0.14999999963E+04  0.15000000000E+04  0.10566000000E+00 0.  1.
        994   -1    0    0    0    0 -0.00000000000E+00 -0.00000000000E+00  0.11368683772E-12  0.17120000000E+03  0.17120000000E+03 0.  0.
         13    1    1    2    0    0 -0.11509515968E+03  0.18294516137E+03  0.91315968479E+03  0.93839034998E+03  0.10566000000E+00 0.  1.
        994    1    1    2    0    0  0.85305720540E+02 -0.19696477855E+03  0.18861942277E+03  0.33310496333E+03  0.17120000000E+03 0.  0.
        998    1    1    2    0    0  0.29789439144E+02  0.14019617179E+02  0.39822088872E+03  0.39970468669E+03  0.10000000000E+02 0.  1.
</event>
<event>
 5    1  0.1757379E-008  0.3847887E+03  0.7957747E-01  0.3430569E+00
         13   -1    0    0    0    0  0.00000000000E+00  0.00000000000E+00  0.14999999963E+04  0.15000000000E+04  0.10566000000E+00 0. -1.
        994   -1    0    0    0    0 -0.00000000000E+00 -0.00000000000E+00  0.11368683772E-12  0.17120000000E+03  0.17120000000E+03 0.  0.
         13    1    1    2    0    0  0.97177852339E+01 -0.90934136878E+01  0.49700973104E+02  0.51452146834E+02  0.10566000000E+00 0. -1.
        994    1    1    2    0    0 -0.78865628793E+01  0.11004316043E+02  0.23385245410E+01  0.17175040478E+03  0.17120000000E+03 0.  0.
        998    1    1    2    0    0 -0.18312223546E+01 -0.19109023550E+01  0.14479604986E+04  0.14479974484E+04  0.10000000000E+02 0. -1.
</event>
<event>
 5    1  0.1757379E-008  0.3826851E+03  0.7957747E-01  0.3439549E+00
         13   -1    0    0    0    0  0.00000000000E+00  0.00000000000E+00  0.14999999963E+04  0.15000000000E+04  0.10566000000E+00 0. -1.
        994   -1    0    0    0    0 -0.00000000000E+00 -0.00000000000E+00  0.11368683772E-12  0.17120000000E+03  0.17120000000E+03 0.  0.
         13    1    1    2    0    0  0.83849327817E+01 -0.13645437458E+02  0.46082607207E+02  0.48786503382E+02  0.10566000000E+00 0. -1.
        994    1    1    2    0    0 -0.49183316295E+01  0.39714877225E+01  0.29162319309E+01  0.17134149267E+03  0.17120000000E+03 0.  0.
        998    1    1    2    0    0 -0.34666011522E+01  0.96739497356E+01  0.14510011571E+04  0.14510720040E+04  0.10000000000E+02 0. -1.
</event>
<event>
 5    1  0.1757379E-008  0.3854552E+03  0.7957747E-01  0.3427744E+00
         13   -1    0    0    0    0  0.00000000000E+00  0.00000000000E+00  0.14999999963E+04  0.15000000000E+04  0.10566000000E+00 0.  1.
        994   -1    0    0    0    0 -0.00000000000E+00 -0.00000000000E+00  0.11368683772E-12  0.17120000000E+03  0.17120000000E+03 0.  0.
         13    1    1    2    0    0 -0.29543763006E+02 -0.56067132317E+02  0.12435207692E+03  0.13957008081E+03  0.10566000000E+00 0.  1.
        994    1    1    2    0    0 -0.29537976929E+02 -0.21629133600E+02  0.24328543986E+02  0.17675301851E+03  0.17120000000E+03 0.  0.
        998    1    1    2    0    0  0.59081739935E+02  0.77696265916E+02  0.13513193754E+04  0.13548769007E+04  0.10000000000E+02 0.  1.
</event>
<event>
 5    1  0.1757379E-008  0.3855854E+03  0.7957747E-01  0.3427193E+00
         13   -1    0    0    0    0  0.00000000000E+00  0.00000000000E+00  0.14999999963E+04  0.15000000000E+04  0.10566000000E+00 0.  1.
        994   -1    0    0    0    0 -0.00000000000E+00 -0.00000000000E+00  0.11368683772E-12  0.17120000000E+03  0.17120000000E+03 0.  0.
         13    1    1    2    0    0  0.12377627783E+01  0.11021185159E+02  0.45424835702E+02  0.46759228411E+02  0.10566000000E+00 0.  1.
        994    1    1    2    0    0  0.19275017463E+01 -0.10428656137E+02  0.17090532222E+01  0.17153668119E+03  0.17120000000E+03 0.  0.
        998    1    1    2    0    0 -0.31652645245E+01 -0.59252902193E+00  0.14528661074E+04  0.14529040904E+04  0.10000000000E+02 0.  1.
</event>
<event>
 5    1  0.1757379E-008  0.3838483E+03  0.7957747E-01  0.3434571E+00
         13   -1    0    0    0    0  0.00000000000E+00  0.00000000000E+00  0.14999999963E+04  0.15000000000E+04  0.10566000000E+00 0. -1.
        994   -1    0    0    0    0 -0.00000000000E+00 -0.00000000000E+00  0.11368683772E-12  0.17120000000E+03  0.17120000000E+03 0.  0.
         13    1    1    2    0    0  0.96582515679E+01 -0.18997021255E+02  0.10283591844E+03  0.10502097850E+03  0.10566000000E+00 0. -1.
        994    1    1    2    0    0 -0.39164046408E+01  0.12575007369E+02  0.27758390010E+01  0.17172831542E+03  0.17120000000E+03 0.  0.
        998    1    1    2    0    0 -0.57418469271E+01  0.64220138862E+01  0.13943882388E+04  0.13944507061E+04  0.10000000000E+02 0. -1.
</event>
<event>
 5    1  0.1757379E-008  0.3838593E+03  0.7957747E-01  0.3434525E+00
         13   -1    0    0    0    0  0.00000000000E+00  0.00000000000E+00  0.14999999963E+04  0.15000000000E+04  0.10566000000E+00 0.  1.
        994   -1    0    0    0    0 -0.00000000000E+00 -0.00000000000E+00  0.11368683772E-12  0.17120000000E+03  0.17120000000E+03 0.  0.
         13    1    1    2    0    0  0.11443114635E+02 -0.12198007812E+02  0.63172176818E+02  0.65348843564E+02  0.10566000000E+00 0.  1.
        994    1    1    2    0    0 -0.84417715922E+01  0.69944341859E+01  0.25943706268E+01  0.17157026659E+03  0.17120000000E+03 0.  0.
        998    1    1    2    0    0 -0.30013430431E+01  0.52035736257E+01  0.14342334488E+04  0.14342808899E+04  0.10000000000E+02 0. -1.
</event>
<event>
 5    1  0.1757379E-008  0.3744556E+03  0.7957747E-01  0.3475661E+00
         13   -1    0    0    0    0  0.00000000000E+00  0.00000000000E+00  0.14999999963E+04  0.15000000000E+04  0.10566000000E+00 0. -1.
        994   -1    0    0    0    0 -0.00000000000E+00 -0.00000000000E+00  0.11368683772E-12  0.17120000000E+03  0.17120000000E+03 0.  0.
         13    1    1    2    0    0  0.14994147847E+01  0.36377142805E+02  0.89209849572E+02  0.96353272846E+02  0.10566000000E+00 0. -1.
        994    1    1    2    0    0  0.10833748345E+02 -0.32934995466E+02  0.11063182779E+02  0.17502547827E+03  0.17120000000E+03 0.  0.
        998    1    1    2    0    0 -0.12333163130E+02 -0.34421473387E+01  0.13997269639E+04  0.13998212489E+04  0.10000000000E+02 0. -1.
</event>
<event>
 5    1  0.1757379E-008  0.3775988E+03  0.7957747E-01  0.3461681E+00
         13   -1    0    0    0    0  0.00000000000E+00  0.00000000000E+00  0.14999999963E+04  0.15000000000E+04  0.10566000000E+00 0. -1.
        994   -1    0    0    0    0 -0.00000000000E+00 -0.00000000000E+00  0.11368683772E-12  0.17120000000E+03  0.17120000000E+03 0.  0.
         13    1    1    2    0    0 -0.14787406775E+02 -0.55076533569E+01  0.21196168523E+02  0.26425184365E+02  0.10566000000E+00 0. -1.
        994    1    1    2    0    0  0.90716960042E+01 -0.28677896622E+01  0.56552492632E+01  0.17155740069E+03  0.17120000000E+03 0.  0.
        998    1    1    2    0    0  0.57157107704E+01  0.83754430191E+01  0.14731485785E+04  0.14732174149E+04  0.10000000000E+02 0. -1.
</event>
<event>
 5    1  0.1757379E-008  0.3744721E+03  0.7957747E-01  0.3475587E+00
         13   -1    0    0    0    0  0.00000000000E+00  0.00000000000E+00  0.14999999963E+04  0.15000000000E+04  0.10566000000E+00 0. -1.
        994   -1    0    0    0    0 -0.00000000000E+00 -0.00000000000E+00  0.11368683772E-12  0.17120000000E+03  0.17120000000E+03 0.  0.
         13    1    1    2    0    0 -0.25455057998E+02 -0.68608283259E+02  0.31778130847E+03  0.32609818718E+03  0.10566000000E+00 0. -1.
        994    1    1    2    0    0  0.35687069638E+02  0.58191126658E+02  0.22987343459E+02  0.18573538198E+03  0.17120000000E+03 0.  0.
        998    1    1    2    0    0 -0.10232011640E+02  0.10417156602E+02  0.11592313444E+04  0.11593664308E+04  0.10000000000E+02 0. -1.
</event>
<event>
 5    1  0.1757379E-008  0.3830406E+03  0.7957747E-01  0.3438025E+00
         13   -1    0    0    0    0  0.00000000000E+00  0.00000000000E+00  0.14999999963E+04  0.15000000000E+04  0.10566000000E+00 0. -1.
        994   -1    0    0    0    0 -0.00000000000E+00 -0.00000000000E+00  0.11368683772E-12  0.17120000000E+03  0.17120000000E+03 0.  0.
         13    1    1    2    0    0 -0.64223131003E+01  0.76869224378E+01  0.17396961123E+02  0.20074867433E+02  0.10566000000E+00 0. -1.
        994    1    1    2    0    0  0.66008144219E+01 -0.24984727668E+02  0.48194289222E+01  0.17320644983E+03  0.17120000000E+03 0.  0.
        998    1    1    2    0    0 -0.17850132159E+00  0.17297805230E+02  0.14777836062E+04  0.14779186827E+04  0.10000000000E+02 0. -1.
</event>
<event>
 5    1  0.1757379E-008  0.3837078E+03  0.7957747E-01  0.3435171E+00
         13   -1    0    0    0    0  0.00000000000E+00  0.00000000000E+00  0.14999999963E+04  0.15000000000E+04  0.10566000000E+00 0. -1.
        994   -1    0    0    0    0 -0.00000000000E+00 -0.00000000000E+00  0.11368683772E-12  0.17120000000E+03  0.17120000000E+03 0.  0.
         13    1    1    2    0    0  0.58802433552E+01  0.92933228420E+01  0.27183662320E+02  0.29324149988E+02  0.10566000000E+00 0. -1.
        994    1    1    2    0    0  0.21686401868E+02 -0.71773358042E+01  0.39982419068E+01  0.17276353815E+03  0.17120000000E+03 0.  0.
        998    1    1    2    0    0 -0.27566645223E+02 -0.21159870377E+01  0.14688180921E+04  0.14691123119E+04  0.10000000000E+02 0. -1.
</event>
<event>
 5    1  0.1757379E-008  0.3845786E+03  0.7957747E-01  0.3431461E+00
         13   -1    0    0    0    0  0.00000000000E+00  0.00000000000E+00  0.14999999963E+04  0.15000000000E+04  0.10566000000E+00 0.  1.
        994   -1    0    0    0    0 -0.00000000000E+00 -0.00000000000E+00  0.11368683772E-12  0.17120000000E+03  0.17120000000E+03 0.  0.
         13    1    1    2    0    0  0.84732870813E+01 -0.94048615309E+01  0.49547260928E+02  0.51138930805E+02  0.10566000000E+00 0.  1.
        994    1    1    2    0    0  0.13221558536E+02 -0.10542694693E+02  0.27817747181E+01  0.17205561976E+03  0.17120000000E+03 0.  0.
        998    1    1    2    0    0 -0.21694845617E+02  0.19947556224E+02  0.14476709606E+04  0.14480054494E+04  0.10000000000E+02 0.  1.
</event>
<event>
 5    1  0.1757379E-008  0.3847186E+03  0.7957747E-01  0.3430866E+00
         13   -1    0    0    0    0  0.00000000000E+00  0.00000000000E+00  0.14999999963E+04  0.15000000000E+04  0.10566000000E+00 0.  1.
        994   -1    0    0    0    0 -0.00000000000E+00 -0.00000000000E+00  0.11368683772E-12  0.17120000000E+03  0.17120000000E+03 0.  0.
         13    1    1    2    0    0  0.96605626540E+01 -0.14857742517E+02  0.90762294489E+02  0.92476398332E+02  0.10566000000E+00 0.  1.
        994    1    1    2    0    0  0.62987181634E+01  0.14016779620E+02  0.25475887443E+01  0.17190716730E+03  0.17120000000E+03 0.  0.
        998    1    1    2    0    0 -0.15959280817E+02  0.84096289709E+00  0.14066901130E+04  0.14068164344E+04  0.10000000000E+02 0.  1.
</event>
<event>
 5    1  0.1757379E-008  0.3761497E+03  0.7957747E-01  0.3468097E+00
         13   -1    0    0    0    0  0.00000000000E+00  0.00000000000E+00  0.14999999963E+04  0.15000000000E+04  0.10566000000E+00 0. -1.
        994   -1    0    0    0    0 -0.00000000000E+00 -0.00000000000E+00  0.11368683772E-12  0.17120000000E+03  0.17120000000E+03 0.  0.
         13    1    1    2    0    0  0.17019177389E+02 -0.12419962153E+02  0.33175449806E+02  0.39300502449E+02  0.10566000000E+00 0. -1.
        994    1    1    2    0    0 -0.19495599765E+02  0.11793596561E+02  0.78494410526E+01  0.17288788580E+03  0.17120000000E+03 0.  0.
        998    1    1    2    0    0  0.24764223755E+01  0.62636559178E+00  0.14589751054E+04  0.14590116118E+04  0.10000000000E+02 0. -1.
</event>
<event>
 5    1  0.1757379E-008  0.3850150E+03  0.7957747E-01  0.3429609E+00
         13   -1    0    0    0    0  0.00000000000E+00  0.00000000000E+00  0.14999999963E+04  0.15000000000E+04  0.10566000000E+00 0.  1.
        994   -1    0    0    0    0 -0.00000000000E+00 -0.00000000000E+00  0.11368683772E-12  0.17120000000E+03  0.17120000000E+03 0.  0.
         13    1    1    2    0    0 -0.87120129116E+01 -0.11419115329E+02  0.67790900188E+02  0.69295834480E+02  0.10566000000E+00 0.  1.
        994    1    1    2    0    0 -0.40798254979E+01  0.27717763589E+01  0.17027075851E+01  0.17127949945E+03  0.17120000000E+03 0.  0.
        998    1    1    2    0    0  0.12791838409E+02  0.86473389706E+01  0.14305063885E+04  0.14306246661E+04  0.10000000000E+02 0.  1.
</event>
<event>
 5    1  0.1757379E-008  0.3838759E+03  0.7957747E-01  0.3434453E+00
         13   -1    0    0    0    0  0.00000000000E+00  0.00000000000E+00  0.14999999963E+04  0.15000000000E+04  0.10566000000E+00 0.  1.
        994   -1    0    0    0    0 -0.00000000000E+00 -0.00000000000E+00  0.11368683772E-12  0.17120000000E+03  0.17120000000E+03 0.  0.
         13    1    1    2    0    0 -0.36502635118E+01  0.22607448755E+02  0.11238207574E+03  0.11469160071E+03  0.10566000000E+00 0.  1.
        994    1    1    2    0    0  0.83183902186E+01 -0.21424091786E+02  0.39345563120E+01  0.17278051990E+03  0.17120000000E+03 0.  0.
        998    1    1    2    0    0 -0.46681267068E+01 -0.11833569690E+01  0.13836833642E+04  0.13837278794E+04  0.10000000000E+02 0.  1.
</event>
<event>
 5    1  0.1757379E-008  0.3847941E+03  0.7957747E-01  0.3430546E+00
         13   -1    0    0    0    0  0.00000000000E+00  0.00000000000E+00  0.14999999963E+04  0.15000000000E+04  0.10566000000E+00 0.  1.
        994   -1    0    0    0    0 -0.00000000000E+00 -0.00000000000E+00  0.11368683772E-12  0.17120000000E+03  0.17120000000E+03 0.  0.
         13    1    1    2    0    0  0.31430357753E+01  0.11528733589E+02  0.40211075408E+02  0.41949161155E+02  0.10566000000E+00 0.  1.
        994    1    1    2    0    0 -0.33364008670E+00 -0.12376690979E+02  0.22370365638E+01  0.17166169674E+03  0.17120000000E+03 0.  0.
        998    1    1    2    0    0 -0.28093956886E+01  0.84795738962E+00  0.14575518843E+04  0.14575891421E+04  0.10000000000E+02 0.  1.
</event>
<event>
 5    1  0.1757379E-008  0.3754806E+03  0.7957747E-01  0.3471076E+00
         13   -1    0    0    0    0  0.00000000000E+00  0.00000000000E+00  0.14999999963E+04  0.15000000000E+04  0.10566000000E+00 0. -1.
        994   -1    0    0    0    0 -0.00000000000E+00 -0.00000000000E+00  0.11368683772E-12  0.17120000000E+03  0.17120000000E+03 0.  0.
         13    1    1    2    0    0 -0.10755684701E+02  0.10662452054E+01  0.61147448390E+01  0.12418651324E+02  0.10566000000E+00 0. -1.
        994    1    1    2    0    0  0.89581866629E+01  0.38423262229E+00  0.67050305137E+01  0.17156571387E+03  0.17120000000E+03 0.  0.
        998    1    1    2    0    0  0.17974980382E+01 -0.14504778277E+01  0.14871802209E+04  0.14872156348E+04  0.10000000000E+02 0. -1.
</event>
<event>
 5    1  0.1757379E-008  0.3800077E+03  0.7957747E-01  0.3451125E+00
         13   -1    0    0    0    0  0.00000000000E+00  0.00000000000E+00  0.14999999963E+04  0.15000000000E+04  0.10566000000E+00 0.  1.
        994   -1    0    0    0    0 -0.00000000000E+00 -0.00000000000E+00  0.11368683772E-12  0.17120000000E+03  0.17120000000E+03 0.  0.
         13    1    1    2    0    0 -0.66726219277E+01 -0.28684504120E+02  0.97472818578E+02  0.10182478178E+03  0.10566000000E+00 0.  1.
        994    1    1    2    0    0  0.16143378644E+02  0.27096028480E+02  0.74618397571E+01  0.17424098968E+03  0.17120000000E+03 0.  0.
        998    1    1    2    0    0 -0.94707567164E+01  0.15884756401E+01  0.13950653379E+04  0.13951342285E+04  0.10000000000E+02 0.  1.
</event>
<event>
 5    1  0.1757379E-008  0.3852976E+03  0.7957747E-01  0.3428411E+00
         13   -1    0    0    0    0  0.00000000000E+00  0.00000000000E+00  0.14999999963E+04  0.15000000000E+04  0.10566000000E+00 0. -1.
        994   -1    0    0    0    0 -0.00000000000E+00 -0.00000000000E+00  0.11368683772E-12  0.17120000000E+03  0.17120000000E+03 0.  0.
         13    1    1    2    0    0  0.96549887447E+01 -0.79240768235E+01  0.55698460600E+02  0.57081866459E+02  0.10566000000E+00 0. -1.
        994    1    1    2    0    0 -0.69348594857E+01 -0.89289798167E+01  0.19025259277E+01  0.17158344489E+03  0.17120000000E+03 0.  0.
        998    1    1    2    0    0 -0.27201292590E+01  0.16853056640E+02  0.14423990098E+04  0.14425346886E+04  0.10000000000E+02 0. -1.
</event>
<event>
 5    1  0.1757379E-008  0.3709085E+03  0.7957747E-01  0.3491726E+00
         13   -1    0    0    0    0  0.00000000000E+00  0.00000000000E+00  0.14999999963E+04  0.15000000000E+04  0.10566000000E+00 0.  1.
        994   -1    0    0    0    0 -0.00000000000E+00 -0.00000000000E+00  0.11368683772E-12  0.17120000000E+03  0.17120000000E+03 0.  0.
         13    1    1    2    0    0  0.21058610301E+02 -0.33850415536E+02  0.88771697566E+02  0.97312595036E+02  0.10566000000E+00 0.  1.
        994    1    1    2    0    0 -0.53700964066E+02 -0.91943928656E+01  0.19096796615E+02  0.18067223927E+03  0.17120000000E+03 0.  0.
        998    1    1    2    0    0  0.32642353765E+02  0.43044808402E+02  0.13921315021E+04  0.13932151657E+04  0.10000000000E+02 0.  1.
</event>
<event>
 5    1  0.1757379E-008  0.3853047E+03  0.7957747E-01  0.3428381E+00
         13   -1    0    0    0    0  0.00000000000E+00  0.00000000000E+00  0.14999999963E+04  0.15000000000E+04  0.10566000000E+00 0. -1.
        994   -1    0    0    0    0 -0.00000000000E+00 -0.00000000000E+00  0.11368683772E-12  0.17120000000E+03  0.17120000000E+03 0.  0.
         13    1    1    2    0    0  0.59627883067E+01 -0.10894307341E+02  0.50736597651E+02  0.52234608087E+02  0.10566000000E+00 0. -1.
        994    1    1    2    0    0 -0.23852901270E+01  0.13981942460E+02  0.21401705280E+01  0.17179989713E+03  0.17120000000E+03 0.  0.
        998    1    1    2    0    0 -0.35774981797E+01 -0.30876351191E+01  0.14471232281E+04  0.14471654948E+04  0.10000000000E+02 0. -1.
</event>
<event>
 5    1  0.1757379E-008  0.3692542E+03  0.7957747E-01  0.3499326E+00
         13   -1    0    0    0    0  0.00000000000E+00  0.00000000000E+00  0.14999999963E+04  0.15000000000E+04  0.10566000000E+00 0.  1.
        994   -1    0    0    0    0 -0.00000000000E+00 -0.00000000000E+00  0.11368683772E-12  0.17120000000E+03  0.17120000000E+03 0.  0.
         13    1    1    2    0    0 -0.10941027873E+03 -0.48523824303E+02  0.53472976434E+03  0.54796085868E+03  0.10566000000E+00 0.  1.
        994    1    1    2    0    0  0.81146008717E+02  0.55221336681E+02  0.44936298514E+02  0.20239264236E+03  0.17120000000E+03 0.  0.
        998    1    1    2    0    0  0.28264270014E+02 -0.66975123787E+01  0.92033393343E+03  0.92084649896E+03  0.10000000000E+02 0.  1.
</event>
<event>
 5    1  0.1757379E-008  0.3745092E+03  0.7957747E-01  0.3475421E+00
         13   -1    0    0    0    0  0.00000000000E+00  0.00000000000E+00  0.14999999963E+04  0.15000000000E+04  0.10566000000E+00 0.  1.
        994   -1    0    0    0    0 -0.00000000000E+00 -0.00000000000E+00  0.11368683772E-12  0.17120000000E+03  0.17120000000E+03 0.  0.
         13    1    1    2    0    0 -0.13643932720E+02  0.13740482116E+03  0.70728748237E+03  0.72063987931E+03  0.10566000000E+00 0.  1.
        994    1    1    2    0    0  0.14222812922E+02 -0.13421719229E+03  0.71731506413E+02  0.22950248828E+03  0.17120000000E+03 0.  0.
        998    1    1    2    0    0 -0.57888020195E+00 -0.31876288630E+01  0.72098100750E+03  0.72105763241E+03  0.10000000000E+02 0.  1.
</event>
<event>
 5    1  0.1757379E-008  0.3837189E+03  0.7957747E-01  0.3435124E+00
         13   -1    0    0    0    0  0.00000000000E+00  0.00000000000E+00  0.14999999963E+04  0.15000000000E+04  0.10566000000E+00 0. -1.
        994   -1    0    0    0    0 -0.00000000000E+00 -0.00000000000E+00  0.11368683772E-12  0.17120000000E+03  0.17120000000E+03 0.  0.
         13    1    1    2    0    0  0.16467305494E+02 -0.33427828947E+01  0.60505617074E+02  0.62795598646E+02  0.10566000000E+00 0. -1.
        994    1    1    2    0    0 -0.14762103476E+02  0.14718083671E+01  0.29946789826E+01  0.17186766427E+03  0.17120000000E+03 0.  0.
        998    1    1    2    0    0 -0.17052020180E+01  0.18709745277E+01  0.14364997002E+04  0.14365367371E+04  0.10000000000E+02 0. -1.
</event>
<event>
 5    1  0.1757379E-008  0.3795344E+03  0.7957747E-01  0.3453188E+00
         13   -1    0    0    0    0  0.00000000000E+00  0.00000000000E+00  0.14999999963E+04  0.15000000000E+04  0.10566000000E+00 0.  1.
        994   -1    0    0    0    0 -0.00000000000E+00 -0.00000000000E+00  0.11368683772E-12  0.17120000000E+03  0.17120000000E+03 0.  0.
         13    1    1    2    0    0  0.97593624064E+01  0.40764758364E+02  0.17839284456E+03  0.18325127239E+03  0.10566000000E+00 0.  1.
        994    1    1    2    0    0 -0.12539762874E+02 -0.39364732293E+02  0.10104218979E+02  0.17640397683E+03  0.17120000000E+03 0.  0.
        998    1    1    2    0    0  0.27804004680E+01 -0.14000260705E+01  0.13115029327E+04  0.13115447508E+04  0.10000000000E+02 0.  1.
</event>
<event>
 5    1  0.1757379E-008  0.3788631E+03  0.7957747E-01  0.3456124E+00
         13   -1    0    0    0    0  0.00000000000E+00  0.00000000000E+00  0.14999999963E+04  0.15000000000E+04  0.10566000000E+00 0. -1.
        994   -1    0    0    0    0 -0.00000000000E+00 -0.00000000000E+00  0.11368683772E-12  0.17120000000E+03  0.17120000000E+03 0.  0.
         13    1    1    2    0    0 -0.28994951120E+01 -0.46431960659E+02  0.19012386116E+03  0.19573305237E+03  0.10566000000E+00 0. -1.
        994    1    1    2    0    0  0.29133930280E+02  0.53619255375E+02  0.17306691867E+02  0.18257264862E+03  0.17120000000E+03 0.  0.
        998    1    1    2    0    0 -0.26234435168E+02 -0.71872947154E+01  0.12925694432E+04  0.12928942990E+04  0.10000000000E+02 0. -1.
</event>
<event>
 5    1  0.1757379E-008  0.3794011E+03  0.7957747E-01  0.3453771E+00
         13   -1    0    0    0    0  0.00000000000E+00  0.00000000000E+00  0.14999999963E+04  0.15000000000E+04  0.10566000000E+00 0.  1.
        994   -1    0    0    0    0 -0.00000000000E+00 -0.00000000000E+00  0.11368683772E-12  0.17120000000E+03  0.17120000000E+03 0.  0.
         13    1    1    2    0    0 -0.79171999825E+02 -0.80931895906E+00  0.22527149180E+03  0.23878047813E+03  0.10566000000E+00 0.  1.
        994    1    1    2    0    0  0.12903975185E+02 -0.17969083976E+02  0.17770043410E+02  0.17353563034E+03  0.17120000000E+03 0.  0.
        998    1    1    2    0    0  0.66268024640E+02  0.18778402935E+02  0.12569584611E+04  0.12588838915E+04  0.10000000000E+02 0.  1.
</event>
<event>
 5    1  0.1757379E-008  0.3900818E+03  0.7957747E-01  0.3408401E+00
         13   -1    0    0    0    0  0.00000000000E+00  0.00000000000E+00  0.14999999963E+04  0.15000000000E+04  0.10566000000E+00 0. -1.
        994   -1    0    0    0    0 -0.00000000000E+00 -0.00000000000E+00  0.11368683772E-12  0.17120000000E+03  0.17120000000E+03 0.  0.
         13    1    1    2    0    0 -0.57667707789E+02  0.27258628774E+01  0.73348903709E+02  0.93343814414E+02  0.10566000000E+00 0. -1.
        994    1    1    2    0    0  0.11337279617E+02 -0.51157165239E+02  0.32385318548E+02  0.18194460234E+03  0.17120000000E+03 0.  0.
        998    1    1    2    0    0  0.46330428172E+02  0.48431302361E+02  0.13942657740E+04  0.13959115832E+04  0.10000000000E+02 0. -1.
</event>
<event>
 5    1  0.1757379E-008  0.3760468E+03  0.7957747E-01  0.3468554E+00
         13   -1    0    0    0    0  0.00000000000E+00  0.00000000000E+00  0.14999999963E+04  0.15000000000E+04  0.10566000000E+00 0. -1.
        994   -1    0    0    0    0 -0.00000000000E+00 -0.00000000000E+00  0.11368683772E-12  0.17120000000E+03  0.17120000000E+03 0.  0.
         13    1    1    2    0    0  0.19418154296E+02  0.18540343682E+02  0.58178559059E+02  0.64074682663E+02  0.10566000000E+00 0. -1.
        994    1    1    2    0    0 -0.41378775545E+01 -0.72861966201E+01  0.63800191842E+01  0.17152362909E+03  0.17120000000E+03 0.  0.
        998    1    1    2    0    0 -0.15280276741E+02 -0.11254147062E+02  0.14354414180E+04  0.14356016882E+04  0.10000000000E+02 0. -1.
</event>
<event>
 5    1  0.1757379E-008  0.3824163E+03  0.7957747E-01  0.3440704E+00
         13   -1    0    0    0    0  0.00000000000E+00  0.00000000000E+00  0.14999999963E+04  0.15000000000E+04  0.10566000000E+00 0.  1.
        994   -1    0    0    0    0 -0.00000000000E+00 -0.00000000000E+00  0.11368683772E-12  0.17120000000E+03  0.17120000000E+03 0.  0.
         13    1    1    2    0    0 -0.19401766687E+02 -0.49135829561E+02  0.31902603312E+03  0.32337034383E+03  0.10566000000E+00 0.  1.
        994    1    1    2    0    0  0.20986756808E+02  0.65064449302E+02  0.18576667282E+02  0.18527913831E+03  0.17120000000E+03 0.  0.
        998    1    1    2    0    0 -0.15849901203E+01 -0.15928619741E+02  0.11623972959E+04  0.11625505179E+04  0.10000000000E+02 0.  1.
</event>
<event>
 5    1  0.1757379E-008  0.3854389E+03  0.7957747E-01  0.3427813E+00
         13   -1    0    0    0    0  0.00000000000E+00  0.00000000000E+00  0.14999999963E+04  0.15000000000E+04  0.10566000000E+00 0. -1.
        994   -1    0    0    0    0 -0.00000000000E+00 -0.00000000000E+00  0.11368683772E-12  0.17120000000E+03  0.17120000000E+03 0.  0.
         13    1    1    2    0    0 -0.13396050115E+02  0.35942667124E+01  0.66901920379E+02  0.68324600448E+02  0.10566000000E+00 0. -1.
        994    1    1    2    0    0  0.12273501558E+02 -0.21379292075E+01  0.19222567689E+01  0.17166346336E+03  0.17120000000E+03 0.  0.
        998    1    1    2    0    0  0.11225485570E+01 -0.14563375049E+01  0.14311758191E+04  0.14312119362E+04  0.10000000000E+02 0. -1.
</event>
<event>
 5    1  0.1757379E-008  0.3702507E+03  0.7957747E-01  0.3494740E+00
         13   -1    0    0    0    0  0.00000000000E+00  0.00000000000E+00  0.14999999963E+04  0.15000000000E+04  0.10566000000E+00 0. -1.
        994   -1    0    0    0    0 -0.00000000000E+00 -0.00000000000E+00  0.11368683772E-12  0.17120000000E+03  0.17120000000E+03 0.  0.
         13    1    1    2    0    0  0.99926747974E+01 -0.53113308229E+02  0.28733403723E+03  0.29237259990E+03  0.10566000000E+00 0. -1.
        994    1    1    2    0    0  0.85369660819E+02 -0.29531024602E+02  0.37881045621E+02  0.19724217100E+03  0.17120000000E+03 0.  0.
        998    1    1    2    0    0 -0.95362335617E+02  0.82644332831E+02  0.11747849134E+04  0.11815852291E+04  0.10000000000E+02 0. -1.
</event>
<event>
 5    1  0.1757379E-008  0.3844664E+03  0.7957747E-01  0.3431938E+00
         13   -1    0    0    0    0  0.00000000000E+00  0.00000000000E+00  0.14999999963E+04  0.15000000000E+04  0.10566000000E+00 0. -1.
        994   -1    0    0    0    0 -0.00000000000E+00 -0.00000000000E+00  0.11368683772E-12  0.17120000000E+03  0.17120000000E+03 0.  0.
         13    1    1    2    0    0  0.38134594842E+00 -0.10985864614E+02  0.30810281927E+02  0.32712677704E+02  0.10566000000E+00 0. -1.
        994    1    1    2    0    0 -0.71109340200E-01  0.12465926100E+02  0.24074081871E+01  0.17167014879E+03  0.17120000000E+03 0.  0.
        998    1    1    2    0    0 -0.31023660822E+00 -0.14800614864E+01  0.14667823062E+04  0.14668171735E+04  0.10000000000E+02 0. -1.
</event>
<event>
 5    1  0.1757379E-008  0.3837425E+03  0.7957747E-01  0.3435023E+00
         13   -1    0    0    0    0  0.00000000000E+00  0.00000000000E+00  0.14999999963E+04  0.15000000000E+04  0.10566000000E+00 0.  1.
        994   -1    0    0    0    0 -0.00000000000E+00 -0.00000000000E+00  0.11368683772E-12  0.17120000000E+03  0.17120000000E+03 0.  0.
         13    1    1    2    0    0 -0.10853573480E+02  0.56407347627E+01  0.31710018980E+02  0.33987562633E+02  0.10566000000E+00 0.  1.
        994    1    1    2    0    0  0.13615547290E+02 -0.56025831342E+01  0.29718930142E+01  0.17185762774E+03  0.17120000000E+03 0.  0.
        998    1    1    2    0    0 -0.27619738096E+01 -0.38151628492E-01  0.14653180843E+04  0.14653548096E+04  0.10000000000E+02 0.  1.
</event>
<event>
 5    1  0.1757379E-008  0.3859049E+03  0.7957747E-01  0.3425844E+00
         13   -1    0    0    0    0  0.00000000000E+00  0.00000000000E+00  0.14999999963E+04  0.15000000000E+04  0.10566000000E+00 0.  1.
        994   -1    0    0    0    0 -0.00000000000E+00 -0.00000000000E+00  0.11368683772E-12  0.17120000000E+03  0.17120000000E+03 0.  0.
         13    1    1    2    0    0 -0.87973757119E+01 -0.56655477502E+01  0.46143576437E+02  0.47315251887E+02  0.10566000000E+00 0.  1.
        994    1    1    2    0    0  0.46500661162E+01  0.10039069102E+02  0.15830322496E+01  0.17156442526E+03  0.17120000000E+03 0.  0.
        998    1    1    2    0    0  0.41473095957E+01 -0.43735213518E+01  0.14522733876E+04  0.14523203229E+04  0.10000000000E+02 0.  1.
</event>
<event>
 5    1  0.1757379E-008  0.3817224E+03  0.7957747E-01  0.3443693E+00
         13   -1    0    0    0    0  0.00000000000E+00  0.00000000000E+00  0.14999999963E+04  0.15000000000E+04  0.10566000000E+00 0.  1.
        994   -1    0    0    0    0 -0.00000000000E+00 -0.00000000000E+00  0.11368683772E-12  0.17120000000E+03  0.17120000000E+03 0.  0.
         13    1    1    2    0    0  0.31165490860E+02  0.15901752202E+01  0.20986281835E+02  0.37606537558E+02  0.10566000000E+00 0.  1.
        994    1    1    2    0    0 -0.26536113771E+02  0.10913306064E+02  0.20284333079E+02  0.17476887524E+03  0.17120000000E+03 0.  0.
        998    1    1    2    0    0 -0.46293770887E+01 -0.12503481284E+02  0.14587293814E+04  0.14588245872E+04  0.10000000000E+02 0.  1.
</event>
<event>
 5    1  0.1757379E-008  0.4038545E+03  0.7957747E-01  0.3353443E+00
         13   -1    0    0    0    0  0.00000000000E+00  0.00000000000E+00  0.14999999963E+04  0.15000000000E+04  0.10566000000E+00 0. -1.
        994   -1    0    0    0    0 -0.00000000000E+00 -0.00000000000E+00  0.11368683772E-12  0.17120000000E+03  0.17120000000E+03 0.  0.
         13    1    1    2    0    0  0.48251579246E+02  0.21936873428E+02  0.32934735834E+02  0.62403119345E+02  0.10566000000E+00 0. -1.
        994    1    1    2    0    0 -0.37613604391E+02 -0.80175676260E+02  0.62037833644E+02  0.20248717269E+03  0.17120000000E+03 0.  0.
        998    1    1    2    0    0 -0.10637974855E+02  0.58238802833E+02  0.14050274268E+04  0.14063097080E+04  0.10000000000E+02 0. -1.
</event>
<event>
 5    1  0.1757379E-008  0.3843231E+03  0.7957747E-01  0.3432548E+00
         13   -1    0    0    0    0  0.00000000000E+00  0.00000000000E+00  0.14999999963E+04  0.15000000000E+04  0.10566000000E+00 0. -1.
        994   -1    0    0    0    0 -0.00000000000E+00 -0.00000000000E+00  0.11368683772E-12  0.17120000000E+03  0.17120000000E+03 0.  0.
         13    1    1    2    0    0 -0.17801168342E+02  0.71494713290E+01  0.89938625201E+02  0.91961752928E+02  0.10566000000E+00 0. -1.
        994    1    1    2    0    0  0.19511263649E+02  0.11824293827E+01  0.32268842075E+01  0.17234250877E+03  0.17120000000E+03 0.  0.
        998    1    1    2    0    0 -0.17100953072E+01 -0.83319007117E+01  0.14068344869E+04  0.14068957383E+04  0.10000000000E+02 0. -1.
</event>
<event>
 5    1  0.1757379E-008  0.3853370E+03  0.7957747E-01  0.3428244E+00
         13   -1    0    0    0    0  0.00000000000E+00  0.00000000000E+00  0.14999999963E+04  0.15000000000E+04  0.10566000000E+00 0.  1.
        994   -1    0    0    0    0 -0.00000000000E+00 -0.00000000000E+00  0.11368683772E-12  0.17120000000E+03  0.17120000000E+03 0.  0.
         13    1    1    2    0    0  0.62889141692E+01 -0.83096503440E+01  0.37162940570E+02  0.38596580756E+02  0.10566000000E+00 0.  1.
        994    1    1    2    0    0  0.14628197443E+01  0.97086152075E+01  0.17796271617E+01  0.17149053654E+03  0.17120000000E+03 0.  0.
        998    1    1    2    0    0 -0.77517339134E+01 -0.13989648635E+01  0.14610574285E+04  0.14611128827E+04  0.10000000000E+02 0.  1.
</event>
<event>
 5    1  0.1757379E-008  0.3699195E+03  0.7957747E-01  0.3496261E+00
         13   -1    0    0    0    0  0.00000000000E+00  0.00000000000E+00  0.14999999963E+04  0.15000000000E+04  0.10566000000E+00 0. -1.
        994   -1    0    0    0    0 -0.00000000000E+00 -0.00000000000E+00  0.11368683772E-12  0.17120000000E+03  0.17120000000E+03 0.  0.
         13    1    1    2    0    0 -0.24168187194E+02 -0.26664403888E+02  0.62736995385E+02  0.72325883755E+02  0.10566000000E+00 0. -1.
        994    1    1    2    0    0  0.23565274160E+02  0.32756315131E+02  0.14963853995E+02  0.17652664177E+03  0.17120000000E+03 0.  0.
        998    1    1    2    0    0  0.60291303383E+00 -0.60919112437E+01  0.14222991469E+04  0.14223474745E+04  0.10000000000E+02 0. -1.
</event>
<event>
 5    1  0.1757379E-008  0.3685990E+03  0.7957747E-01  0.3502355E+00
         13   -1    0    0    0    0  0.00000000000E+00  0.00000000000E+00  0.14999999963E+04  0.15000000000E+04  0.10566000000E+00 0.  1.
        994   -1    0    0    0    0 -0.00000000000E+00 -0.00000000000E+00  0.11368683772E-12  0.17120000000E+03  0.17120000000E+03 0.  0.
         13    1    1    2    0    0  0.43458937383E+02 -0.97817634092E+02  0.62126482842E+03  0.63041808903E+03  0.10566000000E+00 0.  1.
        994    1    1    2    0    0  0.71335641741E+01  0.63862882728E+02  0.24706734149E+02  0.18452430257E+03  0.17120000000E+03 0.  0.
        998    1    1    2    0    0 -0.50592501557E+02  0.33954751363E+02  0.85402843371E+03  0.85625760840E+03  0.10000000000E+02 0.  1.
</event>
<event>
 5    1  0.1757379E-008  0.4064379E+03  0.7957747E-01  0.3343547E+00
         13   -1    0    0    0    0  0.00000000000E+00  0.00000000000E+00  0.14999999963E+04  0.15000000000E+04  0.10566000000E+00 0. -1.
        994   -1    0    0    0    0 -0.00000000000E+00 -0.00000000000E+00  0.11368683772E-12  0.17120000000E+03  0.17120000000E+03 0.  0.
         13    1    1    2    0    0  0.35435514485E+02 -0.90424200666E+01  0.82306049682E+01  0.37485931623E+02  0.10566000000E+00 0. -1.
        994    1    1    2    0    0 -0.29945068913E+02  0.22744473746E+02  0.37389043297E+02  0.17922443694E+03  0.17120000000E+03 0.  0.
        998    1    1    2    0    0 -0.54904455720E+01 -0.13702053680E+02  0.14543803480E+04  0.14544896314E+04  0.10000000000E+02 0. -1.
</event>
<event>
 5    1  0.1757379E-008  0.3928682E+03  0.7957747E-01  0.3396973E+00
         13   -1    0    0    0    0  0.00000000000E+00  0.00000000000E+00  0.14999999963E+04  0.15000000000E+04  0.10566000000E+00 0.  1.
        994   -1    0    0    0    0 -0.00000000000E+00 -0.00000000000E+00  0.11368683772E-12  0.17120000000E+03  0.17120000000E+03 0.  0.
         13    1    1    2    0    0 -0.15424805815E+02 -0.56212319572E+01 -0.49252182701E+01  0.17140356536E+02  0.10566000000E+00 0.  1.
        994    1    1    2    0    0  0.13153289936E+02  0.16471988229E+02  0.25275735829E+02  0.17433484521E+03  0.17120000000E+03 0.  0.
        998    1    1    2    0    0  0.22715158790E+01 -0.10850756271E+02  0.14796494787E+04  0.14797247983E+04  0.10000000000E+02 0.  1.
</event>
<event>
 5    1  0.1757379E-008  0.3759214E+03  0.7957747E-01  0.3469112E+00
         13   -1    0    0    0    0  0.00000000000E+00  0.00000000000E+00  0.14999999963E+04  0.15000000000E+04  0.10566000000E+00 0.  1.
        994   -1    0    0    0    0 -0.00000000000E+00 -0.00000000000E+00  0.11368683772E-12  0.17120000000E+03  0.17120000000E+03 0.  0.
         13    1    1    2    0    0  0.20573299078E+02 -0.15473544725E+02  0.51464499493E+02  0.57543871033E+02  0.10566000000E+00 0.  1.
        994    1    1    2    0    0 -0.11110373569E+02  0.85122292245E+01  0.68704374174E+01  0.17190852613E+03  0.17120000000E+03 0.  0.
        998    1    1    2    0    0 -0.94629255100E+01  0.69613155006E+01  0.14416650594E+04  0.14417476028E+04  0.10000000000E+02 0.  1.
</event>
<event>
 5    1  0.1757379E-008  0.3746897E+03  0.7957747E-01  0.3474612E+00
         13   -1    0    0    0    0  0.00000000000E+00  0.00000000000E+00  0.14999999963E+04  0.15000000000E+04  0.10566000000E+00 0. -1.
        994   -1    0    0    0    0 -0.00000000000E+00 -0.00000000000E+00  0.11368683772E-12  0.17120000000E+03  0.17120000000E+03 0.  0.
         13    1    1    2    0    0 -0.25289650820E+02 -0.71328220749E+01  0.45283888033E+02  0.52355374784E+02  0.10566000000E+00 0. -1.
        994    1    1    2    0    0  0.34658463995E+02  0.65716543308E+01  0.11084268956E+02  0.17514764282E+03  0.17120000000E+03 0.  0.
        998    1    1    2    0    0 -0.93688131752E+01  0.56116774413E+00  0.14436318393E+04  0.14436969824E+04  0.10000000000E+02 0. -1.
</event>
<event>
 5    1  0.1757379E-008  0.3730095E+03  0.7957747E-01  0.3482173E+00
         13   -1    0    0    0    0  0.00000000000E+00  0.00000000000E+00  0.14999999963E+04  0.15000000000E+04  0.10566000000E+00 0.  1.
        994   -1    0    0    0    0 -0.00000000000E+00 -0.00000000000E+00  0.11368683772E-12  0.17120000000E+03  0.17120000000E+03 0.  0.
         13    1    1    2    0    0  0.25370645958E+02  0.32861126091E+01  0.38287611731E+02  0.46048024806E+02  0.10566000000E+00 0.  1.
        994    1    1    2    0    0 -0.26910239456E+02 -0.60257069709E+01  0.10311339584E+02  0.17371307912E+03  0.17120000000E+03 0.  0.
        998    1    1    2    0    0  0.15395934973E+01  0.27395943618E+01  0.14514010450E+04  0.14514388961E+04  0.10000000000E+02 0.  1.
</event>
<event>
 5    1  0.1757379E-008  0.3831963E+03  0.7957747E-01  0.3437358E+00
         13   -1    0    0    0    0  0.00000000000E+00  0.00000000000E+00  0.14999999963E+04  0.15000000000E+04  0.10566000000E+00 0.  1.
        994   -1    0    0    0    0 -0.00000000000E+00 -0.00000000000E+00  0.11368683772E-12  0.17120000000E+03  0.17120000000E+03 0.  0.
         13    1    1    2    0    0  0.10695847344E+02  0.28223941540E+02  0.17662864828E+03  0.17918895777E+03  0.10566000000E+00 0.  1.
        994    1    1    2    0    0 -0.29962498539E+02 -0.10810355406E+02  0.58918614888E+01  0.17423768001E+03  0.17120000000E+03 0.  0.
        998    1    1    2    0    0  0.19266651195E+02 -0.17413586133E+02  0.13174794865E+04  0.13177733622E+04  0.10000000000E+02 0.  1.
</event>
<event>
 5    1  0.1757379E-008  0.3703821E+03  0.7957747E-01  0.3494137E+00
         13   -1    0    0    0    0  0.00000000000E+00  0.00000000000E+00  0.14999999963E+04  0.15000000000E+04  0.10566000000E+00 0. -1.
        994   -1    0    0    0    0 -0.00000000000E+00 -0.00000000000E+00  0.11368683772E-12  0.17120000000E+03  0.17120000000E+03 0.  0.
         13    1    1    2    0    0 -0.33328199433E+02  0.45584289635E+02  0.14104253541E+03  0.15192664117E+03  0.10566000000E+00 0. -1.
        994    1    1    2    0    0  0.15174638703E+02 -0.28462535402E+02  0.14791750183E+02  0.17483884424E+03  0.17120000000E+03 0.  0.
        998    1    1    2    0    0  0.18153560730E+02 -0.17121754233E+02  0.13441657107E+04  0.13444345146E+04  0.10000000000E+02 0. -1.
</event>
<event>
 5    1  0.1757379E-008  0.3858208E+03  0.7957747E-01  0.3426199E+00
         13   -1    0    0    0    0  0.00000000000E+00  0.00000000000E+00  0.14999999963E+04  0.15000000000E+04  0.10566000000E+00 0.  1.
        994   -1    0    0    0    0 -0.00000000000E+00 -0.00000000000E+00  0.11368683772E-12  0.17120000000E+03  0.17120000000E+03 0.  0.
         13    1    1    2    0    0 -0.41155741537E+00 -0.13789643104E+02  0.76917544642E+02  0.78145015671E+02  0.10566000000E+00 0.  1.
        994    1    1    2    0    0  0.49263958169E+01  0.11526670635E+02  0.17387267557E+01  0.17166711008E+03  0.17120000000E+03 0.  0.
        998    1    1    2    0    0 -0.45148384016E+01  0.22629724692E+01  0.14213437249E+04  0.14213878743E+04  0.10000000000E+02 0.  1.
</event>
<event>
 5    1  0.1757379E-008  0.4188385E+03  0.7957747E-01  0.3297724E+00
         13   -1    0    0    0    0  0.00000000000E+00  0.00000000000E+00  0.14999999963E+04  0.15000000000E+04  0.10566000000E+00 0.  1.
        994   -1    0    0    0    0 -0.00000000000E+00 -0.00000000000E+00  0.11368683772E-12  0.17120000000E+03  0.17120000000E+03 0.  0.
         13    1    1    2    0    0 -0.17051136112E+02  0.69673795296E+02  0.52133391525E+02  0.88674013497E+02  0.10566000000E+00 0.  1.
        994    1    1    2    0    0  0.15704783574E+02 -0.57755001166E+02  0.54922849040E+02  0.18949469579E+03  0.17120000000E+03 0.  0.
        998    1    1    2    0    0  0.13463525385E+01 -0.11918794129E+02  0.13929437557E+04  0.13930312907E+04  0.10000000000E+02 0.  1.
</event>
<event>
 5    1  0.1757379E-008  0.3798203E+03  0.7957747E-01  0.3451942E+00
         13   -1    0    0    0    0  0.00000000000E+00  0.00000000000E+00  0.14999999963E+04  0.15000000000E+04  0.10566000000E+00 0.  1.
        994   -1    0    0    0    0 -0.00000000000E+00 -0.00000000000E+00  0.11368683772E-12  0.17120000000E+03  0.17120000000E+03 0.  0.
         13    1    1    2    0    0 -0.20163394179E+01 -0.11105823774E+02  0.13584256245E+02  0.17662053338E+02  0.10566000000E+00 0.  1.
        994    1    1    2    0    0 -0.64765945876E+01 -0.11642551034E+01  0.43687646383E+01  0.17138211071E+03  0.17120000000E+03 0.  0.
        998    1    1    2    0    0  0.84929340055E+01  0.12270078878E+02  0.14820469754E+04  0.14821558360E+04  0.10000000000E+02 0.  1.
</event>
<event>
 5    1  0.1757379E-008  0.3852864E+03  0.7957747E-01  0.3428458E+00
         13   -1    0    0    0    0  0.00000000000E+00  0.00000000000E+00  0.14999999963E+04  0.15000000000E+04  0.10566000000E+00 0.  1.
        994   -1    0    0    0    0 -0.00000000000E+00 -0.00000000000E+00  0.11368683772E-12  0.17120000000E+03  0.17120000000E+03 0.  0.
         13    1    1    2    0    0  0.13449286950E+02  0.37220380015E+01  0.61508818663E+02  0.63072044708E+02  0.10566000000E+00 0.  1.
        994    1    1    2    0    0 -0.17106185489E+02 -0.11119894841E+02  0.28569013609E+01  0.17243513426E+03  0.17120000000E+03 0.  0.
        998    1    1    2    0    0  0.36568985397E+01  0.73978568392E+01  0.14356342763E+04  0.14356928210E+04  0.10000000000E+02 0.  1.
</event>
<event>
 5    1  0.1757379E-008  0.3810337E+03  0.7957747E-01  0.3446670E+00
         13   -1    0    0    0    0  0.00000000000E+00  0.00000000000E+00  0.14999999963E+04  0.15000000000E+04  0.10566000000E+00 0.  1.
        994   -1    0    0    0    0 -0.00000000000E+00 -0.00000000000E+00  0.11368683772E-12  0.17120000000E+03  0.17120000000E+03 0.  0.
         13    1    1    2    0    0  0.39872771719E+01 -0.16095277614E+02  0.37142508262E+02  0.40675956347E+02  0.10566000000E+00 0.  1.
        994    1    1    2    0    0 -0.69575444547E+01  0.62444165812E+01  0.39034906721E+01  0.17149949680E+03  0.17120000000E+03 0.  0.
        998    1    1    2    0    0  0.29702672828E+01  0.98508610332E+01  0.14589539973E+04  0.14590245469E+04  0.10000000000E+02 0.  1.
</event>
<event>
 5    1  0.1757379E-008  0.3820036E+03  0.7957747E-01  0.3442481E+00
         13   -1    0    0    0    0  0.00000000000E+00  0.00000000000E+00  0.14999999963E+04  0.15000000000E+04  0.10566000000E+00 0. -1.
        994   -1    0    0    0    0 -0.00000000000E+00 -0.00000000000E+00  0.11368683772E-12  0.17120000000E+03  0.17120000000E+03 0.  0.
         13    1    1    2    0    0 -0.14409100996E+02  0.58113659050E+01  0.38641473604E+02  0.41648154959E+02  0.10566000000E+00 0. -1.
        994    1    1    2    0    0  0.42297442535E+01  0.36700102209E+01  0.32293238713E+01  0.17132200163E+03  0.17120000000E+03 0.  0.
        998    1    1    2    0    0  0.10179356742E+02 -0.94813761259E+01  0.14581291988E+04  0.14582298434E+04  0.10000000000E+02 0. -1.
</event>
<event>
 5    1  0.1757379E-008  0.3823438E+03  0.7957747E-01  0.3441016E+00
         13   -1    0    0    0    0  0.00000000000E+00  0.00000000000E+00  0.14999999963E+04  0.15000000000E+04  0.10566000000E+00 0. -1.
        994   -1    0    0    0    0 -0.00000000000E+00 -0.00000000000E+00  0.11368683772E-12  0.17120000000E+03  0.17120000000E+03 0.  0.
         13    1    1    2    0    0  0.39992097555E+02  0.16449286299E+01  0.23532618046E+03  0.23870587767E+03  0.10566000000E+00 0. -1.
        994    1    1    2    0    0 -0.37788365565E+02 -0.72673036766E+01  0.78823421292E+01  0.17564835778E+03  0.17120000000E+03 0.  0.
        998    1    1    2    0    0 -0.22037319905E+01  0.56223750467E+01  0.12567914737E+04  0.12568457645E+04  0.10000000000E+02 0. -1.
</event>
<event>
 5    1  0.1757379E-008  0.3855318E+03  0.7957747E-01  0.3427420E+00
         13   -1    0    0    0    0  0.00000000000E+00  0.00000000000E+00  0.14999999963E+04  0.15000000000E+04  0.10566000000E+00 0.  1.
        994   -1    0    0    0    0 -0.00000000000E+00 -0.00000000000E+00  0.11368683772E-12  0.17120000000E+03  0.17120000000E+03 0.  0.
         13    1    1    2    0    0 -0.13566597034E+01  0.11537374207E+02  0.51178073016E+02  0.52480070987E+02  0.10566000000E+00 0.  1.
        994    1    1    2    0    0 -0.58934952472E+01 -0.35438096201E+01  0.15215929053E+01  0.17134481935E+03  0.17120000000E+03 0.  0.
        998    1    1    2    0    0  0.72501549506E+01 -0.79935645866E+01  0.14473003304E+04  0.14473751097E+04  0.10000000000E+02 0.  1.
</event>
<event>
 5    1  0.1757379E-008  0.3787465E+03  0.7957747E-01  0.3456635E+00
         13   -1    0    0    0    0  0.00000000000E+00  0.00000000000E+00  0.14999999963E+04  0.15000000000E+04  0.10566000000E+00 0.  1.
        994   -1    0    0    0    0 -0.00000000000E+00 -0.00000000000E+00  0.11368683772E-12  0.17120000000E+03  0.17120000000E+03 0.  0.
         13    1    1    2    0    0 -0.54624535824E+02  0.74264244061E+02  0.53479036578E+03  0.54267832493E+03  0.10566000000E+00 0.  1.
        994    1    1    2    0    0  0.60036114641E+02 -0.75309756809E+02  0.36563642455E+02  0.19980549162E+03  0.17120000000E+03 0.  0.
        998    1    1    2    0    0 -0.54115788167E+01  0.10455127485E+01  0.92864598805E+03  0.92871618345E+03  0.10000000000E+02 0.  1.
</event>
<event>
 5    1  0.1757379E-008  0.4001188E+03  0.7957747E-01  0.3367977E+00
         13   -1    0    0    0    0  0.00000000000E+00  0.00000000000E+00  0.14999999963E+04  0.15000000000E+04  0.10566000000E+00 0. -1.
        994   -1    0    0    0    0 -0.00000000000E+00 -0.00000000000E+00  0.11368683772E-12  0.17120000000E+03  0.17120000000E+03 0.  0.
         13    1    1    2    0    0 -0.43770195692E+02  0.12360766444E+03  0.25125143667E+03  0.28341132711E+03  0.10566000000E+00 0. -1.
        994    1    1    2    0    0  0.53720835127E+02 -0.11388730108E+03  0.93111522505E+02  0.23202465623E+03  0.17120000000E+03 0.  0.
        998    1    1    2    0    0 -0.99506394350E+01 -0.97203633601E+01  0.11556370371E+04  0.11557640167E+04  0.10000000000E+02 0. -1.
</event>
<event>
 5    1  0.1757379E-008  0.3849715E+03  0.7957747E-01  0.3429793E+00
         13   -1    0    0    0    0  0.00000000000E+00  0.00000000000E+00  0.14999999963E+04  0.15000000000E+04  0.10566000000E+00 0.  1.
        994   -1    0    0    0    0 -0.00000000000E+00 -0.00000000000E+00  0.11368683772E-12  0.17120000000E+03  0.17120000000E+03 0.  0.
         13    1    1    2    0    0  0.18019415014E+02  0.15494867525E+02  0.64811525572E+01  0.24633447578E+02  0.10566000000E+00 0.  1.
        994    1    1    2    0    0 -0.17839755847E+02 -0.11153457729E+02  0.20720727220E+02  0.17372807788E+03  0.17120000000E+03 0.  0.
        998    1    1    2    0    0 -0.17965916653E+00 -0.43414097958E+01  0.14727981165E+04  0.14728384745E+04  0.10000000000E+02 0.  1.
</event>
<event>
 5    1  0.1757379E-008  0.3827168E+03  0.7957747E-01  0.3439413E+00
         13   -1    0    0    0    0  0.00000000000E+00  0.00000000000E+00  0.14999999963E+04  0.15000000000E+04  0.10566000000E+00 0. -1.
        994   -1    0    0    0    0 -0.00000000000E+00 -0.00000000000E+00  0.11368683772E-12  0.17120000000E+03  0.17120000000E+03 0.  0.
         13    1    1    2    0    0 -0.12490565438E+02 -0.16633047320E+02  0.86259622849E+02  0.88732216168E+02  0.10566000000E+00 0. -1.
        994    1    1    2    0    0 -0.45592275464E+01 -0.36780950872E+01  0.28816493742E+01  0.17132442570E+03  0.17120000000E+03 0.  0.
        998    1    1    2    0    0  0.17049792985E+02  0.20311142407E+02  0.14108587241E+04  0.14111433581E+04  0.10000000000E+02 0. -1.
</event>
<event>
 5    1  0.1757379E-008  0.4247881E+03  0.7957747E-01  0.3276673E+00
         13   -1    0    0    0    0  0.00000000000E+00  0.00000000000E+00  0.14999999963E+04  0.15000000000E+04  0.10566000000E+00 0. -1.
        994   -1    0    0    0    0 -0.00000000000E+00 -0.00000000000E+00  0.11368683772E-12  0.17120000000E+03  0.17120000000E+03 0.  0.
         13    1    1    2    0    0  0.13255282232E+03 -0.74876691032E+01  0.22613788026E+03  0.26223018122E+03  0.10566000000E+00 0. -1.
        994    1    1    2    0    0 -0.45321253459E+02  0.35714132360E+02  0.58187680509E+02  0.18980190049E+03  0.17120000000E+03 0.  0.
        998    1    1    2    0    0 -0.87231568856E+02 -0.28226463257E+02  0.12156744355E+04  0.12191679183E+04  0.10000000000E+02 0. -1.
</event>
<event>
 5    1  0.1757379E-008  0.3854073E+03  0.7957747E-01  0.3427947E+00
         13   -1    0    0    0    0  0.00000000000E+00  0.00000000000E+00  0.14999999963E+04  0.15000000000E+04  0.10566000000E+00 0. -1.
        994   -1    0    0    0    0 -0.00000000000E+00 -0.00000000000E+00  0.11368683772E-12  0.17120000000E+03  0.17120000000E+03 0.  0.
         13    1    1    2    0    0  0.10352726653E+02  0.75544439791E+00  0.41042916255E+02  0.42335349109E+02  0.10566000000E+00 0. -1.
        994    1    1    2    0    0  0.76289514690E+01  0.67966838771E+01  0.17710167384E+01  0.17151376712E+03  0.17120000000E+03 0.  0.
        998    1    1    2    0    0 -0.17981678122E+02 -0.75521282750E+01  0.14571860633E+04  0.14573508838E+04  0.10000000000E+02 0. -1.
</event>
<event>
 5    1  0.1757379E-008  0.3761430E+03  0.7957747E-01  0.3468127E+00
         13   -1    0    0    0    0  0.00000000000E+00  0.00000000000E+00  0.14999999963E+04  0.15000000000E+04  0.10566000000E+00 0. -1.
        994   -1    0    0    0    0 -0.00000000000E+00 -0.00000000000E+00  0.11368683772E-12  0.17120000000E+03  0.17120000000E+03 0.  0.
         13    1    1    2    0    0  0.11694622131E+02 -0.19486305224E+02  0.40282390919E+02  0.46251080639E+02  0.10566000000E+00 0. -1.
        994    1    1    2    0    0 -0.15551877189E+02  0.52434952943E+01  0.70055308405E+01  0.17212748935E+03  0.17120000000E+03 0.  0.
        998    1    1    2    0    0  0.38572550580E+01  0.14242809930E+02  0.14527120745E+04  0.14528214300E+04  0.10000000000E+02 0. -1.
</event>
<event>
 5    1  0.1757379E-008  0.3714615E+03  0.7957747E-01  0.3489201E+00
         13   -1    0    0    0    0  0.00000000000E+00  0.00000000000E+00  0.14999999963E+04  0.15000000000E+04  0.10566000000E+00 0. -1.
        994   -1    0    0    0    0 -0.00000000000E+00 -0.00000000000E+00  0.11368683772E-12  0.17120000000E+03  0.17120000000E+03 0.  0.
         13    1    1    2    0    0  0.13410632241E+02 -0.66858397594E+02  0.35295875651E+03  0.35948544525E+03  0.10566000000E+00 0. -1.
        994    1    1    2    0    0  0.19926706410E+02  0.10147408267E+02  0.10229356502E+02  0.17295699829E+03  0.17120000000E+03 0.  0.
        998    1    1    2    0    0 -0.33337338651E+02  0.56710989327E+02  0.11368118833E+04  0.11387575565E+04  0.10000000000E+02 0. -1.
</event>
<event>
 5    1  0.1757379E-008  0.3754406E+03  0.7957747E-01  0.3471255E+00
         13   -1    0    0    0    0  0.00000000000E+00  0.00000000000E+00  0.14999999963E+04  0.15000000000E+04  0.10566000000E+00 0. -1.
        994   -1    0    0    0    0 -0.00000000000E+00 -0.00000000000E+00  0.11368683772E-12  0.17120000000E+03  0.17120000000E+03 0.  0.
         13    1    1    2    0    0  0.74866730985E+00 -0.81555850010E+02  0.20227202856E+03  0.21809608405E+03  0.10566000000E+00 0. -1.
        994    1    1    2    0    0  0.48307562502E+01  0.83372874712E+02  0.39140229063E+02  0.19446277272E+03  0.17120000000E+03 0.  0.
        998    1    1    2    0    0 -0.55794235601E+01 -0.18170247022E+01  0.12585877387E+04  0.12586411432E+04  0.10000000000E+02 0. -1.
</event>
<event>
 5    1  0.1757379E-008  0.3823162E+03  0.7957747E-01  0.3441135E+00
         13   -1    0    0    0    0  0.00000000000E+00  0.00000000000E+00  0.14999999963E+04  0.15000000000E+04  0.10566000000E+00 0. -1.
        994   -1    0    0    0    0 -0.00000000000E+00 -0.00000000000E+00  0.11368683772E-12  0.17120000000E+03  0.17120000000E+03 0.  0.
         13    1    1    2    0    0  0.87689889587E+01 -0.50337747973E+01  0.15884181132E+02  0.18829562670E+02  0.10566000000E+00 0. -1.
        994    1    1    2    0    0 -0.67272047069E+01  0.90576773806E+01  0.33909002293E+01  0.17160488049E+03  0.17120000000E+03 0.  0.
        998    1    1    2    0    0 -0.20417842518E+01 -0.40239025832E+01  0.14807249149E+04  0.14807655568E+04  0.10000000000E+02 0. -1.
</event>
<event>
 5    1  0.1757379E-008  0.4121322E+03  0.7957747E-01  0.3322168E+00
         13   -1    0    0    0    0  0.00000000000E+00  0.00000000000E+00  0.14999999963E+04  0.15000000000E+04  0.10566000000E+00 0. -1.
        994   -1    0    0    0    0 -0.00000000000E+00 -0.00000000000E+00  0.11368683772E-12  0.17120000000E+03  0.17120000000E+03 0.  0.
         13    1    1    2    0    0  0.66968260258E+01  0.27827221447E+02 -0.31653651842E+01  0.28796396182E+02  0.10566000000E+00 0. -1.
        994    1    1    2    0    0 -0.84495561140E+01 -0.27152686114E+02  0.38579139626E+02  0.17778203896E+03  0.17120000000E+03 0.  0.
        998    1    1    2    0    0  0.17527300882E+01 -0.67453533237E+00  0.14645862218E+04  0.14646215649E+04  0.10000000000E+02 0. -1.
</event>
<event>
 5    1  0.1757379E-008  0.3806499E+03  0.7957747E-01  0.3448334E+00
         13   -1    0    0    0    0  0.00000000000E+00  0.00000000000E+00  0.14999999963E+04  0.15000000000E+04  0.10566000000E+00 0. -1.
        994   -1    0    0    0    0 -0.00000000000E+00 -0.00000000000E+00  0.11368683772E-12  0.17120000000E+03  0.17120000000E+03 0.  0.
         13    1    1    2    0    0  0.13667066201E+02 -0.13706449157E+02  0.47679433595E+02  0.51458672729E+02  0.10566000000E+00 0. -1.
        994    1    1    2    0    0 -0.83596261700E+01  0.10743630529E+02  0.44238470272E+01  0.17179732061E+03  0.17120000000E+03 0.  0.
        998    1    1    2    0    0 -0.53074400310E+01  0.29628186286E+01  0.14478967157E+04  0.14479440067E+04  0.10000000000E+02 0. -1.
</event>
<event>
 5    1  0.1757379E-008  0.2518974E+03  0.7957747E-01  0.4313287E+00
         13   -1    0    0    0    0  0.00000000000E+00  0.00000000000E+00  0.14999999963E+04  0.15000000000E+04  0.10566000000E+00 0.  1.
        994   -1    0    0    0    0 -0.00000000000E+00 -0.00000000000E+00  0.11368683772E-12  0.17120000000E+03  0.17120000000E+03 0.  0.
         13    1    1    2    0    0 -0.18370300627E+03  0.14809295310E+03  0.40216763448E+03  0.46628010321E+03  0.10566000000E+00 0.  1.
        994    1    1    2    0    0  0.20313282745E+02 -0.13634192027E+03  0.21678749248E+03  0.30871994683E+03  0.17120000000E+03 0.  0.
        998    1    1    2    0    0  0.16338972353E+03 -0.11751032827E+02  0.88104486933E+03  0.89619994995E+03  0.10000000000E+02 0.  1.
</event>
<event>
 5    1  0.1757379E-008  0.3691846E+03  0.7957747E-01  0.3499647E+00
         13   -1    0    0    0    0  0.00000000000E+00  0.00000000000E+00  0.14999999963E+04  0.15000000000E+04  0.10566000000E+00 0.  1.
        994   -1    0    0    0    0 -0.00000000000E+00 -0.00000000000E+00  0.11368683772E-12  0.17120000000E+03  0.17120000000E+03 0.  0.
         13    1    1    2    0    0  0.21675136958E+02 -0.88486147907E+02  0.30348293364E+03  0.31686197643E+03  0.10566000000E+00 0.  1.
        994    1    1    2    0    0 -0.21528307331E+02  0.91749133629E+02  0.42144349975E+02  0.19991737737E+03  0.17120000000E+03 0.  0.
        998    1    1    2    0    0 -0.14682962689E+00 -0.32629857222E+01  0.11543727127E+04  0.11544206462E+04  0.10000000000E+02 0.  1.
</event>
<event>
 5    1  0.1757379E-008  0.3832991E+03  0.7957747E-01  0.3436918E+00
         13   -1    0    0    0    0  0.00000000000E+00  0.00000000000E+00  0.14999999963E+04  0.15000000000E+04  0.10566000000E+00 0.  1.
        994   -1    0    0    0    0 -0.00000000000E+00 -0.00000000000E+00  0.11368683772E-12  0.17120000000E+03  0.17120000000E+03 0.  0.
         13    1    1    2    0    0 -0.17974346712E+02 -0.13447819104E+02  0.11485261540E+03  0.11702587495E+03  0.10566000000E+00 0.  1.
        994    1    1    2    0    0 -0.58725582749E+01  0.10017077696E+01  0.25943359135E+01  0.17132326444E+03  0.17120000000E+03 0.  0.
        998    1    1    2    0    0  0.23846904987E+02  0.12446111335E+02  0.13825530450E+04  0.13828508606E+04  0.10000000000E+02 0.  1.
</event>
<event>
 5    1  0.1757379E-008  0.3839487E+03  0.7957747E-01  0.3434143E+00
         13   -1    0    0    0    0  0.00000000000E+00  0.00000000000E+00  0.14999999963E+04  0.15000000000E+04  0.10566000000E+00 0.  1.
        994   -1    0    0    0    0 -0.00000000000E+00 -0.00000000000E+00  0.11368683772E-12  0.17120000000E+03  0.17120000000E+03 0.  0.
         13    1    1    2    0    0 -0.15304230759E+02 -0.83791087648E+01  0.68297700709E+02  0.70491247889E+02  0.10566000000E+00 0.  1.
        994    1    1    2    0    0  0.12571765292E+02  0.10950869950E+02  0.30707926186E+01  0.17203732328E+03  0.17120000000E+03 0.  0.
        998    1    1    2    0    0  0.27324654674E+01 -0.25717611852E+01  0.14286315030E+04  0.14286714288E+04  0.10000000000E+02 0.  1.
</event>
<event>
 5    1  0.1757379E-008  0.3833413E+03  0.7957747E-01  0.3436737E+00
         13   -1    0    0    0    0  0.00000000000E+00  0.00000000000E+00  0.14999999963E+04  0.15000000000E+04  0.10566000000E+00 0.  1.
        994   -1    0    0    0    0 -0.00000000000E+00 -0.00000000000E+00  0.11368683772E-12  0.17120000000E+03  0.17120000000E+03 0.  0.
         13    1    1    2    0    0 -0.35240974385E+01  0.22869008288E+02  0.10299506775E+03  0.10556233205E+03  0.10566000000E+00 0.  1.
        994    1    1    2    0    0  0.10488935041E+02 -0.20788706856E+02  0.42506443389E+01  0.17282851636E+03  0.17120000000E+03 0.  0.
        998    1    1    2    0    0 -0.69648376022E+01 -0.20803014317E+01  0.13927542842E+04  0.13928091516E+04  0.10000000000E+02 0.  1.
</event>
<event>
 5    1  0.1757379E-008  0.3856392E+03  0.7957747E-01  0.3426966E+00
         13   -1    0    0    0    0  0.00000000000E+00  0.00000000000E+00  0.14999999963E+04  0.15000000000E+04  0.10566000000E+00 0.  1.
        994   -1    0    0    0    0 -0.00000000000E+00 -0.00000000000E+00  0.11368683772E-12  0.17120000000E+03  0.17120000000E+03 0.  0.
         13    1    1    2    0    0 -0.11840172928E+02  0.63576742390E+01  0.74038464374E+02  0.75248356046E+02  0.10566000000E+00 0.  1.
        994    1    1    2    0    0 -0.32022511652E+01 -0.61879223993E+01  0.14724630319E+01  0.17134804622E+03  0.17120000000E+03 0.  0.
        998    1    1    2    0    0  0.15042424093E+02 -0.16975183969E+00  0.14244890689E+04  0.14246035977E+04  0.10000000000E+02 0.  1.
</event>
<event>
 5    1  0.1757379E-008  0.3831225E+03  0.7957747E-01  0.3437674E+00
         13   -1    0    0    0    0  0.00000000000E+00  0.00000000000E+00  0.14999999963E+04  0.15000000000E+04  0.10566000000E+00 0.  1.
        994   -1    0    0    0    0 -0.00000000000E+00 -0.00000000000E+00  0.11368683772E-12  0.17120000000E+03  0.17120000000E+03 0.  0.
         13    1    1    2    0    0  0.26628551690E+02  0.57233816795E+01  0.14101162252E+03  0.14361798534E+03  0.10566000000E+00 0.  1.
        994    1    1    2    0    0 -0.19058529158E+02 -0.17532108537E+01  0.37781191203E+01  0.17230790889E+03  0.17120000000E+03 0.  0.
        998    1    1    2    0    0 -0.75700225320E+01 -0.39701708258E+01  0.13552102546E+04  0.13552741058E+04  0.10000000000E+02 0.  1.
</event>
<event>
 5    1  0.1757379E-008  0.3844766E+03  0.7957747E-01  0.3431895E+00
         13   -1    0    0    0    0  0.00000000000E+00  0.00000000000E+00  0.14999999963E+04  0.15000000000E+04  0.10566000000E+00 0. -1.
        994   -1    0    0    0    0 -0.00000000000E+00 -0.00000000000E+00  0.11368683772E-12  0.17120000000E+03  0.17120000000E+03 0.  0.
         13    1    1    2    0    0  0.17532299276E+02 -0.56588957913E+00  0.84820112408E+02  0.86615035542E+02  0.10566000000E+00 0. -1.
        994    1    1    2    0    0 -0.59587169924E+01 -0.19387267877E+02  0.32465537428E+01  0.17242781845E+03  0.17120000000E+03 0.  0.
        998    1    1    2    0    0 -0.11573582283E+02  0.19953157456E+02  0.14119333301E+04  0.14121571460E+04  0.10000000000E+02 0. -1.
</event>
<event>
 5    1  0.1757379E-008  0.3822636E+03  0.7957747E-01  0.3441361E+00
         13   -1    0    0    0    0  0.00000000000E+00  0.00000000000E+00  0.14999999963E+04  0.15000000000E+04  0.10566000000E+00 0. -1.
        994   -1    0    0    0    0 -0.00000000000E+00 -0.00000000000E+00  0.11368683772E-12  0.17120000000E+03  0.17120000000E+03 0.  0.
         13    1    1    2    0    0 -0.12088952027E+02  0.29838083475E+01  0.24620066893E+02  0.27589938949E+02  0.10566000000E+00 0. -1.
        994    1    1    2    0    0  0.10611967111E+02 -0.33808418860E+00  0.33689481492E+01  0.17156199450E+03  0.17120000000E+03 0.  0.
        998    1    1    2    0    0  0.14769849163E+01 -0.26457241589E+01  0.14720109812E+04  0.14720480665E+04  0.10000000000E+02 0. -1.
</event>
<event>
 5    1  0.1757379E-008  0.3804908E+03  0.7957747E-01  0.3449024E+00
         13   -1    0    0    0    0  0.00000000000E+00  0.00000000000E+00  0.14999999963E+04  0.15000000000E+04  0.10566000000E+00 0.  1.
        994   -1    0    0    0    0 -0.00000000000E+00 -0.00000000000E+00  0.11368683772E-12  0.17120000000E+03  0.17120000000E+03 0.  0.
         13    1    1    2    0    0 -0.20267400246E+02  0.28459305535E+02  0.15178955333E+03  0.15575872126E+03  0.10566000000E+00 0.  1.
        994    1    1    2    0    0  0.17081098533E+02 -0.17931086359E+02  0.59351441117E+01  0.17308366105E+03  0.17120000000E+03 0.  0.
        998    1    1    2    0    0  0.31863017128E+01 -0.10528219175E+02  0.13422752988E+04  0.13423576177E+04  0.10000000000E+02 0.  0.
</event>
<event>
 5    1  0.1757379E-008  0.3843478E+03  0.7957747E-01  0.3432443E+00
         13   -1    0    0    0    0  0.00000000000E+00  0.00000000000E+00  0.14999999963E+04  0.15000000000E+04  0.10566000000E+00 0.  1.
        994   -1    0    0    0    0 -0.00000000000E+00 -0.00000000000E+00  0.11368683772E-12  0.17120000000E+03  0.17120000000E+03 0.  0.
         13    1    1    2    0    0  0.17288754905E+02  0.16973970252E+01  0.89268782847E+02  0.90943438234E+02  0.10566000000E+00 0.  1.
        994    1    1    2    0    0  0.92362085515E+01  0.81837213047E+01  0.24563290049E+01  0.17166174412E+03  0.17120000000E+03 0.  0.
        998    1    1    2    0    0 -0.26524963457E+02 -0.98811183299E+01  0.14082748844E+04  0.14085948176E+04  0.10000000000E+02 0.  1.
</event>
<event>
 5    1  0.1757379E-008  0.3847786E+03  0.7957747E-01  0.3430612E+00
         13   -1    0    0    0    0  0.00000000000E+00  0.00000000000E+00  0.14999999963E+04  0.15000000000E+04  0.10566000000E+00 0. -1.
        994   -1    0    0    0    0 -0.00000000000E+00 -0.00000000000E+00  0.11368683772E-12  0.17120000000E+03  0.17120000000E+03 0.  0.
         13    1    1    2    0    0 -0.89230252768E+01 -0.12862125094E+02  0.69554967207E+02  0.71294875476E+02  0.10566000000E+00 0. -1.
        994    1    1    2    0    0  0.11098513867E+02  0.69194394644E+01  0.23032345216E+01  0.17171429918E+03  0.17120000000E+03 0.  0.
        998    1    1    2    0    0 -0.21754885899E+01  0.59426856300E+01  0.14281417946E+04  0.14281908253E+04  0.10000000000E+02 0. -1.
</event>
<event>
 5    1  0.1757379E-008  0.3837949E+03  0.7957747E-01  0.3434799E+00
         13   -1    0    0    0    0  0.00000000000E+00  0.00000000000E+00  0.14999999963E+04  0.15000000000E+04  0.10566000000E+00 0.  1.
        994   -1    0    0    0    0 -0.00000000000E+00 -0.00000000000E+00  0.11368683772E-12  0.17120000000E+03  0.17120000000E+03 0.  0.
         13    1    1    2    0    0  0.86691263243E+01 -0.53518652299E+01  0.22878293697E+02  0.25044434495E+02  0.10566000000E+00 0.  1.
        994    1    1    2    0    0  0.52778839177E+00  0.64112409320E+01  0.23662552627E+01  0.17133715807E+03  0.17120000000E+03 0.  0.
        998    1    1    2    0    0 -0.91969147160E+01 -0.10593757021E+01  0.14747554473E+04  0.14748184074E+04  0.10000000000E+02 0.  1.
</event>
<event>
 5    1  0.1757379E-008  0.3770894E+03  0.7957747E-01  0.3463930E+00
         13   -1    0    0    0    0  0.00000000000E+00  0.00000000000E+00  0.14999999963E+04  0.15000000000E+04  0.10566000000E+00 0. -1.
        994   -1    0    0    0    0 -0.00000000000E+00 -0.00000000000E+00  0.11368683772E-12  0.17120000000E+03  0.17120000000E+03 0.  0.
         13    1    1    2    0    0  0.14023823437E+02  0.26807939125E+02  0.80026244794E+02  0.85554335038E+02  0.10566000000E+00 0. -1.
        994    1    1    2    0    0 -0.35256901948E+01 -0.17770516546E+02  0.67183125031E+01  0.17228696257E+03  0.17120000000E+03 0.  0.
        998    1    1    2    0    0 -0.10498133242E+02 -0.90374225794E+01  0.14132554390E+04  0.14133587024E+04  0.10000000000E+02 0. -1.
</event>
<event>
 5    1  0.1757379E-008  0.3691065E+03  0.7957747E-01  0.3500007E+00
         13   -1    0    0    0    0  0.00000000000E+00  0.00000000000E+00  0.14999999963E+04  0.15000000000E+04  0.10566000000E+00 0.  1.
        994   -1    0    0    0    0 -0.00000000000E+00 -0.00000000000E+00  0.11368683772E-12  0.17120000000E+03  0.17120000000E+03 0.  0.
         13    1    1    2    0    0 -0.81034788734E+01 -0.28736946059E+02  0.40826875664E+02  0.50579871284E+02  0.10566000000E+00 0.  1.
        994    1    1    2    0    0  0.67942341992E+01  0.29590782984E+02  0.12940564620E+02  0.17435215590E+03  0.17120000000E+03 0.  0.
        998    1    1    2    0    0  0.13092446742E+01 -0.85383692556E+00  0.14462325560E+04  0.14462679728E+04  0.10000000000E+02 0.  1.
</event>
<event>
 5    1  0.1757379E-008  0.3753204E+03  0.7957747E-01  0.3471791E+00
         13   -1    0    0    0    0  0.00000000000E+00  0.00000000000E+00  0.14999999963E+04  0.15000000000E+04  0.10566000000E+00 0. -1.
        994   -1    0    0    0    0 -0.00000000000E+00 -0.00000000000E+00  0.11368683772E-12  0.17120000000E+03  0.17120000000E+03 0.  0.
         13    1    1    2    0    0 -0.10860140638E+02 -0.65979129829E+02  0.40400489574E+03  0.40950110522E+03  0.10566000000E+00 0. -1.
        994    1    1    2    0    0  0.12359724045E+02  0.18785243614E+02  0.82330916356E+01  0.17286663054E+03  0.17120000000E+03 0.  0.
        998    1    1    2    0    0 -0.14995834064E+01  0.47193886216E+02  0.10877620089E+04  0.10888322642E+04  0.10000000000E+02 0. -1.
</event>
<event>
 5    1  0.1757379E-008  0.3850373E+03  0.7957747E-01  0.3429514E+00
         13   -1    0    0    0    0  0.00000000000E+00  0.00000000000E+00  0.14999999963E+04  0.15000000000E+04  0.10566000000E+00 0.  1.
        994   -1    0    0    0    0 -0.00000000000E+00 -0.00000000000E+00  0.11368683772E-12  0.17120000000E+03  0.17120000000E+03 0.  0.
         13    1    1    2    0    0  0.52841733749E+00  0.10813013917E+02  0.35493672997E+02  0.37108118811E+02  0.10566000000E+00 0.  1.
        994    1    1    2    0    0 -0.29115630309E+01 -0.11398918790E+02  0.20669034273E+01  0.17161621322E+03  0.17120000000E+03 0.  0.
        998    1    1    2    0    0  0.23831456934E+01  0.58590487248E+00  0.14624394199E+04  0.14624756680E+04  0.10000000000E+02 0.  1.
</event>
<event>
 5    1  0.1757379E-008  0.3854038E+03  0.7957747E-01  0.3427961E+00
         13   -1    0    0    0    0  0.00000000000E+00  0.00000000000E+00  0.14999999963E+04  0.15000000000E+04  0.10566000000E+00 0. -1.
        994   -1    0    0    0    0 -0.00000000000E+00 -0.00000000000E+00  0.11368683772E-12  0.17120000000E+03  0.17120000000E+03 0.  0.
         13    1    1    2    0    0 -0.23705310024E+02  0.26915322512E+02  0.25201809094E+02  0.43835130374E+02  0.10566000000E+00 0. -1.
        994    1    1    2    0    0  0.26089404978E+02 -0.21760520056E+02  0.23606327289E+02  0.17612744242E+03  0.17120000000E+03 0.  0.
        998    1    1    2    0    0 -0.23840949543E+01 -0.51548024562E+01  0.14511918599E+04  0.14512374272E+04  0.10000000000E+02 0. -1.
</event>
<event>
 5    1  0.1757379E-008  0.3854794E+03  0.7957747E-01  0.3427642E+00
         13   -1    0    0    0    0  0.00000000000E+00  0.00000000000E+00  0.14999999963E+04  0.15000000000E+04  0.10566000000E+00 0.  1.
        994   -1    0    0    0    0 -0.00000000000E+00 -0.00000000000E+00  0.11368683772E-12  0.17120000000E+03  0.17120000000E+03 0.  0.
         13    1    1    2    0    0 -0.10779566202E+02  0.11343085377E+00  0.42662015064E+02  0.44003074977E+02  0.10566000000E+00 0.  1.
        994    1    1    2    0    0  0.38602045198E+01 -0.75271629731E+01  0.16273158599E+01  0.17141659056E+03  0.17120000000E+03 0.  0.
        998    1    1    2    0    0  0.69193616822E+01  0.74137321194E+01  0.14557106654E+04  0.14557803345E+04  0.10000000000E+02 0.  1.
</event>
<event>
 5    1  0.1757379E-008  0.3795930E+03  0.7957747E-01  0.3452933E+00
         13   -1    0    0    0    0  0.00000000000E+00  0.00000000000E+00  0.14999999963E+04  0.15000000000E+04  0.10566000000E+00 0.  1.
        994   -1    0    0    0    0 -0.00000000000E+00 -0.00000000000E+00  0.11368683772E-12  0.17120000000E+03  0.17120000000E+03 0.  0.
         13    1    1    2    0    0 -0.21761274890E+02 -0.20949764646E+02  0.12023875133E+03  0.12397505479E+03  0.10566000000E+00 0.  1.
        994    1    1    2    0    0 -0.14066216306E+02  0.31221006142E+01  0.50339758161E+01  0.17187898902E+03  0.17120000000E+03 0.  0.
        998    1    1    2    0    0  0.35827491195E+02  0.17827664032E+02  0.13747272691E+04  0.13753459562E+04  0.10000000000E+02 0.  1.
</event>
<event>
 5    1  0.1757379E-008  0.3769282E+03  0.7957747E-01  0.3464644E+00
         13   -1    0    0    0    0  0.00000000000E+00  0.00000000000E+00  0.14999999963E+04  0.15000000000E+04  0.10566000000E+00 0.  1.
        994   -1    0    0    0    0 -0.00000000000E+00 -0.00000000000E+00  0.11368683772E-12  0.17120000000E+03  0.17120000000E+03 0.  0.
         13    1    1    2    0    0  0.67704731319E+02 -0.30984791981E+02  0.19427053038E+03  0.20805056624E+03  0.10566000000E+00 0.  1.
        994    1    1    2    0    0 -0.44067832080E+02 -0.13543462280E+02  0.22304939674E+02  0.17869624934E+03  0.17120000000E+03 0.  0.
        998    1    1    2    0    0 -0.23636899239E+02  0.44528254260E+02  0.12834245262E+04  0.12844531844E+04  0.10000000000E+02 0.  1.
</event>
<event>
 5    1  0.4710734E-008  0.3863191E+03  0.7957747E-01  0.3424097E+00
         13   -1    0    0    0    0  0.00000000000E+00  0.00000000000E+00  0.14999999963E+04  0.15000000000E+04  0.10566000000E+00 0.  1.
        994   -1    0    0    0    0 -0.00000000000E+00 -0.00000000000E+00  0.11368683772E-12  0.17120000000E+03  0.17120000000E+03 0.  0.
         13    1    1    2    0    0  0.10021440313E+02 -0.84022998719E+00  0.51346609196E+02  0.52322277209E+02  0.10566000000E+00 0.  1.
        994    1    1    2    0    0 -0.10321385425E+02  0.15695599724E+01  0.13336398276E+01  0.17152321450E+03  0.17120000000E+03 0.  0.
        998    1    1    2    0    0  0.29994511203E+00 -0.72932998520E+00  0.14473197473E+04  0.14473545083E+04  0.10000000000E+02 0.  1.
</event>
<event>
 5    1  0.1757379E-008  0.3692267E+03  0.7957747E-01  0.3499452E+00
         13   -1    0    0    0    0  0.00000000000E+00  0.00000000000E+00  0.14999999963E+04  0.15000000000E+04  0.10566000000E+00 0. -1.
        994   -1    0    0    0    0 -0.00000000000E+00 -0.00000000000E+00  0.11368683772E-12  0.17120000000E+03  0.17120000000E+03 0.  0.
         13    1    1    2    0    0 -0.17468545386E+03 -0.78105716227E+02  0.85198962249E+03  0.87321351266E+03  0.10566000000E+00 0. -1.
        994    1    1    2    0    0  0.16656144470E+03  0.62446574892E+02  0.12895262477E+03  0.27853277906E+03  0.17120000000E+03 0.  0.
        998    1    1    2    0    0  0.81240091602E+01  0.15659141336E+02  0.51905774902E+03  0.51945370828E+03  0.10000000000E+02 0. -1.
</event>
<event>
 5    1  0.1757379E-008  0.3847403E+03  0.7957747E-01  0.3430774E+00
         13   -1    0    0    0    0  0.00000000000E+00  0.00000000000E+00  0.14999999963E+04  0.15000000000E+04  0.10566000000E+00 0. -1.
        994   -1    0    0    0    0 -0.00000000000E+00 -0.00000000000E+00  0.11368683772E-12  0.17120000000E+03  0.17120000000E+03 0.  0.
         13    1    1    2    0    0 -0.73452875010E+01 -0.11465875275E+02  0.55452836870E+02  0.57100331218E+02  0.10566000000E+00 0. -1.
        994    1    1    2    0    0 -0.80700960886E+01  0.48131154486E+01  0.20497787322E+01  0.17146992192E+03  0.17120000000E+03 0.  0.
        998    1    1    2    0    0  0.15415383590E+02  0.66527598264E+01  0.14424973807E+04  0.14426297469E+04  0.10000000000E+02 0. -1.
</event>
<event>
 5    1  0.1757379E-008  0.3751640E+03  0.7957747E-01  0.3472489E+00
         13   -1    0    0    0    0  0.00000000000E+00  0.00000000000E+00  0.14999999963E+04  0.15000000000E+04  0.10566000000E+00 0. -1.
        994   -1    0    0    0    0 -0.00000000000E+00 -0.00000000000E+00  0.11368683772E-12  0.17120000000E+03  0.17120000000E+03 0.  0.
         13    1    1    2    0    0 -0.80094396342E+02 -0.17450202661E+02  0.41479240611E+03  0.42281482144E+03  0.10566000000E+00 0. -1.
        994    1    1    2    0    0  0.66633285624E+02  0.18930140282E+02  0.23074655769E+02  0.18611884564E+03  0.17120000000E+03 0.  0.
        998    1    1    2    0    0  0.13461110718E+02 -0.14799376207E+01  0.10621329344E+04  0.10622663329E+04  0.10000000000E+02 0. -1.
</event>
<event>
 5    1  0.1757379E-008  0.3861751E+03  0.7957747E-01  0.3424704E+00
         13   -1    0    0    0    0  0.00000000000E+00  0.00000000000E+00  0.14999999963E+04  0.15000000000E+04  0.10566000000E+00 0.  1.
        994   -1    0    0    0    0 -0.00000000000E+00 -0.00000000000E+00  0.11368683772E-12  0.17120000000E+03  0.17120000000E+03 0.  0.
         13    1    1    2    0    0 -0.10477053705E+02 -0.39768157604E+01  0.67346058972E+02  0.68272150553E+02  0.10566000000E+00 0.  1.
        994    1    1    2    0    0 -0.47093640440E+01 -0.17871683295E+01  0.11309862227E+01  0.17127781879E+03  0.17120000000E+03 0.  0.
        998    1    1    2    0    0  0.15186417749E+02  0.57639840899E+01  0.14315229511E+04  0.14316500307E+04  0.10000000000E+02 0.  1.
</event>
<event>
 5    1  0.1757379E-008  0.3837227E+03  0.7957747E-01  0.3435108E+00
         13   -1    0    0    0    0  0.00000000000E+00  0.00000000000E+00  0.14999999963E+04  0.15000000000E+04  0.10566000000E+00 0. -1.
        994   -1    0    0    0    0 -0.00000000000E+00 -0.00000000000E+00  0.11368683772E-12  0.17120000000E+03  0.17120000000E+03 0.  0.
         13    1    1    2    0    0 -0.73311783858E+01  0.15917891944E+02  0.54396867443E+02  0.57150291444E+02  0.10566000000E+00 0. -1.
        994    1    1    2    0    0 -0.57251222703E+01 -0.63655696165E+02  0.15873819670E+02  0.18342912209E+03  0.17120000000E+03 0.  0.
        998    1    1    2    0    0  0.13056300656E+02  0.47737804221E+02  0.14297293092E+04  0.14306205865E+04  0.10000000000E+02 0. -1.
</event>
<event>
 5    1  0.1757379E-008  0.3684262E+03  0.7957747E-01  0.3503155E+00
         13   -1    0    0    0    0  0.00000000000E+00  0.00000000000E+00  0.14999999963E+04  0.15000000000E+04  0.10566000000E+00 0.  1.
        994   -1    0    0    0    0 -0.00000000000E+00 -0.00000000000E+00  0.11368683772E-12  0.17120000000E+03  0.17120000000E+03 0.  0.
         13    1    1    2    0    0 -0.92326954744E+02 -0.63946914532E+01  0.55961141718E+03  0.56721257748E+03  0.10566000000E+00 0.  1.
        994    1    1    2    0    0  0.26261239431E+02 -0.23136947868E+01  0.12514028460E+02  0.17366936053E+03  0.17120000000E+03 0.  0.
        998    1    1    2    0    0  0.66065715313E+02  0.87083862400E+01  0.92787455064E+03  0.93031806198E+03  0.10000000000E+02 0.  1.
</event>
<event>
 5    1  0.1757379E-008  0.3845655E+03  0.7957747E-01  0.3431517E+00
         13   -1    0    0    0    0  0.00000000000E+00  0.00000000000E+00  0.14999999963E+04  0.15000000000E+04  0.10566000000E+00 0.  1.
        994   -1    0    0    0    0 -0.00000000000E+00 -0.00000000000E+00  0.11368683772E-12  0.17120000000E+03  0.17120000000E+03 0.  0.
         13    1    1    2    0    0  0.13865328467E+02  0.27457786308E+01  0.52398190015E+02  0.54271245745E+02  0.10566000000E+00 0.  1.
        994    1    1    2    0    0 -0.11555598055E+02 -0.17692019639E+02  0.33179724274E+01  0.17253112283E+03  0.17120000000E+03 0.  0.
        998    1    1    2    0    0 -0.23097304122E+01  0.14946241008E+02  0.14442838338E+04  0.14443976314E+04  0.10000000000E+02 0.  1.
</event>
<event>
 5    1  0.1757379E-008  0.3850176E+03  0.7957747E-01  0.3429598E+00
         13   -1    0    0    0    0  0.00000000000E+00  0.00000000000E+00  0.14999999963E+04  0.15000000000E+04  0.10566000000E+00 0. -1.
        994   -1    0    0    0    0 -0.00000000000E+00 -0.00000000000E+00  0.11368683772E-12  0.17120000000E+03  0.17120000000E+03 0.  0.
         13    1    1    2    0    0  0.73570894852E+01 -0.12690965698E+02  0.67021391434E+02  0.68608056741E+02  0.10566000000E+00 0. -1.
        994    1    1    2    0    0 -0.14089600603E+02  0.14802657196E+01  0.22817021644E+01  0.17180033235E+03  0.17120000000E+03 0.  0.
        998    1    1    2    0    0  0.67325111177E+01  0.11210699978E+02  0.14306969027E+04  0.14307916109E+04  0.10000000000E+02 0. -1.
</event>
<event>
 5    1  0.2787926E-008  0.3855565E+03  0.7957747E-01  0.3427315E+00
         13   -1    0    0    0    0  0.00000000000E+00  0.00000000000E+00  0.14999999963E+04  0.15000000000E+04  0.10566000000E+00 0.  1.
        994   -1    0    0    0    0 -0.00000000000E+00 -0.00000000000E+00  0.11368683772E-12  0.17120000000E+03  0.17120000000E+03 0.  0.
         13    1    1    2    0    0 -0.62277867210E+01 -0.79594713042E+01  0.37024579893E+02  0.38379280754E+02  0.10566000000E+00 0.  1.
        994    1    1    2    0    0  0.81561010568E+01  0.75412383950E+01  0.17592630439E+01  0.17156901605E+03  0.17120000000E+03 0.  0.
        998    1    1    2    0    0 -0.19283143357E+01  0.41823290917E+00  0.14612161533E+04  0.14612517032E+04  0.10000000000E+02 0.  1.
</event>
<event>
 5    1  0.1757379E-008  0.3747481E+03  0.7957747E-01  0.3474350E+00
         13   -1    0    0    0    0  0.00000000000E+00  0.00000000000E+00  0.14999999963E+04  0.15000000000E+04  0.10566000000E+00 0. -1.
        994   -1    0    0    0    0 -0.00000000000E+00 -0.00000000000E+00  0.11368683772E-12  0.17120000000E+03  0.17120000000E+03 0.  0.
         13    1    1    2    0    0 -0.49704181754E+02  0.59158850377E+02  0.25919070826E+03  0.27046276948E+03  0.10566000000E+00 0. -1.
        994    1    1    2    0    0  0.24561401884E+02  0.34050641449E+01  0.15660706428E+02  0.17369385323E+03  0.17120000000E+03 0.  0.
        998    1    1    2    0    0  0.25142779870E+02 -0.62563914521E+02  0.12251485816E+04  0.12270433773E+04  0.10000000000E+02 0. -1.
</event>
<event>
 5    1  0.1757379E-008  0.3816604E+03  0.7957747E-01  0.3443960E+00
         13   -1    0    0    0    0  0.00000000000E+00  0.00000000000E+00  0.14999999963E+04  0.15000000000E+04  0.10566000000E+00 0.  1.
        994   -1    0    0    0    0 -0.00000000000E+00 -0.00000000000E+00  0.11368683772E-12  0.17120000000E+03  0.17120000000E+03 0.  0.
         13    1    1    2    0    0 -0.20894395093E+02 -0.14419593125E+02  0.86424981054E+02  0.90076572572E+02  0.10566000000E+00 0.  1.
        994    1    1    2    0    0  0.34055870327E+02  0.16043106815E+02  0.80233552430E+01  0.17547363850E+03  0.17120000000E+03 0.  0.
        998    1    1    2    0    0 -0.13161475234E+02 -0.16235136905E+01  0.14055516600E+04  0.14056497889E+04  0.10000000000E+02 0.  1.
</event>
<event>
 5    1  0.1757379E-008  0.3701669E+03  0.7957747E-01  0.3495124E+00
         13   -1    0    0    0    0  0.00000000000E+00  0.00000000000E+00  0.14999999963E+04  0.15000000000E+04  0.10566000000E+00 0. -1.
        994   -1    0    0    0    0 -0.00000000000E+00 -0.00000000000E+00  0.11368683772E-12  0.17120000000E+03  0.17120000000E+03 0.  0.
         13    1    1    2    0    0 -0.19589298908E+02 -0.12855504376E+02  0.21148147011E+02  0.31563585197E+02  0.10566000000E+00 0. -1.
        994    1    1    2    0    0 -0.12397149892E+02  0.14107868300E+02  0.12261831730E+02  0.17266300643E+03  0.17120000000E+03 0.  0.
        998    1    1    2    0    0  0.31986448799E+02 -0.12523639234E+01  0.14665900175E+04  0.14669734084E+04  0.10000000000E+02 0. -1.
</event>
<event>
 5    1  0.1757379E-008  0.3819994E+03  0.7957747E-01  0.3442499E+00
         13   -1    0    0    0    0  0.00000000000E+00  0.00000000000E+00  0.14999999963E+04  0.15000000000E+04  0.10566000000E+00 0.  1.
        994   -1    0    0    0    0 -0.00000000000E+00 -0.00000000000E+00  0.11368683772E-12  0.17120000000E+03  0.17120000000E+03 0.  0.
         13    1    1    2    0    0  0.76343304833E+01  0.14129066958E+02  0.37973174459E+02  0.41229681997E+02  0.10566000000E+00 0.  1.
        994    1    1    2    0    0 -0.12292460286E+02 -0.22465445713E+02  0.53082057876E+01  0.17318607877E+03  0.17120000000E+03 0.  0.
        998    1    1    2    0    0  0.46581298026E+01  0.83363787551E+01  0.14567186160E+04  0.14567842392E+04  0.10000000000E+02 0.  1.
</event>
<event>
 5    1  0.1757379E-008  0.3799939E+03  0.7957747E-01  0.3451185E+00
         13   -1    0    0    0    0  0.00000000000E+00  0.00000000000E+00  0.14999999963E+04  0.15000000000E+04  0.10566000000E+00 0. -1.
        994   -1    0    0    0    0 -0.00000000000E+00 -0.00000000000E+00  0.11368683772E-12  0.17120000000E+03  0.17120000000E+03 0.  0.
         13    1    1    2    0    0 -0.13285544041E+02 -0.14142577062E+02  0.43046291805E+02  0.47217714563E+02  0.10566000000E+00 0. -1.
        994    1    1    2    0    0  0.12368740682E+02  0.14027106597E+02  0.53063083327E+01  0.17230015198E+03  0.17120000000E+03 0.  0.
        998    1    1    2    0    0  0.91680335942E+00  0.11547046510E+00  0.14516473961E+04  0.14516821335E+04  0.10000000000E+02 0. -1.
</event>
<event>
 5    1  0.1757379E-008  0.3856443E+03  0.7957747E-01  0.3426944E+00
         13   -1    0    0    0    0  0.00000000000E+00  0.00000000000E+00  0.14999999963E+04  0.15000000000E+04  0.10566000000E+00 0.  1.
        994   -1    0    0    0    0 -0.00000000000E+00 -0.00000000000E+00  0.11368683772E-12  0.17120000000E+03  0.17120000000E+03 0.  0.
         13    1    1    2    0    0  0.31925552727E+00  0.14284219913E+02  0.75436597114E+02  0.76777810667E+02  0.10566000000E+00 0.  1.
        994    1    1    2    0    0 -0.27203981784E+01 -0.14460670620E+02  0.20214567935E+01  0.17184306168E+03  0.17120000000E+03 0.  0.
        998    1    1    2    0    0  0.24011426511E+01  0.17645070745E+00  0.14225419424E+04  0.14225791277E+04  0.10000000000E+02 0.  1.
</event>
<event>
 5    1  0.1757379E-008  0.3067858E+03  0.7957747E-01  0.3848735E+00
         13   -1    0    0    0    0  0.00000000000E+00  0.00000000000E+00  0.14999999963E+04  0.15000000000E+04  0.10566000000E+00 0.  1.
        994   -1    0    0    0    0 -0.00000000000E+00 -0.00000000000E+00  0.11368683772E-12  0.17120000000E+03  0.17120000000E+03 0.  0.
         13    1    1    2    0    0  0.20226788152E+03  0.43834918654E+02  0.88701754850E+03  0.91084243341E+03  0.10566000000E+00 0.  1.
        994    1    1    2    0    0 -0.87375924116E+02 -0.19390501383E+02  0.71183165495E+02  0.20588109847E+03  0.17120000000E+03 0.  0.
        998    1    1    2    0    0 -0.11489195740E+03 -0.24444417271E+02  0.54179928229E+03  0.55447646812E+03  0.10000000000E+02 0. -1.
</event>
<event>
 5    1  0.1757379E-008  0.3693806E+03  0.7957747E-01  0.3498742E+00
         13   -1    0    0    0    0  0.00000000000E+00  0.00000000000E+00  0.14999999963E+04  0.15000000000E+04  0.10566000000E+00 0.  1.
        994   -1    0    0    0    0 -0.00000000000E+00 -0.00000000000E+00  0.11368683772E-12  0.17120000000E+03  0.17120000000E+03 0.  0.
         13    1    1    2    0    0 -0.70143153519E+01 -0.42413245481E+02  0.89293588765E+02  0.99103179417E+02  0.10566000000E+00 0.  1.
        994    1    1    2    0    0  0.12670604227E+01  0.38816254078E+02  0.14837644336E+02  0.17617577221E+03  0.17120000000E+03 0.  0.
        998    1    1    2    0    0  0.57472549292E+01  0.35969914025E+01  0.13958687632E+04  0.13959210484E+04  0.10000000000E+02 0.  1.
</event>
<event>
 5    1  0.1757379E-008  0.3841711E+03  0.7957747E-01  0.3433195E+00
         13   -1    0    0    0    0  0.00000000000E+00  0.00000000000E+00  0.14999999963E+04  0.15000000000E+04  0.10566000000E+00 0. -1.
        994   -1    0    0    0    0 -0.00000000000E+00 -0.00000000000E+00  0.11368683772E-12  0.17120000000E+03  0.17120000000E+03 0.  0.
         13    1    1    2    0    0  0.77113915048E+01  0.14184091756E+02  0.63539611200E+02  0.65558732244E+02  0.10566000000E+00 0. -1.
        994    1    1    2    0    0 -0.48588441703E+01 -0.90792206358E+01  0.23920033763E+01  0.17152609800E+03  0.17120000000E+03 0.  0.
        998    1    1    2    0    0 -0.28525473345E+01 -0.51048711200E+01  0.14340683817E+04  0.14341151698E+04  0.10000000000E+02 0. -1.
</event>
<event>
 5    1  0.1757379E-008  0.3839306E+03  0.7957747E-01  0.3434220E+00
         13   -1    0    0    0    0  0.00000000000E+00  0.00000000000E+00  0.14999999963E+04  0.15000000000E+04  0.10566000000E+00 0. -1.
        994   -1    0    0    0    0 -0.00000000000E+00 -0.00000000000E+00  0.11368683772E-12  0.17120000000E+03  0.17120000000E+03 0.  0.
         13    1    1    2    0    0  0.15399137340E+02  0.15812632140E+02  0.11383320130E+03  0.11595335980E+03  0.10566000000E+00 0. -1.
        994    1    1    2    0    0 -0.18969096849E+01 -0.14698612409E+02  0.28871927857E+01  0.17186454944E+03  0.17120000000E+03 0.  0.
        998    1    1    2    0    0 -0.13502227655E+02 -0.11140197306E+01  0.13832796022E+04  0.13833820908E+04  0.10000000000E+02 0. -1.
</event>
<event>
 5    1  0.1757379E-008  0.3825307E+03  0.7957747E-01  0.3440213E+00
         13   -1    0    0    0    0  0.00000000000E+00  0.00000000000E+00  0.14999999963E+04  0.15000000000E+04  0.10566000000E+00 0. -1.
        994   -1    0    0    0    0 -0.00000000000E+00 -0.00000000000E+00  0.11368683772E-12  0.17120000000E+03  0.17120000000E+03 0.  0.
         13    1    1    2    0    0  0.23314072964E+02 -0.19396427871E+02  0.17680005974E+03  0.17938238403E+03  0.10566000000E+00 0. -1.
        994    1    1    2    0    0 -0.83406691246E+01 -0.89671245700E+00  0.30943906348E+01  0.17143332846E+03  0.17120000000E+03 0.  0.
        998    1    1    2    0    0 -0.14973403840E+02  0.20293140328E+02  0.13201055459E+04  0.13203842875E+04  0.10000000000E+02 0. -1.
</event>
<event>
 5    1  0.1757379E-008  0.3846036E+03  0.7957747E-01  0.3431355E+00
         13   -1    0    0    0    0  0.00000000000E+00  0.00000000000E+00  0.14999999963E+04  0.15000000000E+04  0.10566000000E+00 0. -1.
        994   -1    0    0    0    0 -0.00000000000E+00 -0.00000000000E+00  0.11368683772E-12  0.17120000000E+03  0.17120000000E+03 0.  0.
         13    1    1    2    0    0  0.15731883714E+03 -0.45394015095E+02  0.97109579151E+03  0.98480296536E+03  0.10566000000E+00 0. -1.
        994    1    1    2    0    0 -0.17667773417E+03  0.73712616897E+02  0.13362445319E+03  0.28950562366E+03  0.17120000000E+03 0.  0.
        998    1    1    2    0    0  0.19358897022E+02 -0.28318601802E+02  0.39527975159E+03  0.39689141099E+03  0.10000000000E+02 0. -1.
</event>
<event>
 5    1  0.1757379E-008  0.3854692E+03  0.7957747E-01  0.3427685E+00
         13   -1    0    0    0    0  0.00000000000E+00  0.00000000000E+00  0.14999999963E+04  0.15000000000E+04  0.10566000000E+00 0.  1.
        994   -1    0    0    0    0 -0.00000000000E+00 -0.00000000000E+00  0.11368683772E-12  0.17120000000E+03  0.17120000000E+03 0.  0.
         13    1    1    2    0    0  0.54860778321E+01 -0.91015998564E+01  0.41825181668E+02  0.43154294752E+02  0.10566000000E+00 0.  1.
        994    1    1    2    0    0 -0.48520200167E+01 -0.12127389810E+01  0.14795120240E+01  0.17127942606E+03  0.17120000000E+03 0.  0.
        998    1    1    2    0    0 -0.63405781542E+00  0.10314338837E+02  0.14566953026E+04  0.14567662792E+04  0.10000000000E+02 0.  1.
</event>
<event>
 5    1  0.1757379E-008  0.3730600E+03  0.7957747E-01  0.3481945E+00
         13   -1    0    0    0    0  0.00000000000E+00  0.00000000000E+00  0.14999999963E+04  0.15000000000E+04  0.10566000000E+00 0.  1.
        994   -1    0    0    0    0 -0.00000000000E+00 -0.00000000000E+00  0.11368683772E-12  0.17120000000E+03  0.17120000000E+03 0.  0.
         13    1    1    2    0    0  0.96890930470E+01  0.54390666288E+01  0.45417460983E+01  0.12004190582E+02  0.10566000000E+00 0.  1.
        994    1    1    2    0    0 -0.15218399248E+01 -0.57130998080E+01  0.77979489516E+01  0.17147945508E+03  0.17120000000E+03 0.  0.
        998    1    1    2    0    0 -0.81672531223E+01  0.27403317926E+00  0.14876603012E+04  0.14877163543E+04  0.10000000000E+02 0.  1.
</event>
<event>
 5    1  0.1757379E-008  0.3820967E+03  0.7957747E-01  0.3442080E+00
         13   -1    0    0    0    0  0.00000000000E+00  0.00000000000E+00  0.14999999963E+04  0.15000000000E+04  0.10566000000E+00 0.  1.
        994   -1    0    0    0    0 -0.00000000000E+00 -0.00000000000E+00  0.11368683772E-12  0.17120000000E+03  0.17120000000E+03 0.  0.
         13    1    1    2    0    0  0.14327586673E+02  0.80166804327E+01  0.44097142161E+02  0.47054394225E+02  0.10566000000E+00 0.  1.
        994    1    1    2    0    0 -0.21740749022E+00 -0.57306764496E+01  0.31876689164E+01  0.17132568153E+03  0.17120000000E+03 0.  0.
        998    1    1    2    0    0 -0.14110179183E+02 -0.22860039831E+01  0.14527151852E+04  0.14528199242E+04  0.10000000000E+02 0.  1.
</event>
<event>
 5    1  0.1757379E-008  0.3701992E+03  0.7957747E-01  0.3494976E+00
         13   -1    0    0    0    0  0.00000000000E+00  0.00000000000E+00  0.14999999963E+04  0.15000000000E+04  0.10566000000E+00 0.  1.
        994   -1    0    0    0    0 -0.00000000000E+00 -0.00000000000E+00  0.11368683772E-12  0.17120000000E+03  0.17120000000E+03 0.  0.
         13    1    1    2    0    0 -0.20903876517E+02 -0.66832971190E+02  0.24870380806E+03  0.25837417324E+03  0.10566000000E+00 0.  1.
        994    1    1    2    0    0  0.32819563418E+01  0.52797132112E+02  0.18896840447E+02  0.18018001825E+03  0.17120000000E+03 0.  0.
        998    1    1    2    0    0  0.17621920175E+02  0.14035839078E+02  0.12323993478E+04  0.12326458085E+04  0.10000000000E+02 0.  1.
</event>
<event>
 5    1  0.1757379E-008  0.3802511E+03  0.7957747E-01  0.3450066E+00
         13   -1    0    0    0    0  0.00000000000E+00  0.00000000000E+00  0.14999999963E+04  0.15000000000E+04  0.10566000000E+00 0. -1.
        994   -1    0    0    0    0 -0.00000000000E+00 -0.00000000000E+00  0.11368683772E-12  0.17120000000E+03  0.17120000000E+03 0.  0.
         13    1    1    2    0    0 -0.16558389451E+02 -0.85880344568E+01  0.40622131201E+02  0.44700148819E+02  0.10566000000E+00 0.  1.
        994    1    1    2    0    0  0.18413363084E+02  0.10735399659E+02  0.55253421953E+01  0.17261016816E+03  0.17120000000E+03 0.  0.
        998    1    1    2    0    0 -0.18549736323E+01 -0.21473652026E+01  0.14538525229E+04  0.14538896830E+04  0.10000000000E+02 0. -1.
</event>
<event>
 5    1  0.1757379E-008  0.3819755E+03  0.7957747E-01  0.3442602E+00
         13   -1    0    0    0    0  0.00000000000E+00  0.00000000000E+00  0.14999999963E+04  0.15000000000E+04  0.10566000000E+00 0.  1.
        994   -1    0    0    0    0 -0.00000000000E+00 -0.00000000000E+00  0.11368683772E-12  0.17120000000E+03  0.17120000000E+03 0.  0.
         13    1    1    2    0    0 -0.33894757375E+02 -0.10054213397E+02  0.17974958237E+03  0.18319351875E+03  0.10566000000E+00 0.  1.
        994    1    1    2    0    0  0.34581682700E+02  0.29758716332E+00  0.71215745315E+01  0.17480314116E+03  0.17120000000E+03 0.  0.
        998    1    1    2    0    0 -0.68692532422E+00  0.97566262337E+01  0.13131288394E+04  0.13132033401E+04  0.10000000000E+02 0.  1.
</event>
<event>
 5    1  0.1757379E-008  0.3848613E+03  0.7957747E-01  0.3430261E+00
         13   -1    0    0    0    0  0.00000000000E+00  0.00000000000E+00  0.14999999963E+04  0.15000000000E+04  0.10566000000E+00 0.  1.
        994   -1    0    0    0    0 -0.00000000000E+00 -0.00000000000E+00  0.11368683772E-12  0.17120000000E+03  0.17120000000E+03 0.  0.
         13    1    1    2    0    0  0.12847618388E+02 -0.15893249526E+02  0.12009479285E+03  0.12182129170E+03  0.10566000000E+00 0.  1.
        994    1    1    2    0    0 -0.31076907272E+02 -0.35390581621E+01  0.49243691759E+01  0.17410338455E+03  0.17120000000E+03 0.  0.
        998    1    1    2    0    0  0.18229288883E+02  0.19432307688E+02  0.13749808343E+04  0.13752753238E+04  0.10000000000E+02 0.  1.
</event>
<event>
 5    1  0.1757379E-008  0.3793255E+03  0.7957747E-01  0.3454101E+00
         13   -1    0    0    0    0  0.00000000000E+00  0.00000000000E+00  0.14999999963E+04  0.15000000000E+04  0.10566000000E+00 0.  1.
        994   -1    0    0    0    0 -0.00000000000E+00 -0.00000000000E+00  0.11368683772E-12  0.17120000000E+03  0.17120000000E+03 0.  0.
         13    1    1    2    0    0 -0.19715914393E+02  0.28871210971E+01  0.39177885585E+02  0.43954187873E+02  0.10566000000E+00 0.  1.
        994    1    1    2    0    0  0.39398585604E+02  0.15216013289E+01  0.97000525502E+01  0.17594912571E+03  0.17120000000E+03 0.  0.
        998    1    1    2    0    0 -0.19682671210E+02 -0.44087224259E+01  0.14511220581E+04  0.14512966864E+04  0.10000000000E+02 0.  1.
</event>
<event>
 5    1  0.2016540E-008  0.3863169E+03  0.7957747E-01  0.3424106E+00
         13   -1    0    0    0    0  0.00000000000E+00  0.00000000000E+00  0.14999999963E+04  0.15000000000E+04  0.10566000000E+00 0.  1.
        994   -1    0    0    0    0 -0.00000000000E+00 -0.00000000000E+00  0.11368683772E-12  0.17120000000E+03  0.17120000000E+03 0.  0.
         13    1    1    2    0    0 -0.72305550675E+01  0.82198252451E+01  0.58867708334E+02  0.59877079941E+02  0.10566000000E+00 0.  1.
        994    1    1    2    0    0  0.10497816570E+02 -0.10630185548E+02  0.17089742666E+01  0.17185914462E+03  0.17120000000E+03 0.  0.
        998    1    1    2    0    0 -0.32672615023E+01  0.24103603026E+01  0.14394233137E+04  0.14394637754E+04  0.10000000000E+02 0.  1.
</event>
<event>
 5    1  0.1757379E-008  0.3799348E+03  0.7957747E-01  0.3451442E+00
         13   -1    0    0    0    0  0.00000000000E+00  0.00000000000E+00  0.14999999963E+04  0.15000000000E+04  0.10566000000E+00 0.  1.
        994   -1    0    0    0    0 -0.00000000000E+00 -0.00000000000E+00  0.11368683772E-12  0.17120000000E+03  0.17120000000E+03 0.  0.
         13    1    1    2    0    0  0.24277358268E+02 -0.33976640220E+01  0.68813756367E+02  0.73049835555E+02  0.10566000000E+00 0.  1.
        994    1    1    2    0    0 -0.21602522395E+02  0.97448220523E+00  0.57311721703E+01  0.17265545147E+03  0.17120000000E+03 0.  0.
        998    1    1    2    0    0 -0.26748358730E+01  0.24231818167E+01  0.14254550677E+04  0.14254947130E+04  0.10000000000E+02 0.  1.
</event>
<event>
 5    1  0.1757379E-008  0.3785519E+03  0.7957747E-01  0.3457488E+00
         13   -1    0    0    0    0  0.00000000000E+00  0.00000000000E+00  0.14999999963E+04  0.15000000000E+04  0.10566000000E+00 0.  1.
        994   -1    0    0    0    0 -0.00000000000E+00 -0.00000000000E+00  0.11368683772E-12  0.17120000000E+03  0.17120000000E+03 0.  0.
         13    1    1    2    0    0 -0.16077577590E+02 -0.61152570780E+01  0.26231410959E+02  0.31368502597E+02  0.10566000000E+00 0.  1.
        994    1    1    2    0    0  0.34360778199E+02  0.21994502548E+02  0.10477123386E+02  0.17630550569E+03  0.17120000000E+03 0.  0.
        998    1    1    2    0    0 -0.18283200609E+02 -0.15879245470E+02  0.14632914619E+04  0.14635259917E+04  0.10000000000E+02 0.  1.
</event>
<event>
 5    1  0.1757379E-008  0.3812457E+03  0.7957747E-01  0.3445752E+00
         13   -1    0    0    0    0  0.00000000000E+00  0.00000000000E+00  0.14999999963E+04  0.15000000000E+04  0.10566000000E+00 0.  1.
        994   -1    0    0    0    0 -0.00000000000E+00 -0.00000000000E+00  0.11368683772E-12  0.17120000000E+03  0.17120000000E+03 0.  0.
         13    1    1    2    0    0  0.14659622745E+02 -0.92321386547E+01  0.37727863133E+02  0.41515536174E+02  0.10566000000E+00 0.  1.
        994    1    1    2    0    0 -0.38045759344E+02  0.11754544988E+02  0.88026530822E+01  0.17599027198E+03  0.17120000000E+03 0.  0.
        998    1    1    2    0    0  0.23386136599E+02 -0.25224063333E+01  0.14534694801E+04  0.14536941918E+04  0.10000000000E+02 0.  1.
</event>
<event>
 5    1  0.1757379E-008  0.3843425E+03  0.7957747E-01  0.3432465E+00
         13   -1    0    0    0    0  0.00000000000E+00  0.00000000000E+00  0.14999999963E+04  0.15000000000E+04  0.10566000000E+00 0.  1.
        994   -1    0    0    0    0 -0.00000000000E+00 -0.00000000000E+00  0.11368683772E-12  0.17120000000E+03  0.17120000000E+03 0.  0.
         13    1    1    2    0    0  0.14683185515E+02 -0.93860468508E+01  0.80345088955E+02  0.82213370540E+02  0.10566000000E+00 0.  1.
        994    1    1    2    0    0 -0.10877201113E+02 -0.68308609168E+01  0.25008058545E+01  0.17169935409E+03  0.17120000000E+03 0.  0.
        998    1    1    2    0    0 -0.38059844022E+01  0.16216907768E+02  0.14171541015E+04  0.14172872754E+04  0.10000000000E+02 0.  1.
</event>
<event>
 5    1  0.1757379E-008  0.3739456E+03  0.7957747E-01  0.3477952E+00
         13   -1    0    0    0    0  0.00000000000E+00  0.00000000000E+00  0.14999999963E+04  0.15000000000E+04  0.10566000000E+00 0.  1.
        994   -1    0    0    0    0 -0.00000000000E+00 -0.00000000000E+00  0.11368683772E-12  0.17120000000E+03  0.17120000000E+03 0.  0.
         13    1    1    2    0    0  0.59511934234E+02 -0.12270369846E+02  0.13680947593E+03  0.14969661373E+03  0.10566000000E+00 0.  1.
        994    1    1    2    0    0 -0.39912130058E+02 -0.23402433521E+00  0.18709087743E+02  0.17678377430E+03  0.17120000000E+03 0.  0.
        998    1    1    2    0    0 -0.19599804176E+02  0.12504394181E+02  0.13444814326E+04  0.13447196120E+04  0.10000000000E+02 0.  1.
</event>
<event>
 5    1  0.1757379E-008  0.3850334E+03  0.7957747E-01  0.3429530E+00
         13   -1    0    0    0    0  0.00000000000E+00  0.00000000000E+00  0.14999999963E+04  0.15000000000E+04  0.10566000000E+00 0. -1.
        994   -1    0    0    0    0 -0.00000000000E+00 -0.00000000000E+00  0.11368683772E-12  0.17120000000E+03  0.17120000000E+03 0.  0.
         13    1    1    2    0    0  0.12640715620E+02 -0.21147427766E+00  0.47564723212E+02  0.49216323217E+02  0.10566000000E+00 0. -1.
        994    1    1    2    0    0 -0.15760183045E+02 -0.13197378456E+01  0.24364592126E+01  0.17194621662E+03  0.17120000000E+03 0.  0.
        998    1    1    2    0    0  0.31194674248E+01  0.15312121233E+01  0.14499988139E+04  0.14500374602E+04  0.10000000000E+02 0. -1.
</event>
<event>
 5    1  0.1757379E-008  0.3913407E+03  0.7957747E-01  0.3403218E+00
         13   -1    0    0    0    0  0.00000000000E+00  0.00000000000E+00  0.14999999963E+04  0.15000000000E+04  0.10566000000E+00 0. -1.
        994   -1    0    0    0    0 -0.00000000000E+00 -0.00000000000E+00  0.11368683772E-12  0.17120000000E+03  0.17120000000E+03 0.  0.
         13    1    1    2    0    0 -0.28260763209E+02 -0.15648010241E+02  0.13111575625E+02  0.34863383959E+02  0.10566000000E+00 0. -1.
        994    1    1    2    0    0  0.33064253994E+02  0.21274076618E+02  0.28569741066E+02  0.17796488792E+03  0.17120000000E+03 0.  0.
        998    1    1    2    0    0 -0.48034907849E+01 -0.56260663773E+01  0.14583186796E+04  0.14583717281E+04  0.10000000000E+02 0. -1.
</event>
<event>
 5    1  0.1757379E-008  0.3841901E+03  0.7957747E-01  0.3433114E+00
         13   -1    0    0    0    0  0.00000000000E+00  0.00000000000E+00  0.14999999963E+04  0.15000000000E+04  0.10566000000E+00 0. -1.
        994   -1    0    0    0    0 -0.00000000000E+00 -0.00000000000E+00  0.11368683772E-12  0.17120000000E+03  0.17120000000E+03 0.  0.
         13    1    1    2    0    0 -0.12098715384E+02  0.12223799687E+02  0.61616921068E+02  0.63972308999E+02  0.10566000000E+00 0. -1.
        994    1    1    2    0    0  0.45386181462E+02 -0.13130461687E+02  0.94283898181E+01  0.17785007458E+03  0.17120000000E+03 0.  0.
        998    1    1    2    0    0 -0.33287466079E+02  0.90666200024E+00  0.14289546854E+04  0.14293776164E+04  0.10000000000E+02 0. -1.
</event>
<event>
 5    1  0.2282569E-008  0.3853530E+03  0.7957747E-01  0.3428177E+00
         13   -1    0    0    0    0  0.00000000000E+00  0.00000000000E+00  0.14999999963E+04  0.15000000000E+04  0.10566000000E+00 0.  1.
        994   -1    0    0    0    0 -0.00000000000E+00 -0.00000000000E+00  0.11368683772E-12  0.17120000000E+03  0.17120000000E+03 0.  0.
         13    1    1    2    0    0 -0.65562009881E+01  0.87305530679E+01  0.40027991253E+02  0.41490451625E+02  0.10566000000E+00 0.  1.
        994    1    1    2    0    0  0.59244592771E+01 -0.10538140996E+02  0.19352304933E+01  0.17163722426E+03  0.17120000000E+03 0.  0.
        998    1    1    2    0    0  0.63174171108E+00  0.18075879277E+01  0.14580367745E+04  0.14580723241E+04  0.10000000000E+02 0.  1.
</event>
<event>
 5    1  0.1757379E-008  0.3803429E+03  0.7957747E-01  0.3449667E+00
         13   -1    0    0    0    0  0.00000000000E+00  0.00000000000E+00  0.14999999963E+04  0.15000000000E+04  0.10566000000E+00 0.  1.
        994   -1    0    0    0    0 -0.00000000000E+00 -0.00000000000E+00  0.11368683772E-12  0.17120000000E+03  0.17120000000E+03 0.  0.
         13    1    1    2    0    0 -0.10110411414E+02  0.91883134063E+01  0.22966162281E+02  0.26722673821E+02  0.10566000000E+00 0.  1.
        994    1    1    2    0    0 -0.71581407018E+01  0.18540773830E+01  0.41427490293E+01  0.17140968161E+03  0.17120000000E+03 0.  0.
        998    1    1    2    0    0  0.17268552115E+02 -0.11042390789E+02  0.14728910850E+04  0.14730676446E+04  0.10000000000E+02 0.  1.
</event>
<event>
 5    1  0.1757379E-008  0.3835322E+03  0.7957747E-01  0.3435921E+00
         13   -1    0    0    0    0  0.00000000000E+00  0.00000000000E+00  0.14999999963E+04  0.15000000000E+04  0.10566000000E+00 0.  1.
        994   -1    0    0    0    0 -0.00000000000E+00 -0.00000000000E+00  0.11368683772E-12  0.17120000000E+03  0.17120000000E+03 0.  0.
         13    1    1    2    0    0  0.19525309499E+02 -0.83886765801E+01  0.96450190472E+02  0.98763647218E+02  0.10566000000E+00 0.  1.
        994    1    1    2    0    0 -0.10835321971E+02  0.28794126771E+01  0.27761009236E+01  0.17158916620E+03  0.17120000000E+03 0.  0.
        998    1    1    2    0    0 -0.86899875279E+01  0.55092639030E+01  0.14007737049E+04  0.14008471866E+04  0.10000000000E+02 0.  1.
</event>
<event>
 5    1  0.1757379E-008  0.3844510E+03  0.7957747E-01  0.3432004E+00
         13   -1    0    0    0    0  0.00000000000E+00  0.00000000000E+00  0.14999999963E+04  0.15000000000E+04  0.10566000000E+00 0.  1.
        994   -1    0    0    0    0 -0.00000000000E+00 -0.00000000000E+00  0.11368683772E-12  0.17120000000E+03  0.17120000000E+03 0.  0.
         13    1    1    2    0    0  0.93068873498E+01 -0.15107725891E+02  0.80787107147E+02  0.82712933565E+02  0.10566000000E+00 0.  1.
        994    1    1    2    0    0 -0.42607861730E+01  0.14571620503E+02  0.26626635271E+01  0.17189245533E+03  0.17120000000E+03 0.  0.
        998    1    1    2    0    0 -0.50461011767E+01  0.53610538842E+00  0.14165502256E+04  0.14165946111E+04  0.10000000000E+02 0.  1.
</event>
<event>
 5    1  0.1757379E-008  0.3846526E+03  0.7957747E-01  0.3431147E+00
         13   -1    0    0    0    0  0.00000000000E+00  0.00000000000E+00  0.14999999963E+04  0.15000000000E+04  0.10566000000E+00 0. -1.
        994   -1    0    0    0    0 -0.00000000000E+00 -0.00000000000E+00  0.11368683772E-12  0.17120000000E+03  0.17120000000E+03 0.  0.
         13    1    1    2    0    0 -0.34259091827E+01  0.14127057920E+02  0.63795544552E+02  0.65430828268E+02  0.10566000000E+00 0. -1.
        994    1    1    2    0    0  0.67165475510E+01  0.65469546427E+01  0.20924351403E+01  0.17146951015E+03  0.17120000000E+03 0.  0.
        998    1    1    2    0    0 -0.32906383683E+01 -0.20674012563E+02  0.14341120166E+04  0.14342996616E+04  0.10000000000E+02 0. -1.
</event>
<event>
 5    1  0.1757379E-008  0.3829787E+03  0.7957747E-01  0.3438290E+00
         13   -1    0    0    0    0  0.00000000000E+00  0.00000000000E+00  0.14999999963E+04  0.15000000000E+04  0.10566000000E+00 0. -1.
        994   -1    0    0    0    0 -0.00000000000E+00 -0.00000000000E+00  0.11368683772E-12  0.17120000000E+03  0.17120000000E+03 0.  0.
         13    1    1    2    0    0  0.19879975303E+02  0.40386442498E+01  0.75748004242E+02  0.78417443060E+02  0.10566000000E+00 0. -1.
        994    1    1    2    0    0 -0.16036320632E+02 -0.41588337815E+01  0.35460913024E+01  0.17203625851E+03  0.17120000000E+03 0.  0.
        998    1    1    2    0    0 -0.38436546717E+01  0.12018953172E+00  0.14207059007E+04  0.14207462984E+04  0.10000000000E+02 0. -1.
</event>
<event>
 5    1  0.1757379E-008  0.3897573E+03  0.7957747E-01  0.3409743E+00
         13   -1    0    0    0    0  0.00000000000E+00  0.00000000000E+00  0.14999999963E+04  0.15000000000E+04  0.10566000000E+00 0.  1.
        994   -1    0    0    0    0 -0.00000000000E+00 -0.00000000000E+00  0.11368683772E-12  0.17120000000E+03  0.17120000000E+03 0.  0.
         13    1    1    2    0    0 -0.93477261456E+02  0.31876063230E+02  0.23420856399E+03  0.25418053510E+03  0.10566000000E+00 0.  1.
        994    1    1    2    0    0  0.51660535004E+02  0.12100986471E+02  0.32452354741E+02  0.18214785225E+03  0.17120000000E+03 0.  0.
        998    1    1    2    0    0  0.41816726452E+02 -0.43977049701E+02  0.12333390776E+04  0.12348716126E+04  0.10000000000E+02 0.  1.
</event>
<event>
 5    1  0.1757379E-008  0.2403190E+03  0.7957747E-01  0.4442637E+00
         13   -1    0    0    0    0  0.00000000000E+00  0.00000000000E+00  0.14999999963E+04  0.15000000000E+04  0.10566000000E+00 0.  1.
        994   -1    0    0    0    0 -0.00000000000E+00 -0.00000000000E+00  0.11368683772E-12  0.17120000000E+03  0.17120000000E+03 0.  0.
         13    1    1    2    0    0  0.87702707742E+02  0.15865513936E+03  0.39985509126E+03  0.43902998002E+03  0.10566000000E+00 0.  1.
        994    1    1    2    0    0  0.38870347089E+01 -0.73609021218E+02  0.77494972212E+02  0.20186210086E+03  0.17120000000E+03 0.  0.
        998    1    1    2    0    0 -0.91589742451E+02 -0.85046118138E+02  0.10226499328E+04  0.10303079191E+04  0.10000000000E+02 0.  1.
</event>
<event>
 5    1  0.1757379E-008  0.3790443E+03  0.7957747E-01  0.3455330E+00
         13   -1    0    0    0    0  0.00000000000E+00  0.00000000000E+00  0.14999999963E+04  0.15000000000E+04  0.10566000000E+00 0.  1.
        994   -1    0    0    0    0 -0.00000000000E+00 -0.00000000000E+00  0.11368683772E-12  0.17120000000E+03  0.17120000000E+03 0.  0.
         13    1    1    2    0    0 -0.14004201319E+02 -0.45648846576E+01  0.21605859102E+02  0.26149190008E+02  0.10566000000E+00 0.  1.
        994    1    1    2    0    0  0.62592918321E+01  0.11779662212E+02  0.52133053442E+01  0.17179801433E+03  0.17120000000E+03 0.  0.
        998    1    1    2    0    0  0.77449094868E+01 -0.72147775543E+01  0.14731808318E+04  0.14732527957E+04  0.10000000000E+02 0.  1.
</event>
<event>
 5    1  0.1757379E-008  0.3849854E+03  0.7957747E-01  0.3429734E+00
         13   -1    0    0    0    0  0.00000000000E+00  0.00000000000E+00  0.14999999963E+04  0.15000000000E+04  0.10566000000E+00 0.  1.
        994   -1    0    0    0    0 -0.00000000000E+00 -0.00000000000E+00  0.11368683772E-12  0.17120000000E+03  0.17120000000E+03 0.  0.
         13    1    1    2    0    0  0.67218210269E+01  0.11138349413E+02  0.49940952788E+02  0.51607709066E+02  0.10566000000E+00 0.  1.
        994    1    1    2    0    0 -0.96111263282E+01 -0.11359004630E+02  0.23658728484E+01  0.17186168302E+03  0.17120000000E+03 0.  0.
        998    1    1    2    0    0  0.28893053013E+01  0.22065521620E+00  0.14476931706E+04  0.14477306079E+04  0.10000000000E+02 0.  1.
</event>
<event>
 5    1  0.1757379E-008  0.3856984E+03  0.7957747E-01  0.3426715E+00
         13   -1    0    0    0    0  0.00000000000E+00  0.00000000000E+00  0.14999999963E+04  0.15000000000E+04  0.10566000000E+00 0. -1.
        994   -1    0    0    0    0 -0.00000000000E+00 -0.00000000000E+00  0.11368683772E-12  0.17120000000E+03  0.17120000000E+03 0.  0.
         13    1    1    2    0    0 -0.74079469552E+01 -0.86153352373E+01  0.50014284598E+02  0.51288804892E+02  0.10566000000E+00 0. -1.
        994    1    1    2    0    0  0.32194909810E+01  0.99457681688E+01  0.16424411778E+01  0.17152673564E+03  0.17120000000E+03 0.  0.
        998    1    1    2    0    0  0.41884559743E+01 -0.13304329315E+01  0.14483432705E+04  0.14483844595E+04  0.10000000000E+02 0. -1.
</event>
<event>
 5    1  0.1757379E-008  0.3800411E+03  0.7957747E-01  0.3450979E+00
         13   -1    0    0    0    0  0.00000000000E+00  0.00000000000E+00  0.14999999963E+04  0.15000000000E+04  0.10566000000E+00 0. -1.
        994   -1    0    0    0    0 -0.00000000000E+00 -0.00000000000E+00  0.11368683772E-12  0.17120000000E+03  0.17120000000E+03 0.  0.
         13    1    1    2    0    0  0.26798223381E+02  0.36589038136E+02  0.23282306360E+03  0.23719926770E+03  0.10566000000E+00 0. -1.
        994    1    1    2    0    0 -0.17069445489E+02 -0.29951449528E+02  0.80949703566E+01  0.17482397960E+03  0.17120000000E+03 0.  0.
        998    1    1    2    0    0 -0.97287778921E+01 -0.66375886087E+01  0.12590819623E+04  0.12591767527E+04  0.10000000000E+02 0. -1.
</event>
<event>
 5    1  0.1757379E-008  0.3753524E+03  0.7957747E-01  0.3471648E+00
         13   -1    0    0    0    0  0.00000000000E+00  0.00000000000E+00  0.14999999963E+04  0.15000000000E+04  0.10566000000E+00 0. -1.
        994   -1    0    0    0    0 -0.00000000000E+00 -0.00000000000E+00  0.11368683772E-12  0.17120000000E+03  0.17120000000E+03 0.  0.
         13    1    1    2    0    0 -0.25202427709E+02  0.35879962347E+02  0.12983098199E+03  0.13703513823E+03  0.10566000000E+00 0. -1.
        994    1    1    2    0    0  0.26321660416E+02 -0.42859589827E+02  0.15135743365E+02  0.17907625464E+03  0.17120000000E+03 0.  0.
        998    1    1    2    0    0 -0.11192327070E+01  0.69796274800E+01  0.13550332709E+04  0.13550886071E+04  0.10000000000E+02 0. -1.
</event>
<event>
 5    1  0.1757379E-008  0.3847763E+03  0.7957747E-01  0.3430621E+00
         13   -1    0    0    0    0  0.00000000000E+00  0.00000000000E+00  0.14999999963E+04  0.15000000000E+04  0.10566000000E+00 0. -1.
        994   -1    0    0    0    0 -0.00000000000E+00 -0.00000000000E+00  0.11368683772E-12  0.17120000000E+03  0.17120000000E+03 0.  0.
         13    1    1    2    0    0 -0.73530029945E+01 -0.23092710887E+02  0.13364485182E+03  0.13582451005E+03  0.10566000000E+00 0. -1.
        994    1    1    2    0    0  0.31308930955E+02  0.35050724779E+02  0.90445591562E+01  0.17776401918E+03  0.17120000000E+03 0.  0.
        998    1    1    2    0    0 -0.23955927961E+02 -0.11958013892E+02  0.13573105853E+04  0.13576114708E+04  0.10000000000E+02 0. -1.
</event>
<event>
 5    1  0.1757379E-008  0.3851833E+03  0.7957747E-01  0.3428895E+00
         13   -1    0    0    0    0  0.00000000000E+00  0.00000000000E+00  0.14999999963E+04  0.15000000000E+04  0.10566000000E+00 0. -1.
        994   -1    0    0    0    0 -0.00000000000E+00 -0.00000000000E+00  0.11368683772E-12  0.17120000000E+03  0.17120000000E+03 0.  0.
         13    1    1    2    0    0 -0.13352347771E+02 -0.11892748672E+02  0.90409602273E+02  0.92160891972E+02  0.10566000000E+00 0. -1.
        994    1    1    2    0    0  0.13989484217E+02  0.30237451552E+02  0.51959395793E+01  0.17448910262E+03  0.17120000000E+03 0.  0.
        998    1    1    2    0    0 -0.63713644639E+00 -0.18344702880E+02  0.14043944544E+04  0.14045500054E+04  0.10000000000E+02 0. -1.
</event>
<event>
 5    1  0.1757379E-008  0.3852324E+03  0.7957747E-01  0.3428687E+00
         13   -1    0    0    0    0  0.00000000000E+00  0.00000000000E+00  0.14999999963E+04  0.15000000000E+04  0.10566000000E+00 0.  1.
        994   -1    0    0    0    0 -0.00000000000E+00 -0.00000000000E+00  0.11368683772E-12  0.17120000000E+03  0.17120000000E+03 0.  0.
         13    1    1    2    0    0  0.58162454781E+01  0.85577351206E+01  0.38511382101E+02  0.39877327609E+02  0.10566000000E+00 0.  1.
        994    1    1    2    0    0  0.67059105870E+01  0.74907371130E+01  0.18470277587E+01  0.17150490340E+03  0.17120000000E+03 0.  0.
        998    1    1    2    0    0 -0.12522156065E+02 -0.16048472234E+02  0.14596415864E+04  0.14598177690E+04  0.10000000000E+02 0.  1.
</event>
<event>
 5    1  0.1757379E-008  0.3833378E+03  0.7957747E-01  0.3436752E+00
         13   -1    0    0    0    0  0.00000000000E+00  0.00000000000E+00  0.14999999963E+04  0.15000000000E+04  0.10566000000E+00 0. -1.
        994   -1    0    0    0    0 -0.00000000000E+00 -0.00000000000E+00  0.11368683772E-12  0.17120000000E+03  0.17120000000E+03 0.  0.
         13    1    1    2    0    0 -0.39299225084E+01  0.15685440319E+02  0.50787900934E+02  0.53300087938E+02  0.10566000000E+00 0. -1.
        994    1    1    2    0    0  0.57430084930E+01 -0.16940457844E+02  0.35162911689E+01  0.17216784125E+03  0.17120000000E+03 0.  0.
        998    1    1    2    0    0 -0.18130859845E+01  0.12550175241E+01  0.14456958042E+04  0.14457320708E+04  0.10000000000E+02 0. -1.
</event>
<event>
 5    1  0.1757379E-008  0.3830947E+03  0.7957747E-01  0.3437793E+00
         13   -1    0    0    0    0  0.00000000000E+00  0.00000000000E+00  0.14999999963E+04  0.15000000000E+04  0.10566000000E+00 0.  1.
        994   -1    0    0    0    0 -0.00000000000E+00 -0.00000000000E+00  0.11368683772E-12  0.17120000000E+03  0.17120000000E+03 0.  0.
         13    1    1    2    0    0 -0.96999858749E+01  0.14705961910E+02  0.66253171873E+02  0.68555444634E+02  0.10566000000E+00 0.  1.
        994    1    1    2    0    0 -0.19600120012E+02 -0.22482087079E+01  0.38680449266E+01  0.17237639316E+03  0.17120000000E+03 0.  0.
        998    1    1    2    0    0  0.29300105887E+02 -0.12457753202E+02  0.14298787795E+04  0.14302681622E+04  0.10000000000E+02 0.  1.
</event>
<event>
 5    1  0.1757379E-008  0.3969478E+03  0.7957747E-01  0.3380528E+00
         13   -1    0    0    0    0  0.00000000000E+00  0.00000000000E+00  0.14999999963E+04  0.15000000000E+04  0.10566000000E+00 0.  1.
        994   -1    0    0    0    0 -0.00000000000E+00 -0.00000000000E+00  0.11368683772E-12  0.17120000000E+03  0.17120000000E+03 0.  0.
         13    1    1    2    0    0  0.58523204031E+02 -0.27366175923E+02  0.67613999079E+02  0.93517576050E+02  0.10566000000E+00 0.  1.
        994    1    1    2    0    0 -0.57089985689E+02  0.41557776228E+02  0.45515368319E+02  0.19070239638E+03  0.17120000000E+03 0.  0.
        998    1    1    2    0    0 -0.14332183414E+01 -0.14191600305E+02  0.13868706289E+04  0.13869800276E+04  0.10000000000E+02 0.  1.
</event>
<event>
 5    1  0.1757379E-008  0.3856310E+03  0.7957747E-01  0.3427000E+00
         13   -1    0    0    0    0  0.00000000000E+00  0.00000000000E+00  0.14999999963E+04  0.15000000000E+04  0.10566000000E+00 0.  1.
        994   -1    0    0    0    0 -0.00000000000E+00 -0.00000000000E+00  0.11368683772E-12  0.17120000000E+03  0.17120000000E+03 0.  0.
         13    1    1    2    0    0  0.96318080294E+01  0.53298415145E+01  0.44898162880E+02  0.46228077296E+02  0.10566000000E+00 0.  1.
        994    1    1    2    0    0 -0.10714668471E+02 -0.65773550338E+01  0.18360934000E+01  0.17167083899E+03  0.17120000000E+03 0.  0.
        998    1    1    2    0    0  0.10828604419E+01  0.12475135193E+01  0.14532657400E+04  0.14533010837E+04  0.10000000000E+02 0.  1.
</event>
<event>
 5    1  0.1757379E-008  0.3845880E+03  0.7957747E-01  0.3431421E+00
         13   -1    0    0    0    0  0.00000000000E+00  0.00000000000E+00  0.14999999963E+04  0.15000000000E+04  0.10566000000E+00 0.  1.
        994   -1    0    0    0    0 -0.00000000000E+00 -0.00000000000E+00  0.11368683772E-12  0.17120000000E+03  0.17120000000E+03 0.  0.
         13    1    1    2    0    0 -0.92413975406E+01  0.75175101724E+01  0.38889167409E+02  0.40673024150E+02  0.10566000000E+00 0.  1.
        994    1    1    2    0    0  0.49038399242E+01 -0.21061613380E+01  0.19286241919E+01  0.17129402544E+03  0.17120000000E+03 0.  0.
        998    1    1    2    0    0  0.43375576164E+01 -0.54113488344E+01  0.14591822047E+04  0.14592329504E+04  0.10000000000E+02 0.  1.
</event>
<event>
 5    1  0.1757379E-008  0.3854720E+03  0.7957747E-01  0.3427673E+00
         13   -1    0    0    0    0  0.00000000000E+00  0.00000000000E+00  0.14999999963E+04  0.15000000000E+04  0.10566000000E+00 0. -1.
        994   -1    0    0    0    0 -0.00000000000E+00 -0.00000000000E+00  0.11368683772E-12  0.17120000000E+03  0.17120000000E+03 0.  0.
         13    1    1    2    0    0 -0.12430867311E+02 -0.19064017583E+01  0.56914176945E+02  0.58287181533E+02  0.10566000000E+00 0. -1.
        994    1    1    2    0    0  0.78473028974E+01  0.40822514228E+01  0.16529533921E+01  0.17143633569E+03  0.17120000000E+03 0.  0.
        998    1    1    2    0    0  0.45835644139E+01 -0.21758496645E+01  0.14414328659E+04  0.14414764828E+04  0.10000000000E+02 0. -1.
</event>
<event>
 5    1  0.1757379E-008  0.3785400E+03  0.7957747E-01  0.3457540E+00
         13   -1    0    0    0    0  0.00000000000E+00  0.00000000000E+00  0.14999999963E+04  0.15000000000E+04  0.10566000000E+00 0. -1.
        994   -1    0    0    0    0 -0.00000000000E+00 -0.00000000000E+00  0.11368683772E-12  0.17120000000E+03  0.17120000000E+03 0.  0.
         13    1    1    2    0    0  0.22553587058E+02  0.84444577739E+01  0.62778337215E+02  0.67239154841E+02  0.10566000000E+00 0. -1.
        994    1    1    2    0    0  0.55375159235E+01  0.29009486764E+01  0.50032434181E+01  0.17138714080E+03  0.17120000000E+03 0.  0.
        998    1    1    2    0    0 -0.28091102981E+02 -0.11345406450E+02  0.14322184156E+04  0.14325737044E+04  0.10000000000E+02 0. -1.
</event>
<event>
 5    1  0.1757379E-008  0.3734989E+03  0.7957747E-01  0.3479963E+00
         13   -1    0    0    0    0  0.00000000000E+00  0.00000000000E+00  0.14999999963E+04  0.15000000000E+04  0.10566000000E+00 0. -1.
        994   -1    0    0    0    0 -0.00000000000E+00 -0.00000000000E+00  0.11368683772E-12  0.17120000000E+03  0.17120000000E+03 0.  0.
         13    1    1    2    0    0 -0.16542819027E+02 -0.24088996931E+02  0.28007688882E+02  0.40476986487E+02  0.10566000000E+00 0. -1.
        994    1    1    2    0    0  0.87264338321E+01  0.21974144324E+02  0.14782040769E+02  0.17345593791E+03  0.17120000000E+03 0.  0.
        998    1    1    2    0    0  0.78163851949E+01  0.21148526065E+01  0.14572102666E+04  0.14572670756E+04  0.10000000000E+02 0. -1.
</event>
<event>
 5    1  0.1757379E-008  0.3709739E+03  0.7957747E-01  0.3491427E+00
         13   -1    0    0    0    0  0.00000000000E+00  0.00000000000E+00  0.14999999963E+04  0.15000000000E+04  0.10566000000E+00 0.  1.
        994   -1    0    0    0    0 -0.00000000000E+00 -0.00000000000E+00  0.11368683772E-12  0.17120000000E+03  0.17120000000E+03 0.  0.
         13    1    1    2    0    0  0.39274808198E+02  0.14632640425E+02  0.12224446779E+03  0.12922981774E+03  0.10566000000E+00 0.  1.
        994    1    1    2    0    0  0.26622123102E+02  0.91782973606E+01  0.11498450918E+02  0.17388108855E+03  0.17120000000E+03 0.  0.
        998    1    1    2    0    0 -0.65896931301E+02 -0.23810937785E+02  0.13662570776E+04  0.13680890937E+04  0.10000000000E+02 0.  1.
</event>
<event>
 5    1  0.1757379E-008  0.3793144E+03  0.7957747E-01  0.3454149E+00
         13   -1    0    0    0    0  0.00000000000E+00  0.00000000000E+00  0.14999999963E+04  0.15000000000E+04  0.10566000000E+00 0. -1.
        994   -1    0    0    0    0 -0.00000000000E+00 -0.00000000000E+00  0.11368683772E-12  0.17120000000E+03  0.17120000000E+03 0.  0.
         13    1    1    2    0    0 -0.14494733107E+02  0.30906217509E+00  0.22343739518E+02  0.26635440056E+02  0.10566000000E+00 0. -1.
        994    1    1    2    0    0 -0.26958987140E+01 -0.99796835179E+01  0.48377357719E+01  0.17158002693E+03  0.17120000000E+03 0.  0.
        998    1    1    2    0    0  0.17190631821E+02  0.96706213428E+01  0.14728185210E+04  0.14729845330E+04  0.10000000000E+02 0. -1.
</event>
<event>
 5    1  0.1757379E-008  0.3829217E+03  0.7957747E-01  0.3438535E+00
         13   -1    0    0    0    0  0.00000000000E+00  0.00000000000E+00  0.14999999963E+04  0.15000000000E+04  0.10566000000E+00 0.  1.
        994   -1    0    0    0    0 -0.00000000000E+00 -0.00000000000E+00  0.11368683772E-12  0.17120000000E+03  0.17120000000E+03 0.  0.
         13    1    1    2    0    0 -0.55014418640E+01 -0.27022197572E+02  0.13429449037E+03  0.13709663136E+03  0.10566000000E+00 0.  1.
        994    1    1    2    0    0  0.28666278169E+01  0.24086509700E+02  0.46160463944E+01  0.17297145831E+03  0.17120000000E+03 0.  0.
        998    1    1    2    0    0  0.26348140471E+01  0.29356878717E+01  0.13610894595E+04  0.13611319103E+04  0.10000000000E+02 0.  1.
</event>
<event>
 5    1  0.1757379E-008  0.3855760E+03  0.7957747E-01  0.3427233E+00
         13   -1    0    0    0    0  0.00000000000E+00  0.00000000000E+00  0.14999999963E+04  0.15000000000E+04  0.10566000000E+00 0.  1.
        994   -1    0    0    0    0 -0.00000000000E+00 -0.00000000000E+00  0.11368683772E-12  0.17120000000E+03  0.17120000000E+03 0.  0.
         13    1    1    2    0    0 -0.77726490608E+01 -0.86680184097E+01  0.50893117991E+02  0.52207942302E+02  0.10566000000E+00 0.  1.
        994    1    1    2    0    0  0.66256962932E+01  0.36683559346E+01  0.15327350080E+01  0.17137428618E+03  0.17120000000E+03 0.  0.
        998    1    1    2    0    0  0.11469527675E+01  0.49996624751E+01  0.14475741433E+04  0.14476177715E+04  0.10000000000E+02 0.  1.
</event>
<event>
 5    1  0.1757379E-008  0.3855031E+03  0.7957747E-01  0.3427541E+00
         13   -1    0    0    0    0  0.00000000000E+00  0.00000000000E+00  0.14999999963E+04  0.15000000000E+04  0.10566000000E+00 0.  1.
        994   -1    0    0    0    0 -0.00000000000E+00 -0.00000000000E+00  0.11368683772E-12  0.17120000000E+03  0.17120000000E+03 0.  0.
         13    1    1    2    0    0 -0.12534167757E+02 -0.44125500176E+01  0.66335739211E+02  0.67653657844E+02  0.10566000000E+00 0.  1.
        994    1    1    2    0    0  0.28108203808E+01  0.49691479413E+01  0.14875631044E+01  0.17130162284E+03  0.17120000000E+03 0.  0.
        998    1    1    2    0    0  0.97233473762E+01 -0.55659792372E+00  0.14321766940E+04  0.14322447193E+04  0.10000000000E+02 0.  1.
</event>
<event>
 5    1  0.1757379E-008  0.3838597E+03  0.7957747E-01  0.3434523E+00
         13   -1    0    0    0    0  0.00000000000E+00  0.00000000000E+00  0.14999999963E+04  0.15000000000E+04  0.10566000000E+00 0. -1.
        994   -1    0    0    0    0 -0.00000000000E+00 -0.00000000000E+00  0.11368683772E-12  0.17120000000E+03  0.17120000000E+03 0.  0.
         13    1    1    2    0    0 -0.53311997574E+01  0.19930440099E+02  0.82204051743E+02  0.84753533380E+02  0.10566000000E+00 0. -1.
        994    1    1    2    0    0  0.46851306415E+02 -0.29816399477E+02  0.12444677820E+02  0.18041167533E+03  0.17120000000E+03 0.  0.
        998    1    1    2    0    0 -0.41520106657E+02  0.98859593784E+01  0.14053512667E+04  0.14060347913E+04  0.10000000000E+02 0. -1.
</event>
<event>
 5    1  0.1757379E-008  0.3803183E+03  0.7957747E-01  0.3449774E+00
         13   -1    0    0    0    0  0.00000000000E+00  0.00000000000E+00  0.14999999963E+04  0.15000000000E+04  0.10566000000E+00 0. -1.
        994   -1    0    0    0    0 -0.00000000000E+00 -0.00000000000E+00  0.11368683772E-12  0.17120000000E+03  0.17120000000E+03 0.  0.
         13    1    1    2    0    0 -0.34299342089E+02 -0.27487377800E+02  0.20394632582E+03  0.20862913455E+03  0.10566000000E+00 0. -1.
        994    1    1    2    0    0  0.36642206117E+02  0.31545344448E+02  0.11819069990E+02  0.17828878383E+03  0.17120000000E+03 0.  0.
        998    1    1    2    0    0 -0.23428640282E+01 -0.40579666481E+01  0.12842346005E+04  0.12842820816E+04  0.10000000000E+02 0. -1.
</event>
<event>
 5    1  0.1757379E-008  0.3832012E+03  0.7957747E-01  0.3437337E+00
         13   -1    0    0    0    0  0.00000000000E+00  0.00000000000E+00  0.14999999963E+04  0.15000000000E+04  0.10566000000E+00 0.  1.
        994   -1    0    0    0    0 -0.00000000000E+00 -0.00000000000E+00  0.11368683772E-12  0.17120000000E+03  0.17120000000E+03 0.  0.
         13    1    1    2    0    0 -0.36714516016E+02  0.85502422512E+00  0.20265685882E+03  0.20595752073E+03  0.10566000000E+00 0.  1.
        994    1    1    2    0    0  0.52141604643E+02 -0.16373987652E+02  0.12469684118E+02  0.18014379653E+03  0.17120000000E+03 0.  0.
        998    1    1    2    0    0 -0.15427088626E+02  0.15518963427E+02  0.12848734533E+04  0.12850986827E+04  0.10000000000E+02 0.  1.
</event>
<event>
 5    1  0.1757379E-008  0.3845189E+03  0.7957747E-01  0.3431715E+00
         13   -1    0    0    0    0  0.00000000000E+00  0.00000000000E+00  0.14999999963E+04  0.15000000000E+04  0.10566000000E+00 0. -1.
        994   -1    0    0    0    0 -0.00000000000E+00 -0.00000000000E+00  0.11368683772E-12  0.17120000000E+03  0.17120000000E+03 0.  0.
         13    1    1    2    0    0 -0.10034505672E+02  0.95707400455E+01  0.50886930932E+02  0.52742594484E+02  0.10566000000E+00 0. -1.
        994    1    1    2    0    0  0.69322597082E+01 -0.76274631871E+01  0.22191867717E+01  0.17152433999E+03  0.17120000000E+03 0.  0.
        998    1    1    2    0    0  0.31022459642E+01 -0.19432768584E+01  0.14468938786E+04  0.14469330655E+04  0.10000000000E+02 0. -1.
</event>
<event>
 5    1  0.1757379E-008  0.3839463E+03  0.7957747E-01  0.3434153E+00
         13   -1    0    0    0    0  0.00000000000E+00  0.00000000000E+00  0.14999999963E+04  0.15000000000E+04  0.10566000000E+00 0. -1.
        994   -1    0    0    0    0 -0.00000000000E+00 -0.00000000000E+00  0.11368683772E-12  0.17120000000E+03  0.17120000000E+03 0.  0.
         13    1    1    2    0    0  0.99785748432E+01 -0.12826712897E+02  0.58848090853E+02  0.61050843407E+02  0.10566000000E+00 0. -1.
        994    1    1    2    0    0 -0.19202246702E+02  0.66557860265E+01  0.35183022520E+01  0.17243794309E+03  0.17120000000E+03 0.  0.
        998    1    1    2    0    0  0.92236718584E+01  0.61709268700E+01  0.14376336032E+04  0.14377112135E+04  0.10000000000E+02 0. -1.
</event>
<event>
 5    1  0.1757379E-008  0.3787006E+03  0.7957747E-01  0.3456836E+00
         13   -1    0    0    0    0  0.00000000000E+00  0.00000000000E+00  0.14999999963E+04  0.15000000000E+04  0.10566000000E+00 0.  1.
        994   -1    0    0    0    0 -0.00000000000E+00 -0.00000000000E+00  0.11368683772E-12  0.17120000000E+03  0.17120000000E+03 0.  0.
         13    1    1    2    0    0  0.25467745167E+02 -0.19970253859E+02  0.19200473629E+03  0.19471324301E+03  0.10566000000E+00 0.  1.
        994    1    1    2    0    0  0.29191380250E+02 -0.54475294401E+02  0.17723300097E+02  0.18287495659E+03  0.17120000000E+03 0.  0.
        998    1    1    2    0    0 -0.54659125416E+02  0.74445548260E+02  0.12902719599E+04  0.12936118004E+04  0.10000000000E+02 0.  1.
</event>
<event>
 5    1  0.1757379E-008  0.3738326E+03  0.7957747E-01  0.3478460E+00
         13   -1    0    0    0    0  0.00000000000E+00  0.00000000000E+00  0.14999999963E+04  0.15000000000E+04  0.10566000000E+00 0.  1.
        994   -1    0    0    0    0 -0.00000000000E+00 -0.00000000000E+00  0.11368683772E-12  0.17120000000E+03  0.17120000000E+03 0.  0.
         13    1    1    2    0    0 -0.36360572740E+02  0.27438748611E+02  0.14652309539E+03  0.15344055794E+03  0.10566000000E+00 0.  1.
        994    1    1    2    0    0  0.21245116949E+02 -0.18082322739E+01  0.88324184118E+01  0.17274859280E+03  0.17120000000E+03 0.  0.
        998    1    1    2    0    0  0.15115455791E+02 -0.25630516337E+02  0.13446444825E+04  0.13450108493E+04  0.10000000000E+02 0.  1.
</event>
<event>
 5    1  0.1757379E-008  0.3857395E+03  0.7957747E-01  0.3426542E+00
         13   -1    0    0    0    0  0.00000000000E+00  0.00000000000E+00  0.14999999963E+04  0.15000000000E+04  0.10566000000E+00 0. -1.
        994   -1    0    0    0    0 -0.00000000000E+00 -0.00000000000E+00  0.11368683772E-12  0.17120000000E+03  0.17120000000E+03 0.  0.
         13    1    1    2    0    0 -0.16132294409E+02 -0.11243039620E+03  0.42015905723E+03  0.43524072586E+03  0.10566000000E+00 0. -1.
        994    1    1    2    0    0 -0.20885220794E+02  0.30740840097E+02  0.24645953396E+02  0.17691256235E+03  0.17120000000E+03 0.  0.
        998    1    1    2    0    0  0.37017515203E+02  0.81689556102E+02  0.10551949857E+04  0.10590467118E+04  0.10000000000E+02 0. -1.
</event>
<event>
 5    1  0.1757379E-008  0.3759143E+03  0.7957747E-01  0.3469144E+00
         13   -1    0    0    0    0  0.00000000000E+00  0.00000000000E+00  0.14999999963E+04  0.15000000000E+04  0.10566000000E+00 0. -1.
        994   -1    0    0    0    0 -0.00000000000E+00 -0.00000000000E+00  0.11368683772E-12  0.17120000000E+03  0.17120000000E+03 0.  0.
         13    1    1    2    0    0  0.27500704369E+02 -0.23047289211E+02  0.40564267302E+02  0.54156599104E+02  0.10566000000E+00 0. -1.
        994    1    1    2    0    0 -0.41207215786E+02 -0.17104694538E+02  0.21241544421E+02  0.17818879992E+03  0.17120000000E+03 0.  0.
        998    1    1    2    0    0  0.13706511417E+02  0.40151983749E+02  0.14381941846E+04  0.14388546010E+04  0.10000000000E+02 0. -1.
</event>
<event>
 5    1  0.1757379E-008  0.3869832E+03  0.7957747E-01  0.3421304E+00
         13   -1    0    0    0    0  0.00000000000E+00  0.00000000000E+00  0.14999999963E+04  0.15000000000E+04  0.10566000000E+00 0.  1.
        994   -1    0    0    0    0 -0.00000000000E+00 -0.00000000000E+00  0.11368683772E-12  0.17120000000E+03  0.17120000000E+03 0.  0.
         13    1    1    2    0    0 -0.14014306755E+01 -0.15199250396E+03  0.47852764791E+03  0.50208804631E+03  0.10566000000E+00 0.  1.
        994    1    1    2    0    0 -0.69299222547E+02  0.12074183256E+03  0.96459700733E+02  0.24082127448E+03  0.17120000000E+03 0.  0.
        998    1    1    2    0    0  0.70700653222E+02  0.31250671403E+02  0.92501264764E+03  0.92829067921E+03  0.10000000000E+02 0.  1.
</event>
<event>
 5    1  0.1757379E-008  0.3836961E+03  0.7957747E-01  0.3435221E+00
         13   -1    0    0    0    0  0.00000000000E+00  0.00000000000E+00  0.14999999963E+04  0.15000000000E+04  0.10566000000E+00 0.  1.
        994   -1    0    0    0    0 -0.00000000000E+00 -0.00000000000E+00  0.11368683772E-12  0.17120000000E+03  0.17120000000E+03 0.  0.
         13    1    1    2    0    0 -0.43629354511E+01  0.13327019703E+02  0.43440466940E+02  0.45647891429E+02  0.10566000000E+00 0.  1.
        994    1    1    2    0    0 -0.16628845671E+02 -0.10665869139E+02  0.35689097403E+01  0.17237301526E+03  0.17120000000E+03 0.  0.
        998    1    1    2    0    0  0.20991781122E+02 -0.26611505645E+01  0.14529906196E+04  0.14531790933E+04  0.10000000000E+02 0.  1.
</event>
<event>
 5    1  0.1757379E-008  0.3857355E+03  0.7957747E-01  0.3426559E+00
         13   -1    0    0    0    0  0.00000000000E+00  0.00000000000E+00  0.14999999963E+04  0.15000000000E+04  0.10566000000E+00 0. -1.
        994   -1    0    0    0    0 -0.00000000000E+00 -0.00000000000E+00  0.11368683772E-12  0.17120000000E+03  0.17120000000E+03 0.  0.
         13    1    1    2    0    0 -0.11219898248E+02 -0.48353313318E+01  0.60449346606E+02  0.61671721355E+02  0.10566000000E+00 0. -1.
        994    1    1    2    0    0  0.31438508741E+01  0.72808026097E+01  0.14718012499E+01  0.17138990660E+03  0.17120000000E+03 0.  0.
        998    1    1    2    0    0  0.80760473735E+01 -0.24454712779E+01  0.14380788484E+04  0.14381383720E+04  0.10000000000E+02 0. -1.
</event>
<event>
 5    1  0.1757379E-008  0.3828307E+03  0.7957747E-01  0.3438925E+00
         13   -1    0    0    0    0  0.00000000000E+00  0.00000000000E+00  0.14999999963E+04  0.15000000000E+04  0.10566000000E+00 0.  1.
        994   -1    0    0    0    0 -0.00000000000E+00 -0.00000000000E+00  0.11368683772E-12  0.17120000000E+03  0.17120000000E+03 0.  0.
         13    1    1    2    0    0 -0.70302814427E+01  0.10716303009E+02  0.28075871224E+02  0.30863080150E+02  0.10566000000E+00 0.  1.
        994    1    1    2    0    0  0.18285028936E+02 -0.13787864012E+02  0.44498486249E+01  0.17278219998E+03  0.17120000000E+03 0.  0.
        998    1    1    2    0    0 -0.11254747493E+02  0.30715610026E+01  0.14674742764E+04  0.14675547199E+04  0.10000000000E+02 0.  1.
</event>
<event>
 5    1  0.1757379E-008  0.3703202E+03  0.7957747E-01  0.3494421E+00
         13   -1    0    0    0    0  0.00000000000E+00  0.00000000000E+00  0.14999999963E+04  0.15000000000E+04  0.10566000000E+00 0. -1.
        994   -1    0    0    0    0 -0.00000000000E+00 -0.00000000000E+00  0.11368683772E-12  0.17120000000E+03  0.17120000000E+03 0.  0.
         13    1    1    2    0    0 -0.79712512473E+02 -0.27249016377E+02  0.30390111045E+03  0.31536088793E+03  0.10566000000E+00 0. -1.
        994    1    1    2    0    0  0.75964991498E+02  0.43593487737E+02  0.36083237460E+02  0.19565917339E+03  0.17120000000E+03 0.  0.
        998    1    1    2    0    0  0.37475209744E+01 -0.16344471359E+02  0.11600156484E+04  0.11601799387E+04  0.10000000000E+02 0. -1.
</event>
<event>
 5    1  0.1757379E-008  0.3807847E+03  0.7957747E-01  0.3447749E+00
         13   -1    0    0    0    0  0.00000000000E+00  0.00000000000E+00  0.14999999963E+04  0.15000000000E+04  0.10566000000E+00 0. -1.
        994   -1    0    0    0    0 -0.00000000000E+00 -0.00000000000E+00  0.11368683772E-12  0.17120000000E+03  0.17120000000E+03 0.  0.
         13    1    1    2    0    0  0.20472428381E+01  0.24617017562E+02  0.73366868608E+02  0.77413805812E+02  0.10566000000E+00 0. -1.
        994    1    1    2    0    0 -0.27971310356E+01 -0.35083036285E+02  0.78785559555E+01  0.17495758063E+03  0.17120000000E+03 0.  0.
        998    1    1    2    0    0  0.74988819755E+00  0.10466018723E+02  0.14187545717E+04  0.14188286136E+04  0.10000000000E+02 0. -1.
</event>
<event>
 5    1  0.1757379E-008  0.3807199E+03  0.7957747E-01  0.3448030E+00
         13   -1    0    0    0    0  0.00000000000E+00  0.00000000000E+00  0.14999999963E+04  0.15000000000E+04  0.10566000000E+00 0. -1.
        994   -1    0    0    0    0 -0.00000000000E+00 -0.00000000000E+00  0.11368683772E-12  0.17120000000E+03  0.17120000000E+03 0.  0.
         13    1    1    2    0    0 -0.58170629125E+02  0.49266186292E+02  0.14979947957E+03  0.16807996444E+03  0.10566000000E+00 0. -1.
        994    1    1    2    0    0  0.61908841018E+02 -0.50522916182E+02  0.40306737560E+02  0.19318214915E+03  0.17120000000E+03 0.  0.
        998    1    1    2    0    0 -0.37382118933E+01  0.12567298904E+01  0.13098937791E+04  0.13099378864E+04  0.10000000000E+02 0. -1.
</event>
<event>
 5    1  0.1757379E-008  0.3843563E+03  0.7957747E-01  0.3432407E+00
         13   -1    0    0    0    0  0.00000000000E+00  0.00000000000E+00  0.14999999963E+04  0.15000000000E+04  0.10566000000E+00 0. -1.
        994   -1    0    0    0    0 -0.00000000000E+00 -0.00000000000E+00  0.11368683772E-12  0.17120000000E+03  0.17120000000E+03 0.  0.
         13    1    1    2    0    0 -0.99679187651E+01 -0.15803092742E+02  0.10489291976E+03  0.10654404218E+03  0.10566000000E+00 0. -1.
        994    1    1    2    0    0 -0.80659082863E+01 -0.58884999576E+01  0.22788071994E+01  0.17150616977E+03  0.17120000000E+03 0.  0.
        998    1    1    2    0    0  0.18033827051E+02  0.21691592700E+02  0.13928282693E+04  0.13931497880E+04  0.10000000000E+02 0. -1.
</event>
<event>
 5    1  0.1757379E-008  0.3852941E+03  0.7957747E-01  0.3428426E+00
         13   -1    0    0    0    0  0.00000000000E+00  0.00000000000E+00  0.14999999963E+04  0.15000000000E+04  0.10566000000E+00 0.  1.
        994   -1    0    0    0    0 -0.00000000000E+00 -0.00000000000E+00  0.11368683772E-12  0.17120000000E+03  0.17120000000E+03 0.  0.
         13    1    1    2    0    0 -0.11866560372E+02 -0.11919366399E+02  0.96647516521E+02  0.98100153742E+02  0.10566000000E+00 0.  1.
        994    1    1    2    0    0  0.84153570102E+01  0.49546607732E+01  0.17975811333E+01  0.17148772025E+03  0.17120000000E+03 0.  0.
        998    1    1    2    0    0  0.34512033618E+01  0.69647056254E+01  0.14015548986E+04  0.14016121260E+04  0.10000000000E+02 0.  1.
</event>
<event>
 5    1  0.1757379E-008  0.3803245E+03  0.7957747E-01  0.3449747E+00
         13   -1    0    0    0    0  0.00000000000E+00  0.00000000000E+00  0.14999999963E+04  0.15000000000E+04  0.10566000000E+00 0. -1.
        994   -1    0    0    0    0 -0.00000000000E+00 -0.00000000000E+00  0.11368683772E-12  0.17120000000E+03  0.17120000000E+03 0.  0.
         13    1    1    2    0    0 -0.52101756779E+01  0.30651701607E+02  0.11437965635E+03  0.11853012145E+03  0.10566000000E+00 0. -1.
        994    1    1    2    0    0  0.72532052367E+01 -0.27086597786E+02  0.65995412854E+01  0.17360670123E+03  0.17120000000E+03 0.  0.
        998    1    1    2    0    0 -0.20430295588E+01 -0.35651038208E+01  0.13790207986E+04  0.13790631773E+04  0.10000000000E+02 0. -1.
</event>
<event>
 5    1  0.1757379E-008  0.3762672E+03  0.7957747E-01  0.3467575E+00
         13   -1    0    0    0    0  0.00000000000E+00  0.00000000000E+00  0.14999999963E+04  0.15000000000E+04  0.10566000000E+00 0.  1.
        994   -1    0    0    0    0 -0.00000000000E+00 -0.00000000000E+00  0.11368683772E-12  0.17120000000E+03  0.17120000000E+03 0.  0.
         13    1    1    2    0    0  0.21488005694E+02  0.26784218127E+02  0.90086168778E+02  0.96408805088E+02  0.10566000000E+00 0.  1.
        994    1    1    2    0    0 -0.11330331558E+02 -0.36371122336E+02  0.10957251594E+02  0.17572915613E+03  0.17120000000E+03 0.  0.
        998    1    1    2    0    0 -0.10157674137E+02  0.95869042088E+01  0.13989565759E+04  0.13990620388E+04  0.10000000000E+02 0.  1.
</event>
<event>
 5    1  0.1757379E-008  0.3837811E+03  0.7957747E-01  0.3434858E+00
         13   -1    0    0    0    0  0.00000000000E+00  0.00000000000E+00  0.14999999963E+04  0.15000000000E+04  0.10566000000E+00 0. -1.
        994   -1    0    0    0    0 -0.00000000000E+00 -0.00000000000E+00  0.11368683772E-12  0.17120000000E+03  0.17120000000E+03 0.  0.
         13    1    1    2    0    0 -0.39927213374E+01 -0.14829516564E+02  0.51474157737E+02  0.53716445005E+02  0.10566000000E+00 0. -1.
        994    1    1    2    0    0  0.77179640392E+01  0.11370590039E+02  0.28603060339E+01  0.17177449938E+03  0.17120000000E+03 0.  0.
        998    1    1    2    0    0 -0.37252427018E+01  0.34589265248E+01  0.14456655325E+04  0.14457090556E+04  0.10000000000E+02 0. -1.
</event>
<event>
 5    1  0.1757379E-008  0.3822893E+03  0.7957747E-01  0.3441251E+00
         13   -1    0    0    0    0  0.00000000000E+00  0.00000000000E+00  0.14999999963E+04  0.15000000000E+04  0.10566000000E+00 0.  1.
        994   -1    0    0    0    0 -0.00000000000E+00 -0.00000000000E+00  0.11368683772E-12  0.17120000000E+03  0.17120000000E+03 0.  0.
         13    1    1    2    0    0  0.79228125314E+01  0.89318221952E+01  0.22943726861E+02  0.25864535033E+02  0.10566000000E+00 0.  1.
        994    1    1    2    0    0 -0.78472439011E+01 -0.80156055475E+00  0.31884368214E+01  0.17141128278E+03  0.17120000000E+03 0.  0.
        998    1    1    2    0    0 -0.75568630280E-01 -0.81302616404E+01  0.14738678326E+04  0.14739241822E+04  0.10000000000E+02 0.  1.
</event>
<event>
 5    1  0.1757379E-008  0.3793761E+03  0.7957747E-01  0.3453879E+00
         13   -1    0    0    0    0  0.00000000000E+00  0.00000000000E+00  0.14999999963E+04  0.15000000000E+04  0.10566000000E+00 0. -1.
        994   -1    0    0    0    0 -0.00000000000E+00 -0.00000000000E+00  0.11368683772E-12  0.17120000000E+03  0.17120000000E+03 0.  0.
         13    1    1    2    0    0  0.64076973707E+02 -0.10487942248E+02  0.14398684015E+03  0.15794960207E+03  0.10566000000E+00 0. -1.
        994    1    1    2    0    0 -0.41291664756E+01  0.17427275612E+02  0.17145471223E+02  0.17298603162E+03  0.17120000000E+03 0.  0.
        998    1    1    2    0    0 -0.59947807231E+02 -0.69393333640E+01  0.13388676849E+04  0.13402643663E+04  0.10000000000E+02 0. -1.
</event>
<event>
 5    1  0.1757379E-008  0.3815545E+03  0.7957747E-01  0.3444418E+00
         13   -1    0    0    0    0  0.00000000000E+00  0.00000000000E+00  0.14999999963E+04  0.15000000000E+04  0.10566000000E+00 0. -1.
        994   -1    0    0    0    0 -0.00000000000E+00 -0.00000000000E+00  0.11368683772E-12  0.17120000000E+03  0.17120000000E+03 0.  0.
         13    1    1    2    0    0 -0.17962417396E+02 -0.17941302735E+01  0.48183812887E+02  0.51454429649E+02  0.10566000000E+00 0. -1.
        994    1    1    2    0    0  0.83938325339E+01 -0.31069227731E+01  0.36169979428E+01  0.17147195709E+03  0.17120000000E+03 0.  0.
        998    1    1    2    0    0  0.95685848618E+01  0.49010530466E+01  0.14481991854E+04  0.14482736133E+04  0.10000000000E+02 0. -1.
</event>
<event>
 5    1  0.1757379E-008  0.3802446E+03  0.7957747E-01  0.3450094E+00
         13   -1    0    0    0    0  0.00000000000E+00  0.00000000000E+00  0.14999999963E+04  0.15000000000E+04  0.10566000000E+00 0.  1.
        994   -1    0    0    0    0 -0.00000000000E+00 -0.00000000000E+00  0.11368683772E-12  0.17120000000E+03  0.17120000000E+03 0.  0.
         13    1    1    2    0    0 -0.85378259364E+01 -0.10891841539E+02  0.22722819753E+02  0.26605720915E+02  0.10566000000E+00 0.  1.
        994    1    1    2    0    0 -0.17050882264E+01  0.39084259078E+01  0.40704591991E+01  0.17130146455E+03  0.17120000000E+03 0.  0.
        998    1    1    2    0    0  0.10242914163E+02  0.69834156313E+01  0.14732067173E+04  0.14732928145E+04  0.10000000000E+02 0.  1.
</event>
<event>
 5    1  0.1757379E-008  0.3833360E+03  0.7957747E-01  0.3436760E+00
         13   -1    0    0    0    0  0.00000000000E+00  0.00000000000E+00  0.14999999963E+04  0.15000000000E+04  0.10566000000E+00 0.  1.
        994   -1    0    0    0    0 -0.00000000000E+00 -0.00000000000E+00  0.11368683772E-12  0.17120000000E+03  0.17120000000E+03 0.  0.
         13    1    1    2    0    0 -0.13954398559E+02  0.57387197906E+01  0.47889773290E+02  0.50210553610E+02  0.10566000000E+00 0.  1.
        994    1    1    2    0    0  0.13860731738E+01  0.51140637597E+01  0.25513533496E+01  0.17130097563E+03  0.17120000000E+03 0.  0.
        998    1    1    2    0    0  0.12568325385E+02 -0.10852783550E+02  0.14495588696E+04  0.14496884708E+04  0.10000000000E+02 0.  1.
</event>
<event>
 5    1  0.1757379E-008  0.3791664E+03  0.7957747E-01  0.3454796E+00
         13   -1    0    0    0    0  0.00000000000E+00  0.00000000000E+00  0.14999999963E+04  0.15000000000E+04  0.10566000000E+00 0. -1.
        994   -1    0    0    0    0 -0.00000000000E+00 -0.00000000000E+00  0.11368683772E-12  0.17120000000E+03  0.17120000000E+03 0.  0.
         13    1    1    2    0    0  0.35673314830E+01 -0.26788246454E+02  0.76914105522E+02  0.81523780545E+02  0.10566000000E+00 0. -1.
        994    1    1    2    0    0 -0.64885990725E+01  0.20987207964E+02  0.61738310982E+01  0.17271398613E+03  0.17120000000E+03 0.  0.
        998    1    1    2    0    0  0.29212675895E+01  0.58010384900E+01  0.14169120597E+04  0.14169622333E+04  0.10000000000E+02 0. -1.
</event>
<event>
 5    1  0.1757379E-008  0.3857820E+03  0.7957747E-01  0.3426362E+00
         13   -1    0    0    0    0  0.00000000000E+00  0.00000000000E+00  0.14999999963E+04  0.15000000000E+04  0.10566000000E+00 0.  1.
        994   -1    0    0    0    0 -0.00000000000E+00 -0.00000000000E+00  0.11368683772E-12  0.17120000000E+03  0.17120000000E+03 0.  0.
         13    1    1    2    0    0  0.39230277915E+01 -0.13253566290E+02  0.71410080426E+02  0.72735534074E+02  0.10566000000E+00 0.  1.
        994    1    1    2    0    0 -0.94908556409E+01  0.18243406369E+02  0.26308591026E+01  0.17245074554E+03  0.17120000000E+03 0.  0.
        998    1    1    2    0    0  0.55678278494E+01 -0.49898400782E+01  0.14259590567E+04  0.14260137204E+04  0.10000000000E+02 0.  1.
</event>
<event>
 5    1  0.1757379E-008  0.3790990E+03  0.7957747E-01  0.3455091E+00
         13   -1    0    0    0    0  0.00000000000E+00  0.00000000000E+00  0.14999999963E+04  0.15000000000E+04  0.10566000000E+00 0.  1.
        994   -1    0    0    0    0 -0.00000000000E+00 -0.00000000000E+00  0.11368683772E-12  0.17120000000E+03  0.17120000000E+03 0.  0.
         13    1    1    2    0    0  0.14573797698E+02  0.19457367775E+01  0.21995690535E+02  0.26457570506E+02  0.10566000000E+00 0.  1.
        994    1    1    2    0    0 -0.33279245994E+01 -0.66967701743E+01  0.47761889802E+01  0.17142979261E+03  0.17120000000E+03 0.  0.
        998    1    1    2    0    0 -0.11245873099E+02  0.47510333967E+01  0.14732281168E+04  0.14733126369E+04  0.10000000000E+02 0.  1.
</event>
<event>
 5    1  0.1757379E-008  0.3967575E+03  0.7957747E-01  0.3381288E+00
         13   -1    0    0    0    0  0.00000000000E+00  0.00000000000E+00  0.14999999963E+04  0.15000000000E+04  0.10566000000E+00 0.  1.
        994   -1    0    0    0    0 -0.00000000000E+00 -0.00000000000E+00  0.11368683772E-12  0.17120000000E+03  0.17120000000E+03 0.  0.
         13    1    1    2    0    0 -0.91359303619E+02  0.27097751927E+02  0.20906789431E+03  0.22976119366E+03  0.10566000000E+00 0.  1.
        994    1    1    2    0    0  0.17920143314E+02  0.40815250043E+02  0.33570508789E+02  0.18006508610E+03  0.17120000000E+03 0.  0.
        998    1    1    2    0    0  0.73439160304E+02 -0.67913001970E+02  0.12573615932E+04  0.12613737202E+04  0.10000000000E+02 0. -1.
</event>
<event>
 5    1  0.1757379E-008  0.2873343E+03  0.7957747E-01  0.3990807E+00
         13   -1    0    0    0    0  0.00000000000E+00  0.00000000000E+00  0.14999999963E+04  0.15000000000E+04  0.10566000000E+00 0.  1.
        994   -1    0    0    0    0 -0.00000000000E+00 -0.00000000000E+00  0.11368683772E-12  0.17120000000E+03  0.17120000000E+03 0.  0.
         13    1    1    2    0    0 -0.13174866429E+03 -0.83380924820E+02  0.60981188206E+03  0.62942881395E+03  0.10566000000E+00 0.  1.
        994    1    1    2    0    0  0.12051530491E+03  0.79211005257E+02  0.89732103688E+02  0.24116304133E+03  0.17120000000E+03 0.  0.
        998    1    1    2    0    0  0.11233359381E+02  0.41699195631E+01  0.80045601053E+03  0.80060814471E+03  0.10000000000E+02 0.  1.
</event>
<event>
 5    1  0.1757379E-008  0.3781452E+03  0.7957747E-01  0.3459275E+00
         13   -1    0    0    0    0  0.00000000000E+00  0.00000000000E+00  0.14999999963E+04  0.15000000000E+04  0.10566000000E+00 0. -1.
        994   -1    0    0    0    0 -0.00000000000E+00 -0.00000000000E+00  0.11368683772E-12  0.17120000000E+03  0.17120000000E+03 0.  0.
         13    1    1    2    0    0  0.26965828615E+02 -0.92300530087E+01  0.73893521926E+02  0.79199832943E+02  0.10566000000E+00 0. -1.
        994    1    1    2    0    0 -0.25386093447E+02  0.24089052373E+02  0.92028661409E+01  0.17498248178E+03  0.17120000000E+03 0.  0.
        998    1    1    2    0    0 -0.15797351679E+01 -0.14858999365E+02  0.14169036082E+04  0.14170176853E+04  0.10000000000E+02 0. -1.
</event>
<event>
 5    1  0.1757379E-008  0.3839730E+03  0.7957747E-01  0.3434040E+00
         13   -1    0    0    0    0  0.00000000000E+00  0.00000000000E+00  0.14999999963E+04  0.15000000000E+04  0.10566000000E+00 0. -1.
        994   -1    0    0    0    0 -0.00000000000E+00 -0.00000000000E+00  0.11368683772E-12  0.17120000000E+03  0.17120000000E+03 0.  0.
         13    1    1    2    0    0  0.10097358097E+02  0.18536675573E+02  0.10498137284E+03  0.10708251393E+03  0.10566000000E+00 0. -1.
        994    1    1    2    0    0 -0.89950500399E+01 -0.80650579125E+01  0.26226387859E+01  0.17164578153E+03  0.17120000000E+03 0.  0.
        998    1    1    2    0    0 -0.11023080569E+01 -0.10471617660E+02  0.13923959847E+04  0.13924717045E+04  0.10000000000E+02 0. -1.
</event>
<event>
 5    1  0.1757379E-008  0.3725156E+03  0.7957747E-01  0.3484409E+00
         13   -1    0    0    0    0  0.00000000000E+00  0.00000000000E+00  0.14999999963E+04  0.15000000000E+04  0.10566000000E+00 0. -1.
        994   -1    0    0    0    0 -0.00000000000E+00 -0.00000000000E+00  0.11368683772E-12  0.17120000000E+03  0.17120000000E+03 0.  0.
         13    1    1    2    0    0 -0.43019998615E+02 -0.37302152922E+02  0.17629476295E+03  0.18526204550E+03  0.10566000000E+00 0. -1.
        994    1    1    2    0    0  0.45745461528E+02  0.37302998372E+02  0.19999539753E+02  0.18219106051E+03  0.17120000000E+03 0.  0.
        998    1    1    2    0    0 -0.27254629128E+01 -0.84544993533E-03  0.13037056936E+04  0.13037468940E+04  0.10000000000E+02 0. -1.
</event>
<event>
 5    1  0.1757379E-008  0.3828812E+03  0.7957747E-01  0.3438708E+00
         13   -1    0    0    0    0  0.00000000000E+00  0.00000000000E+00  0.14999999963E+04  0.15000000000E+04  0.10566000000E+00 0. -1.
        994   -1    0    0    0    0 -0.00000000000E+00 -0.00000000000E+00  0.11368683772E-12  0.17120000000E+03  0.17120000000E+03 0.  0.
         13    1    1    2    0    0  0.12439803758E+02 -0.64028892683E+01  0.36712624781E+02  0.39288340394E+02  0.10566000000E+00 0. -1.
        994    1    1    2    0    0  0.16925737764E+01  0.61167456382E+01  0.28191404496E+01  0.17134079180E+03  0.17120000000E+03 0.  0.
        998    1    1    2    0    0 -0.14132377534E+02  0.28614363011E+00  0.14604682310E+04  0.14605708678E+04  0.10000000000E+02 0. -1.
</event>
<event>
 5    1  0.1757379E-008  0.3714392E+03  0.7957747E-01  0.3489303E+00
         13   -1    0    0    0    0  0.00000000000E+00  0.00000000000E+00  0.14999999963E+04  0.15000000000E+04  0.10566000000E+00 0.  1.
        994   -1    0    0    0    0 -0.00000000000E+00 -0.00000000000E+00  0.11368683772E-12  0.17120000000E+03  0.17120000000E+03 0.  0.
         13    1    1    2    0    0 -0.11490091114E+02 -0.75287086826E+02  0.32967516258E+03  0.33835763864E+03  0.10566000000E+00 0.  1.
        994    1    1    2    0    0  0.33687367358E+02  0.43450814587E+02  0.18991712955E+02  0.18081188337E+03  0.17120000000E+03 0.  0.
        998    1    1    2    0    0 -0.22197276245E+02  0.31836272239E+02  0.11513331207E+04  0.11520304780E+04  0.10000000000E+02 0.  1.
</event>
<event>
 5    1  0.1757379E-008  0.3750484E+03  0.7957747E-01  0.3473006E+00
         13   -1    0    0    0    0  0.00000000000E+00  0.00000000000E+00  0.14999999963E+04  0.15000000000E+04  0.10566000000E+00 0. -1.
        994   -1    0    0    0    0 -0.00000000000E+00 -0.00000000000E+00  0.11368683772E-12  0.17120000000E+03  0.17120000000E+03 0.  0.
         13    1    1    2    0    0  0.56617133577E+02  0.33142937005E+02  0.28034723116E+03  0.28792105735E+03  0.10566000000E+00 0. -1.
        994    1    1    2    0    0 -0.47461203451E+02 -0.31025718401E+02  0.17660590502E+02  0.18120843659E+03  0.17120000000E+03 0.  0.
        998    1    1    2    0    0 -0.91559301258E+01 -0.21172186036E+01  0.12019921746E+04  0.12020705061E+04  0.10000000000E+02 0. -1.
</event>
<event>
 5    1  0.1757379E-008  0.3813185E+03  0.7957747E-01  0.3445437E+00
         13   -1    0    0    0    0  0.00000000000E+00  0.00000000000E+00  0.14999999963E+04  0.15000000000E+04  0.10566000000E+00 0. -1.
        994   -1    0    0    0    0 -0.00000000000E+00 -0.00000000000E+00  0.11368683772E-12  0.17120000000E+03  0.17120000000E+03 0.  0.
         13    1    1    2    0    0 -0.82539552802E+01  0.30974734406E+02  0.13456104008E+03  0.13832659404E+03  0.10566000000E+00 0. -1.
        994    1    1    2    0    0  0.13473943623E+02 -0.30432871878E+02  0.71647270155E+01  0.17455222760E+03  0.17120000000E+03 0.  0.
        998    1    1    2    0    0 -0.52199883431E+01 -0.54186252798E+00  0.13582742292E+04  0.13583211784E+04  0.10000000000E+02 0. -1.
</event>
<event>
 5    1  0.1757379E-008  0.3783909E+03  0.7957747E-01  0.3458195E+00
         13   -1    0    0    0    0  0.00000000000E+00  0.00000000000E+00  0.14999999963E+04  0.15000000000E+04  0.10566000000E+00 0. -1.
        994   -1    0    0    0    0 -0.00000000000E+00 -0.00000000000E+00  0.11368683772E-12  0.17120000000E+03  0.17120000000E+03 0.  0.
         13    1    1    2    0    0  0.24294069090E+02  0.32589931347E+02  0.15803129501E+03  0.16317538658E+03  0.10566000000E+00 0. -1.
        994    1    1    2    0    0 -0.87690558758E+01 -0.32711029284E+02  0.88117819579E+01  0.17473979306E+03  0.17120000000E+03 0.  0.
        998    1    1    2    0    0 -0.15525013214E+02  0.12109793642E+00  0.13331569193E+04  0.13332848204E+04  0.10000000000E+02 0. -1.
</event>
<event>
 5    1  0.1757379E-008  0.3841812E+03  0.7957747E-01  0.3433152E+00
         13   -1    0    0    0    0  0.00000000000E+00  0.00000000000E+00  0.14999999963E+04  0.15000000000E+04  0.10566000000E+00 0.  1.
        994   -1    0    0    0    0 -0.00000000000E+00 -0.00000000000E+00  0.11368683772E-12  0.17120000000E+03  0.17120000000E+03 0.  0.
         13    1    1    2    0    0 -0.10160420903E+02 -0.82438726831E+01  0.39379143206E+02  0.41496068169E+02  0.10566000000E+00 0.  1.
        994    1    1    2    0    0  0.15730301661E+02  0.13680321429E+02  0.34715427365E+01  0.17249952230E+03  0.17120000000E+03 0.  0.
        998    1    1    2    0    0 -0.55698807582E+01 -0.54364487457E+01  0.14571493103E+04  0.14572044095E+04  0.10000000000E+02 0.  1.
</event>
<event>
 5    1  0.1757379E-008  0.3823565E+03  0.7957747E-01  0.3440962E+00
         13   -1    0    0    0    0  0.00000000000E+00  0.00000000000E+00  0.14999999963E+04  0.15000000000E+04  0.10566000000E+00 0. -1.
        994   -1    0    0    0    0 -0.00000000000E+00 -0.00000000000E+00  0.11368683772E-12  0.17120000000E+03  0.17120000000E+03 0.  0.
         13    1    1    2    0    0  0.49846855592E+01 -0.27555441706E+02  0.11841857085E+03  0.12168450412E+03  0.10566000000E+00 0. -1.
        994    1    1    2    0    0 -0.70112941428E+01  0.33212619392E+02  0.67798002881E+01  0.17466436965E+03  0.17120000000E+03 0.  0.
        998    1    1    2    0    0  0.20266085836E+01 -0.56571776862E+01  0.13748016251E+04  0.13748511262E+04  0.10000000000E+02 0. -1.
</event>
<event>
 5    1  0.2792214E-008  0.3839357E+03  0.7957747E-01  0.3434199E+00
         13   -1    0    0    0    0  0.00000000000E+00  0.00000000000E+00  0.14999999963E+04  0.15000000000E+04  0.10566000000E+00 0.  1.
        994   -1    0    0    0    0 -0.00000000000E+00 -0.00000000000E+00  0.11368683772E-12  0.17120000000E+03  0.17120000000E+03 0.  0.
         13    1    1    2    0    0  0.66952071042E+01 -0.79415349442E+01  0.24052215396E+02  0.26199503907E+02  0.10566000000E+00 0.  1.
        994    1    1    2    0    0 -0.54760797702E+01  0.87601897265E+01  0.25117651695E+01  0.17152981472E+03  0.17120000000E+03 0.  0.
        998    1    1    2    0    0 -0.12191273340E+01 -0.81865478228E+00  0.14734360157E+04  0.14734706814E+04  0.10000000000E+02 0.  1.
</event>
<event>
 5    1  0.1757379E-008  0.3718041E+03  0.7957747E-01  0.3487640E+00
         13   -1    0    0    0    0  0.00000000000E+00  0.00000000000E+00  0.14999999963E+04  0.15000000000E+04  0.10566000000E+00 0.  1.
        994   -1    0    0    0    0 -0.00000000000E+00 -0.00000000000E+00  0.11368683772E-12  0.17120000000E+03  0.17120000000E+03 0.  0.
         13    1    1    2    0    0  0.65954565928E+01  0.30937071886E+02  0.61019054909E+02  0.68730915101E+02  0.10566000000E+00 0.  1.
        994    1    1    2    0    0 -0.16604278922E+02  0.49581688576E+01  0.93616423167E+01  0.17232923682E+03  0.17120000000E+03 0.  0.
        998    1    1    2    0    0  0.10008822329E+02 -0.35895240744E+02  0.14296192991E+04  0.14301398481E+04  0.10000000000E+02 0.  1.
</event>
<event>
 5    1  0.1757379E-008  0.3691293E+03  0.7957747E-01  0.3499902E+00
         13   -1    0    0    0    0  0.00000000000E+00  0.00000000000E+00  0.14999999963E+04  0.15000000000E+04  0.10566000000E+00 0. -1.
        994   -1    0    0    0    0 -0.00000000000E+00 -0.00000000000E+00  0.11368683772E-12  0.17120000000E+03  0.17120000000E+03 0.  0.
         13    1    1    2    0    0 -0.22507207360E+02  0.36433852985E+02  0.78908009289E+02  0.89780204503E+02  0.10566000000E+00 0. -1.
        994    1    1    2    0    0  0.20406737698E+02 -0.41208853145E+02  0.17885832356E+02  0.17816831233E+03  0.17120000000E+03 0.  0.
        998    1    1    2    0    0  0.21004696623E+01  0.47750001606E+01  0.14032061546E+04  0.14032514832E+04  0.10000000000E+02 0. -1.
</event>
<event>
 5    1  0.1757379E-008  0.3832098E+03  0.7957747E-01  0.3437300E+00
         13   -1    0    0    0    0  0.00000000000E+00  0.00000000000E+00  0.14999999963E+04  0.15000000000E+04  0.10566000000E+00 0.  1.
        994   -1    0    0    0    0 -0.00000000000E+00 -0.00000000000E+00  0.11368683772E-12  0.17120000000E+03  0.17120000000E+03 0.  0.
         13    1    1    2    0    0  0.37055943488E+01  0.16297863736E+02  0.54493623381E+02  0.56999280215E+02  0.10566000000E+00 0.  1.
        994    1    1    2    0    0  0.14468621599E+01 -0.12305849225E+02  0.30295750310E+01  0.17167453410E+03  0.17120000000E+03 0.  0.
        998    1    1    2    0    0 -0.51524565087E+01 -0.39920145115E+01  0.14424767979E+04  0.14425261857E+04  0.10000000000E+02 0.  1.
</event>
<event>
 5    1  0.1757379E-008  0.3853143E+03  0.7957747E-01  0.3428340E+00
         13   -1    0    0    0    0  0.00000000000E+00  0.00000000000E+00  0.14999999963E+04  0.15000000000E+04  0.10566000000E+00 0.  1.
        994   -1    0    0    0    0 -0.00000000000E+00 -0.00000000000E+00  0.11368683772E-12  0.17120000000E+03  0.17120000000E+03 0.  0.
         13    1    1    2    0    0  0.20894428608E+01  0.16718461554E+02  0.10189218210E+03  0.10327584745E+03  0.10566000000E+00 0.  1.
        994    1    1    2    0    0  0.14432320695E+01 -0.46733165644E+01  0.15527655499E+01  0.17127689245E+03  0.17120000000E+03 0.  0.
        998    1    1    2    0    0 -0.35326749303E+01 -0.12045144990E+02  0.13965550486E+04  0.13966472601E+04  0.10000000000E+02 0.  1.
</event>
<event>
 5    1  0.1757379E-008  0.3854647E+03  0.7957747E-01  0.3427704E+00
         13   -1    0    0    0    0  0.00000000000E+00  0.00000000000E+00  0.14999999963E+04  0.15000000000E+04  0.10566000000E+00 0.  1.
        994   -1    0    0    0    0 -0.00000000000E+00 -0.00000000000E+00  0.11368683772E-12  0.17120000000E+03  0.17120000000E+03 0.  0.
         13    1    1    2    0    0 -0.32304861846E+01  0.10510786464E+02  0.47127545069E+02  0.48393484493E+02  0.10566000000E+00 0.  1.
        994    1    1    2    0    0  0.15975039528E+02  0.11622242149E+02  0.26822245018E+01  0.17235693409E+03  0.17120000000E+03 0.  0.
        998    1    1    2    0    0 -0.12744553343E+02 -0.22133028614E+02  0.14501902267E+04  0.14504495814E+04  0.10000000000E+02 0.  1.
</event>
<event>
 5    1  0.1757379E-008  0.3740005E+03  0.7957747E-01  0.3477705E+00
         13   -1    0    0    0    0  0.00000000000E+00  0.00000000000E+00  0.14999999963E+04  0.15000000000E+04  0.10566000000E+00 0. -1.
        994   -1    0    0    0    0 -0.00000000000E+00 -0.00000000000E+00  0.11368683772E-12  0.17120000000E+03  0.17120000000E+03 0.  0.
         13    1    1    2    0    0  0.14266251839E+01  0.64525365118E+02  0.34260565468E+03  0.34863190299E+03  0.10566000000E+00 0. -1.
        994    1    1    2    0    0  0.10713515857E+02 -0.15747841466E+02  0.84311759157E+01  0.17246245580E+03  0.17120000000E+03 0.  0.
        998    1    1    2    0    0 -0.12140141041E+02 -0.48777523652E+02  0.11489631657E+04  0.11501056412E+04  0.10000000000E+02 0. -1.
</event>
<event>
 5    1  0.1757379E-008  0.2443150E+03  0.7957747E-01  0.4396365E+00
         13   -1    0    0    0    0  0.00000000000E+00  0.00000000000E+00  0.14999999963E+04  0.15000000000E+04  0.10566000000E+00 0. -1.
        994   -1    0    0    0    0 -0.00000000000E+00 -0.00000000000E+00  0.11368683772E-12  0.17120000000E+03  0.17120000000E+03 0.  0.
         13    1    1    2    0    0 -0.76155488078E+02 -0.14407905589E+03  0.28454709802E+03  0.32791080322E+03  0.10566000000E+00 0. -1.
        994    1    1    2    0    0  0.70230169083E+02  0.13574715133E+03  0.14228492499E+03  0.27002593509E+03  0.17120000000E+03 0.  0.
        998    1    1    2    0    0  0.59253189947E+01  0.83319045649E+01  0.10731679733E+04  0.10732632617E+04  0.10000000000E+02 0. -1.
</event>
<event>
 5    1  0.1757379E-008  0.3829619E+03  0.7957747E-01  0.3438362E+00
         13   -1    0    0    0    0  0.00000000000E+00  0.00000000000E+00  0.14999999963E+04  0.15000000000E+04  0.10566000000E+00 0.  1.
        994   -1    0    0    0    0 -0.00000000000E+00 -0.00000000000E+00  0.11368683772E-12  0.17120000000E+03  0.17120000000E+03 0.  0.
         13    1    1    2    0    0 -0.13784215458E+02  0.91750424479E+01  0.50487658327E+02  0.53133800985E+02  0.10566000000E+00 0.  1.
        994    1    1    2    0    0  0.90912601927E+01 -0.10259966524E+02  0.32677647861E+01  0.17177903310E+03  0.17120000000E+03 0.  0.
        998    1    1    2    0    0  0.46929552658E+01  0.10849240759E+01  0.14462445732E+04  0.14462871659E+04  0.10000000000E+02 0.  1.
</event>
<event>
 5    1  0.1757379E-008  0.3852200E+03  0.7957747E-01  0.3428740E+00
         13   -1    0    0    0    0  0.00000000000E+00  0.00000000000E+00  0.14999999963E+04  0.15000000000E+04  0.10566000000E+00 0.  1.
        994   -1    0    0    0    0 -0.00000000000E+00 -0.00000000000E+00  0.11368683772E-12  0.17120000000E+03  0.17120000000E+03 0.  0.
         13    1    1    2    0    0  0.11287973162E+02  0.24432221643E+01  0.43923136914E+02  0.45416305365E+02  0.10566000000E+00 0.  1.
        994    1    1    2    0    0 -0.79104854859E+01  0.10300498851E+01  0.17300996547E+01  0.17139448657E+03  0.17120000000E+03 0.  0.
        998    1    1    2    0    0 -0.33774876763E+01 -0.34732720494E+01  0.14543467597E+04  0.14543892081E+04  0.10000000000E+02 0.  1.
</event>
<event>
 5    1  0.1757379E-008  0.3860924E+03  0.7957747E-01  0.3425052E+00
         13   -1    0    0    0    0  0.00000000000E+00  0.00000000000E+00  0.14999999963E+04  0.15000000000E+04  0.10566000000E+00 0.  1.
        994   -1    0    0    0    0 -0.00000000000E+00 -0.00000000000E+00  0.11368683772E-12  0.17120000000E+03  0.17120000000E+03 0.  0.
         13    1    1    2    0    0  0.58869832268E+01  0.81162233643E+01  0.46756483297E+02  0.47819551938E+02  0.10566000000E+00 0.  1.
        994    1    1    2    0    0 -0.55952784117E+01 -0.44015266919E+01  0.12548274052E+01  0.17135254643E+03  0.17120000000E+03 0.  0.
        998    1    1    2    0    0 -0.29170481508E+00 -0.37146966723E+01  0.14519886856E+04  0.14520279016E+04  0.10000000000E+02 0.  1.
</event>
<event>
 5    1  0.1757379E-008  0.3755781E+03  0.7957747E-01  0.3470641E+00
         13   -1    0    0    0    0  0.00000000000E+00  0.00000000000E+00  0.14999999963E+04  0.15000000000E+04  0.10566000000E+00 0. -1.
        994   -1    0    0    0    0 -0.00000000000E+00 -0.00000000000E+00  0.11368683772E-12  0.17120000000E+03  0.17120000000E+03 0.  0.
         13    1    1    2    0    0  0.34039507535E+01 -0.53324723398E+02  0.25721326697E+03  0.26270475610E+03  0.10566000000E+00 0. -1.
        994    1    1    2    0    0 -0.13864504871E+02  0.93035551396E+01  0.73285166825E+01  0.17216831239E+03  0.17120000000E+03 0.  0.
        998    1    1    2    0    0  0.10460554117E+02  0.44021168259E+02  0.12354582126E+04  0.12363269315E+04  0.10000000000E+02 0. -1.
</event>
<event>
 5    1  0.1757379E-008  0.3730965E+03  0.7957747E-01  0.3481780E+00
         13   -1    0    0    0    0  0.00000000000E+00  0.00000000000E+00  0.14999999963E+04  0.15000000000E+04  0.10566000000E+00 0. -1.
        994   -1    0    0    0    0 -0.00000000000E+00 -0.00000000000E+00  0.11368683772E-12  0.17120000000E+03  0.17120000000E+03 0.  0.
         13    1    1    2    0    0 -0.10302655110E+02 -0.72321516000E+01  0.68249802828E+01  0.14319226200E+02  0.10566000000E+00 0. -1.
        994    1    1    2    0    0  0.98960060500E+01  0.46685758738E+01  0.80691594837E+01  0.17173898180E+03  0.17120000000E+03 0.  0.
        998    1    1    2    0    0  0.40664906005E+00  0.25635757262E+01  0.14851058565E+04  0.14851417920E+04  0.10000000000E+02 0. -1.
</event>
<event>
 5    1  0.1757379E-008  0.3719432E+03  0.7957747E-01  0.3487008E+00
         13   -1    0    0    0    0  0.00000000000E+00  0.00000000000E+00  0.14999999963E+04  0.15000000000E+04  0.10566000000E+00 0. -1.
        994   -1    0    0    0    0 -0.00000000000E+00 -0.00000000000E+00  0.11368683772E-12  0.17120000000E+03  0.17120000000E+03 0.  0.
         13    1    1    2    0    0 -0.85926090185E+02  0.36740958623E+01  0.33680264897E+03  0.34761016595E+03  0.10566000000E+00 0. -1.
        994    1    1    2    0    0  0.88141104443E+02 -0.66770680570E+01  0.35590586208E+02  0.19593255818E+03  0.17120000000E+03 0.  0.
        998    1    1    2    0    0 -0.22150142582E+01  0.30029721947E+01  0.11276067611E+04  0.11276572759E+04  0.10000000000E+02 0.  0.
</event>
<event>
 5    1  0.1757379E-008  0.3722202E+03  0.7957747E-01  0.3485749E+00
         13   -1    0    0    0    0  0.00000000000E+00  0.00000000000E+00  0.14999999963E+04  0.15000000000E+04  0.10566000000E+00 0.  1.
        994   -1    0    0    0    0 -0.00000000000E+00 -0.00000000000E+00  0.11368683772E-12  0.17120000000E+03  0.17120000000E+03 0.  0.
         13    1    1    2    0    0 -0.13663048175E+02  0.46800031262E+01  0.10054359869E+02  0.17597801883E+02  0.10566000000E+00 0.  1.
        994    1    1    2    0    0 -0.26228592178E+02  0.13739639185E+02  0.11127457394E+02  0.17409760780E+03  0.17120000000E+03 0.  0.
        998    1    1    2    0    0  0.39891640352E+02 -0.18419642311E+02  0.14788181790E+04  0.14795045903E+04  0.10000000000E+02 0.  1.
</event>
<event>
 5    1  0.1757379E-008  0.3975015E+03  0.7957747E-01  0.3378323E+00
         13   -1    0    0    0    0  0.00000000000E+00  0.00000000000E+00  0.14999999963E+04  0.15000000000E+04  0.10566000000E+00 0.  1.
        994   -1    0    0    0    0 -0.00000000000E+00 -0.00000000000E+00  0.11368683772E-12  0.17120000000E+03  0.17120000000E+03 0.  0.
         13    1    1    2    0    0 -0.42829017046E+02  0.10960788403E+03  0.38777284614E+03  0.40523573918E+03  0.10566000000E+00 0.  1.
        994    1    1    2    0    0 -0.14382545651E+03 -0.76632811251E+02  0.13858973788E+03  0.27399800208E+03  0.17120000000E+03 0.  0.
        998    1    1    2    0    0  0.18665447355E+03 -0.32975072775E+02  0.97363741226E+03  0.99196625873E+03  0.10000000000E+02 0.  1.
</event>
<event>
 5    1  0.1757379E-008  0.3838560E+03  0.7957747E-01  0.3434538E+00
         13   -1    0    0    0    0  0.00000000000E+00  0.00000000000E+00  0.14999999963E+04  0.15000000000E+04  0.10566000000E+00 0.  1.
        994   -1    0    0    0    0 -0.00000000000E+00 -0.00000000000E+00  0.11368683772E-12  0.17120000000E+03  0.17120000000E+03 0.  0.
         13    1    1    2    0    0 -0.55891693627E+01 -0.19495734351E+02  0.89567086592E+02  0.91834615677E+02  0.10566000000E+00 0.  1.
        994    1    1    2    0    0  0.30087982606E+01  0.18640034795E+02  0.33768293617E+01  0.17227114309E+03  0.17120000000E+03 0.  0.
        998    1    1    2    0    0  0.25803711021E+01  0.85569955642E+00  0.14070560803E+04  0.14070942412E+04  0.10000000000E+02 0.  1.
</event>
<event>
 5    1  0.1757379E-008  0.3826097E+03  0.7957747E-01  0.3439873E+00
         13   -1    0    0    0    0  0.00000000000E+00  0.00000000000E+00  0.14999999963E+04  0.15000000000E+04  0.10566000000E+00 0. -1.
        994   -1    0    0    0    0 -0.00000000000E+00 -0.00000000000E+00  0.11368683772E-12  0.17120000000E+03  0.17120000000E+03 0.  0.
         13    1    1    2    0    0  0.11287428150E+02  0.59104985617E+01  0.26361902162E+02  0.29279704184E+02  0.10566000000E+00 0. -1.
        994    1    1    2    0    0 -0.27844780446E+02  0.12110795837E+01  0.54003752849E+01  0.17353789951E+03  0.17120000000E+03 0.  0.
        998    1    1    2    0    0  0.16557352295E+02 -0.71215781454E+01  0.14682377188E+04  0.14683823963E+04  0.10000000000E+02 0. -1.
</event>
<event>
 5    1  0.1757379E-008  0.3862529E+03  0.7957747E-01  0.3424376E+00
         13   -1    0    0    0    0  0.00000000000E+00  0.00000000000E+00  0.14999999963E+04  0.15000000000E+04  0.10566000000E+00 0.  1.
        994   -1    0    0    0    0 -0.00000000000E+00 -0.00000000000E+00  0.11368683772E-12  0.17120000000E+03  0.17120000000E+03 0.  0.
         13    1    1    2    0    0  0.85154196531E+01  0.63876374624E+01  0.54053806235E+02  0.55092099404E+02  0.10566000000E+00 0.  1.
        994    1    1    2    0    0 -0.15558666570E+02 -0.37792890520E+01  0.18494604967E+01  0.17195701682E+03  0.17120000000E+03 0.  0.
        998    1    1    2    0    0  0.70432469172E+01 -0.26083484105E+01  0.14440967295E+04  0.14441508838E+04  0.10000000000E+02 0.  1.
</event>
<event>
 5    1  0.1757379E-008  0.3773588E+03  0.7957747E-01  0.3462740E+00
         13   -1    0    0    0    0  0.00000000000E+00  0.00000000000E+00  0.14999999963E+04  0.15000000000E+04  0.10566000000E+00 0. -1.
        994   -1    0    0    0    0 -0.00000000000E+00 -0.00000000000E+00  0.11368683772E-12  0.17120000000E+03  0.17120000000E+03 0.  0.
         13    1    1    2    0    0  0.29860232775E+02  0.33124744847E+02  0.17938684154E+03  0.18484732161E+03  0.10566000000E+00 0. -1.
        994    1    1    2    0    0 -0.28348890527E+02 -0.10222416293E+02  0.85411133433E+01  0.17404179959E+03  0.17120000000E+03 0.  0.
        998    1    1    2    0    0 -0.15113422478E+01 -0.22902328554E+02  0.13120720414E+04  0.13123108788E+04  0.10000000000E+02 0. -1.
</event>
<event>
 5    1  0.1757379E-008  0.3853906E+03  0.7957747E-01  0.3428017E+00
         13   -1    0    0    0    0  0.00000000000E+00  0.00000000000E+00  0.14999999963E+04  0.15000000000E+04  0.10566000000E+00 0.  1.
        994   -1    0    0    0    0 -0.00000000000E+00 -0.00000000000E+00  0.11368683772E-12  0.17120000000E+03  0.17120000000E+03 0.  0.
         13    1    1    2    0    0 -0.22558975456E+01  0.11906477767E+02  0.53003612800E+02  0.54371384206E+02  0.10566000000E+00 0.  1.
        994    1    1    2    0    0  0.66197826071E+01 -0.15736825334E+01  0.15884039639E+01  0.17134252544E+03  0.17120000000E+03 0.  0.
        998    1    1    2    0    0 -0.43638850615E+01 -0.10332795234E+02  0.14454079795E+04  0.14454860903E+04  0.10000000000E+02 0.  1.
</event>
<event>
 5    1  0.1757379E-008  0.3685531E+03  0.7957747E-01  0.3502567E+00
         13   -1    0    0    0    0  0.00000000000E+00  0.00000000000E+00  0.14999999963E+04  0.15000000000E+04  0.10566000000E+00 0.  1.
        994   -1    0    0    0    0 -0.00000000000E+00 -0.00000000000E+00  0.11368683772E-12  0.17120000000E+03  0.17120000000E+03 0.  0.
         13    1    1    2    0    0 -0.29223447392E+02  0.18103431052E+01  0.38040082583E+02  0.48003606808E+02  0.10566000000E+00 0.  1.
        994    1    1    2    0    0  0.26159406851E+02 -0.16827758061E+02  0.13396739760E+02  0.17451762273E+03  0.17120000000E+03 0.  0.
        998    1    1    2    0    0  0.30640405404E+01  0.15017414956E+02  0.14485631739E+04  0.14486787705E+04  0.10000000000E+02 0.  1.
</event>
<event>
 5    1  0.1757379E-008  0.3727489E+03  0.7957747E-01  0.3483352E+00
         13   -1    0    0    0    0  0.00000000000E+00  0.00000000000E+00  0.14999999963E+04  0.15000000000E+04  0.10566000000E+00 0.  1.
        994   -1    0    0    0    0 -0.00000000000E+00 -0.00000000000E+00  0.11368683772E-12  0.17120000000E+03  0.17120000000E+03 0.  0.
         13    1    1    2    0    0  0.80096459039E+02  0.97313231969E+02  0.68959584714E+03  0.70101908064E+03  0.10566000000E+00 0.  1.
        994    1    1    2    0    0 -0.76896783247E+02 -0.75016620525E+02  0.48465210111E+02  0.20784351137E+03  0.17120000000E+03 0.  0.
        998    1    1    2    0    0 -0.31996757924E+01 -0.22296611444E+02  0.76193893903E+03  0.76233740798E+03  0.10000000000E+02 0.  1.
</event>
<event>
 5    1  0.1757379E-008  0.3822723E+03  0.7957747E-01  0.3441324E+00
         13   -1    0    0    0    0  0.00000000000E+00  0.00000000000E+00  0.14999999963E+04  0.15000000000E+04  0.10566000000E+00 0.  1.
        994   -1    0    0    0    0 -0.00000000000E+00 -0.00000000000E+00  0.11368683772E-12  0.17120000000E+03  0.17120000000E+03 0.  0.
         13    1    1    2    0    0 -0.18195120086E+02  0.64503283498E+01  0.61331802434E+02  0.64298291459E+02  0.10566000000E+00 0.  1.
        994    1    1    2    0    0  0.64721245806E+01 -0.19652869741E+02  0.44122808596E+01  0.17250226639E+03  0.17120000000E+03 0.  0.
        998    1    1    2    0    0  0.11722995505E+02  0.13202541392E+02  0.14342559130E+04  0.14343994422E+04  0.10000000000E+02 0.  1.
</event>
<event>
 5    1  0.1757379E-008  0.3820660E+03  0.7957747E-01  0.3442212E+00
         13   -1    0    0    0    0  0.00000000000E+00  0.00000000000E+00  0.14999999963E+04  0.15000000000E+04  0.10566000000E+00 0.  1.
        994   -1    0    0    0    0 -0.00000000000E+00 -0.00000000000E+00  0.11368683772E-12  0.17120000000E+03  0.17120000000E+03 0.  0.
         13    1    1    2    0    0  0.72951977663E+01 -0.10649859357E+02  0.25351196086E+02  0.28448791219E+02  0.10566000000E+00 0.  1.
        994    1    1    2    0    0 -0.97237155272E+01  0.10226499518E+02  0.37552841787E+01  0.17182163454E+03  0.17120000000E+03 0.  0.
        998    1    1    2    0    0  0.24285177609E+01  0.42335983920E+00  0.14708935160E+04  0.14709295742E+04  0.10000000000E+02 0.  1.
</event>
<event>
 5    1  0.1757379E-008  0.3850331E+03  0.7957747E-01  0.3429532E+00
         13   -1    0    0    0    0  0.00000000000E+00  0.00000000000E+00  0.14999999963E+04  0.15000000000E+04  0.10566000000E+00 0. -1.
        994   -1    0    0    0    0 -0.00000000000E+00 -0.00000000000E+00  0.11368683772E-12  0.17120000000E+03  0.17120000000E+03 0.  0.
         13    1    1    2    0    0 -0.15174944143E+02 -0.12767945303E+02  0.11561468888E+03  0.11730331115E+03  0.10566000000E+00 0. -1.
        994    1    1    2    0    0  0.10586534281E+02  0.16710921511E+02  0.29015943723E+01  0.17236353691E+03  0.17120000000E+03 0.  0.
        998    1    1    2    0    0  0.45884098620E+01 -0.39429762079E+01  0.13814837130E+04  0.13815331519E+04  0.10000000000E+02 0. -1.
</event>
<event>
 5    1  0.1757379E-008  0.3806043E+03  0.7957747E-01  0.3448531E+00
         13   -1    0    0    0    0  0.00000000000E+00  0.00000000000E+00  0.14999999963E+04  0.15000000000E+04  0.10566000000E+00 0.  1.
        994   -1    0    0    0    0 -0.00000000000E+00 -0.00000000000E+00  0.11368683772E-12  0.17120000000E+03  0.17120000000E+03 0.  0.
         13    1    1    2    0    0 -0.12032334126E+02 -0.11523064939E+02  0.34083041428E+02  0.37937092234E+02  0.10566000000E+00 0.  1.
        994    1    1    2    0    0  0.14421514916E+02  0.10009371950E+02  0.48572048451E+01  0.17216619894E+03  0.17120000000E+03 0.  0.
        998    1    1    2    0    0 -0.23891807897E+01  0.15136929895E+01  0.14610597500E+04  0.14610967088E+04  0.10000000000E+02 0.  1.
</event>
<event>
 5    1  0.1757379E-008  0.3849522E+03  0.7957747E-01  0.3429875E+00
         13   -1    0    0    0    0  0.00000000000E+00  0.00000000000E+00  0.14999999963E+04  0.15000000000E+04  0.10566000000E+00 0.  1.
        994   -1    0    0    0    0 -0.00000000000E+00 -0.00000000000E+00  0.11368683772E-12  0.17120000000E+03  0.17120000000E+03 0.  0.
         13    1    1    2    0    0 -0.79810020032E+01  0.19532900453E+02  0.12193909547E+03  0.12375130206E+03  0.10566000000E+00 0.  1.
        994    1    1    2    0    0  0.11391515583E+02 -0.22158373020E+02  0.36983157538E+01  0.17304299368E+03  0.17120000000E+03 0.  0.
        998    1    1    2    0    0 -0.34105135802E+01  0.26254725671E+01  0.13743625851E+04  0.13744057043E+04  0.10000000000E+02 0.  1.
</event>
<event>
 5    1  0.1757379E-008  0.3795702E+03  0.7957747E-01  0.3453032E+00
         13   -1    0    0    0    0  0.00000000000E+00  0.00000000000E+00  0.14999999963E+04  0.15000000000E+04  0.10566000000E+00 0.  1.
        994   -1    0    0    0    0 -0.00000000000E+00 -0.00000000000E+00  0.11368683772E-12  0.17120000000E+03  0.17120000000E+03 0.  0.
         13    1    1    2    0    0  0.34106193882E+02 -0.36489562514E+01  0.12800901388E+03  0.13252496422E+03  0.10566000000E+00 0.  1.
        994    1    1    2    0    0 -0.27836167182E+02  0.41354860374E+01  0.70059945610E+01  0.17363893114E+03  0.17120000000E+03 0.  0.
        998    1    1    2    0    0 -0.62700266997E+01 -0.48652978596E+00  0.13649849878E+04  0.13650361046E+04  0.10000000000E+02 0.  1.
</event>
<event>
 5    1  0.1757379E-008  0.3780806E+03  0.7957747E-01  0.3459559E+00
         13   -1    0    0    0    0  0.00000000000E+00  0.00000000000E+00  0.14999999963E+04  0.15000000000E+04  0.10566000000E+00 0.  1.
        994   -1    0    0    0    0 -0.00000000000E+00 -0.00000000000E+00  0.11368683772E-12  0.17120000000E+03  0.17120000000E+03 0.  0.
         13    1    1    2    0    0  0.12766442680E+02 -0.95908550929E+01  0.23433211313E+02  0.28356535695E+02  0.10566000000E+00 0.  1.
        994    1    1    2    0    0 -0.49649290205E+01 -0.43620948441E+01  0.52521452749E+01  0.17140800279E+03  0.17120000000E+03 0.  0.
        998    1    1    2    0    0 -0.78015136596E+01  0.13952949937E+02  0.14713146397E+04  0.14714354615E+04  0.10000000000E+02 0.  1.
</event>
<event>
 5    1  0.1757379E-008  0.3826421E+03  0.7957747E-01  0.3439734E+00
         13   -1    0    0    0    0  0.00000000000E+00  0.00000000000E+00  0.14999999963E+04  0.15000000000E+04  0.10566000000E+00 0. -1.
        994   -1    0    0    0    0 -0.00000000000E+00 -0.00000000000E+00  0.11368683772E-12  0.17120000000E+03  0.17120000000E+03 0.  0.
         13    1    1    2    0    0  0.12686915864E+02 -0.37125564917E+02  0.23203042047E+03  0.23532401618E+03  0.10566000000E+00 0. -1.
        994    1    1    2    0    0 -0.20148070762E+02  0.35749730759E+02  0.84062219280E+01  0.17625008531E+03  0.17120000000E+03 0.  0.
        998    1    1    2    0    0  0.74611548984E+01  0.13758341578E+01  0.12595633539E+04  0.12596258985E+04  0.10000000000E+02 0. -1.
</event>
<event>
 5    1  0.1757379E-008  0.3707505E+03  0.7957747E-01  0.3492449E+00
         13   -1    0    0    0    0  0.00000000000E+00  0.00000000000E+00  0.14999999963E+04  0.15000000000E+04  0.10566000000E+00 0. -1.
        994   -1    0    0    0    0 -0.00000000000E+00 -0.00000000000E+00  0.11368683772E-12  0.17120000000E+03  0.17120000000E+03 0.  0.
         13    1    1    2    0    0  0.13678225420E+02 -0.29779153933E+02  0.59242561734E+02  0.67702172376E+02  0.10566000000E+00 0. -1.
        994    1    1    2    0    0 -0.52764274871E+01  0.82430617388E+01  0.92077241800E+01  0.17172655863E+03  0.17120000000E+03 0.  0.
        998    1    1    2    0    0 -0.84017979327E+01  0.21536092194E+02  0.14315497104E+04  0.14317712690E+04  0.10000000000E+02 0. -1.
</event>
<event>
 5    1  0.1757379E-008  0.3848468E+03  0.7957747E-01  0.3430322E+00
         13   -1    0    0    0    0  0.00000000000E+00  0.00000000000E+00  0.14999999963E+04  0.15000000000E+04  0.10566000000E+00 0.  1.
        994   -1    0    0    0    0 -0.00000000000E+00 -0.00000000000E+00  0.11368683772E-12  0.17120000000E+03  0.17120000000E+03 0.  0.
         13    1    1    2    0    0 -0.10332967109E+02 -0.28297529363E+02  0.13792610060E+03  0.14117769218E+03  0.10566000000E+00 0.  1.
        994    1    1    2    0    0  0.38396293896E+02  0.91570736758E+02  0.34849036413E+02  0.20095614087E+03  0.17120000000E+03 0.  0.
        998    1    1    2    0    0 -0.28063326787E+02 -0.63273207395E+02  0.13272248593E+04  0.13290661669E+04  0.10000000000E+02 0.  1.
</event>
<event>
 5    1  0.1757379E-008  0.3501010E+03  0.7957747E-01  0.3592659E+00
         13   -1    0    0    0    0  0.00000000000E+00  0.00000000000E+00  0.14999999963E+04  0.15000000000E+04  0.10566000000E+00 0.  1.
        994   -1    0    0    0    0 -0.00000000000E+00 -0.00000000000E+00  0.11368683772E-12  0.17120000000E+03  0.17120000000E+03 0.  0.
         13    1    1    2    0    0 -0.22311812297E+03  0.20833744053E+03  0.54334474572E+03  0.62322524804E+03  0.10566000000E+00 0.  1.
        994    1    1    2    0    0  0.23132148381E+03 -0.19977332801E+03  0.62920998808E+03  0.72016224599E+03  0.17120000000E+03 0.  0.
        998    1    1    2    0    0 -0.82033608399E+01 -0.85641125187E+01  0.32744526247E+03  0.32781250597E+03  0.10000000000E+02 0.  0.
</event>
<event>
 5    1  0.1757379E-008  0.3831184E+03  0.7957747E-01  0.3437691E+00
         13   -1    0    0    0    0  0.00000000000E+00  0.00000000000E+00  0.14999999963E+04  0.15000000000E+04  0.10566000000E+00 0. -1.
        994   -1    0    0    0    0 -0.00000000000E+00 -0.00000000000E+00  0.11368683772E-12  0.17120000000E+03  0.17120000000E+03 0.  0.
         13    1    1    2    0    0  0.24998255466E+02 -0.25054280294E+02  0.20178404971E+03  0.20486445182E+03  0.10566000000E+00 0. -1.
        994    1    1    2    0    0 -0.13838954812E+02  0.46255978282E+02  0.10319090069E+02  0.17817703504E+03  0.17120000000E+03 0.  0.
        998    1    1    2    0    0 -0.11159300654E+02 -0.21201697988E+02  0.12878968565E+04  0.12881585131E+04  0.10000000000E+02 0. -1.
</event>
<event>
 5    1  0.1757379E-008  0.3797623E+03  0.7957747E-01  0.3452194E+00
         13   -1    0    0    0    0  0.00000000000E+00  0.00000000000E+00  0.14999999963E+04  0.15000000000E+04  0.10566000000E+00 0. -1.
        994   -1    0    0    0    0 -0.00000000000E+00 -0.00000000000E+00  0.11368683772E-12  0.17120000000E+03  0.17120000000E+03 0.  0.
         13    1    1    2    0    0  0.12499559228E+02  0.62794182734E+01  0.20767909776E+02  0.25039714760E+02  0.10566000000E+00 0. -1.
        994    1    1    2    0    0 -0.16084755658E+02 -0.80070670674E+01  0.53339875567E+01  0.17222289021E+03  0.17120000000E+03 0.  0.
        998    1    1    2    0    0  0.35851964294E+01  0.17276487940E+01  0.14738980989E+04  0.14739373950E+04  0.10000000000E+02 0. -1.
</event>
<event>
 5    1  0.1757379E-008  0.3848832E+03  0.7957747E-01  0.3430168E+00
         13   -1    0    0    0    0  0.00000000000E+00  0.00000000000E+00  0.14999999963E+04  0.15000000000E+04  0.10566000000E+00 0. -1.
        994   -1    0    0    0    0 -0.00000000000E+00 -0.00000000000E+00  0.11368683772E-12  0.17120000000E+03  0.17120000000E+03 0.  0.
         13    1    1    2    0    0  0.25333164463E+01 -0.10090596266E+02  0.31464051667E+02  0.33139636940E+02  0.10566000000E+00 0. -1.
        994    1    1    2    0    0 -0.17638783437E+02  0.54633311324E+01  0.28107265892E+01  0.17221589605E+03  0.17120000000E+03 0.  0.
        998    1    1    2    0    0  0.15105466991E+02  0.46272651338E+01  0.14657252180E+04  0.14658444670E+04  0.10000000000E+02 0. -1.
</event>
<event>
 5    1  0.1757379E-008  0.3840148E+03  0.7957747E-01  0.3433861E+00
         13   -1    0    0    0    0  0.00000000000E+00  0.00000000000E+00  0.14999999963E+04  0.15000000000E+04  0.10566000000E+00 0. -1.
        994   -1    0    0    0    0 -0.00000000000E+00 -0.00000000000E+00  0.11368683772E-12  0.17120000000E+03  0.17120000000E+03 0.  0.
         13    1    1    2    0    0 -0.21037978797E+01  0.23860284826E+02  0.14452759165E+03  0.14649906167E+03  0.10566000000E+00 0. -1.
        994    1    1    2    0    0 -0.51222967623E+01 -0.70233695533E+01  0.23693824055E+01  0.17143692606E+03  0.17120000000E+03 0.  0.
        998    1    1    2    0    0  0.72260946419E+01 -0.16836915273E+02  0.13531030222E+04  0.13532640123E+04  0.10000000000E+02 0. -1.
</event>
<event>
 5    1  0.1757379E-008  0.3808855E+03  0.7957747E-01  0.3447312E+00
         13   -1    0    0    0    0  0.00000000000E+00  0.00000000000E+00  0.14999999963E+04  0.15000000000E+04  0.10566000000E+00 0. -1.
        994   -1    0    0    0    0 -0.00000000000E+00 -0.00000000000E+00  0.11368683772E-12  0.17120000000E+03  0.17120000000E+03 0.  0.
         13    1    1    2    0    0 -0.30504318799E+02 -0.22480845539E+02  0.22111029311E+03  0.22433384668E+03  0.10566000000E+00 0. -1.
        994    1    1    2    0    0  0.87559611945E+01 -0.15201221247E+01  0.39501013882E+01  0.17147600686E+03  0.17120000000E+03 0.  0.
        998    1    1    2    0    0  0.21748357604E+02  0.24000967664E+02  0.12749396018E+04  0.12753901465E+04  0.10000000000E+02 0. -1.
</event>
<event>
 5    1  0.1757379E-008  0.3857413E+03  0.7957747E-01  0.3426534E+00
         13   -1    0    0    0    0  0.00000000000E+00  0.00000000000E+00  0.14999999963E+04  0.15000000000E+04  0.10566000000E+00 0. -1.
        994   -1    0    0    0    0 -0.00000000000E+00 -0.00000000000E+00  0.11368683772E-12  0.17120000000E+03  0.17120000000E+03 0.  0.
         13    1    1    2    0    0 -0.21437639931E+01  0.13002547949E+02  0.70580686695E+02  0.71800462921E+02  0.10566000000E+00 0. -1.
        994    1    1    2    0    0  0.12270716687E+01 -0.61946130835E+01  0.13934029556E+01  0.17132209580E+03  0.17120000000E+03 0.  0.
        998    1    1    2    0    0  0.91669232447E+00 -0.68079348658E+01  0.14280259066E+04  0.14280774413E+04  0.10000000000E+02 0. -1.
</event>
<event>
 5    1  0.1757379E-008  0.3819687E+03  0.7957747E-01  0.3442631E+00
         13   -1    0    0    0    0  0.00000000000E+00  0.00000000000E+00  0.14999999963E+04  0.15000000000E+04  0.10566000000E+00 0. -1.
        994   -1    0    0    0    0 -0.00000000000E+00 -0.00000000000E+00  0.11368683772E-12  0.17120000000E+03  0.17120000000E+03 0.  0.
         13    1    1    2    0    0  0.23912997261E+01  0.10671597476E+02  0.18208074743E+02  0.21240208496E+02  0.10566000000E+00 0. -1.
        994    1    1    2    0    0 -0.41814163988E+01  0.19724545453E+01  0.32136537691E+01  0.17129256373E+03  0.17120000000E+03 0.  0.
        998    1    1    2    0    0  0.17901166727E+01 -0.12644052022E+02  0.14785782678E+04  0.14786672278E+04  0.10000000000E+02 0. -1.
</event>
<event>
 5    1  0.1757379E-008  0.3755396E+03  0.7957747E-01  0.3470813E+00
         13   -1    0    0    0    0  0.00000000000E+00  0.00000000000E+00  0.14999999963E+04  0.15000000000E+04  0.10566000000E+00 0. -1.
        994   -1    0    0    0    0 -0.00000000000E+00 -0.00000000000E+00  0.11368683772E-12  0.17120000000E+03  0.17120000000E+03 0.  0.
         13    1    1    2    0    0  0.24921046063E+02  0.33723798939E+02  0.12775903031E+03  0.13446462041E+03  0.10566000000E+00 0. -1.
        994    1    1    2    0    0 -0.23488522997E+02 -0.28302784035E+02  0.11005631078E+02  0.17545176606E+03  0.17120000000E+03 0.  0.
        998    1    1    2    0    0 -0.14325230657E+01 -0.54210149039E+01  0.13612353349E+04  0.13612836135E+04  0.10000000000E+02 0. -1.
</event>
<event>
 5    1  0.1757379E-008  0.3848894E+03  0.7957747E-01  0.3430141E+00
         13   -1    0    0    0    0  0.00000000000E+00  0.00000000000E+00  0.14999999963E+04  0.15000000000E+04  0.10566000000E+00 0.  1.
        994   -1    0    0    0    0 -0.00000000000E+00 -0.00000000000E+00  0.11368683772E-12  0.17120000000E+03  0.17120000000E+03 0.  0.
         13    1    1    2    0    0 -0.18399337447E+01  0.10275700426E+02  0.31089999272E+02  0.32795953931E+02  0.10566000000E+00 0.  1.
        994    1    1    2    0    0  0.46957172278E+01 -0.13606455757E+02  0.23669428812E+01  0.17182033587E+03  0.17120000000E+03 0.  0.
        998    1    1    2    0    0 -0.28557834830E+01  0.33307553309E+01  0.14665430541E+04  0.14665837102E+04  0.10000000000E+02 0.  1.
</event>
<event>
 5    1  0.1757379E-008  0.3824453E+03  0.7957747E-01  0.3440580E+00
         13   -1    0    0    0    0  0.00000000000E+00  0.00000000000E+00  0.14999999963E+04  0.15000000000E+04  0.10566000000E+00 0.  1.
        994   -1    0    0    0    0 -0.00000000000E+00 -0.00000000000E+00  0.11368683772E-12  0.17120000000E+03  0.17120000000E+03 0.  0.
         13    1    1    2    0    0 -0.73916532455E+01 -0.89526442877E+01  0.20356201389E+02  0.23434429297E+02  0.10566000000E+00 0.  1.
        994    1    1    2    0    0  0.45621746637E+01  0.41724803836E+02  0.87682042537E+01  0.17648822652E+03  0.17120000000E+03 0.  0.
        998    1    1    2    0    0  0.28294785818E+01 -0.32772159549E+02  0.14708755906E+04  0.14712773442E+04  0.10000000000E+02 0.  1.
</event>
<event>
 5    1  0.1757379E-008  0.3996014E+03  0.7957747E-01  0.3370012E+00
         13   -1    0    0    0    0  0.00000000000E+00  0.00000000000E+00  0.14999999963E+04  0.15000000000E+04  0.10566000000E+00 0.  1.
        994   -1    0    0    0    0 -0.00000000000E+00 -0.00000000000E+00  0.11368683772E-12  0.17120000000E+03  0.17120000000E+03 0.  0.
         13    1    1    2    0    0  0.41614820612E+01  0.90322347160E+02  0.12331550770E+03  0.15291229491E+03  0.10566000000E+00 0.  1.
        994    1    1    2    0    0 -0.15983808556E+02 -0.10190756570E+03  0.70476154958E+02  0.21193622272E+03  0.17120000000E+03 0.  0.
        998    1    1    2    0    0  0.11822326495E+02  0.11585218539E+02  0.13062083336E+04  0.13063514824E+04  0.10000000000E+02 0.  1.
</event>
<event>
 5    1  0.1757379E-008  0.3829800E+03  0.7957747E-01  0.3438285E+00
         13   -1    0    0    0    0  0.00000000000E+00  0.00000000000E+00  0.14999999963E+04  0.15000000000E+04  0.10566000000E+00 0.  1.
        994   -1    0    0    0    0 -0.00000000000E+00 -0.00000000000E+00  0.11368683772E-12  0.17120000000E+03  0.17120000000E+03 0.  0.
         13    1    1    2    0    0 -0.36728812735E+02  0.47581263444E+02  0.86838277016E+02  0.10561193036E+03  0.10566000000E+00 0.  1.
        994    1    1    2    0    0  0.39862183998E+02 -0.56296959490E+02  0.35621612958E+02  0.18798053269E+03  0.17120000000E+03 0.  0.
        998    1    1    2    0    0 -0.31333712632E+01  0.87156960458E+01  0.13775401063E+04  0.13776075369E+04  0.10000000000E+02 0.  1.
</event>
<event>
 5    1  0.1757379E-008  0.3850610E+03  0.7957747E-01  0.3429413E+00
         13   -1    0    0    0    0  0.00000000000E+00  0.00000000000E+00  0.14999999963E+04  0.15000000000E+04  0.10566000000E+00 0. -1.
        994   -1    0    0    0    0 -0.00000000000E+00 -0.00000000000E+00  0.11368683772E-12  0.17120000000E+03  0.17120000000E+03 0.  0.
         13    1    1    2    0    0 -0.12604549036E+03 -0.13697323947E+03  0.10743994697E+04  0.10904051382E+04  0.10566000000E+00 0. -1.
        994    1    1    2    0    0  0.13835675534E+03  0.14570939012E+03  0.14805794523E+03  0.30266220984E+03  0.17120000000E+03 0.  0.
        998    1    1    2    0    0 -0.12311264979E+02 -0.87361506493E+01  0.27754258139E+03  0.27813265191E+03  0.10000000000E+02 0.  1.
</event>
<event>
 5    1  0.1757379E-008  0.3816945E+03  0.7957747E-01  0.3443813E+00
         13   -1    0    0    0    0  0.00000000000E+00  0.00000000000E+00  0.14999999963E+04  0.15000000000E+04  0.10566000000E+00 0.  1.
        994   -1    0    0    0    0 -0.00000000000E+00 -0.00000000000E+00  0.11368683772E-12  0.17120000000E+03  0.17120000000E+03 0.  0.
         13    1    1    2    0    0 -0.10866598704E+02  0.59014709873E+01  0.23581473490E+02  0.26627192552E+02  0.10566000000E+00 0.  1.
        994    1    1    2    0    0 -0.14691120564E+02  0.22543839619E+01  0.40149174696E+01  0.17189086896E+03  0.17120000000E+03 0.  0.
        998    1    1    2    0    0  0.25557719268E+02 -0.81558549492E+01  0.14724036053E+04  0.14726819385E+04  0.10000000000E+02 0.  1.
</event>
<event>
 5    1  0.1757379E-008  0.3788796E+03  0.7957747E-01  0.3456051E+00
         13   -1    0    0    0    0  0.00000000000E+00  0.00000000000E+00  0.14999999963E+04  0.15000000000E+04  0.10566000000E+00 0.  1.
        994   -1    0    0    0    0 -0.00000000000E+00 -0.00000000000E+00  0.11368683772E-12  0.17120000000E+03  0.17120000000E+03 0.  0.
         13    1    1    2    0    0  0.24299155071E+01  0.31618643341E+02  0.10488486258E+03  0.10957412403E+03  0.10566000000E+00 0.  1.
        994    1    1    2    0    0  0.32675602148E+02 -0.23496399455E+02  0.10153927660E+02  0.17615992169E+03  0.17120000000E+03 0.  0.
        998    1    1    2    0    0 -0.35105517655E+02 -0.81222438856E+01  0.13849612060E+04  0.13854659543E+04  0.10000000000E+02 0.  1.
</event>
<event>
 5    1  0.1757379E-008  0.3808675E+03  0.7957747E-01  0.3447390E+00
         13   -1    0    0    0    0  0.00000000000E+00  0.00000000000E+00  0.14999999963E+04  0.15000000000E+04  0.10566000000E+00 0.  1.
        994   -1    0    0    0    0 -0.00000000000E+00 -0.00000000000E+00  0.11368683772E-12  0.17120000000E+03  0.17120000000E+03 0.  0.
         13    1    1    2    0    0 -0.23020624076E+02 -0.35745470877E+02  0.15850348615E+03  0.16410683747E+03  0.10566000000E+00 0.  1.
        994    1    1    2    0    0  0.54171990183E+02  0.73501025508E+02  0.32004806457E+02  0.19664880602E+03  0.17120000000E+03 0.  0.
        998    1    1    2    0    0 -0.31151366107E+02 -0.37755554631E+02  0.13094917037E+04  0.13104443565E+04  0.10000000000E+02 0.  1.
</event>
<event>
 5    1  0.1757379E-008  0.3751741E+03  0.7957747E-01  0.3472445E+00
         13   -1    0    0    0    0  0.00000000000E+00  0.00000000000E+00  0.14999999963E+04  0.15000000000E+04  0.10566000000E+00 0. -1.
        994   -1    0    0    0    0 -0.00000000000E+00 -0.00000000000E+00  0.11368683772E-12  0.17120000000E+03  0.17120000000E+03 0.  0.
         13    1    1    2    0    0  0.31587760461E+02  0.31721523551E+02  0.14846666964E+03  0.15506903246E+03  0.10566000000E+00 0. -1.
        994    1    1    2    0    0 -0.19780660622E+02 -0.20187336235E+02  0.93078302392E+01  0.17376673670E+03  0.17120000000E+03 0.  0.
        998    1    1    2    0    0 -0.11807099838E+02 -0.11534187315E+02  0.13422254964E+04  0.13423642308E+04  0.10000000000E+02 0. -1.
</event>
<event>
 5    1  0.1757379E-008  0.3733361E+03  0.7957747E-01  0.3480698E+00
         13   -1    0    0    0    0  0.00000000000E+00  0.00000000000E+00  0.14999999963E+04  0.15000000000E+04  0.10566000000E+00 0. -1.
        994   -1    0    0    0    0 -0.00000000000E+00 -0.00000000000E+00  0.11368683772E-12  0.17120000000E+03  0.17120000000E+03 0.  0.
         13    1    1    2    0    0  0.28661272015E+02  0.15605189325E+02  0.63514098495E+02  0.71407578863E+02  0.10566000000E+00 0. -1.
        994    1    1    2    0    0 -0.37271549078E+02 -0.16593063125E+02  0.13246978836E+02  0.17649198442E+03  0.17120000000E+03 0.  0.
        998    1    1    2    0    0  0.86102770631E+01  0.98787379985E+00  0.14232389189E+04  0.14233004367E+04  0.10000000000E+02 0. -1.
</event>
<event>
 5    1  0.1757379E-008  0.3861278E+03  0.7957747E-01  0.3424903E+00
         13   -1    0    0    0    0  0.00000000000E+00  0.00000000000E+00  0.14999999963E+04  0.15000000000E+04  0.10566000000E+00 0. -1.
        994   -1    0    0    0    0 -0.00000000000E+00 -0.00000000000E+00  0.11368683772E-12  0.17120000000E+03  0.17120000000E+03 0.  0.
         13    1    1    2    0    0 -0.12255088048E+01 -0.11081840053E+02  0.55221192569E+02  0.56335604405E+02  0.10566000000E+00 0. -1.
        994    1    1    2    0    0  0.16324807684E+02  0.15055934797E+02  0.26888933821E+01  0.17265529435E+03  0.17120000000E+03 0.  0.
        998    1    1    2    0    0 -0.15099298879E+02 -0.39740947435E+01  0.14420899103E+04  0.14422091012E+04  0.10000000000E+02 0. -1.
</event>
<event>
 5    1  0.1757379E-008  0.3850041E+03  0.7957747E-01  0.3429655E+00
         13   -1    0    0    0    0  0.00000000000E+00  0.00000000000E+00  0.14999999963E+04  0.15000000000E+04  0.10566000000E+00 0. -1.
        994   -1    0    0    0    0 -0.00000000000E+00 -0.00000000000E+00  0.11368683772E-12  0.17120000000E+03  0.17120000000E+03 0.  0.
         13    1    1    2    0    0 -0.21809224235E+02  0.67399791296E+01  0.13516393697E+03  0.13707797271E+03  0.10566000000E+00 0. -1.
        994    1    1    2    0    0  0.27687800665E+02 -0.23777511821E+02  0.60207816234E+01  0.17515043302E+03  0.17120000000E+03 0.  0.
        998    1    1    2    0    0 -0.58785764302E+01  0.17037532692E+02  0.13588152777E+04  0.13589715943E+04  0.10000000000E+02 0. -1.
</event>
<event>
 5    1  0.1757379E-008  0.3816827E+03  0.7957747E-01  0.3443864E+00
         13   -1    0    0    0    0  0.00000000000E+00  0.00000000000E+00  0.14999999963E+04  0.15000000000E+04  0.10566000000E+00 0. -1.
        994   -1    0    0    0    0 -0.00000000000E+00 -0.00000000000E+00  0.11368683772E-12  0.17120000000E+03  0.17120000000E+03 0.  0.
         13    1    1    2    0    0 -0.63718532441E+01 -0.16529716048E+02  0.46104763496E+02  0.49391217918E+02  0.10566000000E+00 0. -1.
        994    1    1    2    0    0  0.77714843952E+01  0.12391775871E+02  0.39977399216E+01  0.17187022431E+03  0.17120000000E+03 0.  0.
        998    1    1    2    0    0 -0.13996311511E+01  0.41379401769E+01  0.14498974929E+04  0.14499385578E+04  0.10000000000E+02 0. -1.
</event>
<event>
 5    1  0.1757379E-008  0.3807983E+03  0.7957747E-01  0.3447690E+00
         13   -1    0    0    0    0  0.00000000000E+00  0.00000000000E+00  0.14999999963E+04  0.15000000000E+04  0.10566000000E+00 0.  1.
        994   -1    0    0    0    0 -0.00000000000E+00 -0.00000000000E+00  0.11368683772E-12  0.17120000000E+03  0.17120000000E+03 0.  0.
         13    1    1    2    0    0 -0.72345476290E+01  0.13259263183E+02  0.29520740150E+02  0.33160699670E+02  0.10566000000E+00 0.  1.
        994    1    1    2    0    0  0.58613182053E+00 -0.65080734651E+01  0.38730864248E+01  0.17136843166E+03  0.17120000000E+03 0.  0.
        998    1    1    2    0    0  0.66484158085E+01 -0.67511897181E+01  0.14666061697E+04  0.14666708687E+04  0.10000000000E+02 0.  1.
</event>
<event>
 5    1  0.1757379E-008  0.3858170E+03  0.7957747E-01  0.3426215E+00
         13   -1    0    0    0    0  0.00000000000E+00  0.00000000000E+00  0.14999999963E+04  0.15000000000E+04  0.10566000000E+00 0. -1.
        994   -1    0    0    0    0 -0.00000000000E+00 -0.00000000000E+00  0.11368683772E-12  0.17120000000E+03  0.17120000000E+03 0.  0.
         13    1    1    2    0    0 -0.42720681310E+01 -0.10409431555E+02  0.52872097079E+02  0.54056235949E+02  0.10566000000E+00 0. -1.
        994    1    1    2    0    0  0.55321816169E+01  0.35969175053E+01  0.13679007962E+01  0.17133258301E+03  0.17120000000E+03 0.  0.
        998    1    1    2    0    0 -0.12601134858E+01  0.68125140494E+01  0.14457599984E+04  0.14458111810E+04  0.10000000000E+02 0. -1.
</event>
<event>
 5    1  0.1757379E-008  0.3996361E+03  0.7957747E-01  0.3369876E+00
         13   -1    0    0    0    0  0.00000000000E+00  0.00000000000E+00  0.14999999963E+04  0.15000000000E+04  0.10566000000E+00 0. -1.
        994   -1    0    0    0    0 -0.00000000000E+00 -0.00000000000E+00  0.11368683772E-12  0.17120000000E+03  0.17120000000E+03 0.  0.
         13    1    1    2    0    0  0.43179826078E+01  0.36609016970E+02  0.12783732777E+02  0.39016664197E+02  0.10566000000E+00 0. -1.
        994    1    1    2    0    0  0.22302229924E+01 -0.49215533460E+02  0.37108471036E+02  0.18197148472E+03  0.17120000000E+03 0.  0.
        998    1    1    2    0    0 -0.65482056002E+01  0.12606516490E+02  0.14501077925E+04  0.14502118511E+04  0.10000000000E+02 0. -1.
</event>
<event>
 5    1  0.1757379E-008  0.3859022E+03  0.7957747E-01  0.3425855E+00
         13   -1    0    0    0    0  0.00000000000E+00  0.00000000000E+00  0.14999999963E+04  0.15000000000E+04  0.10566000000E+00 0.  1.
        994   -1    0    0    0    0 -0.00000000000E+00 -0.00000000000E+00  0.11368683772E-12  0.17120000000E+03  0.17120000000E+03 0.  0.
         13    1    1    2    0    0  0.44397363435E+01  0.13366691003E+02  0.82661364559E+02  0.83852799846E+02  0.10566000000E+00 0.  1.
        994    1    1    2    0    0 -0.42517684350E+01 -0.11358412617E+02  0.16653168007E+01  0.17163712988E+03  0.17120000000E+03 0.  0.
        998    1    1    2    0    0 -0.18796790850E+00 -0.20082783868E+01  0.14156733149E+04  0.14157100703E+04  0.10000000000E+02 0.  1.
</event>
<event>
 5    1  0.1757379E-008  0.3848247E+03  0.7957747E-01  0.3430416E+00
         13   -1    0    0    0    0  0.00000000000E+00  0.00000000000E+00  0.14999999963E+04  0.15000000000E+04  0.10566000000E+00 0. -1.
        994   -1    0    0    0    0 -0.00000000000E+00 -0.00000000000E+00  0.11368683772E-12  0.17120000000E+03  0.17120000000E+03 0.  0.
         13    1    1    2    0    0  0.12952663779E+01 -0.10847543800E+02  0.35122558842E+02  0.36782498897E+02  0.10566000000E+00 0. -1.
        994    1    1    2    0    0  0.34412877618E+01  0.39750683157E+01  0.18081779408E+01  0.17129025990E+03  0.17120000000E+03 0.  0.
        998    1    1    2    0    0 -0.47365541397E+01  0.68724754840E+01  0.14630692595E+04  0.14631272412E+04  0.10000000000E+02 0. -1.
</event>
<event>
 5    1  0.1757379E-008  0.3858492E+03  0.7957747E-01  0.3426079E+00
         13   -1    0    0    0    0  0.00000000000E+00  0.00000000000E+00  0.14999999963E+04  0.15000000000E+04  0.10566000000E+00 0.  1.
        994   -1    0    0    0    0 -0.00000000000E+00 -0.00000000000E+00  0.11368683772E-12  0.17120000000E+03  0.17120000000E+03 0.  0.
         13    1    1    2    0    0  0.12915828305E+02  0.82755626664E+01  0.90409666427E+02  0.91701812991E+02  0.10566000000E+00 0.  1.
        994    1    1    2    0    0 -0.16554178487E+02 -0.10512423945E+02  0.24713251282E+01  0.17233716758E+03  0.17120000000E+03 0.  0.
        998    1    1    2    0    0  0.36383501818E+01  0.22368612783E+01  0.14071190047E+04  0.14071610194E+04  0.10000000000E+02 0.  1.
</event>
<event>
 5    1  0.1757379E-008  0.3793994E+03  0.7957747E-01  0.3453778E+00
         13   -1    0    0    0    0  0.00000000000E+00  0.00000000000E+00  0.14999999963E+04  0.15000000000E+04  0.10566000000E+00 0.  1.
        994   -1    0    0    0    0 -0.00000000000E+00 -0.00000000000E+00  0.11368683772E-12  0.17120000000E+03  0.17120000000E+03 0.  0.
         13    1    1    2    0    0  0.41223481546E+01  0.16407423710E+02  0.31099766046E+02  0.35403445020E+02  0.10566000000E+00 0.  1.
        994    1    1    2    0    0 -0.34572043990E+02  0.38231354711E+01  0.84997355904E+01  0.17490433984E+03  0.17120000000E+03 0.  0.
        998    1    1    2    0    0  0.30449695835E+02 -0.20230559181E+02  0.14604004946E+04  0.14608922151E+04  0.10000000000E+02 0.  1.
</event>
<event>
 5    1  0.1757379E-008  0.3781800E+03  0.7957747E-01  0.3459122E+00
         13   -1    0    0    0    0  0.00000000000E+00  0.00000000000E+00  0.14999999963E+04  0.15000000000E+04  0.10566000000E+00 0. -1.
        994   -1    0    0    0    0 -0.00000000000E+00 -0.00000000000E+00  0.11368683772E-12  0.17120000000E+03  0.17120000000E+03 0.  0.
         13    1    1    2    0    0  0.17107167992E+02 -0.96484503974E+01  0.38126336672E+02  0.42887952899E+02  0.10566000000E+00 0. -1.
        994    1    1    2    0    0  0.10889509136E+01 -0.58954534099E+01  0.51756032265E+01  0.17138310609E+03  0.17120000000E+03 0.  0.
        998    1    1    2    0    0 -0.18196118905E+02  0.15543903807E+02  0.14566980564E+04  0.14569289410E+04  0.10000000000E+02 0. -1.
</event>
<event>
 5    1  0.1757379E-008  0.3815784E+03  0.7957747E-01  0.3444314E+00
         13   -1    0    0    0    0  0.00000000000E+00  0.00000000000E+00  0.14999999963E+04  0.15000000000E+04  0.10566000000E+00 0. -1.
        994   -1    0    0    0    0 -0.00000000000E+00 -0.00000000000E+00  0.11368683772E-12  0.17120000000E+03  0.17120000000E+03 0.  0.
         13    1    1    2    0    0 -0.38401714561E+01 -0.16042016277E+02  0.39812881609E+02  0.43094894234E+02  0.10566000000E+00 0. -1.
        994    1    1    2    0    0  0.34682991322E+01  0.86144548297E+01  0.36253231198E+01  0.17149000233E+03  0.17120000000E+03 0.  0.
        998    1    1    2    0    0  0.37187232388E+00  0.74275614469E+01  0.14565617916E+04  0.14566151034E+04  0.10000000000E+02 0. -1.
</event>
<event>
 5    1  0.1757379E-008  0.3775178E+03  0.7957747E-01  0.3462038E+00
         13   -1    0    0    0    0  0.00000000000E+00  0.00000000000E+00  0.14999999963E+04  0.15000000000E+04  0.10566000000E+00 0. -1.
        994   -1    0    0    0    0 -0.00000000000E+00 -0.00000000000E+00  0.11368683772E-12  0.17120000000E+03  0.17120000000E+03 0.  0.
         13    1    1    2    0    0  0.66099426766E+02 -0.15888086442E+02  0.24907952833E+03  0.25819021690E+03  0.10566000000E+00 0. -1.
        994    1    1    2    0    0  0.59438934440E+02  0.40210254425E+01  0.27827259010E+02  0.18339288949E+03  0.17120000000E+03 0.  0.
        998    1    1    2    0    0 -0.12553836121E+03  0.11867060999E+02  0.12230932089E+04  0.12296168936E+04  0.10000000000E+02 0. -1.
</event>
<event>
 5    1  0.1757379E-008  0.3804226E+03  0.7957747E-01  0.3449320E+00
         13   -1    0    0    0    0  0.00000000000E+00  0.00000000000E+00  0.14999999963E+04  0.15000000000E+04  0.10566000000E+00 0.  1.
        994   -1    0    0    0    0 -0.00000000000E+00 -0.00000000000E+00  0.11368683772E-12  0.17120000000E+03  0.17120000000E+03 0.  0.
         13    1    1    2    0    0  0.17694894335E+02  0.77260048763E+00  0.37801376743E+02  0.41745196667E+02  0.10566000000E+00 0.  1.
        994    1    1    2    0    0 -0.17434453521E+02  0.14455332829E+01  0.49423084382E+01  0.17216247021E+03  0.17120000000E+03 0.  0.
        998    1    1    2    0    0 -0.26044081445E+00 -0.22181337706E+01  0.14572563111E+04  0.14572923331E+04  0.10000000000E+02 0.  1.
</event>
<event>
 5    1  0.1757379E-008  0.3853329E+03  0.7957747E-01  0.3428261E+00
         13   -1    0    0    0    0  0.00000000000E+00  0.00000000000E+00  0.14999999963E+04  0.15000000000E+04  0.10566000000E+00 0.  1.
        994   -1    0    0    0    0 -0.00000000000E+00 -0.00000000000E+00  0.11368683772E-12  0.17120000000E+03  0.17120000000E+03 0.  0.
         13    1    1    2    0    0 -0.10817998670E+02 -0.37255351411E+01  0.38761560420E+02  0.40415076859E+02  0.10566000000E+00 0.  1.
        994    1    1    2    0    0  0.31380494464E+02  0.19186579881E+02  0.59218864638E+01  0.17520664662E+03  0.17120000000E+03 0.  0.
        998    1    1    2    0    0 -0.20562495794E+02 -0.15461044740E+02  0.14553165494E+04  0.14555782765E+04  0.10000000000E+02 0.  1.
</event>
<event>
 5    1  0.1757379E-008  0.3818946E+03  0.7957747E-01  0.3442950E+00
         13   -1    0    0    0    0  0.00000000000E+00  0.00000000000E+00  0.14999999963E+04  0.15000000000E+04  0.10566000000E+00 0. -1.
        994   -1    0    0    0    0 -0.00000000000E+00 -0.00000000000E+00  0.11368683772E-12  0.17120000000E+03  0.17120000000E+03 0.  0.
         13    1    1    2    0    0  0.99483842538E+01 -0.54915737783E+01  0.18668568298E+02  0.21855304577E+02  0.10566000000E+00 0. -1.
        994    1    1    2    0    0 -0.11520273735E+02  0.96702213180E+01  0.39317374583E+01  0.17190441660E+03  0.17120000000E+03 0.  0.
        998    1    1    2    0    0  0.15718894816E+01 -0.41786475397E+01  0.14773996905E+04  0.14774402788E+04  0.10000000000E+02 0. -1.
</event>
<event>
 5    1  0.1757379E-008  0.3849180E+03  0.7957747E-01  0.3430020E+00
         13   -1    0    0    0    0  0.00000000000E+00  0.00000000000E+00  0.14999999963E+04  0.15000000000E+04  0.10566000000E+00 0.  1.
        994   -1    0    0    0    0 -0.00000000000E+00 -0.00000000000E+00  0.11368683772E-12  0.17120000000E+03  0.17120000000E+03 0.  0.
         13    1    1    2    0    0  0.11291118387E+02  0.62098501979E+01  0.49369832169E+02  0.51023946205E+02  0.10566000000E+00 0.  1.
        994    1    1    2    0    0 -0.10669314487E+02 -0.23024647130E+00  0.20455900959E+01  0.17154448905E+03  0.17120000000E+03 0.  0.
        998    1    1    2    0    0 -0.62180389953E+00 -0.59796037266E+01  0.14485845740E+04  0.14486315647E+04  0.10000000000E+02 0.  1.
</event>
<event>
 5    1  0.1757379E-008  0.3796536E+03  0.7957747E-01  0.3452668E+00
         13   -1    0    0    0    0  0.00000000000E+00  0.00000000000E+00  0.14999999963E+04  0.15000000000E+04  0.10566000000E+00 0.  1.
        994   -1    0    0    0    0 -0.00000000000E+00 -0.00000000000E+00  0.11368683772E-12  0.17120000000E+03  0.17120000000E+03 0.  0.
         13    1    1    2    0    0 -0.30976975875E+01 -0.25851567498E+02  0.92328307331E+02  0.95929280051E+02  0.10566000000E+00 0.  1.
        994    1    1    2    0    0  0.27008062515E+01 -0.20390707779E+02  0.57253121472E+01  0.17252621400E+03  0.17120000000E+03 0.  0.
        998    1    1    2    0    0  0.39689133600E+00  0.46242275276E+02  0.14019463768E+04  0.14027445059E+04  0.10000000000E+02 0.  1.
</event>
<event>
 5    1  0.1757379E-008  0.3808405E+03  0.7957747E-01  0.3447507E+00
         13   -1    0    0    0    0  0.00000000000E+00  0.00000000000E+00  0.14999999963E+04  0.15000000000E+04  0.10566000000E+00 0.  1.
        994   -1    0    0    0    0 -0.00000000000E+00 -0.00000000000E+00  0.11368683772E-12  0.17120000000E+03  0.17120000000E+03 0.  0.
         13    1    1    2    0    0  0.14248474426E+02  0.20582288690E+02  0.92313761652E+02  0.95647746370E+02  0.10566000000E+00 0.  1.
        994    1    1    2    0    0 -0.16622589855E+01  0.63293971601E+01  0.38522551059E+01  0.17136832917E+03  0.17120000000E+03 0.  0.
        998    1    1    2    0    0 -0.12586215440E+02 -0.26911685850E+02  0.14038339795E+04  0.14041839245E+04  0.10000000000E+02 0.  1.
</event>
<event>
 5    1  0.1757379E-008  0.3692473E+03  0.7957747E-01  0.3499357E+00
         13   -1    0    0    0    0  0.00000000000E+00  0.00000000000E+00  0.14999999963E+04  0.15000000000E+04  0.10566000000E+00 0. -1.
        994   -1    0    0    0    0 -0.00000000000E+00 -0.00000000000E+00  0.11368683772E-12  0.17120000000E+03  0.17120000000E+03 0.  0.
         13    1    1    2    0    0 -0.11009198820E+03  0.65435081217E+02  0.71213899080E+03  0.72356336910E+03  0.10566000000E+00 0. -1.
        994    1    1    2    0    0  0.80048792821E+02 -0.43779695107E+02  0.39102645510E+02  0.19789625520E+03  0.17120000000E+03 0.  0.
        998    1    1    2    0    0  0.30043195376E+02 -0.21655386110E+02  0.74875835997E+03  0.74974037570E+03  0.10000000000E+02 0.  1.
</event>
<event>
 5    1  0.1757379E-008  0.3843179E+03  0.7957747E-01  0.3432570E+00
         13   -1    0    0    0    0  0.00000000000E+00  0.00000000000E+00  0.14999999963E+04  0.15000000000E+04  0.10566000000E+00 0. -1.
        994   -1    0    0    0    0 -0.00000000000E+00 -0.00000000000E+00  0.11368683772E-12  0.17120000000E+03  0.17120000000E+03 0.  0.
         13    1    1    2    0    0  0.15942057690E+02  0.10223187643E+02  0.85083838079E+02  0.87166125503E+02  0.10566000000E+00 0. -1.
        994    1    1    2    0    0 -0.18077151946E+02 -0.12509496419E+02  0.35636116828E+01  0.17264243468E+03  0.17120000000E+03 0.  0.
        998    1    1    2    0    0  0.21350942560E+01  0.22863087762E+01  0.14113525465E+04  0.14113914398E+04  0.10000000000E+02 0. -1.
</event>
<event>
 5    1  0.1757379E-008  0.3854183E+03  0.7957747E-01  0.3427900E+00
         13   -1    0    0    0    0  0.00000000000E+00  0.00000000000E+00  0.14999999963E+04  0.15000000000E+04  0.10566000000E+00 0. -1.
        994   -1    0    0    0    0 -0.00000000000E+00 -0.00000000000E+00  0.11368683772E-12  0.17120000000E+03  0.17120000000E+03 0.  0.
         13    1    1    2    0    0 -0.99564835887E+01 -0.73378054368E+01  0.55515039174E+02  0.56876231350E+02  0.10566000000E+00 0. -1.
        994    1    1    2    0    0  0.49157102709E+01 -0.30400376990E+00  0.15022936991E+01  0.17127741682E+03  0.17120000000E+03 0.  0.
        998    1    1    2    0    0  0.50407733178E+01  0.76418092067E+01  0.14429826634E+04  0.14430463518E+04  0.10000000000E+02 0. -1.
</event>
<event>
 5    1  0.1757379E-008  0.3786728E+03  0.7957747E-01  0.3456958E+00
         13   -1    0    0    0    0  0.00000000000E+00  0.00000000000E+00  0.14999999963E+04  0.15000000000E+04  0.10566000000E+00 0.  1.
        994   -1    0    0    0    0 -0.00000000000E+00 -0.00000000000E+00  0.11368683772E-12  0.17120000000E+03  0.17120000000E+03 0.  0.
         13    1    1    2    0    0 -0.11287005418E+02  0.11970154260E+01  0.11364591153E+02  0.16062205121E+02  0.10566000000E+00 0.  1.
        994    1    1    2    0    0  0.48154817363E+01 -0.89038532340E+00  0.48851333355E+01  0.17133968069E+03  0.17120000000E+03 0.  0.
        998    1    1    2    0    0  0.64715236819E+01 -0.30663010259E+00  0.14837502718E+04  0.14837981142E+04  0.10000000000E+02 0.  1.
</event>
<event>
 5    1  0.1757379E-008  0.3855317E+03  0.7957747E-01  0.3427420E+00
         13   -1    0    0    0    0  0.00000000000E+00  0.00000000000E+00  0.14999999963E+04  0.15000000000E+04  0.10566000000E+00 0.  1.
        994   -1    0    0    0    0 -0.00000000000E+00 -0.00000000000E+00  0.11368683772E-12  0.17120000000E+03  0.17120000000E+03 0.  0.
         13    1    1    2    0    0 -0.50610639389E+01 -0.12904556670E+02  0.69805706135E+02  0.71168741201E+02  0.10566000000E+00 0.  1.
        994    1    1    2    0    0  0.12141541603E+01  0.11267054952E+02  0.17881215588E+01  0.17158396800E+03  0.17120000000E+03 0.  0.
        998    1    1    2    0    0  0.38469097786E+01  0.16375017181E+01  0.14284061686E+04  0.14284472908E+04  0.10000000000E+02 0.  1.
</event>
<event>
 5    1  0.1757379E-008  0.3772868E+03  0.7957747E-01  0.3463058E+00
         13   -1    0    0    0    0  0.00000000000E+00  0.00000000000E+00  0.14999999963E+04  0.15000000000E+04  0.10566000000E+00 0. -1.
        994   -1    0    0    0    0 -0.00000000000E+00 -0.00000000000E+00  0.11368683772E-12  0.17120000000E+03  0.17120000000E+03 0.  0.
         13    1    1    2    0    0 -0.31959600612E+02  0.48884988392E+02  0.28225684148E+03  0.28823617727E+03  0.10566000000E+00 0. -1.
        994    1    1    2    0    0  0.28197173065E+02 -0.34582444015E+02  0.12254821320E+02  0.17734330167E+03  0.17120000000E+03 0.  0.
        998    1    1    2    0    0  0.37624275466E+01 -0.14302544377E+02  0.12054883335E+04  0.12056205211E+04  0.10000000000E+02 0. -1.
</event>
<event>
 5    1  0.1757379E-008  0.2984335E+03  0.7957747E-01  0.3907266E+00
         13   -1    0    0    0    0  0.00000000000E+00  0.00000000000E+00  0.14999999963E+04  0.15000000000E+04  0.10566000000E+00 0. -1.
        994   -1    0    0    0    0 -0.00000000000E+00 -0.00000000000E+00  0.11368683772E-12  0.17120000000E+03  0.17120000000E+03 0.  0.
         13    1    1    2    0    0  0.12457398175E+03  0.62021207229E+02  0.82053938684E+03  0.83225609256E+03  0.10566000000E+00 0. -1.
        994    1    1    2    0    0 -0.35366670986E+02 -0.22131583467E+02  0.25972276722E+02  0.17811402966E+03  0.17120000000E+03 0.  0.
        998    1    1    2    0    0 -0.89207310763E+02 -0.39889623762E+02  0.65348833271E+03  0.66082987778E+03  0.10000000000E+02 0. -1.
</event>
<event>
 5    1  0.1757379E-008  0.3760328E+03  0.7957747E-01  0.3468617E+00
         13   -1    0    0    0    0  0.00000000000E+00  0.00000000000E+00  0.14999999963E+04  0.15000000000E+04  0.10566000000E+00 0.  1.
        994   -1    0    0    0    0 -0.00000000000E+00 -0.00000000000E+00  0.11368683772E-12  0.17120000000E+03  0.17120000000E+03 0.  0.
         13    1    1    2    0    0 -0.55300620759E+00 -0.11201184717E+02  0.73610126339E+01  0.13415216210E+02  0.10566000000E+00 0.  1.
        994    1    1    2    0    0 -0.64769138154E+00  0.11932358049E+02  0.66332061938E+01  0.17174469452E+03  0.17120000000E+03 0.  0.
        998    1    1    2    0    0  0.12006975891E+01 -0.73117333196E+00  0.14860057775E+04  0.14860400893E+04  0.10000000000E+02 0.  1.
</event>
<event>
 5    1  0.1757379E-008  0.3830125E+03  0.7957747E-01  0.3438146E+00
         13   -1    0    0    0    0  0.00000000000E+00  0.00000000000E+00  0.14999999963E+04  0.15000000000E+04  0.10566000000E+00 0. -1.
        994   -1    0    0    0    0 -0.00000000000E+00 -0.00000000000E+00  0.11368683772E-12  0.17120000000E+03  0.17120000000E+03 0.  0.
         13    1    1    2    0    0 -0.12223936445E+02  0.73278012868E+00  0.27277146458E+02  0.29900091503E+02  0.10566000000E+00 0. -1.
        994    1    1    2    0    0  0.13545959007E+02  0.90389098704E+01  0.34984153730E+01  0.17200835389E+03  0.17120000000E+03 0.  0.
        998    1    1    2    0    0 -0.13220225613E+01 -0.97716899991E+01  0.14692244344E+04  0.14692915546E+04  0.10000000000E+02 0. -1.
</event>
<event>
 5    1  0.1757379E-008  0.3812122E+03  0.7957747E-01  0.3445897E+00
         13   -1    0    0    0    0  0.00000000000E+00  0.00000000000E+00  0.14999999963E+04  0.15000000000E+04  0.10566000000E+00 0. -1.
        994   -1    0    0    0    0 -0.00000000000E+00 -0.00000000000E+00  0.11368683772E-12  0.17120000000E+03  0.17120000000E+03 0.  0.
         13    1    1    2    0    0  0.17660344390E+02  0.28331212469E+00  0.42299921582E+02  0.45839530534E+02  0.10566000000E+00 0. -1.
        994    1    1    2    0    0 -0.16102538778E+02 -0.54377565644E+00  0.43872964577E+01  0.17201242925E+03  0.17120000000E+03 0.  0.
        998    1    1    2    0    0 -0.15578056116E+01  0.26046353174E+00  0.14533127782E+04  0.14533480402E+04  0.10000000000E+02 0. -1.
</event>
<event>
 5    1  0.1757379E-008  0.3788397E+03  0.7957747E-01  0.3456226E+00
         13   -1    0    0    0    0  0.00000000000E+00  0.00000000000E+00  0.14999999963E+04  0.15000000000E+04  0.10566000000E+00 0. -1.
        994   -1    0    0    0    0 -0.00000000000E+00 -0.00000000000E+00  0.11368683772E-12  0.17120000000E+03  0.17120000000E+03 0.  0.
         13    1    1    2    0    0 -0.32845052245E+02 -0.73548734722E+00  0.13239509175E+03  0.13641044638E+03  0.10566000000E+00 0. -1.
        994    1    1    2    0    0 -0.72460758339E+01 -0.26308134495E+02  0.72228469701E+01  0.17351147822E+03  0.17120000000E+03 0.  0.
        998    1    1    2    0    0  0.40091128079E+02  0.27043621842E+02  0.13603820576E+04  0.13612780754E+04  0.10000000000E+02 0. -1.
</event>
<event>
 5    1  0.1757379E-008  0.3838775E+03  0.7957747E-01  0.3434447E+00
         13   -1    0    0    0    0  0.00000000000E+00  0.00000000000E+00  0.14999999963E+04  0.15000000000E+04  0.10566000000E+00 0. -1.
        994   -1    0    0    0    0 -0.00000000000E+00 -0.00000000000E+00  0.11368683772E-12  0.17120000000E+03  0.17120000000E+03 0.  0.
         13    1    1    2    0    0  0.73610831630E+01  0.26753271675E+02  0.15839986833E+03  0.16081185448E+03  0.10566000000E+00 0. -1.
        994    1    1    2    0    0 -0.26811478616E+02 -0.22936028323E+02  0.63083737297E+01  0.17491184168E+03  0.17120000000E+03 0.  0.
        998    1    1    2    0    0  0.19450395453E+02 -0.38172433521E+01  0.13352917542E+04  0.13354763038E+04  0.10000000000E+02 0. -1.
</event>
<event>
 5    1  0.1757379E-008  0.3826495E+03  0.7957747E-01  0.3439702E+00
         13   -1    0    0    0    0  0.00000000000E+00  0.00000000000E+00  0.14999999963E+04  0.15000000000E+04  0.10566000000E+00 0.  1.
        994   -1    0    0    0    0 -0.00000000000E+00 -0.00000000000E+00  0.11368683772E-12  0.17120000000E+03  0.17120000000E+03 0.  0.
         13    1    1    2    0    0  0.31033156234E+01 -0.13545450730E+02  0.34700316429E+02  0.37379579019E+02  0.10566000000E+00 0.  1.
        994    1    1    2    0    0 -0.98883031630E+01 -0.21529430741E+01  0.31410709337E+01  0.17152760719E+03  0.17120000000E+03 0.  0.
        998    1    1    2    0    0  0.67849875396E+01  0.15698393804E+02  0.14621586089E+04  0.14622928138E+04  0.10000000000E+02 0.  1.
</event>
<event>
 5    1  0.1757379E-008  0.3809239E+03  0.7957747E-01  0.3447145E+00
         13   -1    0    0    0    0  0.00000000000E+00  0.00000000000E+00  0.14999999963E+04  0.15000000000E+04  0.10566000000E+00 0. -1.
        994   -1    0    0    0    0 -0.00000000000E+00 -0.00000000000E+00  0.11368683772E-12  0.17120000000E+03  0.17120000000E+03 0.  0.
         13    1    1    2    0    0 -0.38645682720E+01 -0.41568551812E+02  0.21363757033E+03  0.21767843717E+03  0.10566000000E+00 0. -1.
        994    1    1    2    0    0  0.15719559306E+01  0.36736744886E+02  0.81866951860E+01  0.17529552604E+03  0.17120000000E+03 0.  0.
        998    1    1    2    0    0  0.22926123414E+01  0.48318069256E+01  0.12781757308E+04  0.12782260368E+04  0.10000000000E+02 0. -1.
</event>
<event>
 5    1  0.1757379E-008  0.2803981E+03  0.7957747E-01  0.4046726E+00
         13   -1    0    0    0    0  0.00000000000E+00  0.00000000000E+00  0.14999999963E+04  0.15000000000E+04  0.10566000000E+00 0. -1.
        994   -1    0    0    0    0 -0.00000000000E+00 -0.00000000000E+00  0.11368683772E-12  0.17120000000E+03  0.17120000000E+03 0.  0.
         13    1    1    2    0    0 -0.12857657762E+02 -0.20898293640E+03  0.42646675843E+03  0.47509272177E+03  0.10566000000E+00 0. -1.
        994    1    1    2    0    0  0.24935201709E+02  0.20138231099E+03  0.22674808199E+03  0.34914285350E+03  0.17120000000E+03 0.  0.
        998    1    1    2    0    0 -0.12077543948E+02  0.76006254066E+01  0.84678515586E+03  0.84696442473E+03  0.10000000000E+02 0. -1.
</event>
<event>
 5    1  0.1757379E-008  0.3850957E+03  0.7957747E-01  0.3429267E+00
         13   -1    0    0    0    0  0.00000000000E+00  0.00000000000E+00  0.14999999963E+04  0.15000000000E+04  0.10566000000E+00 0.  1.
        994   -1    0    0    0    0 -0.00000000000E+00 -0.00000000000E+00  0.11368683772E-12  0.17120000000E+03  0.17120000000E+03 0.  0.
         13    1    1    2    0    0  0.11799076547E+02 -0.69438802953E+00  0.44263307775E+02  0.45814320483E+02  0.10566000000E+00 0.  1.
        994    1    1    2    0    0 -0.64304216744E+01  0.17663700403E+02  0.27452078820E+01  0.17225078462E+03  0.17120000000E+03 0.  0.
        998    1    1    2    0    0 -0.53686548723E+01 -0.16969312373E+02  0.14529914806E+04  0.14531348949E+04  0.10000000000E+02 0.  1.
</event>
<event>
 5    1  0.1757379E-008  0.3856905E+03  0.7957747E-01  0.3426749E+00
         13   -1    0    0    0    0  0.00000000000E+00  0.00000000000E+00  0.14999999963E+04  0.15000000000E+04  0.10566000000E+00 0.  1.
        994   -1    0    0    0    0 -0.00000000000E+00 -0.00000000000E+00  0.11368683772E-12  0.17120000000E+03  0.17120000000E+03 0.  0.
         13    1    1    2    0    0 -0.14293516268E+02 -0.55457842781E+01  0.88543497803E+02  0.89861128959E+02  0.10566000000E+00 0.  1.
        994    1    1    2    0    0  0.12166314843E+02  0.87335893495E+01  0.20240494665E+01  0.17186573706E+03  0.17120000000E+03 0.  0.
        998    1    1    2    0    0  0.21272014245E+01 -0.31878050714E+01  0.14094324490E+04  0.14094731340E+04  0.10000000000E+02 0.  1.
</event>
<event>
 5    1  0.1757379E-008  0.3792808E+03  0.7957747E-01  0.3454296E+00
         13   -1    0    0    0    0  0.00000000000E+00  0.00000000000E+00  0.14999999963E+04  0.15000000000E+04  0.10566000000E+00 0.  1.
        994   -1    0    0    0    0 -0.00000000000E+00 -0.00000000000E+00  0.11368683772E-12  0.17120000000E+03  0.17120000000E+03 0.  0.
         13    1    1    2    0    0 -0.25557076217E+02 -0.81836677428E+02  0.24736558721E+03  0.26180173952E+03  0.10566000000E+00 0.  1.
        994    1    1    2    0    0  0.53698773409E+02  0.19097175630E+02  0.27766985247E+02  0.18256151252E+03  0.17120000000E+03 0.  0.
        998    1    1    2    0    0 -0.28141697192E+02  0.62739501798E+02  0.12248674238E+04  0.12268367480E+04  0.10000000000E+02 0.  1.
</event>
<event>
 5    1  0.1757379E-008  0.3797602E+03  0.7957747E-01  0.3452203E+00
         13   -1    0    0    0    0  0.00000000000E+00  0.00000000000E+00  0.14999999963E+04  0.15000000000E+04  0.10566000000E+00 0. -1.
        994   -1    0    0    0    0 -0.00000000000E+00 -0.00000000000E+00  0.11368683772E-12  0.17120000000E+03  0.17120000000E+03 0.  0.
         13    1    1    2    0    0 -0.22742629600E+01  0.27403576144E+02  0.92360964325E+02  0.96367458992E+02  0.10566000000E+00 0. -1.
        994    1    1    2    0    0  0.24358490391E+01 -0.54616759299E+01  0.43739086721E+01  0.17136024726E+03  0.17120000000E+03 0.  0.
        998    1    1    2    0    0 -0.16158607914E+00 -0.21941900214E+02  0.14032651233E+04  0.14034722937E+04  0.10000000000E+02 0. -1.
</event>
<event>
 5    1  0.1757379E-008  0.3850055E+03  0.7957747E-01  0.3429649E+00
         13   -1    0    0    0    0  0.00000000000E+00  0.00000000000E+00  0.14999999963E+04  0.15000000000E+04  0.10566000000E+00 0.  1.
        994   -1    0    0    0    0 -0.00000000000E+00 -0.00000000000E+00  0.11368683772E-12  0.17120000000E+03  0.17120000000E+03 0.  0.
         13    1    1    2    0    0 -0.76772863932E+01  0.64483574740E+01  0.31794867570E+02  0.33338368411E+02  0.10566000000E+00 0.  1.
        994    1    1    2    0    0  0.51943969944E+01  0.78749027727E+01  0.19201247974E+01  0.17147047190E+03  0.17120000000E+03 0.  0.
        998    1    1    2    0    0  0.24828893988E+01 -0.14323260247E+02  0.14662850039E+04  0.14663911597E+04  0.10000000000E+02 0.  1.
</event>
<event>
 5    1  0.1757379E-008  0.3850987E+03  0.7957747E-01  0.3429254E+00
         13   -1    0    0    0    0  0.00000000000E+00  0.00000000000E+00  0.14999999963E+04  0.15000000000E+04  0.10566000000E+00 0. -1.
        994   -1    0    0    0    0 -0.00000000000E+00 -0.00000000000E+00  0.11368683772E-12  0.17120000000E+03  0.17120000000E+03 0.  0.
         13    1    1    2    0    0 -0.29136590424E+01  0.10882659328E+02  0.40624172388E+02  0.42157516877E+02  0.10566000000E+00 0. -1.
        994    1    1    2    0    0 -0.83933136290E+01 -0.73519495503E+01  0.19905537330E+01  0.17157476848E+03  0.17120000000E+03 0.  0.
        998    1    1    2    0    0  0.11306972671E+02 -0.35307097776E+01  0.14573852702E+04  0.14574677146E+04  0.10000000000E+02 0. -1.
</event>
<event>
 5    1  0.1757379E-008  0.3704164E+03  0.7957747E-01  0.3493980E+00
         13   -1    0    0    0    0  0.00000000000E+00  0.00000000000E+00  0.14999999963E+04  0.15000000000E+04  0.10566000000E+00 0.  1.
        994   -1    0    0    0    0 -0.00000000000E+00 -0.00000000000E+00  0.11368683772E-12  0.17120000000E+03  0.17120000000E+03 0.  0.
         13    1    1    2    0    0 -0.74752678012E+01  0.10388660937E+02  0.47775609060E+01  0.13661630833E+02  0.10566000000E+00 0.  1.
        994    1    1    2    0    0 -0.84935068905E+01 -0.27043419870E+02  0.11830795870E+02  0.17393359063E+03  0.17120000000E+03 0.  0.
        998    1    1    2    0    0  0.15968774692E+02  0.16654758933E+02  0.14833916395E+04  0.14836047785E+04  0.10000000000E+02 0.  1.
</event>
<event>
 5    1  0.1757379E-008  0.3698486E+03  0.7957747E-01  0.3496587E+00
         13   -1    0    0    0    0  0.00000000000E+00  0.00000000000E+00  0.14999999963E+04  0.15000000000E+04  0.10566000000E+00 0. -1.
        994   -1    0    0    0    0 -0.00000000000E+00 -0.00000000000E+00  0.11368683772E-12  0.17120000000E+03  0.17120000000E+03 0.  0.
         13    1    1    2    0    0  0.16347718472E+02 -0.25013802392E+02  0.43245651987E+02  0.52565538038E+02  0.10566000000E+00 0. -1.
        994    1    1    2    0    0 -0.11057217044E+02  0.25319620472E+02  0.11993520491E+02  0.17382931215E+03  0.17120000000E+03 0.  0.
        998    1    1    2    0    0 -0.52905014287E+01 -0.30581808067E+00  0.14447608238E+04  0.14448051498E+04  0.10000000000E+02 0. -1.
</event>
<event>
 5    1  0.1757379E-008  0.3831640E+03  0.7957747E-01  0.3437496E+00
         13   -1    0    0    0    0  0.00000000000E+00  0.00000000000E+00  0.14999999963E+04  0.15000000000E+04  0.10566000000E+00 0. -1.
        994   -1    0    0    0    0 -0.00000000000E+00 -0.00000000000E+00  0.11368683772E-12  0.17120000000E+03  0.17120000000E+03 0.  0.
         13    1    1    2    0    0  0.25907212084E+01 -0.17364610662E+02  0.64028028486E+02  0.66391574282E+02  0.10566000000E+00 0. -1.
        994    1    1    2    0    0  0.54649462668E+01 -0.77678772984E+00  0.26452473931E+01  0.17130938786E+03  0.17120000000E+03 0.  0.
        998    1    1    2    0    0 -0.80556674752E+01  0.18141398392E+02  0.14333267204E+04  0.14334990379E+04  0.10000000000E+02 0. -1.
</event>
<event>
 5    1  0.1757379E-008  0.3173796E+03  0.7957747E-01  0.3779259E+00
         13   -1    0    0    0    0  0.00000000000E+00  0.00000000000E+00  0.14999999963E+04  0.15000000000E+04  0.10566000000E+00 0.  1.
        994   -1    0    0    0    0 -0.00000000000E+00 -0.00000000000E+00  0.11368683772E-12  0.17120000000E+03  0.17120000000E+03 0.  0.
         13    1    1    2    0    0  0.18397926519E+03 -0.54206483154E+02  0.10148494176E+04  0.10328146321E+04  0.10566000000E+00 0.  1.
        994    1    1    2    0    0 -0.66868467294E+02  0.30897472474E+02  0.58669914193E+02  0.19539100428E+03  0.17120000000E+03 0.  0.
        998    1    1    2    0    0 -0.11711079790E+03  0.23309010680E+02  0.42648066451E+03  0.44299436358E+03  0.10000000000E+02 0. -1.
</event>
<event>
 5    1  0.1757379E-008  0.3840033E+03  0.7957747E-01  0.3433910E+00
         13   -1    0    0    0    0  0.00000000000E+00  0.00000000000E+00  0.14999999963E+04  0.15000000000E+04  0.10566000000E+00 0.  1.
        994   -1    0    0    0    0 -0.00000000000E+00 -0.00000000000E+00  0.11368683772E-12  0.17120000000E+03  0.17120000000E+03 0.  0.
         13    1    1    2    0    0 -0.29908492297E+02 -0.21453024485E+02  0.20481374908E+03  0.20809476963E+03  0.10566000000E+00 0.  1.
        994    1    1    2    0    0  0.60081105660E+02  0.33867154615E+02  0.17980800282E+02  0.18544398776E+03  0.17120000000E+03 0.  0.
        998    1    1    2    0    0 -0.30172613363E+02 -0.12414130130E+02  0.12772054469E+04  0.12776612426E+04  0.10000000000E+02 0.  1.
</event>
<event>
 5    1  0.1757379E-008  0.3804053E+03  0.7957747E-01  0.3449396E+00
         13   -1    0    0    0    0  0.00000000000E+00  0.00000000000E+00  0.14999999963E+04  0.15000000000E+04  0.10566000000E+00 0.  1.
        994   -1    0    0    0    0 -0.00000000000E+00 -0.00000000000E+00  0.11368683772E-12  0.17120000000E+03  0.17120000000E+03 0.  0.
         13    1    1    2    0    0  0.15158979369E+02  0.15587900497E+02  0.57240362698E+02  0.61231099804E+02  0.10566000000E+00 0.  1.
        994    1    1    2    0    0 -0.12483409078E+02 -0.16325456394E+02  0.53399682390E+01  0.17251177145E+03  0.17120000000E+03 0.  0.
        998    1    1    2    0    0 -0.26755702917E+01  0.73755589706E+00  0.14374196653E+04  0.14374571287E+04  0.10000000000E+02 0.  1.
</event>
<event>
 5    1  0.1757379E-008  0.3334404E+03  0.7957747E-01  0.3682868E+00
         13   -1    0    0    0    0  0.00000000000E+00  0.00000000000E+00  0.14999999963E+04  0.15000000000E+04  0.10566000000E+00 0.  1.
        994   -1    0    0    0    0 -0.00000000000E+00 -0.00000000000E+00  0.11368683772E-12  0.17120000000E+03  0.17120000000E+03 0.  0.
         13    1    1    2    0    0  0.22173246134E+03 -0.67751121118E+02  0.89892116631E+03  0.92833979406E+03  0.10566000000E+00 0.  1.
        994    1    1    2    0    0 -0.17239267895E+03  0.79549539723E+02  0.16621517507E+03  0.30493325409E+03  0.17120000000E+03 0.  0.
        998    1    1    2    0    0 -0.49339782387E+02 -0.11798418605E+02  0.43486365489E+03  0.43792695185E+03  0.10000000000E+02 0.  1.
</event>
<event>
 5    1  0.1757379E-008  0.3826500E+03  0.7957747E-01  0.3439700E+00
         13   -1    0    0    0    0  0.00000000000E+00  0.00000000000E+00  0.14999999963E+04  0.15000000000E+04  0.10566000000E+00 0.  1.
        994   -1    0    0    0    0 -0.00000000000E+00 -0.00000000000E+00  0.11368683772E-12  0.17120000000E+03  0.17120000000E+03 0.  0.
         13    1    1    2    0    0 -0.13689916810E+02  0.55066901864E+01  0.37402499626E+02  0.40208153419E+02  0.10566000000E+00 0.  1.
        994    1    1    2    0    0  0.12872931414E+02 -0.41950601336E+01  0.34091033233E+01  0.17176836984E+03  0.17120000000E+03 0.  0.
        998    1    1    2    0    0  0.81698539555E+00 -0.13116300528E+01  0.14591883933E+04  0.14592234767E+04  0.10000000000E+02 0.  1.
</event>
<event>
 5    1  0.1757379E-008  0.3821557E+03  0.7957747E-01  0.3441826E+00
         13   -1    0    0    0    0  0.00000000000E+00  0.00000000000E+00  0.14999999963E+04  0.15000000000E+04  0.10566000000E+00 0.  1.
        994   -1    0    0    0    0 -0.00000000000E+00 -0.00000000000E+00  0.11368683772E-12  0.17120000000E+03  0.17120000000E+03 0.  0.
         13    1    1    2    0    0 -0.15490772449E+01  0.17411577313E+02  0.50488691398E+02  0.53429222229E+02  0.10566000000E+00 0.  1.
        994    1    1    2    0    0 -0.41287859910E+01 -0.52854443626E+01  0.31982461479E+01  0.17136117289E+03  0.17120000000E+03 0.  0.
        998    1    1    2    0    0  0.56778632359E+01 -0.12126132951E+02  0.14463130587E+04  0.14464096049E+04  0.10000000000E+02 0.  1.
</event>
<event>
 5    1  0.1757379E-008  0.3844171E+03  0.7957747E-01  0.3432148E+00
         13   -1    0    0    0    0  0.00000000000E+00  0.00000000000E+00  0.14999999963E+04  0.15000000000E+04  0.10566000000E+00 0. -1.
        994   -1    0    0    0    0 -0.00000000000E+00 -0.00000000000E+00  0.11368683772E-12  0.17120000000E+03  0.17120000000E+03 0.  0.
         13    1    1    2    0    0  0.52745255399E+01  0.85025101798E+01  0.25699608618E+02  0.27578874998E+02  0.10566000000E+00 0. -1.
        994    1    1    2    0    0 -0.25277711191E+01 -0.50533568027E+01  0.20250115038E+01  0.17130518589E+03  0.17120000000E+03 0.  0.
        998    1    1    2    0    0 -0.27467544209E+01 -0.34491533771E+01  0.14722753762E+04  0.14723159391E+04  0.10000000000E+02 0. -1.
</event>
<event>
 5    1  0.1757379E-008  0.3744488E+03  0.7957747E-01  0.3475691E+00
         13   -1    0    0    0    0  0.00000000000E+00  0.00000000000E+00  0.14999999963E+04  0.15000000000E+04  0.10566000000E+00 0. -1.
        994   -1    0    0    0    0 -0.00000000000E+00 -0.00000000000E+00  0.11368683772E-12  0.17120000000E+03  0.17120000000E+03 0.  0.
         13    1    1    2    0    0 -0.33527657484E+02 -0.40968085499E+02  0.20030708497E+03  0.20718452476E+03  0.10566000000E+00 0. -1.
        994    1    1    2    0    0  0.46803526725E+02  0.15438392343E+01  0.14467147597E+02  0.17807776928E+03  0.17120000000E+03 0.  0.
        998    1    1    2    0    0 -0.13275869242E+02  0.39424246265E+02  0.12852257637E+04  0.12859377060E+04  0.10000000000E+02 0. -1.
</event>
<event>
 5    1  0.1757379E-008  0.3857526E+03  0.7957747E-01  0.3426486E+00
         13   -1    0    0    0    0  0.00000000000E+00  0.00000000000E+00  0.14999999963E+04  0.15000000000E+04  0.10566000000E+00 0. -1.
        994   -1    0    0    0    0 -0.00000000000E+00 -0.00000000000E+00  0.11368683772E-12  0.17120000000E+03  0.17120000000E+03 0.  0.
         13    1    1    2    0    0  0.10064003505E+02 -0.71161045056E+01  0.62536218199E+02  0.63739413714E+02  0.10566000000E+00 0. -1.
        994    1    1    2    0    0 -0.46493783026E+01  0.12686011537E+01  0.13331265170E+01  0.17127300807E+03  0.17120000000E+03 0.  0.
        998    1    1    2    0    0 -0.54146252027E+01  0.58475033519E+01  0.14361306516E+04  0.14361875782E+04  0.10000000000E+02 0. -1.
</event>
<event>
 5    1  0.1757379E-008  0.3848827E+03  0.7957747E-01  0.3430170E+00
         13   -1    0    0    0    0  0.00000000000E+00  0.00000000000E+00  0.14999999963E+04  0.15000000000E+04  0.10566000000E+00 0. -1.
        994   -1    0    0    0    0 -0.00000000000E+00 -0.00000000000E+00  0.11368683772E-12  0.17120000000E+03  0.17120000000E+03 0.  0.
         13    1    1    2    0    0  0.14563980226E+02 -0.60472059002E+01  0.71987194259E+02  0.73694270608E+02  0.10566000000E+00 0. -1.
        994    1    1    2    0    0 -0.11704939309E+02  0.76276340195E+01  0.23308067056E+01  0.17178492095E+03  0.17120000000E+03 0.  0.
        998    1    1    2    0    0 -0.28590409169E+01 -0.15804281193E+01  0.14256819953E+04  0.14257208084E+04  0.10000000000E+02 0. -1.
</event>
<event>
 5    1  0.1757379E-008  0.3765401E+03  0.7957747E-01  0.3466363E+00
         13   -1    0    0    0    0  0.00000000000E+00  0.00000000000E+00  0.14999999963E+04  0.15000000000E+04  0.10566000000E+00 0. -1.
        994   -1    0    0    0    0 -0.00000000000E+00 -0.00000000000E+00  0.11368683772E-12  0.17120000000E+03  0.17120000000E+03 0.  0.
         13    1    1    2    0    0 -0.32622155624E+02  0.10994676829E+02  0.96680555607E+02  0.10262664835E+03  0.10566000000E+00 0. -1.
        994    1    1    2    0    0  0.25477473162E+02 -0.37841840767E+01  0.81366720911E+01  0.17331782113E+03  0.17120000000E+03 0.  0.
        998    1    1    2    0    0  0.71446824618E+01 -0.72104927523E+01  0.13951827686E+04  0.13952555305E+04  0.10000000000E+02 0. -1.
</event>
<event>
 5    1  0.1757379E-008  0.3813905E+03  0.7957747E-01  0.3445126E+00
         13   -1    0    0    0    0  0.00000000000E+00  0.00000000000E+00  0.14999999963E+04  0.15000000000E+04  0.10566000000E+00 0. -1.
        994   -1    0    0    0    0 -0.00000000000E+00 -0.00000000000E+00  0.11368683772E-12  0.17120000000E+03  0.17120000000E+03 0.  0.
         13    1    1    2    0    0  0.42713537769E+01 -0.30850435984E+02  0.14190850721E+03  0.14528602632E+03  0.10566000000E+00 0. -1.
        994    1    1    2    0    0  0.10472698180E+02  0.18429782782E+02  0.49295192964E+01  0.17257773455E+03  0.17120000000E+03 0.  0.
        998    1    1    2    0    0 -0.14744051957E+02  0.12420653202E+02  0.13531619698E+04  0.13533362391E+04  0.10000000000E+02 0. -1.
</event>
<event>
 5    1  0.1757379E-008  0.3840045E+03  0.7957747E-01  0.3433905E+00
         13   -1    0    0    0    0  0.00000000000E+00  0.00000000000E+00  0.14999999963E+04  0.15000000000E+04  0.10566000000E+00 0.  1.
        994   -1    0    0    0    0 -0.00000000000E+00 -0.00000000000E+00  0.11368683772E-12  0.17120000000E+03  0.17120000000E+03 0.  0.
         13    1    1    2    0    0 -0.79223343228E+01  0.28185756201E+02  0.15305521035E+03  0.15583038475E+03  0.10566000000E+00 0.  1.
        994    1    1    2    0    0  0.30967847896E+02 -0.44472840686E+02  0.11875576098E+02  0.17996474785E+03  0.17120000000E+03 0.  0.
        998    1    1    2    0    0 -0.23045513573E+02  0.16287084485E+02  0.13350692098E+04  0.13354048674E+04  0.10000000000E+02 0.  1.
</event>
<event>
 5    1  0.1757379E-008  0.4294607E+03  0.7957747E-01  0.3260541E+00
         13   -1    0    0    0    0  0.00000000000E+00  0.00000000000E+00  0.14999999963E+04  0.15000000000E+04  0.10566000000E+00 0.  1.
        994   -1    0    0    0    0 -0.00000000000E+00 -0.00000000000E+00  0.11368683772E-12  0.17120000000E+03  0.17120000000E+03 0.  0.
         13    1    1    2    0    0 -0.44157976359E+02  0.18770183705E+02  0.57884451032E+01  0.48329741704E+02  0.10566000000E+00 0.  1.
        994    1    1    2    0    0  0.52444072028E+02 -0.51188581841E+02  0.71110709058E+02  0.19934097558E+03  0.17120000000E+03 0.  0.
        998    1    1    2    0    0 -0.82860956694E+01  0.32418398136E+02  0.14231008421E+04  0.14235292827E+04  0.10000000000E+02 0.  1.
</event>
<event>
 5    1  0.1757379E-008  0.3845982E+03  0.7957747E-01  0.3431378E+00
         13   -1    0    0    0    0  0.00000000000E+00  0.00000000000E+00  0.14999999963E+04  0.15000000000E+04  0.10566000000E+00 0.  1.
        994   -1    0    0    0    0 -0.00000000000E+00 -0.00000000000E+00  0.11368683772E-12  0.17120000000E+03  0.17120000000E+03 0.  0.
         13    1    1    2    0    0  0.10871204498E+02  0.46105179113E+01  0.36662258480E+02  0.38517169205E+02  0.10566000000E+00 0.  1.
        994    1    1    2    0    0 -0.12875112190E+02 -0.70051411036E+01  0.25375165453E+01  0.17184504504E+03  0.17120000000E+03 0.  0.
        998    1    1    2    0    0  0.20039076919E+01  0.23946231923E+01  0.14608002213E+04  0.14608377858E+04  0.10000000000E+02 0.  1.
</event>
<event>
 5    1  0.1757379E-008  0.3819999E+03  0.7957747E-01  0.3442497E+00
         13   -1    0    0    0    0  0.00000000000E+00  0.00000000000E+00  0.14999999963E+04  0.15000000000E+04  0.10566000000E+00 0. -1.
        994   -1    0    0    0    0 -0.00000000000E+00 -0.00000000000E+00  0.11368683772E-12  0.17120000000E+03  0.17120000000E+03 0.  0.
         13    1    1    2    0    0  0.46212610396E+01 -0.16609671672E+02  0.45589691927E+02  0.48740829093E+02  0.10566000000E+00 0. -1.
        994    1    1    2    0    0 -0.13448096794E+01  0.16283380829E+02  0.40140798738E+01  0.17202473613E+03  0.17120000000E+03 0.  0.
        998    1    1    2    0    0 -0.32764513602E+01  0.32629084283E+00  0.14503962245E+04  0.14504344348E+04  0.10000000000E+02 0. -1.
</event>
<event>
 5    1  0.1757379E-008  0.3802849E+03  0.7957747E-01  0.3449919E+00
         13   -1    0    0    0    0  0.00000000000E+00  0.00000000000E+00  0.14999999963E+04  0.15000000000E+04  0.10566000000E+00 0. -1.
        994   -1    0    0    0    0 -0.00000000000E+00 -0.00000000000E+00  0.11368683772E-12  0.17120000000E+03  0.17120000000E+03 0.  0.
         13    1    1    2    0    0  0.15987388138E+02  0.82922056693E+01  0.38780718065E+02  0.42758771170E+02  0.10566000000E+00 0. -1.
        994    1    1    2    0    0 -0.12692207785E+02 -0.73219579451E+01  0.47067916756E+01  0.17189036359E+03  0.17120000000E+03 0.  0.
        998    1    1    2    0    0 -0.32951803532E+01 -0.97024772421E+00  0.14565124865E+04  0.14565508652E+04  0.10000000000E+02 0. -1.
</event>
<event>
 5    1  0.1757379E-008  0.3834171E+03  0.7957747E-01  0.3436413E+00
         13   -1    0    0    0    0  0.00000000000E+00  0.00000000000E+00  0.14999999963E+04  0.15000000000E+04  0.10566000000E+00 0.  1.
        994   -1    0    0    0    0 -0.00000000000E+00 -0.00000000000E+00  0.11368683772E-12  0.17120000000E+03  0.17120000000E+03 0.  0.
         13    1    1    2    0    0 -0.13264187315E+02 -0.14083040410E+02  0.73071896364E+02  0.75589575303E+02  0.10566000000E+00 0.  1.
        994    1    1    2    0    0  0.15650333399E+02  0.14457235165E+02  0.39200708806E+01  0.17256520953E+03  0.17120000000E+03 0.  0.
        998    1    1    2    0    0 -0.23861460837E+01 -0.37419475502E+00  0.14230080290E+04  0.14230452152E+04  0.10000000000E+02 0.  1.
</event>
<event>
 5    1  0.1757379E-008  0.3832183E+03  0.7957747E-01  0.3437264E+00
         13   -1    0    0    0    0  0.00000000000E+00  0.00000000000E+00  0.14999999963E+04  0.15000000000E+04  0.10566000000E+00 0. -1.
        994   -1    0    0    0    0 -0.00000000000E+00 -0.00000000000E+00  0.11368683772E-12  0.17120000000E+03  0.17120000000E+03 0.  0.
         13    1    1    2    0    0  0.15864860508E+00  0.15520836468E+02  0.54260097217E+02  0.56436609112E+02  0.10566000000E+00 0. -1.
        994    1    1    2    0    0  0.77972595637E+01  0.18596907573E+02  0.38635313728E+01  0.17242682246E+03  0.17120000000E+03 0.  0.
        998    1    1    2    0    0 -0.79559081688E+01 -0.34117744041E+02  0.14418763677E+04  0.14423365684E+04  0.10000000000E+02 0. -1.
</event>
<event>
 5    1  0.1757379E-008  0.3703397E+03  0.7957747E-01  0.3494331E+00
         13   -1    0    0    0    0  0.00000000000E+00  0.00000000000E+00  0.14999999963E+04  0.15000000000E+04  0.10566000000E+00 0. -1.
        994   -1    0    0    0    0 -0.00000000000E+00 -0.00000000000E+00  0.11368683772E-12  0.17120000000E+03  0.17120000000E+03 0.  0.
         13    1    1    2    0    0  0.22775781371E+03 -0.49832230559E+02  0.63970815357E+03  0.68086959531E+03  0.10566000000E+00 0. -1.
        994    1    1    2    0    0 -0.26632578576E+03  0.60722488340E+02  0.34049647773E+03  0.46889650894E+03  0.17120000000E+03 0.  0.
        998    1    1    2    0    0  0.38567972047E+02 -0.10890257781E+02  0.51979536498E+03  0.52143389575E+03  0.10000000000E+02 0. -1.
</event>
<event>
 5    1  0.1757379E-008  0.3830869E+03  0.7957747E-01  0.3437827E+00
         13   -1    0    0    0    0  0.00000000000E+00  0.00000000000E+00  0.14999999963E+04  0.15000000000E+04  0.10566000000E+00 0.  1.
        994   -1    0    0    0    0 -0.00000000000E+00 -0.00000000000E+00  0.11368683772E-12  0.17120000000E+03  0.17120000000E+03 0.  0.
         13    1    1    2    0    0  0.12068112051E+02  0.24989107863E+01  0.31121861721E+02  0.33473352455E+02  0.10566000000E+00 0.  1.
        994    1    1    2    0    0  0.15859752265E+02 -0.29612256534E+01  0.34448143937E+01  0.17199304447E+03  0.17120000000E+03 0.  0.
        998    1    1    2    0    0 -0.27927864316E+02  0.46231486712E+00  0.14654333202E+04  0.14657336031E+04  0.10000000000E+02 0.  1.
</event>
<event>
 5    1  0.1757379E-008  0.3800535E+03  0.7957747E-01  0.3450926E+00
         13   -1    0    0    0    0  0.00000000000E+00  0.00000000000E+00  0.14999999963E+04  0.15000000000E+04  0.10566000000E+00 0.  1.
        994   -1    0    0    0    0 -0.00000000000E+00 -0.00000000000E+00  0.11368683772E-12  0.17120000000E+03  0.17120000000E+03 0.  0.
         13    1    1    2    0    0 -0.18466779111E+02 -0.20834482182E+02  0.87359868565E+02  0.91688905426E+02  0.10566000000E+00 0.  1.
        994    1    1    2    0    0  0.15964687437E+02  0.26003437781E+02  0.72242662342E+01  0.17404792456E+03  0.17120000000E+03 0.  0.
        998    1    1    2    0    0  0.25020916742E+01 -0.51689555991E+01  0.14054158615E+04  0.14054631700E+04  0.10000000000E+02 0.  1.
</event>
<event>
 5    1  0.1757379E-008  0.3847554E+03  0.7957747E-01  0.3430710E+00
         13   -1    0    0    0    0  0.00000000000E+00  0.00000000000E+00  0.14999999963E+04  0.15000000000E+04  0.10566000000E+00 0. -1.
        994   -1    0    0    0    0 -0.00000000000E+00 -0.00000000000E+00  0.11368683772E-12  0.17120000000E+03  0.17120000000E+03 0.  0.
         13    1    1    2    0    0  0.15222599467E+02  0.44323654403E+01  0.77301079896E+02  0.78910338455E+02  0.10566000000E+00 0. -1.
        994    1    1    2    0    0  0.36023146142E+01 -0.97589171762E+01  0.21078599328E+01  0.17152870375E+03  0.17120000000E+03 0.  0.
        998    1    1    2    0    0 -0.18824914081E+02  0.53265517359E+01  0.14205910564E+04  0.14207609578E+04  0.10000000000E+02 0. -1.
</event>
<event>
 5    1  0.1757379E-008  0.3837788E+03  0.7957747E-01  0.3434868E+00
         13   -1    0    0    0    0  0.00000000000E+00  0.00000000000E+00  0.14999999963E+04  0.15000000000E+04  0.10566000000E+00 0. -1.
        994   -1    0    0    0    0 -0.00000000000E+00 -0.00000000000E+00  0.11368683772E-12  0.17120000000E+03  0.17120000000E+03 0.  0.
         13    1    1    2    0    0 -0.17208069088E+02 -0.11600593067E+02  0.10356471452E+03  0.10562363683E+03  0.10566000000E+00 0. -1.
        994    1    1    2    0    0 -0.31397858888E+01  0.79908352081E+01  0.24810586625E+01  0.17143309877E+03  0.17120000000E+03 0.  0.
        998    1    1    2    0    0  0.20347854977E+02  0.36097578586E+01  0.13939542231E+04  0.13941432644E+04  0.10000000000E+02 0. -1.
</event>
<event>
 5    1  0.1757379E-008  0.3800442E+03  0.7957747E-01  0.3450966E+00
         13   -1    0    0    0    0  0.00000000000E+00  0.00000000000E+00  0.14999999963E+04  0.15000000000E+04  0.10566000000E+00 0.  1.
        994   -1    0    0    0    0 -0.00000000000E+00 -0.00000000000E+00  0.11368683772E-12  0.17120000000E+03  0.17120000000E+03 0.  0.
         13    1    1    2    0    0  0.27445664552E+02  0.11918390057E+02  0.10311728274E+03  0.10737084189E+03  0.10566000000E+00 0.  1.
        994    1    1    2    0    0 -0.24130716563E+02 -0.99198723726E+01  0.63893292047E+01  0.17329442829E+03  0.17120000000E+03 0.  0.
        998    1    1    2    0    0 -0.33149479893E+01 -0.19985176840E+01  0.13904933843E+04  0.13905347298E+04  0.10000000000E+02 0.  1.
</event>
<event>
 5    1  0.1757379E-008  0.3804384E+03  0.7957747E-01  0.3449252E+00
         13   -1    0    0    0    0  0.00000000000E+00  0.00000000000E+00  0.14999999963E+04  0.15000000000E+04  0.10566000000E+00 0. -1.
        994   -1    0    0    0    0 -0.00000000000E+00 -0.00000000000E+00  0.11368683772E-12  0.17120000000E+03  0.17120000000E+03 0.  0.
         13    1    1    2    0    0  0.30523309169E+01 -0.27485609047E+02  0.89169074135E+02  0.93359040135E+02  0.10566000000E+00 0. -1.
        994    1    1    2    0    0 -0.12124079441E+02  0.31649667264E+02  0.77559495766E+01  0.17469484679E+03  0.17120000000E+03 0.  0.
        998    1    1    2    0    0  0.90717485240E+01 -0.41640582164E+01  0.14030749726E+04  0.14031461131E+04  0.10000000000E+02 0. -1.
</event>
<event>
 5    1  0.1757379E-008  0.3793194E+03  0.7957747E-01  0.3454127E+00
         13   -1    0    0    0    0  0.00000000000E+00  0.00000000000E+00  0.14999999963E+04  0.15000000000E+04  0.10566000000E+00 0. -1.
        994   -1    0    0    0    0 -0.00000000000E+00 -0.00000000000E+00  0.11368683772E-12  0.17120000000E+03  0.17120000000E+03 0.  0.
         13    1    1    2    0    0 -0.28545085018E+02  0.36744273835E+02  0.21558299410E+03  0.22054705177E+03  0.10566000000E+00 0. -1.
        994    1    1    2    0    0  0.27325336919E+02 -0.31383187876E+02  0.10300629599E+02  0.17648547104E+03  0.17120000000E+03 0.  0.
        998    1    1    2    0    0  0.12197480995E+01 -0.53610859587E+01  0.12741163726E+04  0.12741674772E+04  0.10000000000E+02 0.  1.
</event>
<event>
 5    1  0.1757379E-008  0.3859115E+03  0.7957747E-01  0.3425816E+00
         13   -1    0    0    0    0  0.00000000000E+00  0.00000000000E+00  0.14999999963E+04  0.15000000000E+04  0.10566000000E+00 0.  1.
        994   -1    0    0    0    0 -0.00000000000E+00 -0.00000000000E+00  0.11368683772E-12  0.17120000000E+03  0.17120000000E+03 0.  0.
         13    1    1    2    0    0 -0.10451787472E+02  0.11012612059E+01  0.46394004687E+02  0.47569606605E+02  0.10566000000E+00 0.  1.
        994    1    1    2    0    0  0.10817278336E+02  0.38375421733E+01  0.16103589519E+01  0.17159188063E+03  0.17120000000E+03 0.  0.
        998    1    1    2    0    0 -0.36549086393E+00 -0.49388033792E+01  0.14519956326E+04  0.14520385128E+04  0.10000000000E+02 0.  1.
</event>
<event>
 5    1  0.1757379E-008  0.3725938E+03  0.7957747E-01  0.3484054E+00
         13   -1    0    0    0    0  0.00000000000E+00  0.00000000000E+00  0.14999999963E+04  0.15000000000E+04  0.10566000000E+00 0. -1.
        994   -1    0    0    0    0 -0.00000000000E+00 -0.00000000000E+00  0.11368683772E-12  0.17120000000E+03  0.17120000000E+03 0.  0.
         13    1    1    2    0    0 -0.37378895287E+02 -0.13142623662E+03  0.68722674024E+03  0.70067870037E+03  0.10566000000E+00 0. -1.
        994    1    1    2    0    0  0.27368102152E+02  0.12400287912E+03  0.65379282838E+02  0.22295653763E+03  0.17120000000E+03 0.  0.
        998    1    1    2    0    0  0.10010793135E+02  0.74233575027E+01  0.74739397320E+03  0.74756476200E+03  0.10000000000E+02 0. -1.
</event>
<event>
 5    1  0.1757379E-008  0.3820342E+03  0.7957747E-01  0.3442349E+00
         13   -1    0    0    0    0  0.00000000000E+00  0.00000000000E+00  0.14999999963E+04  0.15000000000E+04  0.10566000000E+00 0.  1.
        994   -1    0    0    0    0 -0.00000000000E+00 -0.00000000000E+00  0.11368683772E-12  0.17120000000E+03  0.17120000000E+03 0.  0.
         13    1    1    2    0    0 -0.20460608782E+02 -0.92999627586E+01  0.76661715059E+02  0.79888394270E+02  0.10566000000E+00 0.  1.
        994    1    1    2    0    0  0.27238263790E+02 -0.38910934484E+01  0.56277651925E+01  0.17348825713E+03  0.17120000000E+03 0.  0.
        998    1    1    2    0    0 -0.67776550074E+01  0.13191056207E+02  0.14177105160E+04  0.14178233486E+04  0.10000000000E+02 0.  1.
</event>
<event>
 5    1  0.1757379E-008  0.3824089E+03  0.7957747E-01  0.3440736E+00
         13   -1    0    0    0    0  0.00000000000E+00  0.00000000000E+00  0.14999999963E+04  0.15000000000E+04  0.10566000000E+00 0. -1.
        994   -1    0    0    0    0 -0.00000000000E+00 -0.00000000000E+00  0.11368683772E-12  0.17120000000E+03  0.17120000000E+03 0.  0.
         13    1    1    2    0    0  0.37603224340E+01  0.13070085452E+02  0.29941720595E+02  0.32885938557E+02  0.10566000000E+00 0. -1.
        994    1    1    2    0    0 -0.96318055215E+01 -0.13445517374E+02  0.38298269818E+01  0.17203970818E+03  0.17120000000E+03 0.  0.
        998    1    1    2    0    0  0.58714830875E+01  0.37543192240E+00  0.14662284487E+04  0.14662743533E+04  0.10000000000E+02 0. -1.
</event>
<event>
 5    1  0.1757379E-008  0.3853015E+03  0.7957747E-01  0.3428395E+00
         13   -1    0    0    0    0  0.00000000000E+00  0.00000000000E+00  0.14999999963E+04  0.15000000000E+04  0.10566000000E+00 0. -1.
        994   -1    0    0    0    0 -0.00000000000E+00 -0.00000000000E+00  0.11368683772E-12  0.17120000000E+03  0.17120000000E+03 0.  0.
         13    1    1    2    0    0  0.90013692089E+01 -0.73754181730E+01  0.48062943825E+02  0.49451786358E+02  0.10566000000E+00 0. -1.
        994    1    1    2    0    0  0.55513406304E+01  0.60710229330E+01  0.17029083277E+01  0.17140599347E+03  0.17120000000E+03 0.  0.
        998    1    1    2    0    0 -0.14552709839E+02  0.13043952400E+01  0.14502341441E+04  0.14503422202E+04  0.10000000000E+02 0. -1.
</event>
<event>
 5    1  0.1757379E-008  0.3798871E+03  0.7957747E-01  0.3451650E+00
         13   -1    0    0    0    0  0.00000000000E+00  0.00000000000E+00  0.14999999963E+04  0.15000000000E+04  0.10566000000E+00 0. -1.
        994   -1    0    0    0    0 -0.00000000000E+00 -0.00000000000E+00  0.11368683772E-12  0.17120000000E+03  0.17120000000E+03 0.  0.
         13    1    1    2    0    0  0.54380553726E+02  0.27573793868E+02  0.93932146902E+02  0.11198579427E+03  0.10566000000E+00 0. -1.
        994    1    1    2    0    0 -0.84227860160E+02 -0.25161568765E+02  0.44819426946E+02  0.19759974191E+03  0.17120000000E+03 0.  0.
        998    1    1    2    0    0  0.29847306434E+02 -0.24122251036E+01  0.13612484224E+04  0.13616144638E+04  0.10000000000E+02 0. -1.
</event>
<event>
 5    1  0.1757379E-008  0.3854175E+03  0.7957747E-01  0.3427903E+00
         13   -1    0    0    0    0  0.00000000000E+00  0.00000000000E+00  0.14999999963E+04  0.15000000000E+04  0.10566000000E+00 0. -1.
        994   -1    0    0    0    0 -0.00000000000E+00 -0.00000000000E+00  0.11368683772E-12  0.17120000000E+03  0.17120000000E+03 0.  0.
         13    1    1    2    0    0 -0.11439893504E+01 -0.14723820323E+02  0.72762188341E+02  0.74245853842E+02  0.10566000000E+00 0. -1.
        994    1    1    2    0    0  0.96935832307E+01  0.17022249679E+02  0.26842146649E+01  0.17233794576E+03  0.17120000000E+03 0.  0.
        998    1    1    2    0    0 -0.85495938803E+01 -0.22984293560E+01  0.14245535933E+04  0.14246162004E+04  0.10000000000E+02 0. -1.
</event>
<event>
 5    1  0.1757379E-008  0.3846404E+03  0.7957747E-01  0.3431199E+00
         13   -1    0    0    0    0  0.00000000000E+00  0.00000000000E+00  0.14999999963E+04  0.15000000000E+04  0.10566000000E+00 0.  1.
        994   -1    0    0    0    0 -0.00000000000E+00 -0.00000000000E+00  0.11368683772E-12  0.17120000000E+03  0.17120000000E+03 0.  0.
         13    1    1    2    0    0 -0.11689347746E+02  0.14910715043E+02  0.90579271291E+02  0.92539644615E+02  0.10566000000E+00 0.  1.
        994    1    1    2    0    0  0.13321197520E+02 -0.21202286466E+02  0.38758530236E+01  0.17306488232E+03  0.17120000000E+03 0.  0.
        998    1    1    2    0    0 -0.16318497746E+01  0.62915714233E+01  0.14055448720E+04  0.14055954731E+04  0.10000000000E+02 0.  1.
</event>
<event>
 5    1  0.1757379E-008  0.3834827E+03  0.7957747E-01  0.3436133E+00
         13   -1    0    0    0    0  0.00000000000E+00  0.00000000000E+00  0.14999999963E+04  0.15000000000E+04  0.10566000000E+00 0.  1.
        994   -1    0    0    0    0 -0.00000000000E+00 -0.00000000000E+00  0.11368683772E-12  0.17120000000E+03  0.17120000000E+03 0.  0.
         13    1    1    2    0    0 -0.99347977808E+01  0.70179802477E+01  0.29700321297E+02  0.32094742605E+02  0.10566000000E+00 0.  1.
        994    1    1    2    0    0  0.72944526186E+01 -0.12811987893E+02  0.31039731394E+01  0.17186166158E+03  0.17120000000E+03 0.  0.
        998    1    1    2    0    0  0.26403451622E+01  0.57940076453E+01  0.14671957018E+04  0.14672435958E+04  0.10000000000E+02 0.  1.
</event>
<event>
 5    1  0.1757379E-008  0.3822552E+03  0.7957747E-01  0.3441397E+00
         13   -1    0    0    0    0  0.00000000000E+00  0.00000000000E+00  0.14999999963E+04  0.15000000000E+04  0.10566000000E+00 0. -1.
        994   -1    0    0    0    0 -0.00000000000E+00 -0.00000000000E+00  0.11368683772E-12  0.17120000000E+03  0.17120000000E+03 0.  0.
         13    1    1    2    0    0  0.28647482074E+02  0.14431940468E+01  0.13471135715E+03  0.13773133975E+03  0.10566000000E+00 0. -1.
        994    1    1    2    0    0 -0.19787801765E+02  0.13727293374E+02  0.49259413170E+01  0.17295577637E+03  0.17120000000E+03 0.  0.
        998    1    1    2    0    0 -0.88596803090E+01 -0.15170487421E+02  0.13603626978E+04  0.13605128839E+04  0.10000000000E+02 0. -1.
</event>
<event>
 5    1  0.1757379E-008  0.3813192E+03  0.7957747E-01  0.3445434E+00
         13   -1    0    0    0    0  0.00000000000E+00  0.00000000000E+00  0.14999999963E+04  0.15000000000E+04  0.10566000000E+00 0.  1.
        994   -1    0    0    0    0 -0.00000000000E+00 -0.00000000000E+00  0.11368683772E-12  0.17120000000E+03  0.17120000000E+03 0.  0.
         13    1    1    2    0    0 -0.10906795928E+02 -0.85949116845E+01  0.25716240132E+02  0.29226133423E+02  0.10566000000E+00 0.  1.
        994    1    1    2    0    0  0.15569481266E+02  0.10267400250E+02  0.46272710587E+01  0.17227501238E+03  0.17120000000E+03 0.  0.
        998    1    1    2    0    0 -0.46626853372E+01 -0.16724885652E+01  0.14696564851E+04  0.14696988542E+04  0.10000000000E+02 0.  1.
</event>
<event>
 5    1  0.1757379E-008  0.3687787E+03  0.7957747E-01  0.3501523E+00
         13   -1    0    0    0    0  0.00000000000E+00  0.00000000000E+00  0.14999999963E+04  0.15000000000E+04  0.10566000000E+00 0. -1.
        994   -1    0    0    0    0 -0.00000000000E+00 -0.00000000000E+00  0.11368683772E-12  0.17120000000E+03  0.17120000000E+03 0.  0.
         13    1    1    2    0    0 -0.18415034294E+02 -0.79813451840E+02  0.26092476530E+03  0.27347951458E+03  0.10566000000E+00 0. -1.
        994    1    1    2    0    0  0.18193948768E+02  0.82922697659E+02  0.35822207744E+02  0.19442187152E+03  0.17120000000E+03 0.  0.
        998    1    1    2    0    0  0.22108552617E+00 -0.31092458187E+01  0.12032530232E+04  0.12032986139E+04  0.10000000000E+02 0. -1.
</event>
<event>
 5    1  0.1757379E-008  0.3824592E+03  0.7957747E-01  0.3440520E+00
         13   -1    0    0    0    0  0.00000000000E+00  0.00000000000E+00  0.14999999963E+04  0.15000000000E+04  0.10566000000E+00 0. -1.
        994   -1    0    0    0    0 -0.00000000000E+00 -0.00000000000E+00  0.11368683772E-12  0.17120000000E+03  0.17120000000E+03 0.  0.
         13    1    1    2    0    0  0.33203977070E+02 -0.62825841504E+01  0.20249327306E+03  0.20529372069E+03  0.10566000000E+00 0. -1.
        994    1    1    2    0    0 -0.17966238593E+02 -0.73123197758E+01  0.41455376951E+01  0.17234523850E+03  0.17120000000E+03 0.  0.
        998    1    1    2    0    0 -0.15237738477E+02  0.13594903926E+02  0.12933611855E+04  0.12935610408E+04  0.10000000000E+02 0. -1.
</event>
<event>
 5    1  0.1757379E-008  0.3848975E+03  0.7957747E-01  0.3430107E+00
         13   -1    0    0    0    0  0.00000000000E+00  0.00000000000E+00  0.14999999963E+04  0.15000000000E+04  0.10566000000E+00 0.  1.
        994   -1    0    0    0    0 -0.00000000000E+00 -0.00000000000E+00  0.11368683772E-12  0.17120000000E+03  0.17120000000E+03 0.  0.
         13    1    1    2    0    0 -0.65473504447E+01  0.12248618085E+02  0.56416157638E+02  0.58100692332E+02  0.10566000000E+00 0.  1.
        994    1    1    2    0    0  0.78728806590E+01 -0.93020348598E+01  0.21697386533E+01  0.17164689880E+03  0.17120000000E+03 0.  0.
        998    1    1    2    0    0 -0.13255302143E+01 -0.29465832248E+01  0.14414141000E+04  0.14414524089E+04  0.10000000000E+02 0.  1.
</event>
<event>
 5    1  0.1757379E-008  0.3845089E+03  0.7957747E-01  0.3431758E+00
         13   -1    0    0    0    0  0.00000000000E+00  0.00000000000E+00  0.14999999963E+04  0.15000000000E+04  0.10566000000E+00 0.  1.
        994   -1    0    0    0    0 -0.00000000000E+00 -0.00000000000E+00  0.11368683772E-12  0.17120000000E+03  0.17120000000E+03 0.  0.
         13    1    1    2    0    0 -0.63372279339E+01 -0.18092596303E+02  0.11064973504E+03  0.11229816350E+03  0.10566000000E+00 0.  1.
        994    1    1    2    0    0  0.91562997559E+01 -0.65831775410E+01  0.22931515855E+01  0.17158634735E+03  0.17120000000E+03 0.  0.
        998    1    1    2    0    0 -0.28190718220E+01  0.24675773844E+02  0.13870571097E+04  0.13873154891E+04  0.10000000000E+02 0.  1.
</event>
<event>
 5    1  0.1757379E-008  0.3852891E+03  0.7957747E-01  0.3428447E+00
         13   -1    0    0    0    0  0.00000000000E+00  0.00000000000E+00  0.14999999963E+04  0.15000000000E+04  0.10566000000E+00 0. -1.
        994   -1    0    0    0    0 -0.00000000000E+00 -0.00000000000E+00  0.11368683772E-12  0.17120000000E+03  0.17120000000E+03 0.  0.
         13    1    1    2    0    0 -0.82235871897E+00  0.13044481967E+02  0.51770755673E+02  0.53395290904E+02  0.10566000000E+00 0. -1.
        994    1    1    2    0    0  0.10474962746E+02 -0.26515336138E+02  0.41616940393E+01  0.17360745258E+03  0.17120000000E+03 0.  0.
        998    1    1    2    0    0 -0.96526040268E+01  0.13470854171E+02  0.14440675466E+04  0.14441972565E+04  0.10000000000E+02 0. -1.
</event>
<event>
 5    1  0.1757379E-008  0.3840694E+03  0.7957747E-01  0.3433628E+00
         13   -1    0    0    0    0  0.00000000000E+00  0.00000000000E+00  0.14999999963E+04  0.15000000000E+04  0.10566000000E+00 0. -1.
        994   -1    0    0    0    0 -0.00000000000E+00 -0.00000000000E+00  0.11368683772E-12  0.17120000000E+03  0.17120000000E+03 0.  0.
         13    1    1    2    0    0 -0.21783405780E+02  0.98047147944E+01  0.13617448036E+03  0.13825393111E+03  0.10566000000E+00 0. -1.
        994    1    1    2    0    0  0.13460311856E+02 -0.50506239981E+01  0.27749284698E+01  0.17182499535E+03  0.17120000000E+03 0.  0.
        998    1    1    2    0    0  0.83230939245E+01 -0.47540907962E+01  0.13610505874E+04  0.13611210735E+04  0.10000000000E+02 0. -1.
</event>
<event>
 5    1  0.1757379E-008  0.3859665E+03  0.7957747E-01  0.3425584E+00
         13   -1    0    0    0    0  0.00000000000E+00  0.00000000000E+00  0.14999999963E+04  0.15000000000E+04  0.10566000000E+00 0. -1.
        994   -1    0    0    0    0 -0.00000000000E+00 -0.00000000000E+00  0.11368683772E-12  0.17120000000E+03  0.17120000000E+03 0.  0.
         13    1    1    2    0    0  0.10103485616E+03 -0.16298464226E+03  0.11301639765E+04  0.11463169984E+04  0.10566000000E+00 0. -1.
        994    1    1    2    0    0 -0.11233364529E+03  0.17213862033E+03  0.15468709722E+03  0.30901147312E+03  0.17120000000E+03 0.  0.
        998    1    1    2    0    0  0.11298789131E+02 -0.91539780743E+01  0.21514892252E+03  0.21587152848E+03  0.10000000000E+02 0. -1.
</event>
<event>
 5    1  0.1757379E-008  0.3847129E+03  0.7957747E-01  0.3430891E+00
         13   -1    0    0    0    0  0.00000000000E+00  0.00000000000E+00  0.14999999963E+04  0.15000000000E+04  0.10566000000E+00 0.  1.
        994   -1    0    0    0    0 -0.00000000000E+00 -0.00000000000E+00  0.11368683772E-12  0.17120000000E+03  0.17120000000E+03 0.  0.
         13    1    1    2    0    0 -0.15059466683E+02 -0.15194182782E+02  0.11903289049E+03  0.12094003022E+03  0.10566000000E+00 0.  1.
        994    1    1    2    0    0  0.24816115477E+02  0.83463317312E+01  0.40324542849E+01  0.17323741377E+03  0.17120000000E+03 0.  0.
        998    1    1    2    0    0 -0.97566487940E+01  0.68478510510E+01  0.13769346515E+04  0.13770225560E+04  0.10000000000E+02 0.  1.
</event>
<event>
 5    1  0.2215136E-008  0.3862799E+03  0.7957747E-01  0.3424262E+00
         13   -1    0    0    0    0  0.00000000000E+00  0.00000000000E+00  0.14999999963E+04  0.15000000000E+04  0.10566000000E+00 0.  1.
        994   -1    0    0    0    0 -0.00000000000E+00 -0.00000000000E+00  0.11368683772E-12  0.17120000000E+03  0.17120000000E+03 0.  0.
         13    1    1    2    0    0 -0.87599491572E+01 -0.64338361593E+01  0.59462723680E+02  0.60447974560E+02  0.10566000000E+00 0.  1.
        994    1    1    2    0    0  0.75328170672E+01  0.51579572331E+01  0.12690214832E+01  0.17144794624E+03  0.17120000000E+03 0.  0.
        998    1    1    2    0    0  0.12271320900E+01  0.12758789262E+01  0.14392682511E+04  0.14393040792E+04  0.10000000000E+02 0.  1.
</event>
<event>
 5    1  0.1757379E-008  0.3764354E+03  0.7957747E-01  0.3466828E+00
         13   -1    0    0    0    0  0.00000000000E+00  0.00000000000E+00  0.14999999963E+04  0.15000000000E+04  0.10566000000E+00 0. -1.
        994   -1    0    0    0    0 -0.00000000000E+00 -0.00000000000E+00  0.11368683772E-12  0.17120000000E+03  0.17120000000E+03 0.  0.
         13    1    1    2    0    0  0.54294194020E+02  0.23600752508E+02  0.10939401876E+03  0.12438616292E+03  0.10566000000E+00 0. -1.
        994    1    1    2    0    0 -0.38529438087E+02 -0.56768833222E+02  0.31417800176E+02  0.18709285447E+03  0.17120000000E+03 0.  0.
        998    1    1    2    0    0 -0.15764755934E+02  0.33168080714E+02  0.13591881773E+04  0.13597209826E+04  0.10000000000E+02 0. -1.
</event>
<event>
 5    1  0.1757379E-008  0.3823554E+03  0.7957747E-01  0.3440966E+00
         13   -1    0    0    0    0  0.00000000000E+00  0.00000000000E+00  0.14999999963E+04  0.15000000000E+04  0.10566000000E+00 0.  1.
        994   -1    0    0    0    0 -0.00000000000E+00 -0.00000000000E+00  0.11368683772E-12  0.17120000000E+03  0.17120000000E+03 0.  0.
         13    1    1    2    0    0 -0.10369462063E+02  0.50746567619E+01  0.21395642026E+02  0.24311777937E+02  0.10566000000E+00 0.  1.
        994    1    1    2    0    0  0.44819893507E+01 -0.11655941046E+02  0.34663056627E+01  0.17168984963E+03  0.17120000000E+03 0.  0.
        998    1    1    2    0    0  0.58874727121E+01  0.65812842841E+01  0.14751380486E+04  0.14751983724E+04  0.10000000000E+02 0.  1.
</event>
<event>
 5    1  0.1757379E-008  0.3774117E+03  0.7957747E-01  0.3462507E+00
         13   -1    0    0    0    0  0.00000000000E+00  0.00000000000E+00  0.14999999963E+04  0.15000000000E+04  0.10566000000E+00 0.  1.
        994   -1    0    0    0    0 -0.00000000000E+00 -0.00000000000E+00  0.11368683772E-12  0.17120000000E+03  0.17120000000E+03 0.  0.
         13    1    1    2    0    0 -0.36735695428E+02  0.14055857710E+02  0.17572126645E+03  0.18006957850E+03  0.10566000000E+00 0.  1.
        994    1    1    2    0    0 -0.14911708210E+02 -0.34995910997E+01  0.62368979677E+01  0.17199693333E+03  0.17120000000E+03 0.  0.
        998    1    1    2    0    0  0.51647403639E+02 -0.10556266610E+02  0.13180418319E+04  0.13191334882E+04  0.10000000000E+02 0.  1.
</event>
<event>
 5    1  0.1757379E-008  0.3830915E+03  0.7957747E-01  0.3437807E+00
         13   -1    0    0    0    0  0.00000000000E+00  0.00000000000E+00  0.14999999963E+04  0.15000000000E+04  0.10566000000E+00 0.  1.
        994   -1    0    0    0    0 -0.00000000000E+00 -0.00000000000E+00  0.11368683772E-12  0.17120000000E+03  0.17120000000E+03 0.  0.
         13    1    1    2    0    0  0.19411803056E+02 -0.11790824666E+01  0.69441571385E+02  0.72113461530E+02  0.10566000000E+00 0.  1.
        994    1    1    2    0    0 -0.19914272731E+02  0.18988019797E+02  0.50901108309E+01  0.17347182014E+03  0.17120000000E+03 0.  0.
        998    1    1    2    0    0  0.50246967450E+00 -0.17808937330E+02  0.14254683141E+04  0.14256147183E+04  0.10000000000E+02 0.  1.
</event>
<event>
 5    1  0.1757379E-008  0.3852006E+03  0.7957747E-01  0.3428822E+00
         13   -1    0    0    0    0  0.00000000000E+00  0.00000000000E+00  0.14999999963E+04  0.15000000000E+04  0.10566000000E+00 0.  1.
        994   -1    0    0    0    0 -0.00000000000E+00 -0.00000000000E+00  0.11368683772E-12  0.17120000000E+03  0.17120000000E+03 0.  0.
         13    1    1    2    0    0  0.43579101795E+01  0.41213804029E+02  0.39019178239E+02  0.56921669495E+02  0.10566000000E+00 0.  1.
        994    1    1    2    0    0 -0.27644735520E+02 -0.99058913351E+01  0.22405701523E+02  0.17513941174E+03  0.17120000000E+03 0.  0.
        998    1    1    2    0    0  0.23286825341E+02 -0.31307912694E+02  0.14385751165E+04  0.14391389188E+04  0.10000000000E+02 0.  1.
</event>
<event>
 5    1  0.1757379E-008  0.2676735E+03  0.7957747E-01  0.4157769E+00
         13   -1    0    0    0    0  0.00000000000E+00  0.00000000000E+00  0.14999999963E+04  0.15000000000E+04  0.10566000000E+00 0.  1.
        994   -1    0    0    0    0 -0.00000000000E+00 -0.00000000000E+00  0.11368683772E-12  0.17120000000E+03  0.17120000000E+03 0.  0.
         13    1    1    2    0    0 -0.14640804879E+03 -0.88102864139E+02  0.41707526535E+03  0.45072077782E+03  0.10566000000E+00 0.  1.
        994    1    1    2    0    0  0.12495173773E+03  0.13883536458E+03  0.16837289684E+03  0.30421549535E+03  0.17120000000E+03 0.  0.
        998    1    1    2    0    0  0.21456311065E+02 -0.50732500442E+02  0.91455183409E+03  0.91626372684E+03  0.10000000000E+02 0.  1.
</event>
<event>
 5    1  0.1757379E-008  0.4324154E+03  0.7957747E-01  0.3250515E+00
         13   -1    0    0    0    0  0.00000000000E+00  0.00000000000E+00  0.14999999963E+04  0.15000000000E+04  0.10566000000E+00 0. -1.
        994   -1    0    0    0    0 -0.00000000000E+00 -0.00000000000E+00  0.11368683772E-12  0.17120000000E+03  0.17120000000E+03 0.  0.
         13    1    1    2    0    0  0.11543644961E+03 -0.73560103881E+02  0.15119738185E+03  0.20395421600E+03  0.10566000000E+00 0. -1.
        994    1    1    2    0    0 -0.10446490539E+03  0.10584736841E+03  0.15911222266E+03  0.27702476650E+03  0.17120000000E+03 0.  0.
        998    1    1    2    0    0 -0.10971544217E+02 -0.32287264525E+02  0.11896903918E+04  0.11902210175E+04  0.10000000000E+02 0. -1.
</event>
<event>
 5    1  0.1757379E-008  0.3784179E+03  0.7957747E-01  0.3458076E+00
         13   -1    0    0    0    0  0.00000000000E+00  0.00000000000E+00  0.14999999963E+04  0.15000000000E+04  0.10566000000E+00 0.  1.
        994   -1    0    0    0    0 -0.00000000000E+00 -0.00000000000E+00  0.11368683772E-12  0.17120000000E+03  0.17120000000E+03 0.  0.
         13    1    1    2    0    0  0.88404828898E+00 -0.16593808099E+02  0.25440236475E+02  0.30386720859E+02  0.10566000000E+00 0.  1.
        994    1    1    2    0    0  0.77288859649E-01  0.18617307944E+02  0.60995462093E+01  0.17231730787E+03  0.17120000000E+03 0.  0.
        998    1    1    2    0    0 -0.96133714863E+00 -0.20234998450E+01  0.14684602136E+04  0.14684959713E+04  0.10000000000E+02 0.  1.
</event>
<event>
 5    1  0.1757379E-008  0.3813313E+03  0.7957747E-01  0.3445382E+00
         13   -1    0    0    0    0  0.00000000000E+00  0.00000000000E+00  0.14999999963E+04  0.15000000000E+04  0.10566000000E+00 0. -1.
        994   -1    0    0    0    0 -0.00000000000E+00 -0.00000000000E+00  0.11368683772E-12  0.17120000000E+03  0.17120000000E+03 0.  0.
         13    1    1    2    0    0  0.12651712332E+02  0.41282730333E+02  0.22825458550E+03  0.23230259709E+03  0.10566000000E+00 0. -1.
        994    1    1    2    0    0 -0.12992575958E+02 -0.41948281135E+02  0.99078250727E+01  0.17701997152E+03  0.17120000000E+03 0.  0.
        998    1    1    2    0    0  0.34086362630E+00  0.66555080278E+00  0.12618375857E+04  0.12618774314E+04  0.10000000000E+02 0.  0.
</event>
<event>
 5    1  0.1757379E-008  0.3842293E+03  0.7957747E-01  0.3432948E+00
         13   -1    0    0    0    0  0.00000000000E+00  0.00000000000E+00  0.14999999963E+04  0.15000000000E+04  0.10566000000E+00 0. -1.
        994   -1    0    0    0    0 -0.00000000000E+00 -0.00000000000E+00  0.11368683772E-12  0.17120000000E+03  0.17120000000E+03 0.  0.
         13    1    1    2    0    0 -0.40488585672E+01 -0.16125708344E+02  0.65964430006E+02  0.68027559969E+02  0.10566000000E+00 0. -1.
        994    1    1    2    0    0  0.97821073604E+01  0.15015617326E+02  0.30728144717E+01  0.17216283158E+03  0.17120000000E+03 0.  0.
        998    1    1    2    0    0 -0.57332487932E+01  0.11100910180E+01  0.14309627518E+04  0.14310096085E+04  0.10000000000E+02 0. -1.
</event>
<event>
 5    1  0.1757379E-008  0.3811087E+03  0.7957747E-01  0.3446345E+00
         13   -1    0    0    0    0  0.00000000000E+00  0.00000000000E+00  0.14999999963E+04  0.15000000000E+04  0.10566000000E+00 0. -1.
        994   -1    0    0    0    0 -0.00000000000E+00 -0.00000000000E+00  0.11368683772E-12  0.17120000000E+03  0.17120000000E+03 0.  0.
         13    1    1    2    0    0  0.25221229933E+02 -0.15324242770E+02  0.10748753722E+03  0.11146535192E+03  0.10566000000E+00 0. -1.
        994    1    1    2    0    0 -0.29268228933E+02  0.25914045237E+02  0.86812252788E+01  0.17582084813E+03  0.17120000000E+03 0.  0.
        998    1    1    2    0    0  0.40469990005E+01 -0.10589802467E+02  0.13838312338E+04  0.13839138000E+04  0.10000000000E+02 0. -1.
</event>
<event>
 5    1  0.1757379E-008  0.3780137E+03  0.7957747E-01  0.3459853E+00
         13   -1    0    0    0    0  0.00000000000E+00  0.00000000000E+00  0.14999999963E+04  0.15000000000E+04  0.10566000000E+00 0. -1.
        994   -1    0    0    0    0 -0.00000000000E+00 -0.00000000000E+00  0.11368683772E-12  0.17120000000E+03  0.17120000000E+03 0.  0.
         13    1    1    2    0    0 -0.18079841166E+02 -0.18418032822E+01  0.28382995269E+02  0.33702796329E+02  0.10566000000E+00 0. -1.
        994    1    1    2    0    0  0.32035129063E+02  0.39476369372E+01  0.86529706090E+01  0.17443092396E+03  0.17120000000E+03 0.  0.
        998    1    1    2    0    0 -0.13955287897E+02 -0.21058336550E+01  0.14629640304E+04  0.14630662797E+04  0.10000000000E+02 0. -1.
</event>
<event>
 5    1  0.1757379E-008  0.3761790E+03  0.7957747E-01  0.3467967E+00
         13   -1    0    0    0    0  0.00000000000E+00  0.00000000000E+00  0.14999999963E+04  0.15000000000E+04  0.10566000000E+00 0. -1.
        994   -1    0    0    0    0 -0.00000000000E+00 -0.00000000000E+00  0.11368683772E-12  0.17120000000E+03  0.17120000000E+03 0.  0.
         13    1    1    2    0    0 -0.45082455656E+02 -0.10530004109E+02  0.15632759837E+03  0.16303876217E+03  0.10566000000E+00 0. -1.
        994    1    1    2    0    0  0.44564972147E+02  0.17670266763E+02  0.13895844655E+02  0.17832781490E+03  0.17120000000E+03 0.  0.
        998    1    1    2    0    0  0.51748350924E+00 -0.71402626544E+01  0.13297765533E+04  0.13298334229E+04  0.10000000000E+02 0. -1.
</event>
<event>
 5    1  0.1757379E-008  0.3888875E+03  0.7957747E-01  0.3413351E+00
         13   -1    0    0    0    0  0.00000000000E+00  0.00000000000E+00  0.14999999963E+04  0.15000000000E+04  0.10566000000E+00 0.  1.
        994   -1    0    0    0    0 -0.00000000000E+00 -0.00000000000E+00  0.11368683772E-12  0.17120000000E+03  0.17120000000E+03 0.  0.
         13    1    1    2    0    0  0.48753787781E+01 -0.11794731105E+02 -0.59314770720E+01  0.14074039376E+02  0.10566000000E+00 0.  1.
        994    1    1    2    0    0 -0.24752935504E+01  0.12574630731E+02  0.21913238398E+02  0.17307188805E+03  0.17120000000E+03 0.  0.
        998    1    1    2    0    0 -0.24000852277E+01 -0.77989962684E+00  0.14840182350E+04  0.14840540726E+04  0.10000000000E+02 0.  1.
</event>
<event>
 5    1  0.1757379E-008  0.3746292E+03  0.7957747E-01  0.3474883E+00
         13   -1    0    0    0    0  0.00000000000E+00  0.00000000000E+00  0.14999999963E+04  0.15000000000E+04  0.10566000000E+00 0. -1.
        994   -1    0    0    0    0 -0.00000000000E+00 -0.00000000000E+00  0.11368683772E-12  0.17120000000E+03  0.17120000000E+03 0.  0.
         13    1    1    2    0    0 -0.28167439423E+02 -0.22349055082E+02  0.10047406564E+03  0.10671426304E+03  0.10566000000E+00 0. -1.
        994    1    1    2    0    0  0.99107877850E+01 -0.11780638558E+02  0.76763012594E+01  0.17206211890E+03  0.17120000000E+03 0.  0.
        998    1    1    2    0    0  0.18256651638E+02  0.34129693640E+02  0.13918496294E+04  0.13924236181E+04  0.10000000000E+02 0. -1.
</event>
<event>
 5    1  0.1757379E-008  0.3785218E+03  0.7957747E-01  0.3457620E+00
         13   -1    0    0    0    0  0.00000000000E+00  0.00000000000E+00  0.14999999963E+04  0.15000000000E+04  0.10566000000E+00 0.  1.
        994   -1    0    0    0    0 -0.00000000000E+00 -0.00000000000E+00  0.11368683772E-12  0.17120000000E+03  0.17120000000E+03 0.  0.
         13    1    1    2    0    0 -0.93665144892E+01 -0.15536821709E+02  0.32607168399E+02  0.37314380841E+02  0.10566000000E+00 0.  1.
        994    1    1    2    0    0  0.26478579502E+01  0.23814866420E+01  0.49238065356E+01  0.17130781214E+03  0.17120000000E+03 0.  0.
        998    1    1    2    0    0  0.67186565391E+01  0.13155335067E+02  0.14624690213E+04  0.14625778070E+04  0.10000000000E+02 0.  1.
</event>
<event>
 5    1  0.1757379E-008  0.3834698E+03  0.7957747E-01  0.3436188E+00
         13   -1    0    0    0    0  0.00000000000E+00  0.00000000000E+00  0.14999999963E+04  0.15000000000E+04  0.10566000000E+00 0. -1.
        994   -1    0    0    0    0 -0.00000000000E+00 -0.00000000000E+00  0.11368683772E-12  0.17120000000E+03  0.17120000000E+03 0.  0.
         13    1    1    2    0    0  0.15970686867E+02 -0.80600918250E+01  0.64631089837E+02  0.67061291791E+02  0.10566000000E+00 0. -1.
        994    1    1    2    0    0 -0.15878055276E+02  0.48964837223E+01  0.33047974547E+01  0.17203618770E+03  0.17120000000E+03 0.  0.
        998    1    1    2    0    0 -0.92631590489E-01  0.31636081027E+01  0.14320641090E+04  0.14321025205E+04  0.10000000000E+02 0. -1.
</event>
<event>
 5    1  0.1757379E-008  0.3761119E+03  0.7957747E-01  0.3468265E+00
         13   -1    0    0    0    0  0.00000000000E+00  0.00000000000E+00  0.14999999963E+04  0.15000000000E+04  0.10566000000E+00 0.  1.
        994   -1    0    0    0    0 -0.00000000000E+00 -0.00000000000E+00  0.11368683772E-12  0.17120000000E+03  0.17120000000E+03 0.  0.
         13    1    1    2    0    0  0.55361998655E+02  0.41226382026E+02  0.31793870202E+03  0.32534534709E+03  0.10566000000E+00 0.  1.
        994    1    1    2    0    0 -0.60973885012E+02 -0.26756014835E+02  0.21274360537E+02  0.18492089498E+03  0.17120000000E+03 0.  0.
        998    1    1    2    0    0  0.56118863572E+01 -0.14470367191E+02  0.11607869337E+04  0.11609337579E+04  0.10000000000E+02 0.  1.
</event>
<event>
 5    1  0.1757379E-008  0.3687019E+03  0.7957747E-01  0.3501878E+00
         13   -1    0    0    0    0  0.00000000000E+00  0.00000000000E+00  0.14999999963E+04  0.15000000000E+04  0.10566000000E+00 0.  1.
        994   -1    0    0    0    0 -0.00000000000E+00 -0.00000000000E+00  0.11368683772E-12  0.17120000000E+03  0.17120000000E+03 0.  0.
         13    1    1    2    0    0 -0.22107706789E+02 -0.14134822811E+02  0.26325777075E+02  0.37169902045E+02  0.10566000000E+00 0.  1.
        994    1    1    2    0    0  0.59033503630E+02  0.21486477237E+02  0.24117839868E+02  0.18395035595E+03  0.17120000000E+03 0.  0.
        998    1    1    2    0    0 -0.36925796841E+02 -0.73516544265E+01  0.14495563793E+04  0.14500797420E+04  0.10000000000E+02 0.  1.
</event>
<event>
 5    1  0.1757379E-008  0.3849347E+03  0.7957747E-01  0.3429949E+00
         13   -1    0    0    0    0  0.00000000000E+00  0.00000000000E+00  0.14999999963E+04  0.15000000000E+04  0.10566000000E+00 0. -1.
        994   -1    0    0    0    0 -0.00000000000E+00 -0.00000000000E+00  0.11368683772E-12  0.17120000000E+03  0.17120000000E+03 0.  0.
         13    1    1    2    0    0 -0.96747117318E+01 -0.55217451673E+01  0.37151797212E+02  0.38786040232E+02  0.10566000000E+00 0. -1.
        994    1    1    2    0    0  0.84217939056E+01  0.27252535135E+00  0.18961549393E+01  0.17141772454E+03  0.17120000000E+03 0.  0.
        998    1    1    2    0    0  0.12529178262E+01  0.52492198159E+01  0.14609520441E+04  0.14609962352E+04  0.10000000000E+02 0. -1.
</event>
<event>
 5    1  0.1757379E-008  0.3821107E+03  0.7957747E-01  0.3442019E+00
         13   -1    0    0    0    0  0.00000000000E+00  0.00000000000E+00  0.14999999963E+04  0.15000000000E+04  0.10566000000E+00 0. -1.
        994   -1    0    0    0    0 -0.00000000000E+00 -0.00000000000E+00  0.11368683772E-12  0.17120000000E+03  0.17120000000E+03 0.  0.
         13    1    1    2    0    0 -0.23739379445E+02  0.89972543045E+01  0.97202830657E+02  0.10046347681E+03  0.10566000000E+00 0. -1.
        994    1    1    2    0    0  0.29232970609E+02 -0.18181751972E+00  0.59136801673E+01  0.17377862711E+03  0.17120000000E+03 0.  0.
        998    1    1    2    0    0 -0.54935911640E+01 -0.88154367847E+01  0.13968834855E+04  0.13969578961E+04  0.10000000000E+02 0. -1.
</event>
<event>
 5    1  0.1757379E-008  0.3852845E+03  0.7957747E-01  0.3428466E+00
         13   -1    0    0    0    0  0.00000000000E+00  0.00000000000E+00  0.14999999963E+04  0.15000000000E+04  0.10566000000E+00 0. -1.
        994   -1    0    0    0    0 -0.00000000000E+00 -0.00000000000E+00  0.11368683772E-12  0.17120000000E+03  0.17120000000E+03 0.  0.
         13    1    1    2    0    0  0.10883602642E+02 -0.92606170438E+01  0.68582658050E+02  0.70055720564E+02  0.10566000000E+00 0. -1.
        994    1    1    2    0    0 -0.75537917586E+01  0.62889159219E+01  0.18064376034E+01  0.17149143842E+03  0.17120000000E+03 0.  0.
        998    1    1    2    0    0 -0.33298108833E+01  0.29717011219E+01  0.14296109006E+04  0.14296528410E+04  0.10000000000E+02 0. -1.
</event>
<event>
 5    1  0.1757379E-008  0.3771849E+03  0.7957747E-01  0.3463508E+00
         13   -1    0    0    0    0  0.00000000000E+00  0.00000000000E+00  0.14999999963E+04  0.15000000000E+04  0.10566000000E+00 0.  1.
        994   -1    0    0    0    0 -0.00000000000E+00 -0.00000000000E+00  0.11368683772E-12  0.17120000000E+03  0.17120000000E+03 0.  0.
         13    1    1    2    0    0  0.48841387984E+02  0.51471835931E+02  0.19445310645E+03  0.20699481358E+03  0.10566000000E+00 0.  1.
        994    1    1    2    0    0  0.71891044457E+01 -0.16490253396E+02  0.15950951738E+02  0.17287997149E+03  0.17120000000E+03 0.  0.
        998    1    1    2    0    0 -0.56030492430E+02 -0.34981582535E+02  0.12895959381E+04  0.12913252149E+04  0.10000000000E+02 0.  1.
</event>
<event>
 5    1  0.1757379E-008  0.3789096E+03  0.7957747E-01  0.3455920E+00
         13   -1    0    0    0    0  0.00000000000E+00  0.00000000000E+00  0.14999999963E+04  0.15000000000E+04  0.10566000000E+00 0. -1.
        994   -1    0    0    0    0 -0.00000000000E+00 -0.00000000000E+00  0.11368683772E-12  0.17120000000E+03  0.17120000000E+03 0.  0.
         13    1    1    2    0    0 -0.23434989401E+02 -0.43331338654E+02  0.22395475036E+03  0.22930884199E+03  0.10566000000E+00 0. -1.
        994    1    1    2    0    0  0.26065441729E+02  0.39766963283E+02  0.12307367872E+02  0.17810595140E+03  0.17120000000E+03 0.  0.
        998    1    1    2    0    0 -0.26304523280E+01  0.35643753708E+01  0.12637378780E+04  0.12637852066E+04  0.10000000000E+02 0.  0.
</event>
<event>
 5    1  0.1757379E-008  0.3858418E+03  0.7957747E-01  0.3426110E+00
         13   -1    0    0    0    0  0.00000000000E+00  0.00000000000E+00  0.14999999963E+04  0.15000000000E+04  0.10566000000E+00 0.  1.
        994   -1    0    0    0    0 -0.00000000000E+00 -0.00000000000E+00  0.11368683772E-12  0.17120000000E+03  0.17120000000E+03 0.  0.
         13    1    1    2    0    0  0.13737593343E+02  0.75592765903E+01  0.94800746292E+02  0.96088796407E+02  0.10566000000E+00 0.  1.
        994    1    1    2    0    0 -0.15404970674E+02 -0.10993297353E+02  0.23883082564E+01  0.17225942565E+03  0.17120000000E+03 0.  0.
        998    1    1    2    0    0  0.16673773318E+01  0.34340207626E+01  0.14028109417E+04  0.14028517779E+04  0.10000000000E+02 0.  1.
</event>
<event>
 5    1  0.1757379E-008  0.3862825E+03  0.7957747E-01  0.3424251E+00
         13   -1    0    0    0    0  0.00000000000E+00  0.00000000000E+00  0.14999999963E+04  0.15000000000E+04  0.10566000000E+00 0.  1.
        994   -1    0    0    0    0 -0.00000000000E+00 -0.00000000000E+00  0.11368683772E-12  0.17120000000E+03  0.17120000000E+03 0.  0.
         13    1    1    2    0    0 -0.10056647439E+02 -0.15722621614E+01  0.53525182507E+02  0.54484534434E+02  0.10566000000E+00 0.  1.
        994    1    1    2    0    0  0.34217155281E+01  0.15399389352E+02  0.18101329572E+01  0.17193477226E+03  0.17120000000E+03 0.  0.
        998    1    1    2    0    0  0.66349319113E+01 -0.13827127190E+02  0.14446646808E+04  0.14447806933E+04  0.10000000000E+02 0.  1.
</event>
<event>
 5    1  0.1757379E-008  0.3837348E+03  0.7957747E-01  0.3435056E+00
         13   -1    0    0    0    0  0.00000000000E+00  0.00000000000E+00  0.14999999963E+04  0.15000000000E+04  0.10566000000E+00 0.  1.
        994   -1    0    0    0    0 -0.00000000000E+00 -0.00000000000E+00  0.11368683772E-12  0.17120000000E+03  0.17120000000E+03 0.  0.
         13    1    1    2    0    0 -0.10119304069E+02  0.98563717578E+01  0.42140195505E+02  0.44444972948E+02  0.10566000000E+00 0.  1.
        994    1    1    2    0    0 -0.12072964641E+02 -0.37648904618E+02  0.74387248215E+01  0.17586350139E+03  0.17120000000E+03 0.  0.
        998    1    1    2    0    0  0.22192268710E+02  0.27792532860E+02  0.14504210760E+04  0.14508915257E+04  0.10000000000E+02 0.  1.
</event>
<event>
 5    1  0.1757379E-008  0.3822719E+03  0.7957747E-01  0.3441325E+00
         13   -1    0    0    0    0  0.00000000000E+00  0.00000000000E+00  0.14999999963E+04  0.15000000000E+04  0.10566000000E+00 0. -1.
        994   -1    0    0    0    0 -0.00000000000E+00 -0.00000000000E+00  0.11368683772E-12  0.17120000000E+03  0.17120000000E+03 0.  0.
         13    1    1    2    0    0  0.21218402727E+02  0.82582469924E+01  0.82187050618E+02  0.85282716368E+02  0.10566000000E+00 0. -1.
        994    1    1    2    0    0 -0.20892574164E+02 -0.73356953280E+01  0.46192187418E+01  0.17268783762E+03  0.17120000000E+03 0.  0.
        998    1    1    2    0    0 -0.32582856294E+00 -0.92255166436E+00  0.14131937269E+04  0.14132294460E+04  0.10000000000E+02 0.  0.
</event>
<event>
 5    1  0.1757379E-008  0.3709067E+03  0.7957747E-01  0.3491734E+00
         13   -1    0    0    0    0  0.00000000000E+00  0.00000000000E+00  0.14999999963E+04  0.15000000000E+04  0.10566000000E+00 0. -1.
        994   -1    0    0    0    0 -0.00000000000E+00 -0.00000000000E+00  0.11368683772E-12  0.17120000000E+03  0.17120000000E+03 0.  0.
         13    1    1    2    0    0 -0.93574730900E+02  0.16352936451E+02  0.29776791041E+03  0.31255301699E+03  0.10566000000E+00 0. -1.
        994    1    1    2    0    0  0.11027919942E+03  0.29852038891E+02  0.58715573246E+02  0.21403178407E+03  0.17120000000E+03 0.  0.
        998    1    1    2    0    0 -0.16704468517E+02 -0.46204975342E+02  0.11435165126E+04  0.11446151989E+04  0.10000000000E+02 0.  1.
</event>
<event>
 5    1  0.1757379E-008  0.3637485E+03  0.7957747E-01  0.3525125E+00
         13   -1    0    0    0    0  0.00000000000E+00  0.00000000000E+00  0.14999999963E+04  0.15000000000E+04  0.10566000000E+00 0. -1.
        994   -1    0    0    0    0 -0.00000000000E+00 -0.00000000000E+00  0.11368683772E-12  0.17120000000E+03  0.17120000000E+03 0.  0.
         13    1    1    2    0    0 -0.23927853826E+02  0.26905271199E+03  0.10044803841E+04  0.10401647740E+04  0.10566000000E+00 0. -1.
        994    1    1    2    0    0  0.20622672706E+02 -0.25577610468E+03  0.28544970276E+03  0.42028286089E+03  0.17120000000E+03 0.  0.
        998    1    1    2    0    0  0.33051811198E+01 -0.13276607316E+02  0.21006990946E+03  0.21075236507E+03  0.10000000000E+02 0.  0.
</event>
<event>
 5    1  0.1757379E-008  0.3813981E+03  0.7957747E-01  0.3445093E+00
         13   -1    0    0    0    0  0.00000000000E+00  0.00000000000E+00  0.14999999963E+04  0.15000000000E+04  0.10566000000E+00 0.  1.
        994   -1    0    0    0    0 -0.00000000000E+00 -0.00000000000E+00  0.11368683772E-12  0.17120000000E+03  0.17120000000E+03 0.  0.
         13    1    1    2    0    0  0.21778872871E+02  0.34108028534E+02  0.40814458037E+02  0.57476152123E+02  0.10566000000E+00 0.  1.
        994    1    1    2    0    0 -0.20356241669E+02 -0.28624366171E+02  0.21603913355E+02  0.17609628044E+03  0.17120000000E+03 0.  0.
        998    1    1    2    0    0 -0.14226312022E+01 -0.54836623630E+01  0.14375816249E+04  0.14376275674E+04  0.10000000000E+02 0.  1.
</event>
<event>
 5    1  0.1757379E-008  0.3756502E+03  0.7957747E-01  0.3470320E+00
         13   -1    0    0    0    0  0.00000000000E+00  0.00000000000E+00  0.14999999963E+04  0.15000000000E+04  0.10566000000E+00 0.  1.
        994   -1    0    0    0    0 -0.00000000000E+00 -0.00000000000E+00  0.11368683772E-12  0.17120000000E+03  0.17120000000E+03 0.  0.
         13    1    1    2    0    0 -0.44516155996E+02 -0.37720110579E+01  0.17252488233E+03  0.17821549427E+03  0.10566000000E+00 0.  1.
        994    1    1    2    0    0  0.11713791068E+02 -0.33953391667E+02  0.10733288128E+02  0.17525606746E+03  0.17120000000E+03 0.  0.
        998    1    1    2    0    0  0.32802364928E+02  0.37725402725E+02  0.13167418258E+04  0.13177284383E+04  0.10000000000E+02 0.  1.
</event>
<event>
 5    1  0.1757379E-008  0.3831164E+03  0.7957747E-01  0.3437700E+00
         13   -1    0    0    0    0  0.00000000000E+00  0.00000000000E+00  0.14999999963E+04  0.15000000000E+04  0.10566000000E+00 0. -1.
        994   -1    0    0    0    0 -0.00000000000E+00 -0.00000000000E+00  0.11368683772E-12  0.17120000000E+03  0.17120000000E+03 0.  0.
         13    1    1    2    0    0  0.20018314478E+02 -0.96715554854E+01  0.91253239993E+02  0.93922504616E+02  0.10566000000E+00 0. -1.
        994    1    1    2    0    0 -0.23785831639E+02  0.33259823908E+00  0.44428366912E+01  0.17290186583E+03  0.17120000000E+03 0.  0.
        998    1    1    2    0    0  0.37675171609E+01  0.93389572463E+01  0.14043039196E+04  0.14043756296E+04  0.10000000000E+02 0. -1.
</event>
<event>
 5    1  0.1757379E-008  0.3830328E+03  0.7957747E-01  0.3438059E+00
         13   -1    0    0    0    0  0.00000000000E+00  0.00000000000E+00  0.14999999963E+04  0.15000000000E+04  0.10566000000E+00 0. -1.
        994   -1    0    0    0    0 -0.00000000000E+00 -0.00000000000E+00  0.11368683772E-12  0.17120000000E+03  0.17120000000E+03 0.  0.
         13    1    1    2    0    0  0.10572736624E+02  0.15846957347E+02  0.71023178022E+02  0.73533745976E+02  0.10566000000E+00 0. -1.
        994    1    1    2    0    0 -0.36906032690E+01 -0.50242802235E+01  0.27386412612E+01  0.17133535566E+03  0.17120000000E+03 0.  0.
        998    1    1    2    0    0 -0.68821333547E+01 -0.10822677124E+02  0.14262381770E+04  0.14263308984E+04  0.10000000000E+02 0. -1.
</event>
<event>
 5    1  0.1757379E-008  0.3759277E+03  0.7957747E-01  0.3469084E+00
         13   -1    0    0    0    0  0.00000000000E+00  0.00000000000E+00  0.14999999963E+04  0.15000000000E+04  0.10566000000E+00 0.  1.
        994   -1    0    0    0    0 -0.00000000000E+00 -0.00000000000E+00  0.11368683772E-12  0.17120000000E+03  0.17120000000E+03 0.  0.
         13    1    1    2    0    0 -0.57171969324E+01 -0.27926948892E+02  0.63873976778E+02  0.69946385816E+02  0.10566000000E+00 0.  1.
        994    1    1    2    0    0  0.99416266267E+01  0.13399714802E+02  0.71470209508E+01  0.17215954288E+03  0.17120000000E+03 0.  0.
        998    1    1    2    0    0 -0.42244296942E+01  0.14527234090E+02  0.14289789985E+04  0.14290940713E+04  0.10000000000E+02 0.  1.
</event>
<event>
 5    1  0.1757379E-008  0.3707297E+03  0.7957747E-01  0.3492544E+00
         13   -1    0    0    0    0  0.00000000000E+00  0.00000000000E+00  0.14999999963E+04  0.15000000000E+04  0.10566000000E+00 0.  1.
        994   -1    0    0    0    0 -0.00000000000E+00 -0.00000000000E+00  0.11368683772E-12  0.17120000000E+03  0.17120000000E+03 0.  0.
         13    1    1    2    0    0 -0.14341021678E+03 -0.43821491962E+02  0.89636555859E+03  0.90882233645E+03  0.10566000000E+00 0.  1.
        994    1    1    2    0    0  0.11062876268E+03  0.35685793168E+02  0.57042710794E+02  0.21465206689E+03  0.17120000000E+03 0.  0.
        998    1    1    2    0    0  0.32781454099E+02  0.81356987936E+01  0.54659172689E+03  0.54772559666E+03  0.10000000000E+02 0. -1.
</event>
<event>
 5    1  0.1757379E-008  0.3828152E+03  0.7957747E-01  0.3438991E+00
         13   -1    0    0    0    0  0.00000000000E+00  0.00000000000E+00  0.14999999963E+04  0.15000000000E+04  0.10566000000E+00 0. -1.
        994   -1    0    0    0    0 -0.00000000000E+00 -0.00000000000E+00  0.11368683772E-12  0.17120000000E+03  0.17120000000E+03 0.  0.
         13    1    1    2    0    0 -0.18729641921E+02 -0.21145205133E+01  0.62586065763E+02  0.65362814162E+02  0.10566000000E+00 0. -1.
        994    1    1    2    0    0  0.18532319232E+02 -0.40140268243E+00  0.38576520132E+01  0.17224380819E+03  0.17120000000E+03 0.  0.
        998    1    1    2    0    0  0.19732268912E+00  0.25159231958E+01  0.14335562785E+04  0.14335933776E+04  0.10000000000E+02 0. -1.
</event>
<event>
 5    1  0.1757379E-008  0.3742420E+03  0.7957747E-01  0.3476620E+00
         13   -1    0    0    0    0  0.00000000000E+00  0.00000000000E+00  0.14999999963E+04  0.15000000000E+04  0.10566000000E+00 0.  1.
        994   -1    0    0    0    0 -0.00000000000E+00 -0.00000000000E+00  0.11368683772E-12  0.17120000000E+03  0.17120000000E+03 0.  0.
         13    1    1    2    0    0 -0.32035198599E+02 -0.11859680405E+02  0.76594693069E+02  0.83866943065E+02  0.10566000000E+00 0.  1.
        994    1    1    2    0    0  0.26109210781E+02  0.25129359012E+02  0.11556841231E+02  0.17537438853E+03  0.17120000000E+03 0.  0.
        998    1    1    2    0    0  0.59259878187E+01 -0.13269678607E+02  0.14118484620E+04  0.14119586684E+04  0.10000000000E+02 0.  1.
</event>
<event>
 5    1  0.1757379E-008  0.3756861E+03  0.7957747E-01  0.3470160E+00
         13   -1    0    0    0    0  0.00000000000E+00  0.00000000000E+00  0.14999999963E+04  0.15000000000E+04  0.10566000000E+00 0. -1.
        994   -1    0    0    0    0 -0.00000000000E+00 -0.00000000000E+00  0.11368683772E-12  0.17120000000E+03  0.17120000000E+03 0.  0.
         13    1    1    2    0    0  0.15592053811E+02  0.28374079373E+02  0.84170756527E+02  0.90182747467E+02  0.10566000000E+00 0. -1.
        994    1    1    2    0    0  0.14977580307E+00 -0.10523709103E+02  0.67025552257E+01  0.17165411481E+03  0.17120000000E+03 0.  0.
        998    1    1    2    0    0 -0.15741829614E+02 -0.17850370270E+02  0.14091266845E+04  0.14093631377E+04  0.10000000000E+02 0. -1.
</event>
<event>
 5    1  0.1757379E-008  0.3781658E+03  0.7957747E-01  0.3459184E+00
         13   -1    0    0    0    0  0.00000000000E+00  0.00000000000E+00  0.14999999963E+04  0.15000000000E+04  0.10566000000E+00 0.  1.
        994   -1    0    0    0    0 -0.00000000000E+00 -0.00000000000E+00  0.11368683772E-12  0.17120000000E+03  0.17120000000E+03 0.  0.
         13    1    1    2    0    0  0.17392794677E+02 -0.13236697185E+02  0.46096797305E+02  0.51016128281E+02  0.10566000000E+00 0.  1.
        994    1    1    2    0    0 -0.20668244046E+01  0.11698081583E+02  0.55366847318E+01  0.17170093696E+03  0.17120000000E+03 0.  0.
        998    1    1    2    0    0 -0.15325970272E+02  0.15386156016E+01  0.14483665142E+04  0.14484829348E+04  0.10000000000E+02 0.  1.
</event>
<event>
 5    1  0.1757379E-008  0.3853330E+03  0.7957747E-01  0.3428261E+00
         13   -1    0    0    0    0  0.00000000000E+00  0.00000000000E+00  0.14999999963E+04  0.15000000000E+04  0.10566000000E+00 0. -1.
        994   -1    0    0    0    0 -0.00000000000E+00 -0.00000000000E+00  0.11368683772E-12  0.17120000000E+03  0.17120000000E+03 0.  0.
         13    1    1    2    0    0 -0.93015720197E+01 -0.11190907758E+02  0.72854588346E+02  0.74293726960E+02  0.10566000000E+00 0. -1.
        994    1    1    2    0    0  0.12318191934E+02  0.14834350598E+01  0.19707810964E+01  0.17166031111E+03  0.17120000000E+03 0.  0.
        998    1    1    2    0    0 -0.30166199138E+01  0.97074726978E+01  0.14251746268E+04  0.14252459619E+04  0.10000000000E+02 0. -1.
</event>
<event>
 5    1  0.1757379E-008  0.3815015E+03  0.7957747E-01  0.3444646E+00
         13   -1    0    0    0    0  0.00000000000E+00  0.00000000000E+00  0.14999999963E+04  0.15000000000E+04  0.10566000000E+00 0.  1.
        994   -1    0    0    0    0 -0.00000000000E+00 -0.00000000000E+00  0.11368683772E-12  0.17120000000E+03  0.17120000000E+03 0.  0.
         13    1    1    2    0    0  0.14525825662E+02 -0.32371842943E+01  0.33076586652E+02  0.36270521390E+02  0.10566000000E+00 0.  1.
        994    1    1    2    0    0  0.37934672626E+01 -0.10756893554E+01  0.34288238185E+01  0.17127972540E+03  0.17120000000E+03 0.  0.
        998    1    1    2    0    0 -0.18319292924E+02  0.43128736496E+01  0.14634945858E+04  0.14636497532E+04  0.10000000000E+02 0.  1.
</event>
<event>
 5    1  0.1757379E-008  0.3778463E+03  0.7957747E-01  0.3460590E+00
         13   -1    0    0    0    0  0.00000000000E+00  0.00000000000E+00  0.14999999963E+04  0.15000000000E+04  0.10566000000E+00 0. -1.
        994   -1    0    0    0    0 -0.00000000000E+00 -0.00000000000E+00  0.11368683772E-12  0.17120000000E+03  0.17120000000E+03 0.  0.
         13    1    1    2    0    0  0.12070850664E+02 -0.33089663807E+01  0.12836518596E+02  0.17928805536E+02  0.10566000000E+00 0. -1.
        994    1    1    2    0    0 -0.10346769585E+01  0.11165952341E+02  0.56477672922E+01  0.17165979822E+03  0.17120000000E+03 0.  0.
        998    1    1    2    0    0 -0.11036173705E+02 -0.78569859599E+01  0.14815157104E+04  0.14816113962E+04  0.10000000000E+02 0. -1.
</event>
<event>
 5    1  0.1757379E-008  0.3851505E+03  0.7957747E-01  0.3429034E+00
         13   -1    0    0    0    0  0.00000000000E+00  0.00000000000E+00  0.14999999963E+04  0.15000000000E+04  0.10566000000E+00 0. -1.
        994   -1    0    0    0    0 -0.00000000000E+00 -0.00000000000E+00  0.11368683772E-12  0.17120000000E+03  0.17120000000E+03 0.  0.
         13    1    1    2    0    0  0.47760352941E+01  0.98967779519E+01  0.40039826049E+02  0.41520543843E+02  0.10566000000E+00 0. -1.
        994    1    1    2    0    0  0.36292082887E+01 -0.29573435091E+01  0.16274611297E+01  0.17127173048E+03  0.17120000000E+03 0.  0.
        998    1    1    2    0    0 -0.84052435829E+01 -0.69394344428E+01  0.14583327091E+04  0.14584077257E+04  0.10000000000E+02 0. -1.
</event>
<event>
 5    1  0.1757379E-008  0.3859632E+03  0.7957747E-01  0.3425597E+00
         13   -1    0    0    0    0  0.00000000000E+00  0.00000000000E+00  0.14999999963E+04  0.15000000000E+04  0.10566000000E+00 0. -1.
        994   -1    0    0    0    0 -0.00000000000E+00 -0.00000000000E+00  0.11368683772E-12  0.17120000000E+03  0.17120000000E+03 0.  0.
         13    1    1    2    0    0  0.36836175768E+01  0.98845454812E+01  0.47676732260E+02  0.48829860135E+02  0.10566000000E+00 0. -1.
        994    1    1    2    0    0 -0.23747743654E+00 -0.11398951985E+02  0.15789682462E+01  0.17158649610E+03  0.17120000000E+03 0.  0.
        998    1    1    2    0    0 -0.34461401402E+01  0.15144065039E+01  0.14507442958E+04  0.14507836438E+04  0.10000000000E+02 0. -1.
</event>
<event>
 5    1  0.1757379E-008  0.4510421E+03  0.7957747E-01  0.3190254E+00
         13   -1    0    0    0    0  0.00000000000E+00  0.00000000000E+00  0.14999999963E+04  0.15000000000E+04  0.10566000000E+00 0. -1.
        994   -1    0    0    0    0 -0.00000000000E+00 -0.00000000000E+00  0.11368683772E-12  0.17120000000E+03  0.17120000000E+03 0.  0.
         13    1    1    2    0    0  0.64158680828E+02  0.27795201319E+02  0.18192841234E+02  0.72248876657E+02  0.10566000000E+00 0. -1.
        994    1    1    2    0    0 -0.68063044734E+02 -0.14940136350E+02  0.87429415488E+02  0.20447280608E+03  0.17120000000E+03 0.  0.
        998    1    1    2    0    0  0.39043639053E+01 -0.12855064970E+02  0.13943777396E+04  0.13944783173E+04  0.10000000000E+02 0. -1.
</event>
<event>
 5    1  0.1757379E-008  0.3804003E+03  0.7957747E-01  0.3449418E+00
         13   -1    0    0    0    0  0.00000000000E+00  0.00000000000E+00  0.14999999963E+04  0.15000000000E+04  0.10566000000E+00 0.  1.
        994   -1    0    0    0    0 -0.00000000000E+00 -0.00000000000E+00  0.11368683772E-12  0.17120000000E+03  0.17120000000E+03 0.  0.
         13    1    1    2    0    0 -0.10797051649E+03 -0.12510531465E+03  0.88869598367E+03  0.90393004970E+03  0.10566000000E+00 0.  1.
        994    1    1    2    0    0  0.11285491848E+03  0.13682309470E+03  0.11728588112E+03  0.27298756341E+03  0.17120000000E+03 0.  0.
        998    1    1    2    0    0 -0.48844019863E+01 -0.11717780045E+02  0.49401813149E+03  0.49428238689E+03  0.10000000000E+02 0. -1.
</event>
<event>
 5    1  0.1757379E-008  0.3857663E+03  0.7957747E-01  0.3426429E+00
         13   -1    0    0    0    0  0.00000000000E+00  0.00000000000E+00  0.14999999963E+04  0.15000000000E+04  0.10566000000E+00 0.  1.
        994   -1    0    0    0    0 -0.00000000000E+00 -0.00000000000E+00  0.11368683772E-12  0.17120000000E+03  0.17120000000E+03 0.  0.
         13    1    1    2    0    0  0.11381918766E+03 -0.87311976986E+02  0.37849165358E+03  0.40476429165E+03  0.10566000000E+00 0.  1.
        994    1    1    2    0    0 -0.10916854461E+03  0.88281050966E+02  0.96757836362E+02  0.24162540013E+03  0.17120000000E+03 0.  0.
        998    1    1    2    0    0 -0.46506430484E+01 -0.96907398070E+00  0.10247505063E+04  0.10248103082E+04  0.10000000000E+02 0.  1.
</event>
<event>
 5    1  0.1757379E-008  0.3794881E+03  0.7957747E-01  0.3453391E+00
         13   -1    0    0    0    0  0.00000000000E+00  0.00000000000E+00  0.14999999963E+04  0.15000000000E+04  0.10566000000E+00 0.  1.
        994   -1    0    0    0    0 -0.00000000000E+00 -0.00000000000E+00  0.11368683772E-12  0.17120000000E+03  0.17120000000E+03 0.  0.
         13    1    1    2    0    0  0.34010154534E+02 -0.38092153451E+01  0.11606848057E+03  0.12100869423E+03  0.10566000000E+00 0.  1.
        994    1    1    2    0    0 -0.54304937774E+02 -0.57476646962E+02  0.25621938032E+02  0.19031162582E+03  0.17120000000E+03 0.  0.
        998    1    1    2    0    0  0.20294783240E+02  0.61285862307E+02  0.13583095777E+04  0.13598796800E+04  0.10000000000E+02 0.  1.
</event>
<event>
 5    1  0.1757379E-008  0.3815216E+03  0.7957747E-01  0.3444560E+00
         13   -1    0    0    0    0  0.00000000000E+00  0.00000000000E+00  0.14999999963E+04  0.15000000000E+04  0.10566000000E+00 0.  1.
        994   -1    0    0    0    0 -0.00000000000E+00 -0.00000000000E+00  0.11368683772E-12  0.17120000000E+03  0.17120000000E+03 0.  0.
         13    1    1    2    0    0 -0.50241859269E+00  0.16669434471E+02  0.39703816215E+02  0.43064215493E+02  0.10566000000E+00 0.  1.
        994    1    1    2    0    0  0.16141597854E+01 -0.13647280347E+02  0.39954285486E+01  0.17179713974E+03  0.17120000000E+03 0.  0.
        998    1    1    2    0    0 -0.11117411927E+01 -0.30221541240E+01  0.14563007515E+04  0.14563386448E+04  0.10000000000E+02 0.  1.
</event>
<event>
 5    1  0.1757379E-008  0.3735516E+03  0.7957747E-01  0.3479726E+00
         13   -1    0    0    0    0  0.00000000000E+00  0.00000000000E+00  0.14999999963E+04  0.15000000000E+04  0.10566000000E+00 0.  1.
        994   -1    0    0    0    0 -0.00000000000E+00 -0.00000000000E+00  0.11368683772E-12  0.17120000000E+03  0.17120000000E+03 0.  0.
         13    1    1    2    0    0  0.31266125313E+02  0.11240944994E+02  0.79287849172E+02  0.85968038403E+02  0.10566000000E+00 0.  1.
        994    1    1    2    0    0  0.10265210597E+02 -0.88666003788E+01  0.80531541409E+01  0.17192522922E+03  0.17120000000E+03 0.  0.
        998    1    1    2    0    0 -0.41531335910E+02 -0.23743446150E+01  0.14126589930E+04  0.14133067324E+04  0.10000000000E+02 0.  1.
</event>
<event>
 5    1  0.1757379E-008  0.3758817E+03  0.7957747E-01  0.3469289E+00
         13   -1    0    0    0    0  0.00000000000E+00  0.00000000000E+00  0.14999999963E+04  0.15000000000E+04  0.10566000000E+00 0.  1.
        994   -1    0    0    0    0 -0.00000000000E+00 -0.00000000000E+00  0.11368683772E-12  0.17120000000E+03  0.17120000000E+03 0.  0.
         13    1    1    2    0    0 -0.26767928175E+02 -0.21180846326E+02  0.96358855573E+02  0.10222617298E+03  0.10566000000E+00 0.  1.
        994    1    1    2    0    0  0.60278538059E+01  0.60597689971E+01  0.64742908200E+01  0.17153545483E+03  0.17120000000E+03 0.  0.
        998    1    1    2    0    0  0.20740074369E+02  0.15121077329E+02  0.13971668499E+04  0.13974383722E+04  0.10000000000E+02 0.  1.
</event>
<event>
 5    1  0.1757379E-008  0.3771748E+03  0.7957747E-01  0.3463553E+00
         13   -1    0    0    0    0  0.00000000000E+00  0.00000000000E+00  0.14999999963E+04  0.15000000000E+04  0.10566000000E+00 0. -1.
        994   -1    0    0    0    0 -0.00000000000E+00 -0.00000000000E+00  0.11368683772E-12  0.17120000000E+03  0.17120000000E+03 0.  0.
         13    1    1    2    0    0 -0.22748154387E+02  0.42621091699E+02  0.20986087356E+03  0.21535002531E+03  0.10566000000E+00 0. -1.
        994    1    1    2    0    0  0.71011426975E+02  0.22429702484E+01  0.22793326195E+02  0.18675285646E+03  0.17120000000E+03 0.  0.
        998    1    1    2    0    0 -0.48263272588E+02 -0.44864061948E+02  0.12673457965E+04  0.12690971182E+04  0.10000000000E+02 0. -1.
</event>
<event>
 5    1  0.3734467E-008  0.3864923E+03  0.7957747E-01  0.3423368E+00
         13   -1    0    0    0    0  0.00000000000E+00  0.00000000000E+00  0.14999999963E+04  0.15000000000E+04  0.10566000000E+00 0.  1.
        994   -1    0    0    0    0 -0.00000000000E+00 -0.00000000000E+00  0.11368683772E-12  0.17120000000E+03  0.17120000000E+03 0.  0.
         13    1    1    2    0    0  0.71799653663E+01  0.71415181929E+01  0.56531884616E+02  0.57431858119E+02  0.10566000000E+00 0.  1.
        994    1    1    2    0    0 -0.74991773768E+01 -0.92377854681E+01  0.13545233966E+01  0.17161832383E+03  0.17120000000E+03 0.  0.
        998    1    1    2    0    0  0.31921201048E+00  0.20962672752E+01  0.14421135883E+04  0.14421498180E+04  0.10000000000E+02 0.  1.
</event>
<event>
 5    1  0.1757379E-008  0.3779364E+03  0.7957747E-01  0.3460193E+00
         13   -1    0    0    0    0  0.00000000000E+00  0.00000000000E+00  0.14999999963E+04  0.15000000000E+04  0.10566000000E+00 0. -1.
        994   -1    0    0    0    0 -0.00000000000E+00 -0.00000000000E+00  0.11368683772E-12  0.17120000000E+03  0.17120000000E+03 0.  0.
         13    1    1    2    0    0  0.92734612806E+01  0.50619703679E+01  0.85575279005E+01  0.13596436148E+02  0.10566000000E+00 0. -1.
        994    1    1    2    0    0 -0.51782824024E+00 -0.19556526702E+01  0.51922468691E+01  0.17129066569E+03  0.17120000000E+03 0.  0.
        998    1    1    2    0    0 -0.87556330403E+01 -0.31063176977E+01  0.14862502215E+04  0.14863128982E+04  0.10000000000E+02 0. -1.
</event>
<event>
 5    1  0.1757379E-008  0.3829786E+03  0.7957747E-01  0.3438291E+00
         13   -1    0    0    0    0  0.00000000000E+00  0.00000000000E+00  0.14999999963E+04  0.15000000000E+04  0.10566000000E+00 0. -1.
        994   -1    0    0    0    0 -0.00000000000E+00 -0.00000000000E+00  0.11368683772E-12  0.17120000000E+03  0.17120000000E+03 0.  0.
         13    1    1    2    0    0  0.14410718288E+02  0.21233763742E+00  0.38319211529E+02  0.40940041831E+02  0.10566000000E+00 0. -1.
        994    1    1    2    0    0 -0.11345298400E+02  0.11261214476E+02  0.34834292597E+01  0.17197995530E+03  0.17120000000E+03 0.  0.
        998    1    1    2    0    0 -0.30654198878E+01 -0.11473552114E+02  0.14581973555E+04  0.14582800029E+04  0.10000000000E+02 0. -1.
</event>
<event>
 5    1  0.1757379E-008  0.3853078E+03  0.7957747E-01  0.3428368E+00
         13   -1    0    0    0    0  0.00000000000E+00  0.00000000000E+00  0.14999999963E+04  0.15000000000E+04  0.10566000000E+00 0. -1.
        994   -1    0    0    0    0 -0.00000000000E+00 -0.00000000000E+00  0.11368683772E-12  0.17120000000E+03  0.17120000000E+03 0.  0.
         13    1    1    2    0    0  0.83060022169E+01  0.13091119440E+02  0.84223948103E+02  0.85639077991E+02  0.10566000000E+00 0. -1.
        994    1    1    2    0    0 -0.78741833069E+00 -0.65411803040E+01  0.16200218754E+01  0.17133438516E+03  0.17120000000E+03 0.  0.
        998    1    1    2    0    0 -0.75185838863E+01 -0.65499391356E+01  0.14141560263E+04  0.14142265368E+04  0.10000000000E+02 0. -1.
</event>
<event>
 5    1  0.1757379E-008  0.3705153E+03  0.7957747E-01  0.3493526E+00
         13   -1    0    0    0    0  0.00000000000E+00  0.00000000000E+00  0.14999999963E+04  0.15000000000E+04  0.10566000000E+00 0. -1.
        994   -1    0    0    0    0 -0.00000000000E+00 -0.00000000000E+00  0.11368683772E-12  0.17120000000E+03  0.17120000000E+03 0.  0.
         13    1    1    2    0    0 -0.42015159345E+02  0.59018122267E+02  0.41429404533E+03  0.42058052681E+03  0.10566000000E+00 0. -1.
        994    1    1    2    0    0 -0.18511888801E+02 -0.14434432672E+02  0.10904198054E+02  0.17314555844E+03  0.17120000000E+03 0.  0.
        998    1    1    2    0    0  0.60527048147E+02 -0.44583689595E+02  0.10748017529E+04  0.10774739147E+04  0.10000000000E+02 0. -1.
</event>
<event>
 5    1  0.1757379E-008  0.3841595E+03  0.7957747E-01  0.3433245E+00
         13   -1    0    0    0    0  0.00000000000E+00  0.00000000000E+00  0.14999999963E+04  0.15000000000E+04  0.10566000000E+00 0. -1.
        994   -1    0    0    0    0 -0.00000000000E+00 -0.00000000000E+00  0.11368683772E-12  0.17120000000E+03  0.17120000000E+03 0.  0.
         13    1    1    2    0    0  0.57475493366E+01  0.16003897853E+02  0.83334780682E+02  0.85052077606E+02  0.10566000000E+00 0. -1.
        994    1    1    2    0    0  0.13918566962E+02  0.10554453273E+02  0.30548163819E+01  0.17211593445E+03  0.17120000000E+03 0.  0.
        998    1    1    2    0    0 -0.19666116298E+02 -0.26558351126E+02  0.14136103992E+04  0.14140319879E+04  0.10000000000E+02 0. -1.
</event>
<event>
 5    1  0.1757379E-008  0.3853232E+03  0.7957747E-01  0.3428303E+00
         13   -1    0    0    0    0  0.00000000000E+00  0.00000000000E+00  0.14999999963E+04  0.15000000000E+04  0.10566000000E+00 0.  1.
        994   -1    0    0    0    0 -0.00000000000E+00 -0.00000000000E+00  0.11368683772E-12  0.17120000000E+03  0.17120000000E+03 0.  0.
         13    1    1    2    0    0 -0.10272872765E+02 -0.63727738197E+01  0.50244587739E+02  0.51678563468E+02  0.10566000000E+00 0.  1.
        994    1    1    2    0    0  0.98830167938E+01 -0.31068173787E+01  0.18224349838E+01  0.17152284864E+03  0.17120000000E+03 0.  0.
        998    1    1    2    0    0  0.38985597138E+00  0.94795911985E+01  0.14479329736E+04  0.14479985879E+04  0.10000000000E+02 0.  1.
</event>
<event>
 5    1  0.1757379E-008  0.3828725E+03  0.7957747E-01  0.3438745E+00
         13   -1    0    0    0    0  0.00000000000E+00  0.00000000000E+00  0.14999999963E+04  0.15000000000E+04  0.10566000000E+00 0.  1.
        994   -1    0    0    0    0 -0.00000000000E+00 -0.00000000000E+00  0.11368683772E-12  0.17120000000E+03  0.17120000000E+03 0.  0.
         13    1    1    2    0    0  0.49631054295E+01  0.23872089823E+02  0.11748996028E+03  0.11999337906E+03  0.10566000000E+00 0.  1.
        994    1    1    2    0    0  0.27512470243E+01 -0.56022550230E+01  0.28190999385E+01  0.17133692523E+03  0.17120000000E+03 0.  0.
        998    1    1    2    0    0 -0.77143524537E+01 -0.18269834800E+02  0.13796909361E+04  0.13798696957E+04  0.10000000000E+02 0.  1.
</event>
<event>
 5    1  0.1757379E-008  0.3751184E+03  0.7957747E-01  0.3472693E+00
         13   -1    0    0    0    0  0.00000000000E+00  0.00000000000E+00  0.14999999963E+04  0.15000000000E+04  0.10566000000E+00 0.  1.
        994   -1    0    0    0    0 -0.00000000000E+00 -0.00000000000E+00  0.11368683772E-12  0.17120000000E+03  0.17120000000E+03 0.  0.
         13    1    1    2    0    0  0.56692910003E+01  0.13948158887E+02  0.23078893214E+01  0.15232515023E+02  0.10566000000E+00 0.  1.
        994    1    1    2    0    0  0.41367526464E+01  0.83228368999E+01  0.13978874698E+02  0.17202101986E+03  0.17120000000E+03 0.  0.
        998    1    1    2    0    0 -0.98060436466E+01 -0.22270995787E+02  0.14837132323E+04  0.14839464651E+04  0.10000000000E+02 0.  1.
</event>
<event>
 5    1  0.1757379E-008  0.3836113E+03  0.7957747E-01  0.3435583E+00
         13   -1    0    0    0    0  0.00000000000E+00  0.00000000000E+00  0.14999999963E+04  0.15000000000E+04  0.10566000000E+00 0.  1.
        994   -1    0    0    0    0 -0.00000000000E+00 -0.00000000000E+00  0.11368683772E-12  0.17120000000E+03  0.17120000000E+03 0.  0.
         13    1    1    2    0    0 -0.78714723718E+01  0.78958850484E+01  0.26233832858E+02  0.28504915865E+02  0.10566000000E+00 0.  1.
        994    1    1    2    0    0 -0.32459868213E+01 -0.11075905373E+02  0.27613466856E+01  0.17161083050E+03  0.17120000000E+03 0.  0.
        998    1    1    2    0    0  0.11117459193E+02  0.31800203246E+01  0.14710048167E+04  0.14710842536E+04  0.10000000000E+02 0.  1.
</event>
<event>
 5    1  0.1757379E-008  0.3816544E+03  0.7957747E-01  0.3443986E+00
         13   -1    0    0    0    0  0.00000000000E+00  0.00000000000E+00  0.14999999963E+04  0.15000000000E+04  0.10566000000E+00 0.  1.
        994   -1    0    0    0    0 -0.00000000000E+00 -0.00000000000E+00  0.11368683772E-12  0.17120000000E+03  0.17120000000E+03 0.  0.
         13    1    1    2    0    0 -0.15540457772E+02 -0.31133683661E+01  0.39057825069E+02  0.42151201092E+02  0.10566000000E+00 0.  1.
        994    1    1    2    0    0 -0.43888653023E+01 -0.36610782653E+01  0.34089512250E+01  0.17132929283E+03  0.17120000000E+03 0.  0.
        998    1    1    2    0    0  0.19929323074E+02  0.67744466314E+01  0.14575332200E+04  0.14577195061E+04  0.10000000000E+02 0.  1.
</event>
<event>
 5    1  0.1757379E-008  0.3827636E+03  0.7957747E-01  0.3439213E+00
         13   -1    0    0    0    0  0.00000000000E+00  0.00000000000E+00  0.14999999963E+04  0.15000000000E+04  0.10566000000E+00 0. -1.
        994   -1    0    0    0    0 -0.00000000000E+00 -0.00000000000E+00  0.11368683772E-12  0.17120000000E+03  0.17120000000E+03 0.  0.
         13    1    1    2    0    0 -0.11428779792E+02  0.54389302449E+01  0.26680611052E+02  0.29530749057E+02  0.10566000000E+00 0. -1.
        994    1    1    2    0    0  0.61199451450E+01 -0.45786492337E+02  0.98456959397E+01  0.17759570473E+03  0.17120000000E+03 0.  0.
        998    1    1    2    0    0  0.53088346472E+01  0.40347562092E+02  0.14634736893E+04  0.14640735462E+04  0.10000000000E+02 0. -1.
</event>
<event>
 5    1  0.1757379E-008  0.3811685E+03  0.7957747E-01  0.3446086E+00
         13   -1    0    0    0    0  0.00000000000E+00  0.00000000000E+00  0.14999999963E+04  0.15000000000E+04  0.10566000000E+00 0. -1.
        994   -1    0    0    0    0 -0.00000000000E+00 -0.00000000000E+00  0.11368683772E-12  0.17120000000E+03  0.17120000000E+03 0.  0.
         13    1    1    2    0    0 -0.78456525274E+01  0.24129248855E+02  0.92308844432E+02  0.95732485804E+02  0.10566000000E+00 0. -1.
        994    1    1    2    0    0 -0.20928044904E+02 -0.17992562075E+02  0.60851531293E+01  0.17351710130E+03  0.17120000000E+03 0.  0.
        998    1    1    2    0    0  0.28773697432E+02 -0.61366867805E+01  0.14016059987E+04  0.14019504129E+04  0.10000000000E+02 0. -1.
</event>
<event>
 5    1  0.1757379E-008  0.3763494E+03  0.7957747E-01  0.3467210E+00
         13   -1    0    0    0    0  0.00000000000E+00  0.00000000000E+00  0.14999999963E+04  0.15000000000E+04  0.10566000000E+00 0.  1.
        994   -1    0    0    0    0 -0.00000000000E+00 -0.00000000000E+00  0.11368683772E-12  0.17120000000E+03  0.17120000000E+03 0.  0.
         13    1    1    2    0    0  0.12717918071E+02  0.63079212089E+01  0.14297623837E+02  0.20148660538E+02  0.10566000000E+00 0.  1.
        994    1    1    2    0    0 -0.11195192584E+02  0.64557768831E+01  0.65527585994E+01  0.17181207186E+03  0.17120000000E+03 0.  0.
        998    1    1    2    0    0 -0.15227254877E+01 -0.12763698092E+02  0.14791496138E+04  0.14792392676E+04  0.10000000000E+02 0.  1.
</event>
<event>
 5    1  0.1757379E-008  0.3824943E+03  0.7957747E-01  0.3440369E+00
         13   -1    0    0    0    0  0.00000000000E+00  0.00000000000E+00  0.14999999963E+04  0.15000000000E+04  0.10566000000E+00 0.  1.
        994   -1    0    0    0    0 -0.00000000000E+00 -0.00000000000E+00  0.11368683772E-12  0.17120000000E+03  0.17120000000E+03 0.  0.
         13    1    1    2    0    0 -0.24138748700E+01  0.13101916229E+02  0.29296635120E+02  0.32183706968E+02  0.10566000000E+00 0.  1.
        994    1    1    2    0    0 -0.27197377848E+01 -0.14692945376E+02  0.36199802420E+01  0.17188898707E+03  0.17120000000E+03 0.  0.
        998    1    1    2    0    0  0.51336126548E+01  0.15910291466E+01  0.14670833809E+04  0.14671273060E+04  0.10000000000E+02 0.  1.
</event>
<event>
 5    1  0.1757379E-008  0.3748747E+03  0.7957747E-01  0.3473783E+00
         13   -1    0    0    0    0  0.00000000000E+00  0.00000000000E+00  0.14999999963E+04  0.15000000000E+04  0.10566000000E+00 0.  1.
        994   -1    0    0    0    0 -0.00000000000E+00 -0.00000000000E+00  0.11368683772E-12  0.17120000000E+03  0.17120000000E+03 0.  0.
         13    1    1    2    0    0  0.79260972064E+01 -0.21781479804E+02  0.37997735094E+02  0.44509492422E+02  0.10566000000E+00 0.  1.
        994    1    1    2    0    0  0.12510580770E+02  0.12499108553E+02  0.78072977475E+01  0.17228794573E+03  0.17120000000E+03 0.  0.
        998    1    1    2    0    0 -0.20436677976E+02  0.92823712507E+01  0.14541949634E+04  0.14544025618E+04  0.10000000000E+02 0.  1.
</event>
<event>
 5    1  0.1757379E-008  0.3841687E+03  0.7957747E-01  0.3433206E+00
         13   -1    0    0    0    0  0.00000000000E+00  0.00000000000E+00  0.14999999963E+04  0.15000000000E+04  0.10566000000E+00 0. -1.
        994   -1    0    0    0    0 -0.00000000000E+00 -0.00000000000E+00  0.11368683772E-12  0.17120000000E+03  0.17120000000E+03 0.  0.
         13    1    1    2    0    0 -0.68512534124E+01  0.26321818669E+02  0.16170569479E+03  0.16397719568E+03  0.10566000000E+00 0. -1.
        994    1    1    2    0    0  0.54622611281E+01 -0.28232817070E+02  0.47750389793E+01  0.17366395496E+03  0.17120000000E+03 0.  0.
        998    1    1    2    0    0  0.13889922843E+01  0.19109984013E+01  0.13335192625E+04  0.13335588494E+04  0.10000000000E+02 0. -1.
</event>
<event>
 5    1  0.1757379E-008  0.3859355E+03  0.7957747E-01  0.3425714E+00
         13   -1    0    0    0    0  0.00000000000E+00  0.00000000000E+00  0.14999999963E+04  0.15000000000E+04  0.10566000000E+00 0. -1.
        994   -1    0    0    0    0 -0.00000000000E+00 -0.00000000000E+00  0.11368683772E-12  0.17120000000E+03  0.17120000000E+03 0.  0.
         13    1    1    2    0    0  0.17110378463E+01  0.13562714135E+02  0.81765176089E+02  0.82900120929E+02  0.10566000000E+00 0. -1.
        994    1    1    2    0    0 -0.15941995710E+01 -0.76138172231E+01  0.13647940126E+01  0.17138207126E+03  0.17120000000E+03 0.  0.
        998    1    1    2    0    0 -0.11683827534E+00 -0.59488969116E+01  0.14168700262E+04  0.14169178078E+04  0.10000000000E+02 0. -1.
</event>
<event>
 5    1  0.1757379E-008  0.3861103E+03  0.7957747E-01  0.3424977E+00
         13   -1    0    0    0    0  0.00000000000E+00  0.00000000000E+00  0.14999999963E+04  0.15000000000E+04  0.10566000000E+00 0.  1.
        994   -1    0    0    0    0 -0.00000000000E+00 -0.00000000000E+00  0.11368683772E-12  0.17120000000E+03  0.17120000000E+03 0.  0.
         13    1    1    2    0    0 -0.66820587927E+01  0.81617320941E+01  0.55036091335E+02  0.56037900514E+02  0.10566000000E+00 0.  1.
        994    1    1    2    0    0 -0.52372257364E+01 -0.41012339516E+01  0.12249076965E+01  0.17133356079E+03  0.17120000000E+03 0.  0.
        998    1    1    2    0    0  0.11919284529E+02 -0.40604981425E+01  0.14437389972E+04  0.14438285387E+04  0.10000000000E+02 0.  1.
</event>
<event>
 5    1  0.1757379E-008  0.3806661E+03  0.7957747E-01  0.3448263E+00
         13   -1    0    0    0    0  0.00000000000E+00  0.00000000000E+00  0.14999999963E+04  0.15000000000E+04  0.10566000000E+00 0.  1.
        994   -1    0    0    0    0 -0.00000000000E+00 -0.00000000000E+00  0.11368683772E-12  0.17120000000E+03  0.17120000000E+03 0.  0.
         13    1    1    2    0    0 -0.24834407635E+02 -0.18584157400E+02  0.12872318626E+03  0.13240766048E+03  0.10566000000E+00 0.  1.
        994    1    1    2    0    0 -0.36152073391E+00  0.24962916396E+02  0.58790359538E+01  0.17311060325E+03  0.17120000000E+03 0.  0.
        998    1    1    2    0    0  0.25195928369E+02 -0.63787589961E+01  0.13653977741E+04  0.13656817363E+04  0.10000000000E+02 0.  1.
</event>
<event>
 5    1  0.1757379E-008  0.3759216E+03  0.7957747E-01  0.3469111E+00
         13   -1    0    0    0    0  0.00000000000E+00  0.00000000000E+00  0.14999999963E+04  0.15000000000E+04  0.10566000000E+00 0. -1.
        994   -1    0    0    0    0 -0.00000000000E+00 -0.00000000000E+00  0.11368683772E-12  0.17120000000E+03  0.17120000000E+03 0.  0.
         13    1    1    2    0    0 -0.25513339956E+02 -0.14015339399E+01  0.50503696099E+02  0.56599728770E+02  0.10566000000E+00 0. -1.
        994    1    1    2    0    0  0.16710444248E+02 -0.34365790047E+02  0.11170582852E+02  0.17576822350E+03  0.17120000000E+03 0.  0.
        998    1    1    2    0    0  0.88028957084E+01  0.35767323987E+02  0.14383257173E+04  0.14388320477E+04  0.10000000000E+02 0. -1.
</event>
<event>
 5    1  0.1757379E-008  0.3851037E+03  0.7957747E-01  0.3429232E+00
         13   -1    0    0    0    0  0.00000000000E+00  0.00000000000E+00  0.14999999963E+04  0.15000000000E+04  0.10566000000E+00 0. -1.
        994   -1    0    0    0    0 -0.00000000000E+00 -0.00000000000E+00  0.11368683772E-12  0.17120000000E+03  0.17120000000E+03 0.  0.
         13    1    1    2    0    0 -0.10980435305E+02 -0.56882681297E+00  0.40212624598E+02  0.41688845805E+02  0.10566000000E+00 0. -1.
        994    1    1    2    0    0 -0.30337719818E+01  0.10862622018E+02  0.19969293166E+01  0.17158271491E+03  0.17120000000E+03 0.  0.
        998    1    1    2    0    0  0.14014207287E+02 -0.10293795205E+02  0.14577904424E+04  0.14579284393E+04  0.10000000000E+02 0. -1.
</event>
<event>
 5    1  0.1757379E-008  0.3836245E+03  0.7957747E-01  0.3435527E+00
         13   -1    0    0    0    0  0.00000000000E+00  0.00000000000E+00  0.14999999963E+04  0.15000000000E+04  0.10566000000E+00 0. -1.
        994   -1    0    0    0    0 -0.00000000000E+00 -0.00000000000E+00  0.11368683772E-12  0.17120000000E+03  0.17120000000E+03 0.  0.
         13    1    1    2    0    0  0.10064531761E+03 -0.36519127426E+02  0.58982517962E+03  0.59946382735E+03  0.10566000000E+00 0. -1.
        994    1    1    2    0    0 -0.15621788003E+03  0.38066891211E+02  0.92996958385E+02  0.25260836985E+03  0.17120000000E+03 0.  0.
        998    1    1    2    0    0  0.55572562429E+02 -0.15477637851E+01  0.81717785827E+03  0.81912780280E+03  0.10000000000E+02 0. -1.
</event>
<event>
 5    1  0.1757379E-008  0.3820473E+03  0.7957747E-01  0.3442292E+00
         13   -1    0    0    0    0  0.00000000000E+00  0.00000000000E+00  0.14999999963E+04  0.15000000000E+04  0.10566000000E+00 0. -1.
        994   -1    0    0    0    0 -0.00000000000E+00 -0.00000000000E+00  0.11368683772E-12  0.17120000000E+03  0.17120000000E+03 0.  0.
         13    1    1    2    0    0  0.10538755818E+02  0.19902219459E+02  0.83165366094E+02  0.86160623229E+02  0.10566000000E+00 0. -1.
        994    1    1    2    0    0 -0.14690073569E+02 -0.20170874586E+01  0.38336115023E+01  0.17188369172E+03  0.17120000000E+03 0.  0.
        998    1    1    2    0    0  0.41513177512E+01 -0.17885132001E+02  0.14130010187E+04  0.14131556850E+04  0.10000000000E+02 0. -1.
</event>
<event>
 5    1  0.1757379E-008  0.3815378E+03  0.7957747E-01  0.3444490E+00
         13   -1    0    0    0    0  0.00000000000E+00  0.00000000000E+00  0.14999999963E+04  0.15000000000E+04  0.10566000000E+00 0. -1.
        994   -1    0    0    0    0 -0.00000000000E+00 -0.00000000000E+00  0.11368683772E-12  0.17120000000E+03  0.17120000000E+03 0.  0.
         13    1    1    2    0    0 -0.24566835405E+02  0.36472889305E+02  0.49121467021E+02  0.65929740955E+02  0.10566000000E+00 0. -1.
        994    1    1    2    0    0  0.21116081179E+02 -0.31569330871E+02  0.22449304269E+02  0.17679344671E+03  0.17120000000E+03 0.  0.
        998    1    1    2    0    0  0.34507542254E+01 -0.49035584342E+01  0.14284292250E+04  0.14284768123E+04  0.10000000000E+02 0. -1.
</event>
<event>
 5    1  0.1757379E-008  0.3854308E+03  0.7957747E-01  0.3427847E+00
         13   -1    0    0    0    0  0.00000000000E+00  0.00000000000E+00  0.14999999963E+04  0.15000000000E+04  0.10566000000E+00 0. -1.
        994   -1    0    0    0    0 -0.00000000000E+00 -0.00000000000E+00  0.11368683772E-12  0.17120000000E+03  0.17120000000E+03 0.  0.
         13    1    1    2    0    0  0.10080396658E+02 -0.44551929497E+01  0.43500873530E+02  0.44875386382E+02  0.10566000000E+00 0. -1.
        994    1    1    2    0    0 -0.54165838517E+01  0.89926746984E+00  0.15154231522E+01  0.17129473013E+03  0.17120000000E+03 0.  0.
        998    1    1    2    0    0 -0.46638128059E+01  0.35559254799E+01  0.14549836996E+04  0.14550298835E+04  0.10000000000E+02 0. -1.
</event>
<event>
 5    1  0.1757379E-008  0.3847010E+03  0.7957747E-01  0.3430941E+00
         13   -1    0    0    0    0  0.00000000000E+00  0.00000000000E+00  0.14999999963E+04  0.15000000000E+04  0.10566000000E+00 0.  1.
        994   -1    0    0    0    0 -0.00000000000E+00 -0.00000000000E+00  0.11368683772E-12  0.17120000000E+03  0.17120000000E+03 0.  0.
         13    1    1    2    0    0 -0.11959058885E+02  0.28168406837E+01  0.40828602963E+02  0.42637303677E+02  0.10566000000E+00 0.  1.
        994    1    1    2    0    0  0.14545527881E+02 -0.37961723231E+01  0.25228951960E+01  0.17187724778E+03  0.17120000000E+03 0.  0.
        998    1    1    2    0    0 -0.25864689955E+01  0.97933163933E+00  0.14566484981E+04  0.14566854485E+04  0.10000000000E+02 0.  1.
</event>
<event>
 5    1  0.1757379E-008  0.3806706E+03  0.7957747E-01  0.3448244E+00
         13   -1    0    0    0    0  0.00000000000E+00  0.00000000000E+00  0.14999999963E+04  0.15000000000E+04  0.10566000000E+00 0.  1.
        994   -1    0    0    0    0 -0.00000000000E+00 -0.00000000000E+00  0.11368683772E-12  0.17120000000E+03  0.17120000000E+03 0.  0.
         13    1    1    2    0    0  0.14417413565E+02  0.32469134410E+02  0.20164001700E+03  0.20474573041E+03  0.10566000000E+00 0.  1.
        994    1    1    2    0    0  0.13421974717E+02 -0.14571923369E+01  0.44032193758E+01  0.17178795405E+03  0.17120000000E+03 0.  0.
        998    1    1    2    0    0 -0.27839388282E+02 -0.31011942073E+02  0.12939567599E+04  0.12946663155E+04  0.10000000000E+02 0.  1.
</event>
<event>
 5    1  0.1757379E-008  0.3822427E+03  0.7957747E-01  0.3441451E+00
         13   -1    0    0    0    0  0.00000000000E+00  0.00000000000E+00  0.14999999963E+04  0.15000000000E+04  0.10566000000E+00 0.  1.
        994   -1    0    0    0    0 -0.00000000000E+00 -0.00000000000E+00  0.11368683772E-12  0.17120000000E+03  0.17120000000E+03 0.  0.
         13    1    1    2    0    0 -0.37836193877E+01  0.12681865371E+02  0.29653346538E+02  0.32472721011E+02  0.10566000000E+00 0.  1.
        994    1    1    2    0    0  0.15141282170E+02  0.12084321602E+02  0.42516423583E+01  0.17234501941E+03  0.17120000000E+03 0.  0.
        998    1    1    2    0    0 -0.11357662782E+02 -0.24766186973E+02  0.14660950074E+04  0.14663822596E+04  0.10000000000E+02 0.  1.
</event>
<event>
 5    1  0.1757379E-008  0.3833535E+03  0.7957747E-01  0.3436686E+00
         13   -1    0    0    0    0  0.00000000000E+00  0.00000000000E+00  0.14999999963E+04  0.15000000000E+04  0.10566000000E+00 0.  1.
        994   -1    0    0    0    0 -0.00000000000E+00 -0.00000000000E+00  0.11368683772E-12  0.17120000000E+03  0.17120000000E+03 0.  0.
         13    1    1    2    0    0 -0.11210818352E+00 -0.20416271293E+02  0.92196040766E+02  0.94429644703E+02  0.10566000000E+00 0.  1.
        994    1    1    2    0    0  0.97590727318E+01 -0.95898256544E+00  0.27678242244E+01  0.17150294458E+03  0.17120000000E+03 0.  0.
        998    1    1    2    0    0 -0.96469645483E+01  0.21375253858E+02  0.14050361313E+04  0.14052674107E+04  0.10000000000E+02 0.  1.
</event>
<event>
 5    1  0.1757379E-008  0.3853094E+03  0.7957747E-01  0.3428361E+00
         13   -1    0    0    0    0  0.00000000000E+00  0.00000000000E+00  0.14999999963E+04  0.15000000000E+04  0.10566000000E+00 0. -1.
        994   -1    0    0    0    0 -0.00000000000E+00 -0.00000000000E+00  0.11368683772E-12  0.17120000000E+03  0.17120000000E+03 0.  0.
         13    1    1    2    0    0 -0.12062131009E+02  0.15704846280E+01  0.50819037638E+02  0.52254637851E+02  0.10566000000E+00 0. -1.
        994    1    1    2    0    0  0.57376282226E+01 -0.32852099131E+01  0.16202482708E+01  0.17133528004E+03  0.17120000000E+03 0.  0.
        998    1    1    2    0    0  0.63245027865E+01  0.17147252850E+01  0.14475607104E+04  0.14476100821E+04  0.10000000000E+02 0. -1.
</event>
<event>
 5    1  0.1757379E-008  0.3767505E+03  0.7957747E-01  0.3465431E+00
         13   -1    0    0    0    0  0.00000000000E+00  0.00000000000E+00  0.14999999963E+04  0.15000000000E+04  0.10566000000E+00 0. -1.
        994   -1    0    0    0    0 -0.00000000000E+00 -0.00000000000E+00  0.11368683772E-12  0.17120000000E+03  0.17120000000E+03 0.  0.
         13    1    1    2    0    0  0.17588308170E+02  0.82834636585E+01  0.30079852835E+02  0.35815821435E+02  0.10566000000E+00 0. -1.
        994    1    1    2    0    0 -0.14909981105E+02 -0.59990018092E+01  0.66558493702E+01  0.17208148038E+03  0.17120000000E+03 0.  0.
        998    1    1    2    0    0 -0.26783270651E+01 -0.22844618493E+01  0.14632642941E+04  0.14633026982E+04  0.10000000000E+02 0. -1.
</event>
<event>
 5    1  0.1757379E-008  0.3812677E+03  0.7957747E-01  0.3445657E+00
         13   -1    0    0    0    0  0.00000000000E+00  0.00000000000E+00  0.14999999963E+04  0.15000000000E+04  0.10566000000E+00 0.  1.
        994   -1    0    0    0    0 -0.00000000000E+00 -0.00000000000E+00  0.11368683772E-12  0.17120000000E+03  0.17120000000E+03 0.  0.
         13    1    1    2    0    0 -0.11026887256E+02  0.67548959854E+01  0.22709912176E+02  0.26133735619E+02  0.10566000000E+00 0.  1.
        994    1    1    2    0    0  0.34471176722E+01 -0.64755339900E+01  0.36737439611E+01  0.17139647475E+03  0.17120000000E+03 0.  0.
        998    1    1    2    0    0  0.75797695838E+01 -0.27936199539E+00  0.14736163401E+04  0.14736697896E+04  0.10000000000E+02 0.  1.
</event>
<event>
 5    1  0.1757379E-008  0.3841636E+03  0.7957747E-01  0.3433227E+00
         13   -1    0    0    0    0  0.00000000000E+00  0.00000000000E+00  0.14999999963E+04  0.15000000000E+04  0.10566000000E+00 0. -1.
        994   -1    0    0    0    0 -0.00000000000E+00 -0.00000000000E+00  0.11368683772E-12  0.17120000000E+03  0.17120000000E+03 0.  0.
         13    1    1    2    0    0 -0.37203544024E+01 -0.15006425019E+02  0.55928709490E+02  0.58026421034E+02  0.10566000000E+00 0. -1.
        994    1    1    2    0    0 -0.61864254386E+01  0.19324354083E+02  0.34047720091E+01  0.17243182709E+03  0.17120000000E+03 0.  0.
        998    1    1    2    0    0  0.99067798410E+01 -0.43179290643E+01  0.14406665148E+04  0.14407417519E+04  0.10000000000E+02 0. -1.
</event>
<event>
 5    1  0.1757379E-008  0.3693991E+03  0.7957747E-01  0.3498657E+00
         13   -1    0    0    0    0  0.00000000000E+00  0.00000000000E+00  0.14999999963E+04  0.15000000000E+04  0.10566000000E+00 0. -1.
        994   -1    0    0    0    0 -0.00000000000E+00 -0.00000000000E+00  0.11368683772E-12  0.17120000000E+03  0.17120000000E+03 0.  0.
         13    1    1    2    0    0  0.82730932095E+02  0.73955873224E+01  0.29299714133E+03  0.30454299832E+03  0.10566000000E+00 0. -1.
        994    1    1    2    0    0 -0.67139423836E+02  0.26349680431E+02  0.28996585554E+02  0.18802193985E+03  0.17120000000E+03 0.  0.
        998    1    1    2    0    0 -0.15591508260E+02 -0.33745267753E+02  0.11780062694E+04  0.11786350618E+04  0.10000000000E+02 0. -1.
</event>
<event>
 5    1  0.1757379E-008  0.3692213E+03  0.7957747E-01  0.3499477E+00
         13   -1    0    0    0    0  0.00000000000E+00  0.00000000000E+00  0.14999999963E+04  0.15000000000E+04  0.10566000000E+00 0.  1.
        994   -1    0    0    0    0 -0.00000000000E+00 -0.00000000000E+00  0.11368683772E-12  0.17120000000E+03  0.17120000000E+03 0.  0.
         13    1    1    2    0    0  0.17650284086E+02 -0.74605487087E+01  0.12993165736E+02  0.23152231755E+02  0.10566000000E+00 0.  1.
        994    1    1    2    0    0 -0.22090605948E+02 -0.36576485787E+02  0.16920513474E+02  0.17726132675E+03  0.17120000000E+03 0.  0.
        998    1    1    2    0    0  0.44403218621E+01  0.44037034496E+02  0.14700863171E+04  0.14707864415E+04  0.10000000000E+02 0.  1.
</event>
<event>
 5    1  0.1757379E-008  0.3834745E+03  0.7957747E-01  0.3436168E+00
         13   -1    0    0    0    0  0.00000000000E+00  0.00000000000E+00  0.14999999963E+04  0.15000000000E+04  0.10566000000E+00 0. -1.
        994   -1    0    0    0    0 -0.00000000000E+00 -0.00000000000E+00  0.11368683772E-12  0.17120000000E+03  0.17120000000E+03 0.  0.
         13    1    1    2    0    0 -0.83060033852E+01 -0.19634080177E+02  0.10608008244E+03  0.10820111761E+03  0.10566000000E+00 0. -1.
        994    1    1    2    0    0  0.11553647141E+02 -0.83043580639E+01  0.30588141398E+01  0.17181747719E+03  0.17120000000E+03 0.  0.
        998    1    1    2    0    0 -0.32476437562E+01  0.27938438241E+02  0.13908610997E+04  0.13911814052E+04  0.10000000000E+02 0. -1.
</event>
<event>
 5    1  0.1757379E-008  0.3818549E+03  0.7957747E-01  0.3443121E+00
         13   -1    0    0    0    0  0.00000000000E+00  0.00000000000E+00  0.14999999963E+04  0.15000000000E+04  0.10566000000E+00 0. -1.
        994   -1    0    0    0    0 -0.00000000000E+00 -0.00000000000E+00  0.11368683772E-12  0.17120000000E+03  0.17120000000E+03 0.  0.
         13    1    1    2    0    0  0.58389089014E+01 -0.20517667719E+02  0.70057016083E+02  0.73232944856E+02  0.10566000000E+00 0. -1.
        994    1    1    2    0    0 -0.26279265426E+01  0.13333088429E+02  0.38135458277E+01  0.17178084985E+03  0.17120000000E+03 0.  0.
        998    1    1    2    0    0 -0.32109823588E+01  0.71845792899E+01  0.14261294344E+04  0.14261862053E+04  0.10000000000E+02 0. -1.
</event>
<event>
 5    1  0.1757379E-008  0.3774950E+03  0.7957747E-01  0.3462139E+00
         13   -1    0    0    0    0  0.00000000000E+00  0.00000000000E+00  0.14999999963E+04  0.15000000000E+04  0.10566000000E+00 0. -1.
        994   -1    0    0    0    0 -0.00000000000E+00 -0.00000000000E+00  0.11368683772E-12  0.17120000000E+03  0.17120000000E+03 0.  0.
         13    1    1    2    0    0 -0.19338202039E+03 -0.25498442908E+02  0.95372590314E+03  0.97346796859E+03  0.10566000000E+00 0. -1.
        994    1    1    2    0    0  0.19296609693E+03  0.37812156838E+02  0.14930285074E+03  0.30044376347E+03  0.17120000000E+03 0.  0.
        998    1    1    2    0    0  0.41592345857E+00 -0.12313713930E+02  0.39697124240E+03  0.39728826793E+03  0.10000000000E+02 0.  1.
</event>
<event>
 5    1  0.1757379E-008  0.3790365E+03  0.7957747E-01  0.3455364E+00
         13   -1    0    0    0    0  0.00000000000E+00  0.00000000000E+00  0.14999999963E+04  0.15000000000E+04  0.10566000000E+00 0. -1.
        994   -1    0    0    0    0 -0.00000000000E+00 -0.00000000000E+00  0.11368683772E-12  0.17120000000E+03  0.17120000000E+03 0.  0.
         13    1    1    2    0    0  0.16456377159E+02 -0.17891121241E+02  0.83306434769E+02  0.86780630364E+02  0.10566000000E+00 0. -1.
        994    1    1    2    0    0  0.22977666054E+02 -0.42725335855E+02  0.12553556564E+02  0.17838290065E+03  0.17120000000E+03 0.  0.
        998    1    1    2    0    0 -0.39434043213E+02  0.60616457096E+02  0.14041400049E+04  0.14060364690E+04  0.10000000000E+02 0. -1.
</event>
<event>
 5    1  0.1757379E-008  0.3860139E+03  0.7957747E-01  0.3425383E+00
         13   -1    0    0    0    0  0.00000000000E+00  0.00000000000E+00  0.14999999963E+04  0.15000000000E+04  0.10566000000E+00 0.  1.
        994   -1    0    0    0    0 -0.00000000000E+00 -0.00000000000E+00  0.11368683772E-12  0.17120000000E+03  0.17120000000E+03 0.  0.
         13    1    1    2    0    0  0.36537239907E+01  0.10026057710E+02  0.53080111346E+02  0.54142228590E+02  0.10566000000E+00 0.  1.
        994    1    1    2    0    0 -0.53369793672E+01  0.14025231816E+00  0.12209988127E+01  0.17128757648E+03  0.17120000000E+03 0.  0.
        998    1    1    2    0    0  0.16832553764E+01 -0.10166310028E+02  0.14456988861E+04  0.14457701949E+04  0.10000000000E+02 0.  1.
</event>
<event>
 5    1  0.1757379E-008  0.3701232E+03  0.7957747E-01  0.3495325E+00
         13   -1    0    0    0    0  0.00000000000E+00  0.00000000000E+00  0.14999999963E+04  0.15000000000E+04  0.10566000000E+00 0. -1.
        994   -1    0    0    0    0 -0.00000000000E+00 -0.00000000000E+00  0.11368683772E-12  0.17120000000E+03  0.17120000000E+03 0.  0.
         13    1    1    2    0    0 -0.46135892101E+02 -0.32295811005E+02  0.13062373850E+03  0.14224665962E+03  0.10566000000E+00 0. -1.
        994    1    1    2    0    0  0.54484279666E+02  0.14717443780E+02  0.22228446913E+02  0.18162787158E+03  0.17120000000E+03 0.  0.
        998    1    1    2    0    0 -0.83483875651E+01  0.17578367224E+02  0.13471478109E+04  0.13473254688E+04  0.10000000000E+02 0. -1.
</event>
<event>
 5    1  0.1757379E-008  0.3826072E+03  0.7957747E-01  0.3439884E+00
         13   -1    0    0    0    0  0.00000000000E+00  0.00000000000E+00  0.14999999963E+04  0.15000000000E+04  0.10566000000E+00 0.  1.
        994   -1    0    0    0    0 -0.00000000000E+00 -0.00000000000E+00  0.11368683772E-12  0.17120000000E+03  0.17120000000E+03 0.  0.
         13    1    1    2    0    0  0.47189594264E+01  0.13730845299E+02  0.36390547809E+02  0.39180196842E+02  0.10566000000E+00 0.  1.
        994    1    1    2    0    0 -0.44754291089E+01 -0.87568912066E+01  0.31434011021E+01  0.17151103049E+03  0.17120000000E+03 0.  0.
        998    1    1    2    0    0 -0.24353031745E+00 -0.49739540928E+01  0.14604660474E+04  0.14605087727E+04  0.10000000000E+02 0.  1.
</event>
<event>
 5    1  0.1757379E-008  0.3718963E+03  0.7957747E-01  0.3487221E+00
         13   -1    0    0    0    0  0.00000000000E+00  0.00000000000E+00  0.14999999963E+04  0.15000000000E+04  0.10566000000E+00 0.  1.
        994   -1    0    0    0    0 -0.00000000000E+00 -0.00000000000E+00  0.11368683772E-12  0.17120000000E+03  0.17120000000E+03 0.  0.
         13    1    1    2    0    0  0.10383818088E+03 -0.17936773843E+03  0.12323198572E+04  0.12496269024E+04  0.10566000000E+00 0.  1.
        994    1    1    2    0    0 -0.11436687335E+03  0.15833208932E+03  0.14746530995E+03  0.29867087214E+03  0.17120000000E+03 0.  0.
        998    1    1    2    0    0  0.10528692471E+02  0.21035649109E+02  0.12021482909E+03  0.12290222549E+03  0.10000000000E+02 0. -1.
</event>
<event>
 5    1  0.1757379E-008  0.3773069E+03  0.7957747E-01  0.3462969E+00
         13   -1    0    0    0    0  0.00000000000E+00  0.00000000000E+00  0.14999999963E+04  0.15000000000E+04  0.10566000000E+00 0. -1.
        994   -1    0    0    0    0 -0.00000000000E+00 -0.00000000000E+00  0.11368683772E-12  0.17120000000E+03  0.17120000000E+03 0.  0.
         13    1    1    2    0    0 -0.50408537071E+02  0.47945874696E+01  0.28558459797E+03  0.29003893262E+03  0.10566000000E+00 0. -1.
        994    1    1    2    0    0  0.38440685542E+01  0.33359160056E+01  0.55862039306E+01  0.17136671460E+03  0.17120000000E+03 0.  0.
        998    1    1    2    0    0  0.46564468517E+02 -0.81305034752E+01  0.12088291944E+04  0.12097943528E+04  0.10000000000E+02 0. -1.
</event>
<event>
 5    1  0.1757379E-008  0.3849221E+03  0.7957747E-01  0.3430003E+00
         13   -1    0    0    0    0  0.00000000000E+00  0.00000000000E+00  0.14999999963E+04  0.15000000000E+04  0.10566000000E+00 0. -1.
        994   -1    0    0    0    0 -0.00000000000E+00 -0.00000000000E+00  0.11368683772E-12  0.17120000000E+03  0.17120000000E+03 0.  0.
         13    1    1    2    0    0  0.17360108389E+02 -0.88817666692E+00  0.86546965816E+02  0.88275425103E+02  0.10566000000E+00 0. -1.
        994    1    1    2    0    0 -0.17350319762E+02  0.35043628032E+01  0.27001221283E+01  0.17213379916E+03  0.17120000000E+03 0.  0.
        998    1    1    2    0    0 -0.97886272640E-02 -0.26161861362E+01  0.14107529083E+04  0.14107907757E+04  0.10000000000E+02 0. -1.
</event>
<event>
 5    1  0.1757379E-008  0.3789512E+03  0.7957747E-01  0.3455738E+00
         13   -1    0    0    0    0  0.00000000000E+00  0.00000000000E+00  0.14999999963E+04  0.15000000000E+04  0.10566000000E+00 0.  1.
        994   -1    0    0    0    0 -0.00000000000E+00 -0.00000000000E+00  0.11368683772E-12  0.17120000000E+03  0.17120000000E+03 0.  0.
         13    1    1    2    0    0 -0.98113159659E+01  0.54837349280E+01  0.11444535495E+02  0.16041253894E+02  0.10566000000E+00 0.  1.
        994    1    1    2    0    0  0.57388875445E+01 -0.92570950486E+01  0.50615753735E+01  0.17162076851E+03  0.17120000000E+03 0.  0.
        998    1    1    2    0    0  0.40724284214E+01  0.37733601206E+01  0.14834938854E+04  0.14835379776E+04  0.10000000000E+02 0.  1.
</event>
<event>
 5    1  0.1757379E-008  0.3815391E+03  0.7957747E-01  0.3444484E+00
         13   -1    0    0    0    0  0.00000000000E+00  0.00000000000E+00  0.14999999963E+04  0.15000000000E+04  0.10566000000E+00 0.  1.
        994   -1    0    0    0    0 -0.00000000000E+00 -0.00000000000E+00  0.11368683772E-12  0.17120000000E+03  0.17120000000E+03 0.  0.
         13    1    1    2    0    0 -0.13467493502E+02  0.15643403944E-01  0.25219891374E+02  0.28590692732E+02  0.10566000000E+00 0.  1.
        994    1    1    2    0    0  0.15390454438E+02 -0.78259773539E+00  0.41484774552E+01  0.17194222405E+03  0.17120000000E+03 0.  0.
        998    1    1    2    0    0 -0.19229609356E+01  0.76695433145E+00  0.14706316274E+04  0.14706670832E+04  0.10000000000E+02 0.  1.
</event>
<event>
 5    1  0.1757379E-008  0.3820709E+03  0.7957747E-01  0.3442190E+00
         13   -1    0    0    0    0  0.00000000000E+00  0.00000000000E+00  0.14999999963E+04  0.15000000000E+04  0.10566000000E+00 0. -1.
        994   -1    0    0    0    0 -0.00000000000E+00 -0.00000000000E+00  0.11368683772E-12  0.17120000000E+03  0.17120000000E+03 0.  0.
         13    1    1    2    0    0  0.69056861418E+01  0.90797883794E+01  0.21843415278E+02  0.24642991156E+02  0.10566000000E+00 0. -1.
        994    1    1    2    0    0  0.23741839656E+02  0.12219334190E+02  0.54622387945E+01  0.17335588577E+03  0.17120000000E+03 0.  0.
        998    1    1    2    0    0 -0.30647525798E+02 -0.21299122569E+02  0.14726943422E+04  0.14732011231E+04  0.10000000000E+02 0. -1.
</event>
<event>
 5    1  0.1757379E-008  0.3778899E+03  0.7957747E-01  0.3460398E+00
         13   -1    0    0    0    0  0.00000000000E+00  0.00000000000E+00  0.14999999963E+04  0.15000000000E+04  0.10566000000E+00 0.  1.
        994   -1    0    0    0    0 -0.00000000000E+00 -0.00000000000E+00  0.11368683772E-12  0.17120000000E+03  0.17120000000E+03 0.  0.
         13    1    1    2    0    0  0.29514094281E+02  0.32749205043E+02  0.16533974939E+03  0.17111644014E+03  0.10566000000E+00 0.  1.
        994    1    1    2    0    0 -0.31138131483E+02 -0.32091241502E+02  0.11962701760E+02  0.17734705311E+03  0.17120000000E+03 0.  0.
        998    1    1    2    0    0  0.16240372024E+01 -0.65796354086E+00  0.13226975451E+04  0.13227365068E+04  0.10000000000E+02 0.  0.
</event>
<event>
 5    1  0.1757379E-008  0.3792146E+03  0.7957747E-01  0.3454585E+00
         13   -1    0    0    0    0  0.00000000000E+00  0.00000000000E+00  0.14999999963E+04  0.15000000000E+04  0.10566000000E+00 0. -1.
        994   -1    0    0    0    0 -0.00000000000E+00 -0.00000000000E+00  0.11368683772E-12  0.17120000000E+03  0.17120000000E+03 0.  0.
         13    1    1    2    0    0 -0.41779966741E+02 -0.15624048129E+02  0.25380575724E+03  0.25769565397E+03  0.10566000000E+00 0. -1.
        994    1    1    2    0    0  0.65287995715E+01  0.35523272553E+01  0.47153142658E+01  0.17142613115E+03  0.17120000000E+03 0.  0.
        998    1    1    2    0    0  0.35251167170E+02  0.12071720873E+02  0.12414789248E+04  0.12420782149E+04  0.10000000000E+02 0. -1.
</event>
<event>
 5    1  0.1757379E-008  0.3886005E+03  0.7957747E-01  0.3414544E+00
         13   -1    0    0    0    0  0.00000000000E+00  0.00000000000E+00  0.14999999963E+04  0.15000000000E+04  0.10566000000E+00 0. -1.
        994   -1    0    0    0    0 -0.00000000000E+00 -0.00000000000E+00  0.11368683772E-12  0.17120000000E+03  0.17120000000E+03 0.  0.
         13    1    1    2    0    0 -0.56760083260E+02 -0.27896910738E+02  0.10816812465E+03  0.12530083413E+03  0.10566000000E+00 0. -1.
        994    1    1    2    0    0 -0.26648965772E+02 -0.56343466098E+01  0.23914995271E+02  0.17499508632E+03  0.17120000000E+03 0.  0.
        998    1    1    2    0    0  0.83409049033E+02  0.33531257348E+02  0.13679168764E+04  0.13709040795E+04  0.10000000000E+02 0. -1.
</event>
<event>
 5    1  0.1757379E-008  0.3835842E+03  0.7957747E-01  0.3435699E+00
         13   -1    0    0    0    0  0.00000000000E+00  0.00000000000E+00  0.14999999963E+04  0.15000000000E+04  0.10566000000E+00 0.  1.
        994   -1    0    0    0    0 -0.00000000000E+00 -0.00000000000E+00  0.11368683772E-12  0.17120000000E+03  0.17120000000E+03 0.  0.
         13    1    1    2    0    0  0.21367878934E+02  0.93099748927E+01  0.12262913321E+03  0.12482458635E+03  0.10566000000E+00 0.  1.
        994    1    1    2    0    0 -0.52391597785E+01 -0.44851473970E+01  0.24918584019E+01  0.17135698031E+03  0.17120000000E+03 0.  0.
        998    1    1    2    0    0 -0.16128719156E+02 -0.48248274957E+01  0.13748790047E+04  0.13750184333E+04  0.10000000000E+02 0.  1.
</event>
<event>
 5    1  0.1757379E-008  0.3864286E+03  0.7957747E-01  0.3423636E+00
         13   -1    0    0    0    0  0.00000000000E+00  0.00000000000E+00  0.14999999963E+04  0.15000000000E+04  0.10566000000E+00 0.  1.
        994   -1    0    0    0    0 -0.00000000000E+00 -0.00000000000E+00  0.11368683772E-12  0.17120000000E+03  0.17120000000E+03 0.  0.
         13    1    1    2    0    0 -0.52104564675E+01  0.88150120043E+01  0.61934473097E+02  0.62775340821E+02  0.10566000000E+00 0.  1.
        994    1    1    2    0    0  0.41028281084E+01  0.36485120048E+01  0.10211912351E+01  0.17129106127E+03  0.17120000000E+03 0.  0.
        998    1    1    2    0    0  0.11076283591E+01 -0.12463524009E+02  0.14370443319E+04  0.14371335979E+04  0.10000000000E+02 0.  1.
</event>
<event>
 5    1  0.1757379E-008  0.3853530E+03  0.7957747E-01  0.3428177E+00
         13   -1    0    0    0    0  0.00000000000E+00  0.00000000000E+00  0.14999999963E+04  0.15000000000E+04  0.10566000000E+00 0.  1.
        994   -1    0    0    0    0 -0.00000000000E+00 -0.00000000000E+00  0.11368683772E-12  0.17120000000E+03  0.17120000000E+03 0.  0.
         13    1    1    2    0    0 -0.19317577480E+01  0.98660314572E+01  0.34338817965E+02  0.35780383564E+02  0.10566000000E+00 0.  1.
        994    1    1    2    0    0  0.74703906808E+01 -0.77364213200E+01  0.18350166368E+01  0.17154727115E+03  0.17120000000E+03 0.  0.
        998    1    1    2    0    0 -0.55386329328E+01 -0.21296101372E+01  0.14638261617E+04  0.14638723453E+04  0.10000000000E+02 0.  1.
</event>
<event>
 5    1  0.1757379E-008  0.3851332E+03  0.7957747E-01  0.3429108E+00
         13   -1    0    0    0    0  0.00000000000E+00  0.00000000000E+00  0.14999999963E+04  0.15000000000E+04  0.10566000000E+00 0. -1.
        994   -1    0    0    0    0 -0.00000000000E+00 -0.00000000000E+00  0.11368683772E-12  0.17120000000E+03  0.17120000000E+03 0.  0.
         13    1    1    2    0    0 -0.41844422877E+01 -0.14391171852E+02  0.69225231654E+02  0.70829084747E+02  0.10566000000E+00 0. -1.
        994    1    1    2    0    0  0.31749176056E+01  0.15334774861E+02  0.23705982027E+01  0.17193107677E+03  0.17120000000E+03 0.  0.
        998    1    1    2    0    0  0.10095246822E+01 -0.94360300877E+00  0.14284041664E+04  0.14284398385E+04  0.10000000000E+02 0. -1.
</event>
<event>
 5    1  0.1757379E-008  0.3705440E+03  0.7957747E-01  0.3493394E+00
         13   -1    0    0    0    0  0.00000000000E+00  0.00000000000E+00  0.14999999963E+04  0.15000000000E+04  0.10566000000E+00 0.  1.
        994   -1    0    0    0    0 -0.00000000000E+00 -0.00000000000E+00  0.11368683772E-12  0.17120000000E+03  0.17120000000E+03 0.  0.
         13    1    1    2    0    0  0.22268103277E+02  0.56617469805E+02  0.15657684439E+03  0.16798132537E+03  0.10566000000E+00 0.  1.
        994    1    1    2    0    0 -0.42218788288E+02 -0.30782569215E+02  0.20850996006E+02  0.18020598405E+03  0.17120000000E+03 0.  0.
        998    1    1    2    0    0  0.19950685011E+02 -0.25834900590E+02  0.13225721559E+04  0.13230126906E+04  0.10000000000E+02 0.  1.
</event>
<event>
 5    1  0.1757379E-008  0.3853617E+03  0.7957747E-01  0.3428140E+00
         13   -1    0    0    0    0  0.00000000000E+00  0.00000000000E+00  0.14999999963E+04  0.15000000000E+04  0.10566000000E+00 0. -1.
        994   -1    0    0    0    0 -0.00000000000E+00 -0.00000000000E+00  0.11368683772E-12  0.17120000000E+03  0.17120000000E+03 0.  0.
         13    1    1    2    0    0  0.32221879150E+01 -0.13057884431E+02  0.59197049931E+02  0.60705788235E+02  0.10566000000E+00 0. -1.
        994    1    1    2    0    0 -0.49112420014E+01  0.16992019013E+02  0.24789900905E+01  0.17212912130E+03  0.17120000000E+03 0.  0.
        998    1    1    2    0    0  0.16890540864E+01 -0.39341345828E+01  0.14383239563E+04  0.14383650905E+04  0.10000000000E+02 0. -1.
</event>
<event>
 5    1  0.1757379E-008  0.3774054E+03  0.7957747E-01  0.3462534E+00
         13   -1    0    0    0    0  0.00000000000E+00  0.00000000000E+00  0.14999999963E+04  0.15000000000E+04  0.10566000000E+00 0. -1.
        994   -1    0    0    0    0 -0.00000000000E+00 -0.00000000000E+00  0.11368683772E-12  0.17120000000E+03  0.17120000000E+03 0.  0.
         13    1    1    2    0    0  0.13025798642E+02  0.73696448672E+02  0.34998574405E+03  0.35789784880E+03  0.10566000000E+00 0. -1.
        994    1    1    2    0    0 -0.22043351712E+02 -0.84564606413E+02  0.31648872332E+02  0.19480290843E+03  0.17120000000E+03 0.  0.
        998    1    1    2    0    0  0.90175530702E+01  0.10868157741E+02  0.11183653799E+04  0.11184992428E+04  0.10000000000E+02 0. -1.
</event>
<event>
 5    1  0.1757379E-008  0.3254210E+03  0.7957747E-01  0.3729740E+00
         13   -1    0    0    0    0  0.00000000000E+00  0.00000000000E+00  0.14999999963E+04  0.15000000000E+04  0.10566000000E+00 0. -1.
        994   -1    0    0    0    0 -0.00000000000E+00 -0.00000000000E+00  0.11368683772E-12  0.17120000000E+03  0.17120000000E+03 0.  0.
         13    1    1    2    0    0 -0.91530067514E+02  0.25979214952E+03  0.73297845642E+03  0.78302435655E+03  0.10566000000E+00 0. -1.
        994    1    1    2    0    0  0.49233383178E+02 -0.21698775261E+03  0.27707439328E+03  0.39444552249E+03  0.17120000000E+03 0.  0.
        998    1    1    2    0    0  0.42296684336E+02 -0.42804396917E+02  0.48994714658E+03  0.49373012096E+03  0.10000000000E+02 0. -1.
</event>
<event>
 5    1  0.1757379E-008  0.3837831E+03  0.7957747E-01  0.3434850E+00
         13   -1    0    0    0    0  0.00000000000E+00  0.00000000000E+00  0.14999999963E+04  0.15000000000E+04  0.10566000000E+00 0. -1.
        994   -1    0    0    0    0 -0.00000000000E+00 -0.00000000000E+00  0.11368683772E-12  0.17120000000E+03  0.17120000000E+03 0.  0.
         13    1    1    2    0    0 -0.11066919847E+02 -0.25572141798E+02  0.15382267997E+03  0.15632606689E+03  0.10566000000E+00 0. -1.
        994    1    1    2    0    0  0.10686111061E+02  0.29025956293E+02  0.54006453151E+01  0.17405546839E+03  0.17120000000E+03 0.  0.
        998    1    1    2    0    0  0.38080878602E+00 -0.34538144955E+01  0.13407766710E+04  0.13408184647E+04  0.10000000000E+02 0. -1.
</event>
<event>
 5    1  0.1757379E-008  0.3857984E+03  0.7957747E-01  0.3426293E+00
         13   -1    0    0    0    0  0.00000000000E+00  0.00000000000E+00  0.14999999963E+04  0.15000000000E+04  0.10566000000E+00 0. -1.
        994   -1    0    0    0    0 -0.00000000000E+00 -0.00000000000E+00  0.11368683772E-12  0.17120000000E+03  0.17120000000E+03 0.  0.
         13    1    1    2    0    0 -0.38903882689E+01 -0.11565376143E+02  0.62622415109E+02  0.63800243607E+02  0.10566000000E+00 0. -1.
        994    1    1    2    0    0  0.49865172870E+01  0.26767306197E+01  0.13393254436E+01  0.17129875666E+03  0.17120000000E+03 0.  0.
        998    1    1    2    0    0 -0.10961290181E+01  0.88886455232E+01  0.14360382557E+04  0.14361009997E+04  0.10000000000E+02 0. -1.
</event>
<event>
 5    1  0.1757379E-008  0.3836979E+03  0.7957747E-01  0.3435213E+00
         13   -1    0    0    0    0  0.00000000000E+00  0.00000000000E+00  0.14999999963E+04  0.15000000000E+04  0.10566000000E+00 0.  1.
        994   -1    0    0    0    0 -0.00000000000E+00 -0.00000000000E+00  0.11368683772E-12  0.17120000000E+03  0.17120000000E+03 0.  0.
         13    1    1    2    0    0 -0.14224465127E+02 -0.17471124873E+02  0.10559940558E+03  0.10797602158E+03  0.10566000000E+00 0.  1.
        994    1    1    2    0    0  0.11152044387E+02  0.18117965135E+02  0.37742573064E+01  0.17255814606E+03  0.17120000000E+03 0.  0.
        998    1    1    2    0    0  0.30724207400E+01 -0.64684026163E+00  0.13906263334E+04  0.13906658324E+04  0.10000000000E+02 0.  1.
</event>
<event>
 5    1  0.1757379E-008  0.3775249E+03  0.7957747E-01  0.3462007E+00
         13   -1    0    0    0    0  0.00000000000E+00  0.00000000000E+00  0.14999999963E+04  0.15000000000E+04  0.10566000000E+00 0. -1.
        994   -1    0    0    0    0 -0.00000000000E+00 -0.00000000000E+00  0.11368683772E-12  0.17120000000E+03  0.17120000000E+03 0.  0.
         13    1    1    2    0    0 -0.36710694650E+01 -0.15041807110E+02  0.20630756838E+02  0.25794805754E+02  0.10566000000E+00 0. -1.
        994    1    1    2    0    0  0.91324096442E+01 -0.46180391969E+01  0.57408724847E+01  0.17160164571E+03  0.17120000000E+03 0.  0.
        998    1    1    2    0    0 -0.54613401791E+01  0.19659846307E+02  0.14736283670E+04  0.14738035485E+04  0.10000000000E+02 0. -1.
</event>
<event>
 5    1  0.1757379E-008  0.3800487E+03  0.7957747E-01  0.3450947E+00
         13   -1    0    0    0    0  0.00000000000E+00  0.00000000000E+00  0.14999999963E+04  0.15000000000E+04  0.10566000000E+00 0.  1.
        994   -1    0    0    0    0 -0.00000000000E+00 -0.00000000000E+00  0.11368683772E-12  0.17120000000E+03  0.17120000000E+03 0.  0.
         13    1    1    2    0    0  0.42181949409E+02  0.12480177366E+02  0.22621597708E+03  0.23045335999E+03  0.10566000000E+00 0.  1.
        994    1    1    2    0    0 -0.24986709089E+02 -0.20662241382E+02  0.76302744018E+01  0.17441022028E+03  0.17120000000E+03 0.  0.
        998    1    1    2    0    0 -0.17195240320E+02  0.81820640162E+01  0.12661537448E+04  0.12663364197E+04  0.10000000000E+02 0. -1.
</event>
<event>
 5    1  0.1757379E-008  0.3852783E+03  0.7957747E-01  0.3428493E+00
         13   -1    0    0    0    0  0.00000000000E+00  0.00000000000E+00  0.14999999963E+04  0.15000000000E+04  0.10566000000E+00 0. -1.
        994   -1    0    0    0    0 -0.00000000000E+00 -0.00000000000E+00  0.11368683772E-12  0.17120000000E+03  0.17120000000E+03 0.  0.
         13    1    1    2    0    0  0.15433640973E+02 -0.68041571965E+00  0.83496245272E+02  0.84913452278E+02  0.10566000000E+00 0. -1.
        994    1    1    2    0    0 -0.47721300304E+01 -0.68016831474E+00  0.15683892477E+01  0.17127502941E+03  0.17120000000E+03 0.  0.
        998    1    1    2    0    0 -0.10661510942E+02  0.13605840344E+01  0.14149353618E+04  0.14150115183E+04  0.10000000000E+02 0. -1.
</event>
<event>
 5    1  0.1757379E-008  0.3822343E+03  0.7957747E-01  0.3441487E+00
         13   -1    0    0    0    0  0.00000000000E+00  0.00000000000E+00  0.14999999963E+04  0.15000000000E+04  0.10566000000E+00 0.  1.
        994   -1    0    0    0    0 -0.00000000000E+00 -0.00000000000E+00  0.11368683772E-12  0.17120000000E+03  0.17120000000E+03 0.  0.
         13    1    1    2    0    0  0.10145688480E+02 -0.57523126017E+00  0.15654289447E+02  0.18663703487E+02  0.10566000000E+00 0.  1.
        994    1    1    2    0    0 -0.13778843915E+02  0.23152629586E+00  0.36399901930E+01  0.17179231552E+03  0.17120000000E+03 0.  0.
        998    1    1    2    0    0  0.36331554344E+01  0.34370496431E+00  0.14807057166E+04  0.14807439810E+04  0.10000000000E+02 0.  1.
</event>
<event>
 5    1  0.1757379E-008  0.3846678E+03  0.7957747E-01  0.3431083E+00
         13   -1    0    0    0    0  0.00000000000E+00  0.00000000000E+00  0.14999999963E+04  0.15000000000E+04  0.10566000000E+00 0.  1.
        994   -1    0    0    0    0 -0.00000000000E+00 -0.00000000000E+00  0.11368683772E-12  0.17120000000E+03  0.17120000000E+03 0.  0.
         13    1    1    2    0    0 -0.13849405421E+03 -0.38065402895E+02  0.80198276201E+03  0.81474286722E+03  0.10566000000E+00 0.  1.
        994    1    1    2    0    0  0.18237621078E+03  0.38944842569E+02  0.12619298967E+03  0.28286373692E+03  0.17120000000E+03 0.  0.
        998    1    1    2    0    0 -0.43882156564E+02 -0.87943967470E+00  0.57182424459E+03  0.57359339587E+03  0.10000000000E+02 0. -1.
</event>
<event>
 5    1  0.1757379E-008  0.3856960E+03  0.7957747E-01  0.3426726E+00
         13   -1    0    0    0    0  0.00000000000E+00  0.00000000000E+00  0.14999999963E+04  0.15000000000E+04  0.10566000000E+00 0.  1.
        994   -1    0    0    0    0 -0.00000000000E+00 -0.00000000000E+00  0.11368683772E-12  0.17120000000E+03  0.17120000000E+03 0.  0.
         13    1    1    2    0    0 -0.90882133872E+01  0.10621439237E+02  0.73930373906E+02  0.75240427590E+02  0.10566000000E+00 0.  1.
        994    1    1    2    0    0  0.64960647959E+01 -0.12762568672E+02  0.19581977753E+01  0.17180907006E+03  0.17120000000E+03 0.  0.
        998    1    1    2    0    0  0.25921485913E+01  0.21411294354E+01  0.14241114246E+04  0.14241505023E+04  0.10000000000E+02 0.  1.
</event>
<event>
 5    1  0.1757379E-008  0.3421184E+03  0.7957747E-01  0.3634740E+00
         13   -1    0    0    0    0  0.00000000000E+00  0.00000000000E+00  0.14999999963E+04  0.15000000000E+04  0.10566000000E+00 0.  1.
        994   -1    0    0    0    0 -0.00000000000E+00 -0.00000000000E+00  0.11368683772E-12  0.17120000000E+03  0.17120000000E+03 0.  0.
         13    1    1    2    0    0  0.20233685614E+03  0.11439292436E+03  0.91969768442E+03  0.94861466696E+03  0.10566000000E+00 0.  1.
        994    1    1    2    0    0 -0.17562968990E+03 -0.12228138734E+03  0.19548910428E+03  0.33663623625E+03  0.17120000000E+03 0.  0.
        998    1    1    2    0    0 -0.26707166238E+02  0.78884629815E+01  0.38481320758E+03  0.38594909678E+03  0.10000000000E+02 0. -1.
</event>
<event>
 5    1  0.1757379E-008  0.3806212E+03  0.7957747E-01  0.3448458E+00
         13   -1    0    0    0    0  0.00000000000E+00  0.00000000000E+00  0.14999999963E+04  0.15000000000E+04  0.10566000000E+00 0. -1.
        994   -1    0    0    0    0 -0.00000000000E+00 -0.00000000000E+00  0.11368683772E-12  0.17120000000E+03  0.17120000000E+03 0.  0.
         13    1    1    2    0    0 -0.10672822942E+03 -0.13274463393E+03  0.92176202914E+03  0.93736721850E+03  0.10566000000E+00 0. -1.
        994    1    1    2    0    0  0.11348252968E+03  0.14033209189E+03  0.12145080698E+03  0.27682326324E+03  0.17120000000E+03 0.  0.
        998    1    1    2    0    0 -0.67543002557E+01 -0.75874579553E+01  0.45678716016E+03  0.45700951826E+03  0.10000000000E+02 0.  0.
</event>
<event>
 5    1  0.1757379E-008  0.3860778E+03  0.7957747E-01  0.3425114E+00
         13   -1    0    0    0    0  0.00000000000E+00  0.00000000000E+00  0.14999999963E+04  0.15000000000E+04  0.10566000000E+00 0.  1.
        994   -1    0    0    0    0 -0.00000000000E+00 -0.00000000000E+00  0.11368683772E-12  0.17120000000E+03  0.17120000000E+03 0.  0.
         13    1    1    2    0    0  0.13431081259E+02 -0.12892981554E+01  0.76461316179E+02  0.77642773453E+02  0.10566000000E+00 0.  1.
        994    1    1    2    0    0 -0.20538351515E+02  0.87741181834E+00  0.24821283315E+01  0.17244765784E+03  0.17120000000E+03 0.  0.
        998    1    1    2    0    0  0.71072702560E+01  0.41188633709E+00  0.14210565518E+04  0.14211095687E+04  0.10000000000E+02 0.  1.
</event>
<event>
 5    1  0.1757379E-008  0.3850101E+03  0.7957747E-01  0.3429629E+00
         13   -1    0    0    0    0  0.00000000000E+00  0.00000000000E+00  0.14999999963E+04  0.15000000000E+04  0.10566000000E+00 0. -1.
        994   -1    0    0    0    0 -0.00000000000E+00 -0.00000000000E+00  0.11368683772E-12  0.17120000000E+03  0.17120000000E+03 0.  0.
         13    1    1    2    0    0  0.16764488283E+02  0.23456264980E+01  0.85399823274E+02  0.87061420907E+02  0.10566000000E+00 0. -1.
        994    1    1    2    0    0 -0.16047374443E+02  0.29759081111E+01  0.25016068426E+01  0.17199439611E+03  0.17120000000E+03 0.  0.
        998    1    1    2    0    0 -0.71711384009E+00 -0.53215346091E+01  0.14120985662E+04  0.14121441830E+04  0.10000000000E+02 0. -1.
</event>
<event>
 5    1  0.1757379E-008  0.3821284E+03  0.7957747E-01  0.3441943E+00
         13   -1    0    0    0    0  0.00000000000E+00  0.00000000000E+00  0.14999999963E+04  0.15000000000E+04  0.10566000000E+00 0. -1.
        994   -1    0    0    0    0 -0.00000000000E+00 -0.00000000000E+00  0.11368683772E-12  0.17120000000E+03  0.17120000000E+03 0.  0.
         13    1    1    2    0    0 -0.10533275144E+02  0.88451496767E+01  0.29610322315E+02  0.32649179311E+02  0.10566000000E+00 0. -1.
        994    1    1    2    0    0 -0.57216797335E+01 -0.23838827920E+02  0.50602727772E+01  0.17302044300E+03  0.17120000000E+03 0.  0.
        998    1    1    2    0    0  0.16254954877E+02  0.14993678243E+02  0.14653294012E+04  0.14655303777E+04  0.10000000000E+02 0. -1.
</event>
<event>
 5    1  0.1757379E-008  0.3826396E+03  0.7957747E-01  0.3439745E+00
         13   -1    0    0    0    0  0.00000000000E+00  0.00000000000E+00  0.14999999963E+04  0.15000000000E+04  0.10566000000E+00 0. -1.
        994   -1    0    0    0    0 -0.00000000000E+00 -0.00000000000E+00  0.11368683772E-12  0.17120000000E+03  0.17120000000E+03 0.  0.
         13    1    1    2    0    0 -0.99914865264E+01  0.21898297542E+02  0.10804828816E+03  0.11069692397E+03  0.10566000000E+00 0. -1.
        994    1    1    2    0    0 -0.55479260401E+01 -0.96458231229E+01  0.32170211909E+01  0.17159140600E+03  0.17120000000E+03 0.  0.
        998    1    1    2    0    0  0.15539412566E+02 -0.12252474420E+02  0.13887346869E+04  0.13889116700E+04  0.10000000000E+02 0. -1.
</event>
<event>
 5    1  0.1757379E-008  0.3795177E+03  0.7957747E-01  0.3453261E+00
         13   -1    0    0    0    0  0.00000000000E+00  0.00000000000E+00  0.14999999963E+04  0.15000000000E+04  0.10566000000E+00 0.  1.
        994   -1    0    0    0    0 -0.00000000000E+00 -0.00000000000E+00  0.11368683772E-12  0.17120000000E+03  0.17120000000E+03 0.  0.
         13    1    1    2    0    0  0.11155372998E+02  0.11406077152E+02  0.27737998853E+02  0.31999198227E+02  0.10566000000E+00 0.  1.
        994    1    1    2    0    0 -0.33256342836E+01 -0.46014935486E+01  0.44847281274E+01  0.17135281256E+03  0.17120000000E+03 0.  0.
        998    1    1    2    0    0 -0.78297387144E+01 -0.68045836036E+01  0.14677772693E+04  0.14678479892E+04  0.10000000000E+02 0.  1.
</event>
<event>
 5    1  0.1757379E-008  0.3820972E+03  0.7957747E-01  0.3442077E+00
         13   -1    0    0    0    0  0.00000000000E+00  0.00000000000E+00  0.14999999963E+04  0.15000000000E+04  0.10566000000E+00 0. -1.
        994   -1    0    0    0    0 -0.00000000000E+00 -0.00000000000E+00  0.11368683772E-12  0.17120000000E+03  0.17120000000E+03 0.  0.
         13    1    1    2    0    0  0.19448819872E+02 -0.26851625782E+02  0.17611541933E+03  0.17920914734E+03  0.10566000000E+00 0. -1.
        994    1    1    2    0    0 -0.19203176006E+02  0.11492896408E+02  0.47427452745E+01  0.17272169021E+03  0.17120000000E+03 0.  0.
        998    1    1    2    0    0 -0.24564386643E+00  0.15358729374E+02  0.13191418317E+04  0.13192691624E+04  0.10000000000E+02 0. -1.
</event>
<event>
 5    1  0.1757379E-008  0.3848663E+03  0.7957747E-01  0.3430239E+00
         13   -1    0    0    0    0  0.00000000000E+00  0.00000000000E+00  0.14999999963E+04  0.15000000000E+04  0.10566000000E+00 0.  1.
        994   -1    0    0    0    0 -0.00000000000E+00 -0.00000000000E+00  0.11368683772E-12  0.17120000000E+03  0.17120000000E+03 0.  0.
         13    1    1    2    0    0  0.37071819874E+01  0.18671119231E+02  0.10772847720E+03  0.10939739419E+03  0.10566000000E+00 0.  1.
        994    1    1    2    0    0  0.11495499252E+01 -0.11401068905E+02  0.21286348448E+01  0.17159626139E+03  0.17120000000E+03 0.  0.
        998    1    1    2    0    0 -0.48567319126E+01 -0.72700503267E+01  0.13901428842E+04  0.13902063444E+04  0.10000000000E+02 0.  1.
</event>
<event>
 5    1  0.1757379E-008  0.2474322E+03  0.7957747E-01  0.4361488E+00
         13   -1    0    0    0    0  0.00000000000E+00  0.00000000000E+00  0.14999999963E+04  0.15000000000E+04  0.10566000000E+00 0.  1.
        994   -1    0    0    0    0 -0.00000000000E+00 -0.00000000000E+00  0.11368683772E-12  0.17120000000E+03  0.17120000000E+03 0.  0.
         13    1    1    2    0    0  0.52727073633E+02 -0.16701166786E+03  0.18149214777E+03  0.25221509147E+03  0.10566000000E+00 0.  1.
        994    1    1    2    0    0 -0.74044346163E+02  0.16864938557E+03  0.26539608992E+03  0.36560867741E+03  0.17120000000E+03 0.  0.
        998    1    1    2    0    0  0.21317272529E+02 -0.16377177134E+01  0.10531117586E+04  0.10533762311E+04  0.10000000000E+02 0. -1.
</event>
<event>
 5    1  0.1757379E-008  0.3857903E+03  0.7957747E-01  0.3426327E+00
         13   -1    0    0    0    0  0.00000000000E+00  0.00000000000E+00  0.14999999963E+04  0.15000000000E+04  0.10566000000E+00 0.  1.
        994   -1    0    0    0    0 -0.00000000000E+00 -0.00000000000E+00  0.11368683772E-12  0.17120000000E+03  0.17120000000E+03 0.  0.
         13    1    1    2    0    0  0.46964726810E+01  0.12359273617E+02  0.72792902516E+02  0.73983959888E+02  0.10566000000E+00 0.  1.
        994    1    1    2    0    0  0.10704322157E+01 -0.66694552161E+01  0.13879630634E+01  0.17133882776E+03  0.17120000000E+03 0.  0.
        998    1    1    2    0    0 -0.57669048967E+01 -0.56898184013E+01  0.14258191307E+04  0.14258772123E+04  0.10000000000E+02 0.  1.
</event>
<event>
 5    1  0.1757379E-008  0.3934054E+03  0.7957747E-01  0.3394788E+00
         13   -1    0    0    0    0  0.00000000000E+00  0.00000000000E+00  0.14999999963E+04  0.15000000000E+04  0.10566000000E+00 0.  1.
        994   -1    0    0    0    0 -0.00000000000E+00 -0.00000000000E+00  0.11368683772E-12  0.17120000000E+03  0.17120000000E+03 0.  0.
         13    1    1    2    0    0  0.15470526487E+02  0.11172495421E+03  0.22662851918E+03  0.25314481913E+03  0.10566000000E+00 0.  1.
        994    1    1    2    0    0 -0.14364206158E+02 -0.10295214650E+03  0.66395507970E+02  0.21100539890E+03  0.17120000000E+03 0.  0.
        998    1    1    2    0    0 -0.11063203290E+01 -0.87728077117E+01  0.12069759691E+04  0.12070497820E+04  0.10000000000E+02 0.  1.
</event>
<event>
 5    1  0.1757379E-008  0.3858640E+03  0.7957747E-01  0.3426016E+00
         13   -1    0    0    0    0  0.00000000000E+00  0.00000000000E+00  0.14999999963E+04  0.15000000000E+04  0.10566000000E+00 0.  1.
        994   -1    0    0    0    0 -0.00000000000E+00 -0.00000000000E+00  0.11368683772E-12  0.17120000000E+03  0.17120000000E+03 0.  0.
         13    1    1    2    0    0  0.73885162693E+01 -0.70543211352E+01  0.42367628865E+02  0.43581885675E+02  0.10566000000E+00 0.  1.
        994    1    1    2    0    0 -0.14309821363E+02  0.32673093634E+01  0.19086510679E+01  0.17183867215E+03  0.17120000000E+03 0.  0.
        998    1    1    2    0    0  0.69213050938E+01  0.37870117718E+01  0.14557237163E+04  0.14557794422E+04  0.10000000000E+02 0.  1.
</event>
<event>
 5    1  0.1757379E-008  0.3806838E+03  0.7957747E-01  0.3448187E+00
         13   -1    0    0    0    0  0.00000000000E+00  0.00000000000E+00  0.14999999963E+04  0.15000000000E+04  0.10566000000E+00 0.  1.
        994   -1    0    0    0    0 -0.00000000000E+00 -0.00000000000E+00  0.11368683772E-12  0.17120000000E+03  0.17120000000E+03 0.  0.
         13    1    1    2    0    0 -0.78091301021E+01 -0.27630751633E+02  0.10474930728E+03  0.10861339461E+03  0.10566000000E+00 0.  1.
        994    1    1    2    0    0  0.16819305694E+02  0.18444017729E+02  0.58693308625E+01  0.17310967587E+03  0.17120000000E+03 0.  0.
        998    1    1    2    0    0 -0.90101755915E+01  0.91867339041E+01  0.13893813581E+04  0.13894769295E+04  0.10000000000E+02 0.  1.
</event>
<event>
 5    1  0.1757379E-008  0.3838094E+03  0.7957747E-01  0.3434737E+00
         13   -1    0    0    0    0  0.00000000000E+00  0.00000000000E+00  0.14999999963E+04  0.15000000000E+04  0.10566000000E+00 0. -1.
        994   -1    0    0    0    0 -0.00000000000E+00 -0.00000000000E+00  0.11368683772E-12  0.17120000000E+03  0.17120000000E+03 0.  0.
         13    1    1    2    0    0  0.22772794988E+02  0.29478869049E+02  0.16607289355E+03  0.17019935677E+03  0.10566000000E+00 0. -1.
        994    1    1    2    0    0 -0.62950343067E+02 -0.78679838403E+02  0.36495860587E+02  0.20197685636E+03  0.17120000000E+03 0.  0.
        998    1    1    2    0    0  0.40177548080E+02  0.49200969354E+02  0.12974312421E+04  0.12990237869E+04  0.10000000000E+02 0. -1.
</event>
<event>
 5    1  0.1757379E-008  0.3821246E+03  0.7957747E-01  0.3441959E+00
         13   -1    0    0    0    0  0.00000000000E+00  0.00000000000E+00  0.14999999963E+04  0.15000000000E+04  0.10566000000E+00 0. -1.
        994   -1    0    0    0    0 -0.00000000000E+00 -0.00000000000E+00  0.11368683772E-12  0.17120000000E+03  0.17120000000E+03 0.  0.
         13    1    1    2    0    0  0.17078725471E+02  0.12681148215E+02  0.69739245532E+02  0.72911370274E+02  0.10566000000E+00 0. -1.
        994    1    1    2    0    0 -0.20597388228E+02 -0.98309147384E+01  0.47955707920E+01  0.17278118180E+03  0.17120000000E+03 0.  0.
        998    1    1    2    0    0  0.35186627573E+01 -0.28502334766E+01  0.14254651800E+04  0.14255074479E+04  0.10000000000E+02 0. -1.
</event>
<event>
 5    1  0.1757379E-008  0.3857076E+03  0.7957747E-01  0.3426677E+00
         13   -1    0    0    0    0  0.00000000000E+00  0.00000000000E+00  0.14999999963E+04  0.15000000000E+04  0.10566000000E+00 0. -1.
        994   -1    0    0    0    0 -0.00000000000E+00 -0.00000000000E+00  0.11368683772E-12  0.17120000000E+03  0.17120000000E+03 0.  0.
         13    1    1    2    0    0 -0.39062616725E+01 -0.10430007232E+02  0.48869510259E+02  0.50122690750E+02  0.10566000000E+00 0. -1.
        994    1    1    2    0    0  0.46189691327E+01  0.61265431350E+01  0.14724005577E+01  0.17137817063E+03  0.17120000000E+03 0.  0.
        998    1    1    2    0    0 -0.71270746019E+00  0.43034640966E+01  0.14496580855E+04  0.14496991386E+04  0.10000000000E+02 0. -1.
</event>
<event>
 5    1  0.1757379E-008  0.3859234E+03  0.7957747E-01  0.3425765E+00
         13   -1    0    0    0    0  0.00000000000E+00  0.00000000000E+00  0.14999999963E+04  0.15000000000E+04  0.10566000000E+00 0. -1.
        994   -1    0    0    0    0 -0.00000000000E+00 -0.00000000000E+00  0.11368683772E-12  0.17120000000E+03  0.17120000000E+03 0.  0.
         13    1    1    2    0    0  0.27071201756E+01  0.15034604384E+02  0.89786797242E+02  0.91077153840E+02  0.10566000000E+00 0. -1.
        994    1    1    2    0    0 -0.40804348209E+01 -0.22718497109E+02  0.29212348073E+01  0.17277370654E+03  0.17120000000E+03 0.  0.
        998    1    1    2    0    0  0.13733146453E+01  0.76838927251E+01  0.14072919642E+04  0.14073491396E+04  0.10000000000E+02 0. -1.
</event>
<event>
 5    1  0.1757379E-008  0.3841310E+03  0.7957747E-01  0.3433366E+00
         13   -1    0    0    0    0  0.00000000000E+00  0.00000000000E+00  0.14999999963E+04  0.15000000000E+04  0.10566000000E+00 0.  1.
        994   -1    0    0    0    0 -0.00000000000E+00 -0.00000000000E+00  0.11368683772E-12  0.17120000000E+03  0.17120000000E+03 0.  0.
         13    1    1    2    0    0 -0.16956235873E+02 -0.48079549991E+01  0.75455256329E+02  0.77486368078E+02  0.10566000000E+00 0.  1.
        994    1    1    2    0    0  0.13009184572E+02 -0.77709031851E+01  0.28198575433E+01  0.17189245887E+03  0.17120000000E+03 0.  0.
        998    1    1    2    0    0  0.39470513005E+01  0.12578858184E+02  0.14217248824E+04  0.14218211731E+04  0.10000000000E+02 0.  1.
</event>
<event>
 5    1  0.1757379E-008  0.3791966E+03  0.7957747E-01  0.3454664E+00
         13   -1    0    0    0    0  0.00000000000E+00  0.00000000000E+00  0.14999999963E+04  0.15000000000E+04  0.10566000000E+00 0.  1.
        994   -1    0    0    0    0 -0.00000000000E+00 -0.00000000000E+00  0.11368683772E-12  0.17120000000E+03  0.17120000000E+03 0.  0.
         13    1    1    2    0    0 -0.62858607739E+02 -0.30918467301E+02  0.40908624628E+03  0.41504062963E+03  0.10566000000E+00 0.  1.
        994    1    1    2    0    0  0.56613646738E+02  0.35573092811E+02  0.19672540643E+02  0.18484317349E+03  0.17120000000E+03 0.  0.
        998    1    1    2    0    0  0.62449610006E+01 -0.46546255100E+01  0.10712412094E+04  0.10713161969E+04  0.10000000000E+02 0.  1.
</event>
<event>
 5    1  0.1757379E-008  0.3736640E+03  0.7957747E-01  0.3479219E+00
         13   -1    0    0    0    0  0.00000000000E+00  0.00000000000E+00  0.14999999963E+04  0.15000000000E+04  0.10566000000E+00 0. -1.
        994   -1    0    0    0    0 -0.00000000000E+00 -0.00000000000E+00  0.11368683772E-12  0.17120000000E+03  0.17120000000E+03 0.  0.
         13    1    1    2    0    0  0.32191345459E+02 -0.36393422936E+02  0.10091105874E+03  0.11199918256E+03  0.10566000000E+00 0. -1.
        994    1    1    2    0    0  0.23121874405E+00 -0.16161772572E+02  0.13815237243E+02  0.17251538231E+03  0.17120000000E+03 0.  0.
        998    1    1    2    0    0 -0.32422564203E+02  0.52555195507E+02  0.13852737003E+04  0.13866854351E+04  0.10000000000E+02 0. -1.
</event>
<event>
 5    1  0.1757379E-008  0.3837918E+03  0.7957747E-01  0.3434813E+00
         13   -1    0    0    0    0  0.00000000000E+00  0.00000000000E+00  0.14999999963E+04  0.15000000000E+04  0.10566000000E+00 0.  1.
        994   -1    0    0    0    0 -0.00000000000E+00 -0.00000000000E+00  0.11368683772E-12  0.17120000000E+03  0.17120000000E+03 0.  0.
         13    1    1    2    0    0  0.15129440416E+02 -0.88047328263E+01  0.77125087646E+02  0.79086747284E+02  0.10566000000E+00 0.  1.
        994    1    1    2    0    0  0.29996717931E+01 -0.12529809265E+02  0.27794159444E+01  0.17170660821E+03  0.17120000000E+03 0.  0.
        998    1    1    2    0    0 -0.18129112209E+02  0.21334542091E+02  0.14200954927E+04  0.14204066445E+04  0.10000000000E+02 0.  1.
</event>
<event>
 5    1  0.1757379E-008  0.3701835E+03  0.7957747E-01  0.3495048E+00
         13   -1    0    0    0    0  0.00000000000E+00  0.00000000000E+00  0.14999999963E+04  0.15000000000E+04  0.10566000000E+00 0. -1.
        994   -1    0    0    0    0 -0.00000000000E+00 -0.00000000000E+00  0.11368683772E-12  0.17120000000E+03  0.17120000000E+03 0.  0.
         13    1    1    2    0    0 -0.54021968466E+01 -0.13536166527E+02  0.74021181821E+01  0.16346683230E+02  0.10566000000E+00 0. -1.
        994    1    1    2    0    0  0.54409581375E+01  0.10946121626E+02  0.96896780439E+01  0.17190913723E+03  0.17120000000E+03 0.  0.
        998    1    1    2    0    0 -0.38761290900E-01  0.25900449006E+01  0.14829082001E+04  0.14829441795E+04  0.10000000000E+02 0. -1.
</event>
<event>
 5    1  0.1757379E-008  0.3816790E+03  0.7957747E-01  0.3443880E+00
         13   -1    0    0    0    0  0.00000000000E+00  0.00000000000E+00  0.14999999963E+04  0.15000000000E+04  0.10566000000E+00 0. -1.
        994   -1    0    0    0    0 -0.00000000000E+00 -0.00000000000E+00  0.11368683772E-12  0.17120000000E+03  0.17120000000E+03 0.  0.
         13    1    1    2    0    0  0.25995696261E+02 -0.42365983693E+02  0.29667652782E+03  0.30081161234E+03  0.10566000000E+00 0. -1.
        994    1    1    2    0    0 -0.29179195756E+02  0.43001178667E+02  0.12318342631E+02  0.17933685733E+03  0.17120000000E+03 0.  0.
        998    1    1    2    0    0  0.31834994947E+01 -0.63519497365E+00  0.11910051258E+04  0.11910515303E+04  0.10000000000E+02 0.  0.
</event>
<event>
 5    1  0.1757379E-008  0.3826248E+03  0.7957747E-01  0.3439809E+00
         13   -1    0    0    0    0  0.00000000000E+00  0.00000000000E+00  0.14999999963E+04  0.15000000000E+04  0.10566000000E+00 0.  1.
        994   -1    0    0    0    0 -0.00000000000E+00 -0.00000000000E+00  0.11368683772E-12  0.17120000000E+03  0.17120000000E+03 0.  0.
         13    1    1    2    0    0 -0.14671316627E+03  0.28374818914E+01  0.41314120759E+03  0.43842727223E+03  0.10566000000E+00 0.  1.
        994    1    1    2    0    0  0.14616626007E+03  0.64954415852E+01  0.10099189881E+03  0.24681079792E+03  0.17120000000E+03 0.  0.
        998    1    1    2    0    0  0.54690619615E+00 -0.93329234767E+01  0.98586688987E+03  0.98596192985E+03  0.10000000000E+02 0.  0.
</event>
<event>
 5    1  0.1757379E-008  0.3856195E+03  0.7957747E-01  0.3427049E+00
         13   -1    0    0    0    0  0.00000000000E+00  0.00000000000E+00  0.14999999963E+04  0.15000000000E+04  0.10566000000E+00 0.  1.
        994   -1    0    0    0    0 -0.00000000000E+00 -0.00000000000E+00  0.11368683772E-12  0.17120000000E+03  0.17120000000E+03 0.  0.
         13    1    1    2    0    0 -0.56980981801E+00 -0.13092243412E+02  0.69090138561E+02  0.70322044418E+02  0.10566000000E+00 0.  1.
        994    1    1    2    0    0  0.12183037379E+02  0.69614093535E+00  0.18117458452E+01  0.17164391465E+03  0.17120000000E+03 0.  0.
        998    1    1    2    0    0 -0.11613227561E+02  0.12396102477E+02  0.14290981119E+04  0.14292340409E+04  0.10000000000E+02 0.  1.
</event>
<event>
 5    1  0.1757379E-008  0.3822822E+03  0.7957747E-01  0.3441281E+00
         13   -1    0    0    0    0  0.00000000000E+00  0.00000000000E+00  0.14999999963E+04  0.15000000000E+04  0.10566000000E+00 0.  1.
        994   -1    0    0    0    0 -0.00000000000E+00 -0.00000000000E+00  0.11368683772E-12  0.17120000000E+03  0.17120000000E+03 0.  0.
         13    1    1    2    0    0 -0.28558939043E+02  0.23698286477E+01  0.13555199722E+03  0.13854812955E+03  0.10566000000E+00 0.  1.
        994    1    1    2    0    0  0.17371464932E+02 -0.13810292482E+02  0.46212406894E+01  0.17269420325E+03  0.17120000000E+03 0.  0.
        998    1    1    2    0    0  0.11187474111E+02  0.11440463834E+02  0.13598267584E+04  0.13599576672E+04  0.10000000000E+02 0.  1.
</event>
<event>
 5    1  0.1757379E-008  0.3812154E+03  0.7957747E-01  0.3445883E+00
         13   -1    0    0    0    0  0.00000000000E+00  0.00000000000E+00  0.14999999963E+04  0.15000000000E+04  0.10566000000E+00 0. -1.
        994   -1    0    0    0    0 -0.00000000000E+00 -0.00000000000E+00  0.11368683772E-12  0.17120000000E+03  0.17120000000E+03 0.  0.
         13    1    1    2    0    0  0.48215387891E+01 -0.89602955888E+02  0.51816937722E+03  0.52588159465E+03  0.10566000000E+00 0. -1.
        994    1    1    2    0    0  0.37812441821E+02  0.12314008149E+03  0.60898557402E+02  0.22273602026E+03  0.17120000000E+03 0.  0.
        998    1    1    2    0    0 -0.42633980610E+02 -0.33537125603E+02  0.92093206165E+03  0.92258238509E+03  0.10000000000E+02 0. -1.
</event>
<event>
 5    1  0.1757379E-008  0.3840781E+03  0.7957747E-01  0.3433591E+00
         13   -1    0    0    0    0  0.00000000000E+00  0.00000000000E+00  0.14999999963E+04  0.15000000000E+04  0.10566000000E+00 0.  1.
        994   -1    0    0    0    0 -0.00000000000E+00 -0.00000000000E+00  0.11368683772E-12  0.17120000000E+03  0.17120000000E+03 0.  0.
         13    1    1    2    0    0  0.18068047508E+02 -0.13751320468E+01  0.83073669625E+02  0.85027002052E+02  0.10566000000E+00 0.  1.
        994    1    1    2    0    0 -0.16344560596E+01  0.99142137849E+01  0.24216163419E+01  0.17151171187E+03  0.17120000000E+03 0.  0.
        998    1    1    2    0    0 -0.16433591449E+02 -0.85390817381E+01  0.14145047103E+04  0.14146612861E+04  0.10000000000E+02 0.  1.
</event>
<event>
 5    1  0.1757379E-008  0.3824638E+03  0.7957747E-01  0.3440500E+00
         13   -1    0    0    0    0  0.00000000000E+00  0.00000000000E+00  0.14999999963E+04  0.15000000000E+04  0.10566000000E+00 0. -1.
        994   -1    0    0    0    0 -0.00000000000E+00 -0.00000000000E+00  0.11368683772E-12  0.17120000000E+03  0.17120000000E+03 0.  0.
         13    1    1    2    0    0  0.28220652305E+02 -0.13859531279E+02  0.15583623736E+03  0.15897621162E+03  0.10566000000E+00 0. -1.
        994    1    1    2    0    0 -0.34353940988E+02 -0.84453216391E+00  0.68202476261E+01  0.17474799648E+03  0.17120000000E+03 0.  0.
        998    1    1    2    0    0  0.61332886823E+01  0.14704063443E+02  0.13373435113E+04  0.13374757919E+04  0.10000000000E+02 0. -1.
</event>
<event>
 5    1  0.1757379E-008  0.3829037E+03  0.7957747E-01  0.3438612E+00
         13   -1    0    0    0    0  0.00000000000E+00  0.00000000000E+00  0.14999999963E+04  0.15000000000E+04  0.10566000000E+00 0.  1.
        994   -1    0    0    0    0 -0.00000000000E+00 -0.00000000000E+00  0.11368683772E-12  0.17120000000E+03  0.17120000000E+03 0.  0.
         13    1    1    2    0    0  0.26257360625E+02  0.91511264535E+01  0.14428146738E+03  0.14693653425E+03  0.10566000000E+00 0.  1.
        994    1    1    2    0    0 -0.15053385411E+02 -0.59048349476E+01  0.35407483719E+01  0.17199839647E+03  0.17120000000E+03 0.  0.
        998    1    1    2    0    0 -0.11203975213E+02 -0.32462915059E+01  0.13521777805E+04  0.13522650693E+04  0.10000000000E+02 0.  1.
</event>
<event>
 5    1  0.1757379E-008  0.3760339E+03  0.7957747E-01  0.3468612E+00
         13   -1    0    0    0    0  0.00000000000E+00  0.00000000000E+00  0.14999999963E+04  0.15000000000E+04  0.10566000000E+00 0.  1.
        994   -1    0    0    0    0 -0.00000000000E+00 -0.00000000000E+00  0.11368683772E-12  0.17120000000E+03  0.17120000000E+03 0.  0.
         13    1    1    2    0    0  0.15839930622E+01 -0.31608417093E+02  0.29284083674E+02  0.43118091167E+02  0.10566000000E+00 0.  1.
        994    1    1    2    0    0  0.33355622721E+01  0.28397015543E+02  0.17090862278E+02  0.17441059039E+03  0.17120000000E+03 0.  0.
        998    1    1    2    0    0 -0.49195553343E+01  0.32114015503E+01  0.14536250503E+04  0.14536713184E+04  0.10000000000E+02 0.  1.
</event>
<event>
 5    1  0.1757379E-008  0.3792474E+03  0.7957747E-01  0.3454442E+00
         13   -1    0    0    0    0  0.00000000000E+00  0.00000000000E+00  0.14999999963E+04  0.15000000000E+04  0.10566000000E+00 0. -1.
        994   -1    0    0    0    0 -0.00000000000E+00 -0.00000000000E+00  0.11368683772E-12  0.17120000000E+03  0.17120000000E+03 0.  0.
         13    1    1    2    0    0 -0.87723432183E+01 -0.29151352511E+02  0.10120129517E+03  0.10568097590E+03  0.10566000000E+00 0. -1.
        994    1    1    2    0    0  0.14892444683E+02  0.14675054462E+02  0.59798546489E+01  0.17257560892E+03  0.17120000000E+03 0.  0.
        998    1    1    2    0    0 -0.61201014645E+01  0.14476298049E+02  0.13928188465E+04  0.13929434152E+04  0.10000000000E+02 0. -1.
</event>
<event>
 5    1  0.1757379E-008  0.3820662E+03  0.7957747E-01  0.3442211E+00
         13   -1    0    0    0    0  0.00000000000E+00  0.00000000000E+00  0.14999999963E+04  0.15000000000E+04  0.10566000000E+00 0. -1.
        994   -1    0    0    0    0 -0.00000000000E+00 -0.00000000000E+00  0.11368683772E-12  0.17120000000E+03  0.17120000000E+03 0.  0.
         13    1    1    2    0    0 -0.17813595277E+02 -0.28344086004E+02  0.17287103028E+03  0.17608269552E+03  0.10566000000E+00 0. -1.
        994    1    1    2    0    0  0.58598311991E+01  0.25888734315E+02  0.54366104634E+01  0.17333078468E+03  0.17120000000E+03 0.  0.
        998    1    1    2    0    0  0.11953764078E+02  0.24553516888E+01  0.13216923555E+04  0.13217865198E+04  0.10000000000E+02 0. -1.
</event>
<event>
 5    1  0.1757379E-008  0.3842724E+03  0.7957747E-01  0.3432764E+00
         13   -1    0    0    0    0  0.00000000000E+00  0.00000000000E+00  0.14999999963E+04  0.15000000000E+04  0.10566000000E+00 0. -1.
        994   -1    0    0    0    0 -0.00000000000E+00 -0.00000000000E+00  0.11368683772E-12  0.17120000000E+03  0.17120000000E+03 0.  0.
         13    1    1    2    0    0 -0.48959843970E+01  0.90862630485E+01  0.25857554199E+02  0.27841607580E+02  0.10566000000E+00 0. -1.
        994    1    1    2    0    0  0.77381554785E+01 -0.78521344275E+01  0.23925502498E+01  0.17157126613E+03  0.17120000000E+03 0.  0.
        998    1    1    2    0    0 -0.28421710815E+01 -0.12341286211E+01  0.14717498918E+04  0.14717871263E+04  0.10000000000E+02 0. -1.
</event>
<event>
 5    1  0.1757379E-008  0.3804332E+03  0.7957747E-01  0.3449274E+00
         13   -1    0    0    0    0  0.00000000000E+00  0.00000000000E+00  0.14999999963E+04  0.15000000000E+04  0.10566000000E+00 0. -1.
        994   -1    0    0    0    0 -0.00000000000E+00 -0.00000000000E+00  0.11368683772E-12  0.17120000000E+03  0.17120000000E+03 0.  0.
         13    1    1    2    0    0 -0.60903240033E+01  0.21780698147E+02  0.62351284449E+02  0.66326349927E+02  0.10566000000E+00 0. -1.
        994    1    1    2    0    0  0.30360780887E+01 -0.20294404886E+02  0.53215012121E+01  0.17250750423E+03  0.17120000000E+03 0.  0.
        998    1    1    2    0    0  0.30542459146E+01 -0.14862932604E+01  0.14323272106E+04  0.14323661458E+04  0.10000000000E+02 0. -1.
</event>
<event>
 5    1  0.1757379E-008  0.4187918E+03  0.7957747E-01  0.3297891E+00
         13   -1    0    0    0    0  0.00000000000E+00  0.00000000000E+00  0.14999999963E+04  0.15000000000E+04  0.10566000000E+00 0.  1.
        994   -1    0    0    0    0 -0.00000000000E+00 -0.00000000000E+00  0.11368683772E-12  0.17120000000E+03  0.17120000000E+03 0.  0.
         13    1    1    2    0    0 -0.61966704105E+02  0.91500718117E+02  0.12957201818E+03  0.17029730735E+03  0.10566000000E+00 0.  1.
        994    1    1    2    0    0  0.59680372827E+02 -0.95245037371E+02  0.95575202785E+02  0.22600314916E+03  0.17120000000E+03 0.  0.
        998    1    1    2    0    0  0.22863312776E+01  0.37443192538E+01  0.12748527753E+04  0.12748995435E+04  0.10000000000E+02 0.  1.
</event>
<event>
 5    1  0.1757379E-008  0.3846992E+03  0.7957747E-01  0.3430949E+00
         13   -1    0    0    0    0  0.00000000000E+00  0.00000000000E+00  0.14999999963E+04  0.15000000000E+04  0.10566000000E+00 0. -1.
        994   -1    0    0    0    0 -0.00000000000E+00 -0.00000000000E+00  0.11368683772E-12  0.17120000000E+03  0.17120000000E+03 0.  0.
         13    1    1    2    0    0  0.16854433608E+02  0.59396721315E+01  0.85795837041E+02  0.87637254948E+02  0.10566000000E+00 0. -1.
        994    1    1    2    0    0 -0.16842755797E+02 -0.56604496116E+01  0.28195673510E+01  0.17214269974E+03  0.17120000000E+03 0.  0.
        998    1    1    2    0    0 -0.11677810560E-01 -0.27922251983E+00  0.14113845919E+04  0.14114200453E+04  0.10000000000E+02 0.  0.
</event>
<event>
 5    1  0.1757379E-008  0.3840214E+03  0.7957747E-01  0.3433833E+00
         13   -1    0    0    0    0  0.00000000000E+00  0.00000000000E+00  0.14999999963E+04  0.15000000000E+04  0.10566000000E+00 0.  1.
        994   -1    0    0    0    0 -0.00000000000E+00 -0.00000000000E+00  0.11368683772E-12  0.17120000000E+03  0.17120000000E+03 0.  0.
         13    1    1    2    0    0 -0.13340067984E+02 -0.39985186775E+01  0.45696173910E+02  0.47771299328E+02  0.10566000000E+00 0.  1.
        994    1    1    2    0    0  0.12468457273E+02 -0.14380179052E+02  0.33128130100E+01  0.17228658307E+03  0.17120000000E+03 0.  0.
        998    1    1    2    0    0  0.87161071085E+00  0.18378697729E+02  0.14509910094E+04  0.14511421176E+04  0.10000000000E+02 0.  1.
</event>
<event>
 5    1  0.1757379E-008  0.3832086E+03  0.7957747E-01  0.3437305E+00
         13   -1    0    0    0    0  0.00000000000E+00  0.00000000000E+00  0.14999999963E+04  0.15000000000E+04  0.10566000000E+00 0.  1.
        994   -1    0    0    0    0 -0.00000000000E+00 -0.00000000000E+00  0.11368683772E-12  0.17120000000E+03  0.17120000000E+03 0.  0.
         13    1    1    2    0    0 -0.12516732908E+02  0.24189498361E+02  0.13801217473E+03  0.14067399181E+03  0.10566000000E+00 0.  1.
        994    1    1    2    0    0  0.65796439071E+01 -0.23874643275E+02  0.45534663065E+01  0.17304179946E+03  0.17120000000E+03 0.  0.
        998    1    1    2    0    0  0.59370890009E+01 -0.31485508553E+00  0.13574343552E+04  0.13574842087E+04  0.10000000000E+02 0.  1.
</event>
<event>
 5    1  0.1757379E-008  0.3802019E+03  0.7957747E-01  0.3450280E+00
         13   -1    0    0    0    0  0.00000000000E+00  0.00000000000E+00  0.14999999963E+04  0.15000000000E+04  0.10566000000E+00 0.  1.
        994   -1    0    0    0    0 -0.00000000000E+00 -0.00000000000E+00  0.11368683772E-12  0.17120000000E+03  0.17120000000E+03 0.  0.
         13    1    1    2    0    0 -0.66224161160E+01  0.78525157027E+01  0.11061969911E+02  0.15096249217E+02  0.10566000000E+00 0.  1.
        994    1    1    2    0    0  0.93170240795E+01 -0.14459997744E+02  0.50203715945E+01  0.17213524509E+03  0.17120000000E+03 0.  0.
        998    1    1    2    0    0 -0.26946079635E+01  0.66074820411E+01  0.14839176548E+04  0.14839685057E+04  0.10000000000E+02 0.  1.
</event>
<event>
 5    1  0.1757379E-008  0.3784705E+03  0.7957747E-01  0.3457845E+00
         13   -1    0    0    0    0  0.00000000000E+00  0.00000000000E+00  0.14999999963E+04  0.15000000000E+04  0.10566000000E+00 0. -1.
        994   -1    0    0    0    0 -0.00000000000E+00 -0.00000000000E+00  0.11368683772E-12  0.17120000000E+03  0.17120000000E+03 0.  0.
         13    1    1    2    0    0 -0.34743194941E+02 -0.42322946306E+02  0.27283235421E+03  0.27827293444E+03  0.10566000000E+00 0. -1.
        994    1    1    2    0    0  0.33849611017E+02  0.30009255439E+02  0.11813730076E+02  0.17746930945E+03  0.17120000000E+03 0.  0.
        998    1    1    2    0    0  0.89358392385E+00  0.12313690868E+02  0.12153539120E+04  0.12154577561E+04  0.10000000000E+02 0. -1.
</event>
<event>
 5    1  0.1757379E-008  0.3826441E+03  0.7957747E-01  0.3439726E+00
         13   -1    0    0    0    0  0.00000000000E+00  0.00000000000E+00  0.14999999963E+04  0.15000000000E+04  0.10566000000E+00 0. -1.
        994   -1    0    0    0    0 -0.00000000000E+00 -0.00000000000E+00  0.11368683772E-12  0.17120000000E+03  0.17120000000E+03 0.  0.
         13    1    1    2    0    0 -0.11996706745E+02 -0.56936919049E+01  0.30090695082E+02  0.32890731138E+02  0.10566000000E+00 0. -1.
        994    1    1    2    0    0  0.99673754971E+01  0.81276956733E+01  0.33526868942E+01  0.17171513772E+03  0.17120000000E+03 0.  0.
        998    1    1    2    0    0  0.20293312476E+01 -0.24340037684E+01  0.14665566143E+04  0.14665941311E+04  0.10000000000E+02 0. -1.
</event>
<event>
 5    1  0.1757379E-008  0.3730599E+03  0.7957747E-01  0.3481945E+00
         13   -1    0    0    0    0  0.00000000000E+00  0.00000000000E+00  0.14999999963E+04  0.15000000000E+04  0.10566000000E+00 0.  1.
        994   -1    0    0    0    0 -0.00000000000E+00 -0.00000000000E+00  0.11368683772E-12  0.17120000000E+03  0.17120000000E+03 0.  0.
         13    1    1    2    0    0 -0.49200924953E+02 -0.46738025010E+02  0.31912225262E+03  0.32625786930E+03  0.10566000000E+00 0.  1.
        994    1    1    2    0    0  0.54059906259E+01  0.38213853674E+02  0.12792109904E+02  0.17596193174E+03  0.17120000000E+03 0.  0.
        998    1    1    2    0    0  0.43794934327E+02  0.85241713365E+01  0.11680856338E+04  0.11689801990E+04  0.10000000000E+02 0.  1.
</event>
<event>
 5    1  0.1757379E-008  0.3816268E+03  0.7957747E-01  0.3444106E+00
         13   -1    0    0    0    0  0.00000000000E+00  0.00000000000E+00  0.14999999963E+04  0.15000000000E+04  0.10566000000E+00 0. -1.
        994   -1    0    0    0    0 -0.00000000000E+00 -0.00000000000E+00  0.11368683772E-12  0.17120000000E+03  0.17120000000E+03 0.  0.
         13    1    1    2    0    0  0.40706786046E+01  0.11362829739E+02  0.20648641928E+02  0.23917815567E+02  0.10566000000E+00 0. -1.
        994    1    1    2    0    0  0.99579242419E-01 -0.91406812736E+01  0.35921167123E+01  0.17148150125E+03  0.17120000000E+03 0.  0.
        998    1    1    2    0    0 -0.41702578471E+01 -0.22221484657E+01  0.14757592376E+04  0.14758006832E+04  0.10000000000E+02 0. -1.
</event>
<event>
 5    1  0.1757379E-008  0.2010287E+03  0.7957747E-01  0.5020500E+00
         13   -1    0    0    0    0  0.00000000000E+00  0.00000000000E+00  0.14999999963E+04  0.15000000000E+04  0.10566000000E+00 0. -1.
        994   -1    0    0    0    0 -0.00000000000E+00 -0.00000000000E+00  0.11368683772E-12  0.17120000000E+03  0.17120000000E+03 0.  0.
         13    1    1    2    0    0  0.56204989809E+02  0.98580974853E+02  0.76100826917E+02  0.13663292613E+03  0.10566000000E+00 0. -1.
        994    1    1    2    0    0 -0.55267163762E+02 -0.81056424187E+02  0.12089835976E+03  0.23140971605E+03  0.17120000000E+03 0.  0.
        998    1    1    2    0    0 -0.93782604664E+00 -0.17524550666E+02  0.13030008096E+04  0.13031573578E+04  0.10000000000E+02 0. -1.
</event>
<event>
 5    1  0.1757379E-008  0.3824579E+03  0.7957747E-01  0.3440526E+00
         13   -1    0    0    0    0  0.00000000000E+00  0.00000000000E+00  0.14999999963E+04  0.15000000000E+04  0.10566000000E+00 0. -1.
        994   -1    0    0    0    0 -0.00000000000E+00 -0.00000000000E+00  0.11368683772E-12  0.17120000000E+03  0.17120000000E+03 0.  0.
         13    1    1    2    0    0 -0.81894812209E+01  0.80355536111E+01  0.21134418117E+02  0.24048129193E+02  0.10566000000E+00 0. -1.
        994    1    1    2    0    0  0.11738934696E+02 -0.98805835334E+01  0.36785917198E+01  0.17192556691E+03  0.17120000000E+03 0.  0.
        998    1    1    2    0    0 -0.35494534748E+01  0.18450299223E+01  0.14751869864E+04  0.14752263039E+04  0.10000000000E+02 0. -1.
</event>
<event>
 5    1  0.1757379E-008  0.3774580E+03  0.7957747E-01  0.3462302E+00
         13   -1    0    0    0    0  0.00000000000E+00  0.00000000000E+00  0.14999999963E+04  0.15000000000E+04  0.10566000000E+00 0.  1.
        994   -1    0    0    0    0 -0.00000000000E+00 -0.00000000000E+00  0.11368683772E-12  0.17120000000E+03  0.17120000000E+03 0.  0.
         13    1    1    2    0    0  0.35887020093E+02 -0.10591485263E+02  0.11472161789E+03  0.12066945987E+03  0.10566000000E+00 0.  1.
        994    1    1    2    0    0 -0.43005941841E+02  0.87338105142E+01  0.11941860449E+02  0.17713790817E+03  0.17120000000E+03 0.  0.
        998    1    1    2    0    0  0.71189217484E+01  0.18576747490E+01  0.13733365179E+04  0.13733926320E+04  0.10000000000E+02 0.  1.
</event>
<event>
 5    1  0.1757379E-008  0.3796816E+03  0.7957747E-01  0.3452546E+00
         13   -1    0    0    0    0  0.00000000000E+00  0.00000000000E+00  0.14999999963E+04  0.15000000000E+04  0.10566000000E+00 0.  1.
        994   -1    0    0    0    0 -0.00000000000E+00 -0.00000000000E+00  0.11368683772E-12  0.17120000000E+03  0.17120000000E+03 0.  0.
         13    1    1    2    0    0 -0.32052746605E+01  0.16456682696E+02  0.33751794879E+02  0.37686748502E+02  0.10566000000E+00 0.  1.
        994    1    1    2    0    0 -0.11700149530E+02  0.13258594983E+02  0.53410061780E+01  0.17219364154E+03  0.17120000000E+03 0.  0.
        998    1    1    2    0    0  0.14905424191E+02 -0.29715277680E+02  0.14609071952E+04  0.14613196100E+04  0.10000000000E+02 0.  1.
</event>
<event>
 5    1  0.1757379E-008  0.3818659E+03  0.7957747E-01  0.3443074E+00
         13   -1    0    0    0    0  0.00000000000E+00  0.00000000000E+00  0.14999999963E+04  0.15000000000E+04  0.10566000000E+00 0.  1.
        994   -1    0    0    0    0 -0.00000000000E+00 -0.00000000000E+00  0.11368683772E-12  0.17120000000E+03  0.17120000000E+03 0.  0.
         13    1    1    2    0    0 -0.28078569201E+02  0.10627177991E+02  0.16143138190E+03  0.16419940678E+03  0.10566000000E+00 0.  1.
        994    1    1    2    0    0 -0.26592625552E+01 -0.44401712468E+01  0.32832051563E+01  0.17130967934E+03  0.17120000000E+03 0.  0.
        998    1    1    2    0    0  0.30737831756E+02 -0.61870067439E+01  0.13352854092E+04  0.13356909139E+04  0.10000000000E+02 0.  1.
</event>
<event>
 5    1  0.1757379E-008  0.3698666E+03  0.7957747E-01  0.3496504E+00
         13   -1    0    0    0    0  0.00000000000E+00  0.00000000000E+00  0.14999999963E+04  0.15000000000E+04  0.10566000000E+00 0.  1.
        994   -1    0    0    0    0 -0.00000000000E+00 -0.00000000000E+00  0.11368683772E-12  0.17120000000E+03  0.17120000000E+03 0.  0.
         13    1    1    2    0    0 -0.60417103344E+02  0.27358248310E+02  0.31036415730E+03  0.31737142503E+03  0.10566000000E+00 0.  1.
        994    1    1    2    0    0 -0.94495621435E+01 -0.14351508348E+02  0.10360841823E+02  0.17237182792E+03  0.17120000000E+03 0.  0.
        998    1    1    2    0    0  0.69866665487E+02 -0.13006739962E+02  0.11792749972E+04  0.11814567470E+04  0.10000000000E+02 0.  1.
</event>
<event>
 5    1  0.1757379E-008  0.3813830E+03  0.7957747E-01  0.3445159E+00
         13   -1    0    0    0    0  0.00000000000E+00  0.00000000000E+00  0.14999999963E+04  0.15000000000E+04  0.10566000000E+00 0. -1.
        994   -1    0    0    0    0 -0.00000000000E+00 -0.00000000000E+00  0.11368683772E-12  0.17120000000E+03  0.17120000000E+03 0.  0.
         13    1    1    2    0    0 -0.28659962981E+02  0.21470985123E+02  0.16820242751E+03  0.17197227819E+03  0.10566000000E+00 0. -1.
        994    1    1    2    0    0  0.32009781473E+02 -0.14892628597E+02  0.75954565873E+01  0.17496727539E+03  0.17120000000E+03 0.  0.
        998    1    1    2    0    0 -0.33498184921E+01 -0.65783565264E+01  0.13242021122E+04  0.13242604464E+04  0.10000000000E+02 0. -1.
</event>
<event>
 5    1  0.1757379E-008  0.3813664E+03  0.7957747E-01  0.3445231E+00
         13   -1    0    0    0    0  0.00000000000E+00  0.00000000000E+00  0.14999999963E+04  0.15000000000E+04  0.10566000000E+00 0.  1.
        994   -1    0    0    0    0 -0.00000000000E+00 -0.00000000000E+00  0.11368683772E-12  0.17120000000E+03  0.17120000000E+03 0.  0.
         13    1    1    2    0    0 -0.16705024272E+02  0.71964093291E+01  0.43742266260E+02  0.47373443666E+02  0.10566000000E+00 0.  1.
        994    1    1    2    0    0  0.17239131944E+02 -0.35372867572E+02  0.86151957211E+01  0.17587520868E+03  0.17120000000E+03 0.  0.
        998    1    1    2    0    0 -0.53410767197E+00  0.28176458242E+02  0.14476425343E+04  0.14479513477E+04  0.10000000000E+02 0.  1.
</event>
<event>
 5    1  0.1757379E-008  0.3810652E+03  0.7957747E-01  0.3446533E+00
         13   -1    0    0    0    0  0.00000000000E+00  0.00000000000E+00  0.14999999963E+04  0.15000000000E+04  0.10566000000E+00 0.  1.
        994   -1    0    0    0    0 -0.00000000000E+00 -0.00000000000E+00  0.11368683772E-12  0.17120000000E+03  0.17120000000E+03 0.  0.
         13    1    1    2    0    0  0.13946333168E+02  0.22234099922E+02  0.89750786350E+02  0.93509733304E+02  0.10566000000E+00 0.  1.
        994    1    1    2    0    0 -0.17329662444E+02 -0.20157937060E+02  0.59539857828E+01  0.17335382769E+03  0.17120000000E+03 0.  0.
        998    1    1    2    0    0  0.33833292762E+01 -0.20761628614E+01  0.14042952241E+04  0.14043364390E+04  0.10000000000E+02 0.  1.
</event>
<event>
 5    1  0.1757379E-008  0.3834701E+03  0.7957747E-01  0.3436187E+00
         13   -1    0    0    0    0  0.00000000000E+00  0.00000000000E+00  0.14999999963E+04  0.15000000000E+04  0.10566000000E+00 0.  1.
        994   -1    0    0    0    0 -0.00000000000E+00 -0.00000000000E+00  0.11368683772E-12  0.17120000000E+03  0.17120000000E+03 0.  0.
         13    1    1    2    0    0 -0.66314686014E+01  0.10869317034E+02  0.33201238404E+02  0.35559131376E+02  0.10566000000E+00 0.  1.
        994    1    1    2    0    0  0.21337478635E+02  0.30722110916E+01  0.39290612629E+01  0.17259665118E+03  0.17120000000E+03 0.  0.
        998    1    1    2    0    0 -0.14706010034E+02 -0.13941528126E+02  0.14628696966E+04  0.14630442174E+04  0.10000000000E+02 0.  1.
</event>
<event>
 5    1  0.1757379E-008  0.3811811E+03  0.7957747E-01  0.3446032E+00
         13   -1    0    0    0    0  0.00000000000E+00  0.00000000000E+00  0.14999999963E+04  0.15000000000E+04  0.10566000000E+00 0.  1.
        994   -1    0    0    0    0 -0.00000000000E+00 -0.00000000000E+00  0.11368683772E-12  0.17120000000E+03  0.17120000000E+03 0.  0.
         13    1    1    2    0    0 -0.23945851699E+02  0.32346373885E+02  0.21888704200E+03  0.22255615030E+03  0.10566000000E+00 0.  1.
        994    1    1    2    0    0  0.21513040515E+02 -0.18889181389E+02  0.62721755567E+01  0.17369050714E+03  0.17120000000E+03 0.  0.
        998    1    1    2    0    0  0.24328111834E+01 -0.13457192496E+02  0.12748407787E+04  0.12749533426E+04  0.10000000000E+02 0.  1.
</event>
<event>
 5    1  0.1757379E-008  0.3762563E+03  0.7957747E-01  0.3467623E+00
         13   -1    0    0    0    0  0.00000000000E+00  0.00000000000E+00  0.14999999963E+04  0.15000000000E+04  0.10566000000E+00 0. -1.
        994   -1    0    0    0    0 -0.00000000000E+00 -0.00000000000E+00  0.11368683772E-12  0.17120000000E+03  0.17120000000E+03 0.  0.
         13    1    1    2    0    0  0.27493005192E+02 -0.17814468048E+02  0.87315350183E+02  0.93258791263E+02  0.10566000000E+00 0. -1.
        994    1    1    2    0    0 -0.43221162692E+02 -0.30671253859E+02  0.15602256214E+02  0.17989348270E+03  0.17120000000E+03 0.  0.
        998    1    1    2    0    0  0.15728157500E+02  0.48485721907E+02  0.13970823899E+04  0.13980477260E+04  0.10000000000E+02 0. -1.
</event>
<event>
 5    1  0.1757379E-008  0.3857281E+03  0.7957747E-01  0.3426590E+00
         13   -1    0    0    0    0  0.00000000000E+00  0.00000000000E+00  0.14999999963E+04  0.15000000000E+04  0.10566000000E+00 0.  1.
        994   -1    0    0    0    0 -0.00000000000E+00 -0.00000000000E+00  0.11368683772E-12  0.17120000000E+03  0.17120000000E+03 0.  0.
         13    1    1    2    0    0 -0.69812293950E+01 -0.77613464840E+01  0.43195079231E+02  0.44438745447E+02  0.10566000000E+00 0.  1.
        994    1    1    2    0    0  0.71895895150E+01  0.31944228619E+01  0.14721933788E+01  0.17138699451E+03  0.17120000000E+03 0.  0.
        998    1    1    2    0    0 -0.20836012008E+00  0.45669236221E+01  0.14553327237E+04  0.14553742600E+04  0.10000000000E+02 0.  1.
</event>
<event>
 5    1  0.1757379E-008  0.2690528E+03  0.7957747E-01  0.4145160E+00
         13   -1    0    0    0    0  0.00000000000E+00  0.00000000000E+00  0.14999999963E+04  0.15000000000E+04  0.10566000000E+00 0. -1.
        994   -1    0    0    0    0 -0.00000000000E+00 -0.00000000000E+00  0.11368683772E-12  0.17120000000E+03  0.17120000000E+03 0.  0.
         13    1    1    2    0    0  0.47038735692E+02 -0.32569890474E+02 -0.38664611024E+02  0.69053629382E+02  0.10566000000E+00 0. -1.
        994    1    1    2    0    0 -0.15187359008E+02  0.31445443290E+02  0.21052470060E+03  0.27358647873E+03  0.17120000000E+03 0.  0.
        998    1    1    2    0    0 -0.31851376685E+02  0.11244471844E+01  0.13281399067E+04  0.13285598919E+04  0.10000000000E+02 0. -1.
</event>
<event>
 5    1  0.1757379E-008  0.3812260E+03  0.7957747E-01  0.3445837E+00
         13   -1    0    0    0    0  0.00000000000E+00  0.00000000000E+00  0.14999999963E+04  0.15000000000E+04  0.10566000000E+00 0.  1.
        994   -1    0    0    0    0 -0.00000000000E+00 -0.00000000000E+00  0.11368683772E-12  0.17120000000E+03  0.17120000000E+03 0.  0.
         13    1    1    2    0    0 -0.79251941881E+01  0.24948772700E+02  0.89330973705E+02  0.93087507160E+02  0.10566000000E+00 0.  1.
        994    1    1    2    0    0  0.15615643992E+02 -0.27161668381E+02  0.67906017387E+01  0.17417564938E+03  0.17120000000E+03 0.  0.
        998    1    1    2    0    0 -0.76904498036E+01  0.22128956811E+01  0.14038784208E+04  0.14039368435E+04  0.10000000000E+02 0.  1.
</event>
<event>
 5    1  0.2126666E-008  0.3862149E+03  0.7957747E-01  0.3424536E+00
         13   -1    0    0    0    0  0.00000000000E+00  0.00000000000E+00  0.14999999963E+04  0.15000000000E+04  0.10566000000E+00 0.  1.
        994   -1    0    0    0    0 -0.00000000000E+00 -0.00000000000E+00  0.11368683772E-12  0.17120000000E+03  0.17120000000E+03 0.  0.
         13    1    1    2    0    0 -0.10438875854E+02  0.14629838954E+01  0.54336537841E+02  0.55349624747E+02  0.10566000000E+00 0.  1.
        994    1    1    2    0    0  0.93676591141E+01  0.53034810458E+01  0.14078277635E+01  0.17154387756E+03  0.17120000000E+03 0.  0.
        998    1    1    2    0    0  0.10712167404E+01 -0.67664649412E+01  0.14442556307E+04  0.14443064977E+04  0.10000000000E+02 0.  1.
</event>
<event>
 5    1  0.1757379E-008  0.3820561E+03  0.7957747E-01  0.3442254E+00
         13   -1    0    0    0    0  0.00000000000E+00  0.00000000000E+00  0.14999999963E+04  0.15000000000E+04  0.10566000000E+00 0. -1.
        994   -1    0    0    0    0 -0.00000000000E+00 -0.00000000000E+00  0.11368683772E-12  0.17120000000E+03  0.17120000000E+03 0.  0.
         13    1    1    2    0    0 -0.11868579341E+02  0.25226024326E+02  0.13855525140E+03  0.14133217727E+03  0.10566000000E+00 0. -1.
        994    1    1    2    0    0  0.20520207599E+02  0.73603832914E+01  0.46784354602E+01  0.17264582798E+03  0.17120000000E+03 0.  0.
        998    1    1    2    0    0 -0.86516282581E+01 -0.32586407617E+02  0.13567663094E+04  0.13572219947E+04  0.10000000000E+02 0. -1.
</event>
<event>
 5    1  0.1757379E-008  0.3831069E+03  0.7957747E-01  0.3437741E+00
         13   -1    0    0    0    0  0.00000000000E+00  0.00000000000E+00  0.14999999963E+04  0.15000000000E+04  0.10566000000E+00 0. -1.
        994   -1    0    0    0    0 -0.00000000000E+00 -0.00000000000E+00  0.11368683772E-12  0.17120000000E+03  0.17120000000E+03 0.  0.
         13    1    1    2    0    0 -0.24312633326E+01  0.24244967848E+02  0.12299544530E+03  0.12538588532E+03  0.10566000000E+00 0. -1.
        994    1    1    2    0    0 -0.15822688590E+02 -0.70721485904E+01  0.35674776129E+01  0.17211199742E+03  0.17120000000E+03 0.  0.
        998    1    1    2    0    0  0.18253951922E+02 -0.17172819258E+02  0.13734370734E+04  0.13737021173E+04  0.10000000000E+02 0. -1.
</event>
<event>
 5    1  0.1757379E-008  0.3718503E+03  0.7957747E-01  0.3487430E+00
         13   -1    0    0    0    0  0.00000000000E+00  0.00000000000E+00  0.14999999963E+04  0.15000000000E+04  0.10566000000E+00 0.  1.
        994   -1    0    0    0    0 -0.00000000000E+00 -0.00000000000E+00  0.11368683772E-12  0.17120000000E+03  0.17120000000E+03 0.  0.
         13    1    1    2    0    0 -0.19931765626E+02 -0.26378066881E+02  0.59664294674E+02  0.68212293000E+02  0.10566000000E+00 0.  1.
        994    1    1    2    0    0  0.23002167417E+02  0.29063860476E+02  0.13039890793E+02  0.17565103599E+03  0.17120000000E+03 0.  0.
        998    1    1    2    0    0 -0.30704017909E+01 -0.26857935946E+01  0.14272958108E+04  0.14273366710E+04  0.10000000000E+02 0. -1.
</event>
<event>
 5    1  0.1757379E-008  0.3841365E+03  0.7957747E-01  0.3433343E+00
         13   -1    0    0    0    0  0.00000000000E+00  0.00000000000E+00  0.14999999963E+04  0.15000000000E+04  0.10566000000E+00 0.  1.
        994   -1    0    0    0    0 -0.00000000000E+00 -0.00000000000E+00  0.11368683772E-12  0.17120000000E+03  0.17120000000E+03 0.  0.
         13    1    1    2    0    0 -0.16882250987E+02  0.96692430318E+01  0.88188786104E+02  0.90309345129E+02  0.10566000000E+00 0.  1.
        994    1    1    2    0    0  0.61609512916E+01 -0.26501426486E+02  0.45046516820E+01  0.17340707833E+03  0.17120000000E+03 0.  0.
        998    1    1    2    0    0  0.10721299696E+02  0.16832183454E+02  0.14073065585E+04  0.14074835765E+04  0.10000000000E+02 0.  1.
</event>
<event>
 5    1  0.1757379E-008  0.3780829E+03  0.7957747E-01  0.3459549E+00
         13   -1    0    0    0    0  0.00000000000E+00  0.00000000000E+00  0.14999999963E+04  0.15000000000E+04  0.10566000000E+00 0.  1.
        994   -1    0    0    0    0 -0.00000000000E+00 -0.00000000000E+00  0.11368683772E-12  0.17120000000E+03  0.17120000000E+03 0.  0.
         13    1    1    2    0    0 -0.72947463409E+02  0.41655701937E+02  0.48136017087E+03  0.48863499177E+03  0.10566000000E+00 0.  1.
        994    1    1    2    0    0  0.99469873507E+02 -0.12869199943E+01  0.39153472934E+02  0.20183742552E+03  0.17120000000E+03 0.  0.
        998    1    1    2    0    0 -0.26522410098E+02 -0.40368781943E+02  0.97948635248E+03  0.98072758271E+03  0.10000000000E+02 0.  1.
</event>
<event>
 5    1  0.1757379E-008  0.3834473E+03  0.7957747E-01  0.3436284E+00
         13   -1    0    0    0    0  0.00000000000E+00  0.00000000000E+00  0.14999999963E+04  0.15000000000E+04  0.10566000000E+00 0.  1.
        994   -1    0    0    0    0 -0.00000000000E+00 -0.00000000000E+00  0.11368683772E-12  0.17120000000E+03  0.17120000000E+03 0.  0.
         13    1    1    2    0    0 -0.80565294708E+01 -0.18067229814E+02  0.79459025035E+02  0.81884554611E+02  0.10566000000E+00 0.  1.
        994    1    1    2    0    0  0.30601192044E+01  0.15600169339E+02  0.32387873319E+01  0.17196702985E+03  0.17120000000E+03 0.  0.
        998    1    1    2    0    0  0.49964102664E+01  0.24670604750E+01  0.14173021839E+04  0.14173484155E+04  0.10000000000E+02 0.  1.
</event>
<event>
 5    1  0.1757379E-008  0.3697757E+03  0.7957747E-01  0.3496923E+00
         13   -1    0    0    0    0  0.00000000000E+00  0.00000000000E+00  0.14999999963E+04  0.15000000000E+04  0.10566000000E+00 0. -1.
        994   -1    0    0    0    0 -0.00000000000E+00 -0.00000000000E+00  0.11368683772E-12  0.17120000000E+03  0.17120000000E+03 0.  0.
         13    1    1    2    0    0 -0.14486621843E+02 -0.17298115552E+02  0.18549395519E+02  0.29209215193E+02  0.10566000000E+00 0. -1.
        994    1    1    2    0    0  0.22907221195E+02  0.12754223369E+02  0.13225243402E+02  0.17370019591E+03  0.17120000000E+03 0.  0.
        998    1    1    2    0    0 -0.84205993523E+01  0.45438921826E+01  0.14682253574E+04  0.14682905889E+04  0.10000000000E+02 0. -1.
</event>
<event>
 5    1  0.1757379E-008  0.3751058E+03  0.7957747E-01  0.3472750E+00
         13   -1    0    0    0    0  0.00000000000E+00  0.00000000000E+00  0.14999999963E+04  0.15000000000E+04  0.10566000000E+00 0. -1.
        994   -1    0    0    0    0 -0.00000000000E+00 -0.00000000000E+00  0.11368683772E-12  0.17120000000E+03  0.17120000000E+03 0.  0.
         13    1    1    2    0    0  0.17923257443E+02 -0.36339982144E+01  0.22623495689E+02  0.29090940542E+02  0.10566000000E+00 0. -1.
        994    1    1    2    0    0 -0.69090734442E+01  0.13293574184E+02  0.73874414427E+01  0.17201298992E+03  0.17120000000E+03 0.  0.
        998    1    1    2    0    0 -0.11014183999E+02 -0.96595759698E+01  0.14699890591E+04  0.14700960695E+04  0.10000000000E+02 0. -1.
</event>
<event>
 5    1  0.1757379E-008  0.3804178E+03  0.7957747E-01  0.3449341E+00
         13   -1    0    0    0    0  0.00000000000E+00  0.00000000000E+00  0.14999999963E+04  0.15000000000E+04  0.10566000000E+00 0.  1.
        994   -1    0    0    0    0 -0.00000000000E+00 -0.00000000000E+00  0.11368683772E-12  0.17120000000E+03  0.17120000000E+03 0.  0.
         13    1    1    2    0    0  0.89608373335E+01 -0.29363799689E+02  0.11982460585E+03  0.12369509557E+03  0.10566000000E+00 0.  1.
        994    1    1    2    0    0 -0.19249546311E+01  0.17135571559E+02  0.49155891095E+01  0.17213638860E+03  0.17120000000E+03 0.  0.
        998    1    1    2    0    0 -0.70358827025E+01  0.12228228130E+02  0.13752598013E+04  0.13753685158E+04  0.10000000000E+02 0.  1.
</event>
<event>
 5    1  0.1757379E-008  0.3770863E+03  0.7957747E-01  0.3463944E+00
         13   -1    0    0    0    0  0.00000000000E+00  0.00000000000E+00  0.14999999963E+04  0.15000000000E+04  0.10566000000E+00 0. -1.
        994   -1    0    0    0    0 -0.00000000000E+00 -0.00000000000E+00  0.11368683772E-12  0.17120000000E+03  0.17120000000E+03 0.  0.
         13    1    1    2    0    0  0.65990529929E+02 -0.75776741348E+02  0.49174974691E+03  0.50191103726E+03  0.10566000000E+00 0. -1.
        994    1    1    2    0    0 -0.88862699448E+02  0.77587877229E+02  0.54128487843E+02  0.21483898911E+03  0.17120000000E+03 0.  0.
        998    1    1    2    0    0  0.22872169519E+02 -0.18111358810E+01  0.95412176152E+03  0.95444997363E+03  0.10000000000E+02 0. -1.
</event>
<event>
 5    1  0.1757379E-008  0.3838981E+03  0.7957747E-01  0.3434359E+00
         13   -1    0    0    0    0  0.00000000000E+00  0.00000000000E+00  0.14999999963E+04  0.15000000000E+04  0.10566000000E+00 0. -1.
        994   -1    0    0    0    0 -0.00000000000E+00 -0.00000000000E+00  0.11368683772E-12  0.17120000000E+03  0.17120000000E+03 0.  0.
         13    1    1    2    0    0 -0.19194705473E+02  0.45133940301E+02  0.27950497252E+03  0.28377552768E+03  0.10566000000E+00 0. -1.
        994    1    1    2    0    0  0.43168957085E+02 -0.82100135524E+02  0.31112000615E+02  0.19718363951E+03  0.17120000000E+03 0.  0.
        998    1    1    2    0    0 -0.23974251613E+02  0.36966195223E+02  0.11893830231E+04  0.11902408328E+04  0.10000000000E+02 0. -1.
</event>
<event>
 5    1  0.1757379E-008  0.3822638E+03  0.7957747E-01  0.3441360E+00
         13   -1    0    0    0    0  0.00000000000E+00  0.00000000000E+00  0.14999999963E+04  0.15000000000E+04  0.10566000000E+00 0. -1.
        994   -1    0    0    0    0 -0.00000000000E+00 -0.00000000000E+00  0.11368683772E-12  0.17120000000E+03  0.17120000000E+03 0.  0.
         13    1    1    2    0    0  0.55842638346E+02  0.31374137150E+02  0.10121661194E+03  0.11978126079E+03  0.10566000000E+00 0. -1.
        994    1    1    2    0    0 -0.63174809868E+02 -0.33776715834E+02  0.36577263140E+02  0.18915406238E+03  0.17120000000E+03 0.  0.
        998    1    1    2    0    0  0.73321715215E+01  0.24025786831E+01  0.13622061212E+04  0.13622646768E+04  0.10000000000E+02 0. -1.
</event>
<event>
 5    1  0.1757379E-008  0.3688291E+03  0.7957747E-01  0.3501290E+00
         13   -1    0    0    0    0  0.00000000000E+00  0.00000000000E+00  0.14999999963E+04  0.15000000000E+04  0.10566000000E+00 0. -1.
        994   -1    0    0    0    0 -0.00000000000E+00 -0.00000000000E+00  0.11368683772E-12  0.17120000000E+03  0.17120000000E+03 0.  0.
         13    1    1    2    0    0 -0.17544537730E+02 -0.42934824917E+01  0.11109325213E+02  0.21205496146E+02  0.10566000000E+00 0. -1.
        994    1    1    2    0    0  0.16901081704E+02  0.79406118592E+01  0.11535981884E+02  0.17260132896E+03  0.17120000000E+03 0.  0.
        998    1    1    2    0    0  0.64345602615E+00 -0.36471293675E+01  0.14773546892E+04  0.14773931749E+04  0.10000000000E+02 0. -1.
</event>
<event>
 5    1  0.1757379E-008  0.3718594E+03  0.7957747E-01  0.3487389E+00
         13   -1    0    0    0    0  0.00000000000E+00  0.00000000000E+00  0.14999999963E+04  0.15000000000E+04  0.10566000000E+00 0.  1.
        994   -1    0    0    0    0 -0.00000000000E+00 -0.00000000000E+00  0.11368683772E-12  0.17120000000E+03  0.17120000000E+03 0.  0.
         13    1    1    2    0    0 -0.50277503321E+02 -0.11108975058E+03  0.40898680653E+03  0.42677743509E+03  0.10566000000E+00 0.  1.
        994    1    1    2    0    0  0.38627868571E+02  0.12552077010E+03  0.75362158285E+02  0.22855299354E+03  0.17120000000E+03 0.  0.
        998    1    1    2    0    0  0.11649634750E+02 -0.14431019519E+02  0.10156510315E+04  0.10158695714E+04  0.10000000000E+02 0.  1.
</event>
<event>
 5    1  0.1757379E-008  0.3844685E+03  0.7957747E-01  0.3431929E+00
         13   -1    0    0    0    0  0.00000000000E+00  0.00000000000E+00  0.14999999963E+04  0.15000000000E+04  0.10566000000E+00 0.  1.
        994   -1    0    0    0    0 -0.00000000000E+00 -0.00000000000E+00  0.11368683772E-12  0.17120000000E+03  0.17120000000E+03 0.  0.
         13    1    1    2    0    0 -0.47883478243E+01  0.16023613628E+02  0.70443617589E+02  0.72401649785E+02  0.10566000000E+00 0.  1.
        994    1    1    2    0    0 -0.33212172314E+01 -0.19915619191E+02  0.32383520463E+01  0.17241690548E+03  0.17120000000E+03 0.  0.
        998    1    1    2    0    0  0.81095650557E+01  0.38920055640E+01  0.14263180266E+04  0.14263814447E+04  0.10000000000E+02 0.  1.
</event>
<event>
 5    1  0.1757379E-008  0.3806561E+03  0.7957747E-01  0.3448307E+00
         13   -1    0    0    0    0  0.00000000000E+00  0.00000000000E+00  0.14999999963E+04  0.15000000000E+04  0.10566000000E+00 0. -1.
        994   -1    0    0    0    0 -0.00000000000E+00 -0.00000000000E+00  0.11368683772E-12  0.17120000000E+03  0.17120000000E+03 0.  0.
         13    1    1    2    0    0 -0.16771734838E+02 -0.13728582780E+02  0.61083832921E+02  0.64815205646E+02  0.10566000000E+00 0. -1.
        994    1    1    2    0    0  0.13390607400E+02  0.15167407370E+01  0.44083379761E+01  0.17178615286E+03  0.17120000000E+03 0.  0.
        998    1    1    2    0    0  0.33811274372E+01  0.12211842043E+02  0.14345078254E+04  0.14345986415E+04  0.10000000000E+02 0. -1.
</event>
<event>
 5    1  0.1757379E-008  0.3693658E+03  0.7957747E-01  0.3498811E+00
         13   -1    0    0    0    0  0.00000000000E+00  0.00000000000E+00  0.14999999963E+04  0.15000000000E+04  0.10566000000E+00 0. -1.
        994   -1    0    0    0    0 -0.00000000000E+00 -0.00000000000E+00  0.11368683772E-12  0.17120000000E+03  0.17120000000E+03 0.  0.
         13    1    1    2    0    0  0.10857981095E+03 -0.30685599199E+01  0.42946733609E+03  0.44299119104E+03  0.10566000000E+00 0. -1.
        994    1    1    2    0    0 -0.10791421487E+03 -0.20692437982E+01  0.51128238895E+02  0.20874217675E+03  0.17120000000E+03 0.  0.
        998    1    1    2    0    0 -0.66559607901E+00  0.51378037181E+01  0.10194044213E+04  0.10194666322E+04  0.10000000000E+02 0.  0.
</event>
<event>
 5    1  0.1956950E-008  0.3863101E+03  0.7957747E-01  0.3424135E+00
         13   -1    0    0    0    0  0.00000000000E+00  0.00000000000E+00  0.14999999963E+04  0.15000000000E+04  0.10566000000E+00 0.  1.
        994   -1    0    0    0    0 -0.00000000000E+00 -0.00000000000E+00  0.11368683772E-12  0.17120000000E+03  0.17120000000E+03 0.  0.
         13    1    1    2    0    0  0.48303638962E+01  0.10338041947E+02  0.68088440798E+02  0.69038065304E+02  0.10566000000E+00 0.  1.
        994    1    1    2    0    0  0.27033714124E+01 -0.85882594810E+01  0.12466026519E+01  0.17144112819E+03  0.17120000000E+03 0.  0.
        998    1    1    2    0    0 -0.75337353085E+01 -0.17497824658E+01  0.14306649528E+04  0.14307208065E+04  0.10000000000E+02 0.  1.
</event>
<event>
 5    1  0.1757379E-008  0.3788796E+03  0.7957747E-01  0.3456052E+00
         13   -1    0    0    0    0  0.00000000000E+00  0.00000000000E+00  0.14999999963E+04  0.15000000000E+04  0.10566000000E+00 0. -1.
        994   -1    0    0    0    0 -0.00000000000E+00 -0.00000000000E+00  0.11368683772E-12  0.17120000000E+03  0.17120000000E+03 0.  0.
         13    1    1    2    0    0  0.94674356242E+01  0.39331054179E+01  0.93377676731E+01  0.13867470017E+02  0.10566000000E+00 0. -1.
        994    1    1    2    0    0  0.22468143284E+01  0.86319052316E+01  0.49667928931E+01  0.17150413113E+03  0.17120000000E+03 0.  0.
        998    1    1    2    0    0 -0.11714249953E+02 -0.12565010649E+02  0.14856954357E+04  0.14858283989E+04  0.10000000000E+02 0. -1.
</event>
<event>
 5    1  0.1757379E-008  0.4052763E+03  0.7957747E-01  0.3347981E+00
         13   -1    0    0    0    0  0.00000000000E+00  0.00000000000E+00  0.14999999963E+04  0.15000000000E+04  0.10566000000E+00 0.  1.
        994   -1    0    0    0    0 -0.00000000000E+00 -0.00000000000E+00  0.11368683772E-12  0.17120000000E+03  0.17120000000E+03 0.  0.
         13    1    1    2    0    0 -0.25208834664E+02  0.10767803297E+03  0.21470349536E+03  0.24151117203E+03  0.10566000000E+00 0.  1.
        994    1    1    2    0    0 -0.10260334551E+02 -0.43329026623E+02  0.38943455255E+02  0.18113175238E+03  0.17120000000E+03 0.  0.
        998    1    1    2    0    0  0.35469169215E+02 -0.64349006345E+02  0.12463530457E+04  0.12485570756E+04  0.10000000000E+02 0. -1.
</event>
<event>
 5    1  0.1757379E-008  0.3857898E+03  0.7957747E-01  0.3426329E+00
         13   -1    0    0    0    0  0.00000000000E+00  0.00000000000E+00  0.14999999963E+04  0.15000000000E+04  0.10566000000E+00 0. -1.
        994   -1    0    0    0    0 -0.00000000000E+00 -0.00000000000E+00  0.11368683772E-12  0.17120000000E+03  0.17120000000E+03 0.  0.
         13    1    1    2    0    0 -0.91591547512E+01 -0.10816349353E+02  0.83890009823E+02  0.85078954162E+02  0.10566000000E+00 0. -1.
        994    1    1    2    0    0  0.82748711468E+01  0.11622399843E+01  0.14675893369E+01  0.17141008755E+03  0.17120000000E+03 0.  0.
        998    1    1    2    0    0  0.88428360442E+00  0.96541093684E+01  0.14146423971E+04  0.14147109583E+04  0.10000000000E+02 0. -1.
</event>
<event>
 5    1  0.1757379E-008  0.3764382E+03  0.7957747E-01  0.3466815E+00
         13   -1    0    0    0    0  0.00000000000E+00  0.00000000000E+00  0.14999999963E+04  0.15000000000E+04  0.10566000000E+00 0. -1.
        994   -1    0    0    0    0 -0.00000000000E+00 -0.00000000000E+00  0.11368683772E-12  0.17120000000E+03  0.17120000000E+03 0.  0.
         13    1    1    2    0    0  0.36839424164E+02  0.98736721636E+01  0.14005178433E+03  0.14515214787E+03  0.10566000000E+00 0. -1.
        994    1    1    2    0    0  0.53181908737E+01  0.26232922234E+01  0.60609751184E+01  0.17140986038E+03  0.17120000000E+03 0.  0.
        998    1    1    2    0    0 -0.42157615038E+02 -0.12496964387E+02  0.13538872368E+04  0.13546379917E+04  0.10000000000E+02 0. -1.
</event>
<event>
 5    1  0.1757379E-008  0.3789064E+03  0.7957747E-01  0.3455934E+00
         13   -1    0    0    0    0  0.00000000000E+00  0.00000000000E+00  0.14999999963E+04  0.15000000000E+04  0.10566000000E+00 0.  1.
        994   -1    0    0    0    0 -0.00000000000E+00 -0.00000000000E+00  0.11368683772E-12  0.17120000000E+03  0.17120000000E+03 0.  0.
         13    1    1    2    0    0 -0.67987736122E+01  0.43973544462E+02  0.23915268412E+03  0.24325688772E+03  0.10566000000E+00 0.  1.
        994    1    1    2    0    0  0.66759723872E+01 -0.79916975618E+01  0.50501177591E+01  0.17159073264E+03  0.17120000000E+03 0.  0.
        998    1    1    2    0    0  0.12280122502E+00 -0.35981846900E+02  0.12557971944E+04  0.12563523796E+04  0.10000000000E+02 0.  1.
</event>
<event>
 5    1  0.1757379E-008  0.3800186E+03  0.7957747E-01  0.3451078E+00
         13   -1    0    0    0    0  0.00000000000E+00  0.00000000000E+00  0.14999999963E+04  0.15000000000E+04  0.10566000000E+00 0.  1.
        994   -1    0    0    0    0 -0.00000000000E+00 -0.00000000000E+00  0.11368683772E-12  0.17120000000E+03  0.17120000000E+03 0.  0.
         13    1    1    2    0    0 -0.15467144018E+02  0.61344619059E+01  0.31665108160E+02  0.35770859730E+02  0.10566000000E+00 0.  1.
        994    1    1    2    0    0  0.14436466573E+02 -0.18176017942E+01  0.48317814850E+01  0.17188514001E+03  0.17120000000E+03 0.  0.
        998    1    1    2    0    0  0.10306774459E+01 -0.43168601116E+01  0.14635031066E+04  0.14635440003E+04  0.10000000000E+02 0.  1.
</event>
<event>
 5    1  0.1757379E-008  0.3814555E+03  0.7957747E-01  0.3444845E+00
         13   -1    0    0    0    0  0.00000000000E+00  0.00000000000E+00  0.14999999963E+04  0.15000000000E+04  0.10566000000E+00 0. -1.
        994   -1    0    0    0    0 -0.00000000000E+00 -0.00000000000E+00  0.11368683772E-12  0.17120000000E+03  0.17120000000E+03 0.  0.
         13    1    1    2    0    0 -0.11088244408E+03 -0.60025740443E+02  0.33941852927E+03  0.36208142053E+03  0.10566000000E+00 0. -1.
        994    1    1    2    0    0  0.11436141658E+03  0.58473918313E+02  0.80007328255E+02  0.22849145564E+03  0.17120000000E+03 0.  0.
        998    1    1    2    0    0 -0.34789725005E+01  0.15518221297E+01  0.10805741388E+04  0.10806271238E+04  0.10000000000E+02 0. -1.
</event>
<event>
 5    1  0.1757379E-008  0.3783921E+03  0.7957747E-01  0.3458190E+00
         13   -1    0    0    0    0  0.00000000000E+00  0.00000000000E+00  0.14999999963E+04  0.15000000000E+04  0.10566000000E+00 0. -1.
        994   -1    0    0    0    0 -0.00000000000E+00 -0.00000000000E+00  0.11368683772E-12  0.17120000000E+03  0.17120000000E+03 0.  0.
         13    1    1    2    0    0  0.44454327280E+02 -0.31615433266E+02  0.28868121177E+03  0.29379002030E+03  0.10566000000E+00 0. -1.
        994    1    1    2    0    0 -0.13307601052E+02  0.44615052740E+02  0.12266633651E+02  0.17784123672E+03  0.17120000000E+03 0.  0.
        998    1    1    2    0    0 -0.31146726228E+02 -0.12999619473E+02  0.11990521509E+04  0.11995687430E+04  0.10000000000E+02 0. -1.
</event>
<event>
 5    1  0.1757379E-008  0.3819410E+03  0.7957747E-01  0.3442750E+00
         13   -1    0    0    0    0  0.00000000000E+00  0.00000000000E+00  0.14999999963E+04  0.15000000000E+04  0.10566000000E+00 0. -1.
        994   -1    0    0    0    0 -0.00000000000E+00 -0.00000000000E+00  0.11368683772E-12  0.17120000000E+03  0.17120000000E+03 0.  0.
         13    1    1    2    0    0 -0.23818369151E+02  0.15650349618E+02  0.12488513765E+03  0.12809588956E+03  0.10566000000E+00 0. -1.
        994    1    1    2    0    0  0.16173459233E+02 -0.12724585931E+02  0.45644855959E+01  0.17249281260E+03  0.17120000000E+03 0.  0.
        998    1    1    2    0    0  0.76449099186E+01 -0.29257636872E+01  0.13705503730E+04  0.13706112978E+04  0.10000000000E+02 0. -1.
</event>
<event>
 5    1  0.1757379E-008  0.3837481E+03  0.7957747E-01  0.3434999E+00
         13   -1    0    0    0    0  0.00000000000E+00  0.00000000000E+00  0.14999999963E+04  0.15000000000E+04  0.10566000000E+00 0.  1.
        994   -1    0    0    0    0 -0.00000000000E+00 -0.00000000000E+00  0.11368683772E-12  0.17120000000E+03  0.17120000000E+03 0.  0.
         13    1    1    2    0    0 -0.80720786617E+01 -0.17454914597E+02  0.79485273909E+02  0.81778679556E+02  0.10566000000E+00 0.  1.
        994    1    1    2    0    0 -0.18767703602E+01  0.19246815745E+02  0.34887805221E+01  0.17232403713E+03  0.17120000000E+03 0.  0.
        998    1    1    2    0    0  0.99488490219E+01 -0.17919011479E+01  0.14170259418E+04  0.14170972833E+04  0.10000000000E+02 0.  1.
</event>
<event>
 5    1  0.1757379E-008  0.3700612E+03  0.7957747E-01  0.3495610E+00
         13   -1    0    0    0    0  0.00000000000E+00  0.00000000000E+00  0.14999999963E+04  0.15000000000E+04  0.10566000000E+00 0. -1.
        994   -1    0    0    0    0 -0.00000000000E+00 -0.00000000000E+00  0.11368683772E-12  0.17120000000E+03  0.17120000000E+03 0.  0.
         13    1    1    2    0    0 -0.28039753046E+02 -0.18418244098E+02  0.55770022888E+02  0.65082763336E+02  0.10566000000E+00 0. -1.
        994    1    1    2    0    0  0.21646492101E+02  0.25056514146E+02  0.13036704107E+02  0.17485935827E+03  0.17120000000E+03 0.  0.
        998    1    1    2    0    0  0.63932609450E+01 -0.66382700482E+01  0.14311932693E+04  0.14312578784E+04  0.10000000000E+02 0. -1.
</event>
<event>
 5    1  0.1757379E-008  0.3685153E+03  0.7957747E-01  0.3502742E+00
         13   -1    0    0    0    0  0.00000000000E+00  0.00000000000E+00  0.14999999963E+04  0.15000000000E+04  0.10566000000E+00 0.  1.
        994   -1    0    0    0    0 -0.00000000000E+00 -0.00000000000E+00  0.11368683772E-12  0.17120000000E+03  0.17120000000E+03 0.  0.
         13    1    1    2    0    0  0.34106300488E+02 -0.25470593602E+02  0.10340532619E+03  0.11182425283E+03  0.10566000000E+00 0.  1.
        994    1    1    2    0    0  0.43842926440E+02  0.18986935400E+02  0.18137339017E+02  0.17866479503E+03  0.17120000000E+03 0.  0.
        998    1    1    2    0    0 -0.77949226928E+02  0.64836582021E+01  0.13784573311E+04  0.13807109521E+04  0.10000000000E+02 0.  1.
</event>
<event>
 5    1  0.2555212E-008  0.3866177E+03  0.7957747E-01  0.3422840E+00
         13   -1    0    0    0    0  0.00000000000E+00  0.00000000000E+00  0.14999999963E+04  0.15000000000E+04  0.10566000000E+00 0.  1.
        994   -1    0    0    0    0 -0.00000000000E+00 -0.00000000000E+00  0.11368683772E-12  0.17120000000E+03  0.17120000000E+03 0.  0.
         13    1    1    2    0    0 -0.69008560819E+01  0.80334207176E+01  0.63109892532E+02  0.63992400819E+02  0.10566000000E+00 0.  1.
        994    1    1    2    0    0  0.25839087499E+02 -0.24772983419E+01  0.30364987978E+01  0.17318330109E+03  0.17120000000E+03 0.  0.
        998    1    1    2    0    0 -0.18938231418E+02 -0.55561223757E+01  0.14338536049E+04  0.14340242981E+04  0.10000000000E+02 0.  1.
</event>
<event>
 5    1  0.1757379E-008  0.3686475E+03  0.7957747E-01  0.3502130E+00
         13   -1    0    0    0    0  0.00000000000E+00  0.00000000000E+00  0.14999999963E+04  0.15000000000E+04  0.10566000000E+00 0.  1.
        994   -1    0    0    0    0 -0.00000000000E+00 -0.00000000000E+00  0.11368683772E-12  0.17120000000E+03  0.17120000000E+03 0.  0.
         13    1    1    2    0    0 -0.19035768325E+02 -0.18588846807E+02  0.30602783129E+02  0.40551784185E+02  0.10566000000E+00 0.  1.
        994    1    1    2    0    0  0.18934142927E+02  0.21974717593E+02  0.12906188990E+02  0.17411892400E+03  0.17120000000E+03 0.  0.
        998    1    1    2    0    0  0.10162539785E+00 -0.33858707863E+01  0.14564910242E+04  0.14565292918E+04  0.10000000000E+02 0.  1.
</event>
<event>
 5    1  0.1757379E-008  0.3762867E+03  0.7957747E-01  0.3467488E+00
         13   -1    0    0    0    0  0.00000000000E+00  0.00000000000E+00  0.14999999963E+04  0.15000000000E+04  0.10566000000E+00 0. -1.
        994   -1    0    0    0    0 -0.00000000000E+00 -0.00000000000E+00  0.11368683772E-12  0.17120000000E+03  0.17120000000E+03 0.  0.
         13    1    1    2    0    0  0.96207490221E+01  0.10570974963E+02  0.14158797874E+02  0.20119320184E+02  0.10566000000E+00 0. -1.
        994    1    1    2    0    0 -0.11042814429E+02 -0.10607962566E+02  0.68134240702E+01  0.17201841578E+03  0.17120000000E+03 0.  0.
        998    1    1    2    0    0  0.14220654069E+01  0.36987603167E-01  0.14790277743E+04  0.14790622640E+04  0.10000000000E+02 0. -1.
</event>
<event>
 5    1  0.1757379E-008  0.3771671E+03  0.7957747E-01  0.3463587E+00
         13   -1    0    0    0    0  0.00000000000E+00  0.00000000000E+00  0.14999999963E+04  0.15000000000E+04  0.10566000000E+00 0. -1.
        994   -1    0    0    0    0 -0.00000000000E+00 -0.00000000000E+00  0.11368683772E-12  0.17120000000E+03  0.17120000000E+03 0.  0.
         13    1    1    2    0    0  0.18644342169E+02  0.14001872727E+02  0.45298010648E+02  0.50946882805E+02  0.10566000000E+00 0. -1.
        994    1    1    2    0    0 -0.17645799833E+02 -0.16957349158E+02  0.75937761680E+01  0.17310699402E+03  0.17120000000E+03 0.  0.
        998    1    1    2    0    0 -0.99854233630E+00  0.29554764305E+01  0.14471082095E+04  0.14471461232E+04  0.10000000000E+02 0. -1.
</event>
<event>
 5    1  0.1757379E-008  0.3893462E+03  0.7957747E-01  0.3411446E+00
         13   -1    0    0    0    0  0.00000000000E+00  0.00000000000E+00  0.14999999963E+04  0.15000000000E+04  0.10566000000E+00 0. -1.
        994   -1    0    0    0    0 -0.00000000000E+00 -0.00000000000E+00  0.11368683772E-12  0.17120000000E+03  0.17120000000E+03 0.  0.
         13    1    1    2    0    0 -0.70776312718E+02 -0.85346308076E+02  0.45014451517E+03  0.46359828995E+03  0.10566000000E+00 0. -1.
        994    1    1    2    0    0  0.20730239201E+02 -0.24666508672E+02  0.25464375188E+02  0.17605696201E+03  0.17120000000E+03 0.  0.
        998    1    1    2    0    0  0.50046073516E+02  0.11001281675E+03  0.10243911059E+04  0.10315447480E+04  0.10000000000E+02 0. -1.
</event>
<event>
 5    1  0.1757379E-008  0.3823712E+03  0.7957747E-01  0.3440898E+00
         13   -1    0    0    0    0  0.00000000000E+00  0.00000000000E+00  0.14999999963E+04  0.15000000000E+04  0.10566000000E+00 0.  1.
        994   -1    0    0    0    0 -0.00000000000E+00 -0.00000000000E+00  0.11368683772E-12  0.17120000000E+03  0.17120000000E+03 0.  0.
         13    1    1    2    0    0  0.15141554999E+02  0.31439115659E+01  0.41181929559E+02  0.43989923323E+02  0.10566000000E+00 0.  1.
        994    1    1    2    0    0  0.43972192748E-01 -0.43186627351E+01  0.30027958399E+01  0.17128079158E+03  0.17120000000E+03 0.  0.
        998    1    1    2    0    0 -0.15185527192E+02  0.11747511692E+01  0.14558152709E+04  0.14559292851E+04  0.10000000000E+02 0.  1.
</event>
<event>
 5    1  0.1757379E-008  0.3755707E+03  0.7957747E-01  0.3470674E+00
         13   -1    0    0    0    0  0.00000000000E+00  0.00000000000E+00  0.14999999963E+04  0.15000000000E+04  0.10566000000E+00 0. -1.
        994   -1    0    0    0    0 -0.00000000000E+00 -0.00000000000E+00  0.11368683772E-12  0.17120000000E+03  0.17120000000E+03 0.  0.
         13    1    1    2    0    0  0.36613319191E+02  0.57625909931E+02  0.27576907614E+03  0.28409483479E+03  0.10566000000E+00 0. -1.
        994    1    1    2    0    0 -0.19273316098E+02 -0.81196058468E+02  0.30392451727E+02  0.19286627944E+03  0.17120000000E+03 0.  0.
        998    1    1    2    0    0 -0.17340003092E+02  0.23570148537E+02  0.11938384684E+04  0.11942388858E+04  0.10000000000E+02 0. -1.
</event>
<event>
 5    1  0.1757379E-008  0.3782633E+03  0.7957747E-01  0.3458756E+00
         13   -1    0    0    0    0  0.00000000000E+00  0.00000000000E+00  0.14999999963E+04  0.15000000000E+04  0.10566000000E+00 0.  1.
        994   -1    0    0    0    0 -0.00000000000E+00 -0.00000000000E+00  0.11368683772E-12  0.17120000000E+03  0.17120000000E+03 0.  0.
         13    1    1    2    0    0 -0.62847651589E+02 -0.24262928102E+02  0.27534462202E+03  0.28346638077E+03  0.10566000000E+00 0.  1.
        994    1    1    2    0    0  0.10276112403E+03  0.22017196113E+02  0.43093526683E+02  0.20545339515E+03  0.17120000000E+03 0.  0.
        998    1    1    2    0    0 -0.39913472439E+02  0.22457319897E+01  0.11815618476E+04  0.11822802241E+04  0.10000000000E+02 0.  1.
</event>
<event>
 5    1  0.1757379E-008  0.3835852E+03  0.7957747E-01  0.3435695E+00
         13   -1    0    0    0    0  0.00000000000E+00  0.00000000000E+00  0.14999999963E+04  0.15000000000E+04  0.10566000000E+00 0.  1.
        994   -1    0    0    0    0 -0.00000000000E+00 -0.00000000000E+00  0.11368683772E-12  0.17120000000E+03  0.17120000000E+03 0.  0.
         13    1    1    2    0    0  0.15291307208E+02  0.94472359116E+01  0.68453698406E+02  0.70774249074E+02  0.10566000000E+00 0.  1.
        994    1    1    2    0    0 -0.85213055903E+01 -0.92155858772E+01  0.28548269392E+01  0.17168322489E+03  0.17120000000E+03 0.  0.
        998    1    1    2    0    0 -0.67700016175E+01 -0.23165003440E+00  0.14286914709E+04  0.14287425260E+04  0.10000000000E+02 0.  1.
</event>
<event>
 5    1  0.1757379E-008  0.3806734E+03  0.7957747E-01  0.3448231E+00
         13   -1    0    0    0    0  0.00000000000E+00  0.00000000000E+00  0.14999999963E+04  0.15000000000E+04  0.10566000000E+00 0. -1.
        994   -1    0    0    0    0 -0.00000000000E+00 -0.00000000000E+00  0.11368683772E-12  0.17120000000E+03  0.17120000000E+03 0.  0.
         13    1    1    2    0    0 -0.18090755157E+03 -0.35874129833E+02  0.10855292013E+04  0.11010849892E+04  0.10566000000E+00 0. -1.
        994    1    1    2    0    0  0.17687158619E+03  0.34407592909E+02  0.12099171700E+03  0.27643421647E+03  0.17120000000E+03 0.  0.
        998    1    1    2    0    0  0.40359653799E+01  0.14665369235E+01  0.29347907797E+03  0.29368079432E+03  0.10000000000E+02 0.  0.
</event>
<event>
 5    1  0.1757379E-008  0.3750911E+03  0.7957747E-01  0.3472815E+00
         13   -1    0    0    0    0  0.00000000000E+00  0.00000000000E+00  0.14999999963E+04  0.15000000000E+04  0.10566000000E+00 0.  1.
        994   -1    0    0    0    0 -0.00000000000E+00 -0.00000000000E+00  0.11368683772E-12  0.17120000000E+03  0.17120000000E+03 0.  0.
         13    1    1    2    0    0  0.17175544099E+02  0.47901524607E+02  0.20153085420E+03  0.20785632474E+03  0.10566000000E+00 0.  1.
        994    1    1    2    0    0 -0.25602182508E+02 -0.15028209750E+02  0.96326382171E+01  0.17402168416E+03  0.17120000000E+03 0.  0.
        998    1    1    2    0    0  0.84266384090E+01 -0.32873314857E+02  0.12888365039E+04  0.12893219911E+04  0.10000000000E+02 0.  1.
</event>
<event>
 5    1  0.1757379E-008  0.3840609E+03  0.7957747E-01  0.3433665E+00
         13   -1    0    0    0    0  0.00000000000E+00  0.00000000000E+00  0.14999999963E+04  0.15000000000E+04  0.10566000000E+00 0. -1.
        994   -1    0    0    0    0 -0.00000000000E+00 -0.00000000000E+00  0.11368683772E-12  0.17120000000E+03  0.17120000000E+03 0.  0.
         13    1    1    2    0    0  0.51968855735E+01 -0.16187385467E+02  0.70395059226E+02  0.72419020950E+02  0.10566000000E+00 0. -1.
        994    1    1    2    0    0  0.37757380086E+01  0.79966347069E+01  0.23551136870E+01  0.17144441935E+03  0.17120000000E+03 0.  0.
        998    1    1    2    0    0 -0.89726235821E+01  0.81907507602E+01  0.14272498234E+04  0.14273365597E+04  0.10000000000E+02 0. -1.
</event>
<event>
 5    1  0.1757379E-008  0.3788642E+03  0.7957747E-01  0.3456119E+00
         13   -1    0    0    0    0  0.00000000000E+00  0.00000000000E+00  0.14999999963E+04  0.15000000000E+04  0.10566000000E+00 0.  1.
        994   -1    0    0    0    0 -0.00000000000E+00 -0.00000000000E+00  0.11368683772E-12  0.17120000000E+03  0.17120000000E+03 0.  0.
         13    1    1    2    0    0  0.10680953015E+02  0.21370188515E+02  0.62818891423E+02  0.67208570868E+02  0.10566000000E+00 0.  1.
        994    1    1    2    0    0  0.89918821792E+01 -0.32503525052E+01  0.50143943590E+01  0.17154009120E+03  0.17120000000E+03 0.  0.
        998    1    1    2    0    0 -0.19672835194E+02 -0.18119836009E+02  0.14321667105E+04  0.14324513379E+04  0.10000000000E+02 0.  1.
</event>
<event>
 5    1  0.1757379E-008  0.3765670E+03  0.7957747E-01  0.3466244E+00
         13   -1    0    0    0    0  0.00000000000E+00  0.00000000000E+00  0.14999999963E+04  0.15000000000E+04  0.10566000000E+00 0. -1.
        994   -1    0    0    0    0 -0.00000000000E+00 -0.00000000000E+00  0.11368683772E-12  0.17120000000E+03  0.17120000000E+03 0.  0.
         13    1    1    2    0    0  0.28157895046E+02  0.11281072611E+02  0.78530395923E+02  0.84185295037E+02  0.10566000000E+00 0. -1.
        994    1    1    2    0    0 -0.17701375122E+02  0.13647342010E+02  0.75673199462E+01  0.17281867074E+03  0.17120000000E+03 0.  0.
        998    1    1    2    0    0 -0.10456519923E+02 -0.24928414621E+02  0.14139022804E+04  0.14141960342E+04  0.10000000000E+02 0. -1.
</event>
<event>
 5    1  0.1757379E-008  0.3813362E+03  0.7957747E-01  0.3445361E+00
         13   -1    0    0    0    0  0.00000000000E+00  0.00000000000E+00  0.14999999963E+04  0.15000000000E+04  0.10566000000E+00 0.  1.
        994   -1    0    0    0    0 -0.00000000000E+00 -0.00000000000E+00  0.11368683772E-12  0.17120000000E+03  0.17120000000E+03 0.  0.
         13    1    1    2    0    0 -0.81226508750E+01 -0.20100732978E+02  0.68979247072E+02  0.72306048255E+02  0.10566000000E+00 0.  1.
        994    1    1    2    0    0  0.17311916572E+02  0.39677521347E+00  0.44587959546E+01  0.17213128927E+03  0.17120000000E+03 0.  0.
        998    1    1    2    0    0 -0.91892656973E+01  0.19703957764E+02  0.14265619533E+04  0.14267626625E+04  0.10000000000E+02 0.  1.
</event>
<event>
 5    1  0.1757379E-008  0.3849990E+03  0.7957747E-01  0.3429676E+00
         13   -1    0    0    0    0  0.00000000000E+00  0.00000000000E+00  0.14999999963E+04  0.15000000000E+04  0.10566000000E+00 0. -1.
        994   -1    0    0    0    0 -0.00000000000E+00 -0.00000000000E+00  0.11368683772E-12  0.17120000000E+03  0.17120000000E+03 0.  0.
         13    1    1    2    0    0 -0.91132977537E+01  0.10632934882E+02  0.58599426728E+02  0.60249609767E+02  0.10566000000E+00 0. -1.
        994    1    1    2    0    0  0.99702096587E+01 -0.93398322773E+01  0.22446466181E+01  0.17175888910E+03  0.17120000000E+03 0.  0.
        998    1    1    2    0    0 -0.85691190508E+00 -0.12931026050E+01  0.14391559229E+04  0.14391915011E+04  0.10000000000E+02 0. -1.
</event>
<event>
 5    1  0.1757379E-008  0.3841141E+03  0.7957747E-01  0.3433438E+00
         13   -1    0    0    0    0  0.00000000000E+00  0.00000000000E+00  0.14999999963E+04  0.15000000000E+04  0.10566000000E+00 0. -1.
        994   -1    0    0    0    0 -0.00000000000E+00 -0.00000000000E+00  0.11368683772E-12  0.17120000000E+03  0.17120000000E+03 0.  0.
         13    1    1    2    0    0  0.13039705785E+01 -0.15736017618E+02  0.55903503626E+02  0.58090752030E+02  0.10566000000E+00 0. -1.
        994    1    1    2    0    0 -0.11845336487E+02  0.22461461308E+02  0.42002359027E+01  0.17312397645E+03  0.17120000000E+03 0.  0.
        998    1    1    2    0    0  0.10541365909E+02 -0.67254436905E+01  0.14398962568E+04  0.14399852715E+04  0.10000000000E+02 0. -1.
</event>
<event>
 5    1  0.1757379E-008  0.3760843E+03  0.7957747E-01  0.3468388E+00
         13   -1    0    0    0    0  0.00000000000E+00  0.00000000000E+00  0.14999999963E+04  0.15000000000E+04  0.10566000000E+00 0. -1.
        994   -1    0    0    0    0 -0.00000000000E+00 -0.00000000000E+00  0.11368683772E-12  0.17120000000E+03  0.17120000000E+03 0.  0.
         13    1    1    2    0    0 -0.24264550100E+01  0.28296353027E+02  0.61822746057E+02  0.68034067736E+02  0.10566000000E+00 0. -1.
        994    1    1    2    0    0  0.45641212105E+01 -0.25699076736E+02  0.84337572521E+01  0.17338351135E+03  0.17120000000E+03 0.  0.
        998    1    1    2    0    0 -0.21376662004E+01 -0.25972762919E+01  0.14297434930E+04  0.14297824209E+04  0.10000000000E+02 0. -1.
</event>
<event>
 5    1  0.1757379E-008  0.3808605E+03  0.7957747E-01  0.3447420E+00
         13   -1    0    0    0    0  0.00000000000E+00  0.00000000000E+00  0.14999999963E+04  0.15000000000E+04  0.10566000000E+00 0. -1.
        994   -1    0    0    0    0 -0.00000000000E+00 -0.00000000000E+00  0.11368683772E-12  0.17120000000E+03  0.17120000000E+03 0.  0.
         13    1    1    2    0    0 -0.14611252035E+02 -0.22868359492E+02  0.91810804039E+02  0.95737586423E+02  0.10566000000E+00 0. -1.
        994    1    1    2    0    0  0.16932688390E+02  0.24655765726E+02  0.66872878476E+01  0.17392177132E+03  0.17120000000E+03 0.  0.
        998    1    1    2    0    0 -0.23214363556E+01 -0.17874062342E+01  0.14015019044E+04  0.14015406423E+04  0.10000000000E+02 0. -1.
</event>
<event>
 5    1  0.1757379E-008  0.3688679E+03  0.7957747E-01  0.3501110E+00
         13   -1    0    0    0    0  0.00000000000E+00  0.00000000000E+00  0.14999999963E+04  0.15000000000E+04  0.10566000000E+00 0.  1.
        994   -1    0    0    0    0 -0.00000000000E+00 -0.00000000000E+00  0.11368683772E-12  0.17120000000E+03  0.17120000000E+03 0.  0.
         13    1    1    2    0    0 -0.30811255875E+03 -0.58509464134E+02  0.82753830326E+03  0.88497251979E+03  0.10566000000E+00 0.  1.
        994    1    1    2    0    0  0.30606680205E+03  0.63507555455E+02  0.50343721674E+03  0.61682134214E+03  0.17120000000E+03 0.  0.
        998    1    1    2    0    0  0.20457566966E+01 -0.49980913209E+01  0.16902447627E+03  0.16940613807E+03  0.10000000000E+02 0.  0.
</event>
<event>
 5    1  0.1757379E-008  0.3897330E+03  0.7957747E-01  0.3409844E+00
         13   -1    0    0    0    0  0.00000000000E+00  0.00000000000E+00  0.14999999963E+04  0.15000000000E+04  0.10566000000E+00 0.  1.
        994   -1    0    0    0    0 -0.00000000000E+00 -0.00000000000E+00  0.11368683772E-12  0.17120000000E+03  0.17120000000E+03 0.  0.
         13    1    1    2    0    0 -0.14579407947E+02 -0.15856506107E+03  0.35776036328E+03  0.39159663741E+03  0.10566000000E+00 0.  1.
        994    1    1    2    0    0  0.10353520504E+02  0.17898588156E+03  0.15558145378E+03  0.29267417027E+03  0.17120000000E+03 0.  0.
        998    1    1    2    0    0  0.42258874428E+01 -0.20420820487E+02  0.98665817922E+03  0.98692919232E+03  0.10000000000E+02 0.  1.
</event>
<event>
 5    1  0.1757379E-008  0.3822001E+03  0.7957747E-01  0.3441635E+00
         13   -1    0    0    0    0  0.00000000000E+00  0.00000000000E+00  0.14999999963E+04  0.15000000000E+04  0.10566000000E+00 0. -1.
        994   -1    0    0    0    0 -0.00000000000E+00 -0.00000000000E+00  0.11368683772E-12  0.17120000000E+03  0.17120000000E+03 0.  0.
         13    1    1    2    0    0  0.76776998924E+01 -0.89210771251E+01  0.21561599945E+02  0.24565147037E+02  0.10566000000E+00 0. -1.
        994    1    1    2    0    0 -0.97203296224E+01  0.55789028616E+01  0.34436553199E+01  0.17160101319E+03  0.17120000000E+03 0.  0.
        998    1    1    2    0    0  0.20426297300E+01  0.33421742635E+01  0.14749947410E+04  0.14750338398E+04  0.10000000000E+02 0. -1.
</event>
<event>
 5    1  0.1757379E-008  0.3795366E+03  0.7957747E-01  0.3453179E+00
         13   -1    0    0    0    0  0.00000000000E+00  0.00000000000E+00  0.14999999963E+04  0.15000000000E+04  0.10566000000E+00 0.  1.
        994   -1    0    0    0    0 -0.00000000000E+00 -0.00000000000E+00  0.11368683772E-12  0.17120000000E+03  0.17120000000E+03 0.  0.
         13    1    1    2    0    0 -0.50299879597E+01 -0.19998181525E+02  0.47096924556E+02  0.51413612107E+02  0.10566000000E+00 0.  1.
        994    1    1    2    0    0 -0.26643304549E+01  0.14204736694E+02  0.50668955742E+01  0.17188364271E+03  0.17120000000E+03 0.  0.
        998    1    1    2    0    0  0.76943184146E+01  0.57934448312E+01  0.14478361761E+04  0.14479027452E+04  0.10000000000E+02 0.  1.
</event>
<event>
 5    1  0.1757379E-008  0.3850896E+03  0.7957747E-01  0.3429292E+00
         13   -1    0    0    0    0  0.00000000000E+00  0.00000000000E+00  0.14999999963E+04  0.15000000000E+04  0.10566000000E+00 0.  1.
        994   -1    0    0    0    0 -0.00000000000E+00 -0.00000000000E+00  0.11368683772E-12  0.17120000000E+03  0.17120000000E+03 0.  0.
         13    1    1    2    0    0 -0.11093597990E+02 -0.17850284821E+01  0.37665285419E+02  0.39305713742E+02  0.10566000000E+00 0.  1.
        994    1    1    2    0    0  0.17985511320E+02  0.39182862833E+01  0.27004171370E+01  0.17220790875E+03  0.17120000000E+03 0.  0.
        998    1    1    2    0    0 -0.68919133296E+01 -0.21332578012E+01  0.14596342937E+04  0.14596863775E+04  0.10000000000E+02 0.  1.
</event>
<event>
 5    1  0.1757379E-008  0.3812740E+03  0.7957747E-01  0.3445630E+00
         13   -1    0    0    0    0  0.00000000000E+00  0.00000000000E+00  0.14999999963E+04  0.15000000000E+04  0.10566000000E+00 0. -1.
        994   -1    0    0    0    0 -0.00000000000E+00 -0.00000000000E+00  0.11368683772E-12  0.17120000000E+03  0.17120000000E+03 0.  0.
         13    1    1    2    0    0  0.48515170596E+00  0.11138077047E+02  0.16311668763E+02  0.19757880310E+02  0.10566000000E+00 0. -1.
        994    1    1    2    0    0 -0.32650490500E+01 -0.86100174751E+01  0.37737546332E+01  0.17148899140E+03  0.17120000000E+03 0.  0.
        998    1    1    2    0    0  0.27798973440E+01 -0.25280595719E+01  0.14799145729E+04  0.14799531283E+04  0.10000000000E+02 0. -1.
</event>
<event>
 5    1  0.1757379E-008  0.3844773E+03  0.7957747E-01  0.3431892E+00
         13   -1    0    0    0    0  0.00000000000E+00  0.00000000000E+00  0.14999999963E+04  0.15000000000E+04  0.10566000000E+00 0.  1.
        994   -1    0    0    0    0 -0.00000000000E+00 -0.00000000000E+00  0.11368683772E-12  0.17120000000E+03  0.17120000000E+03 0.  0.
         13    1    1    2    0    0 -0.17915763837E+02  0.62804396085E+01  0.92023245067E+02  0.93961201101E+02  0.10566000000E+00 0.  1.
        994    1    1    2    0    0  0.11033652874E+02 -0.20456109051E+02  0.36714341365E+01  0.17280947116E+03  0.17120000000E+03 0.  0.
        998    1    1    2    0    0  0.68821109632E+01  0.14175669442E+02  0.14043053171E+04  0.14044293277E+04  0.10000000000E+02 0.  1.
</event>
<event>
 5    1  0.1757379E-008  0.3693235E+03  0.7957747E-01  0.3499006E+00
         13   -1    0    0    0    0  0.00000000000E+00  0.00000000000E+00  0.14999999963E+04  0.15000000000E+04  0.10566000000E+00 0. -1.
        994   -1    0    0    0    0 -0.00000000000E+00 -0.00000000000E+00  0.11368683772E-12  0.17120000000E+03  0.17120000000E+03 0.  0.
         13    1    1    2    0    0 -0.17649234025E+02 -0.62551716229E+02  0.25024065736E+03  0.25854324672E+03  0.10566000000E+00 0. -1.
        994    1    1    2    0    0  0.32812283095E+02  0.55939192378E+01  0.13472625767E+02  0.17492538266E+03  0.17120000000E+03 0.  0.
        998    1    1    2    0    0 -0.15163049070E+02  0.56957796991E+02  0.12362867132E+04  0.12377313706E+04  0.10000000000E+02 0. -1.
</event>
<event>
 5    1  0.1757379E-008  0.3793164E+03  0.7957747E-01  0.3454140E+00
         13   -1    0    0    0    0  0.00000000000E+00  0.00000000000E+00  0.14999999963E+04  0.15000000000E+04  0.10566000000E+00 0.  1.
        994   -1    0    0    0    0 -0.00000000000E+00 -0.00000000000E+00  0.11368683772E-12  0.17120000000E+03  0.17120000000E+03 0.  0.
         13    1    1    2    0    0  0.50884842510E+01  0.19699515093E+03  0.11203240944E+04  0.11375232173E+04  0.10566000000E+00 0.  1.
        994    1    1    2    0    0 -0.12400158431E+02 -0.18771814979E+03  0.13397735618E+03  0.28749128623E+03  0.17120000000E+03 0.  0.
        998    1    1    2    0    0  0.73116741797E+01 -0.92770011310E+01  0.24569854568E+03  0.24618549649E+03  0.10000000000E+02 0.  0.
</event>
<event>
 5    1  0.1757379E-008  0.3687553E+03  0.7957747E-01  0.3501631E+00
         13   -1    0    0    0    0  0.00000000000E+00  0.00000000000E+00  0.14999999963E+04  0.15000000000E+04  0.10566000000E+00 0.  1.
        994   -1    0    0    0    0 -0.00000000000E+00 -0.00000000000E+00  0.11368683772E-12  0.17120000000E+03  0.17120000000E+03 0.  0.
         13    1    1    2    0    0 -0.22004282480E+02 -0.11809594087E+02  0.26398866426E+02  0.36339596484E+02  0.10566000000E+00 0.  1.
        994    1    1    2    0    0  0.21372983583E+02 -0.14492572425E+02  0.12606778193E+02  0.17359495943E+03  0.17120000000E+03 0.  0.
        998    1    1    2    0    0  0.63129889720E+00  0.26302166512E+02  0.14609943517E+04  0.14612654441E+04  0.10000000000E+02 0.  1.
</event>
<event>
 5    1  0.1757379E-008  0.2582020E+03  0.7957747E-01  0.4248516E+00
         13   -1    0    0    0    0  0.00000000000E+00  0.00000000000E+00  0.14999999963E+04  0.15000000000E+04  0.10566000000E+00 0.  1.
        994   -1    0    0    0    0 -0.00000000000E+00 -0.00000000000E+00  0.11368683772E-12  0.17120000000E+03  0.17120000000E+03 0.  0.
         13    1    1    2    0    0  0.15103317510E+03 -0.59416782247E+02  0.14889330293E+03  0.22025122205E+03  0.10566000000E+00 0.  1.
        994    1    1    2    0    0 -0.23758760699E+03  0.24338928812E+02  0.40598921143E+03  0.50117555233E+03  0.17120000000E+03 0.  0.
        998    1    1    2    0    0  0.86554431896E+02  0.35077853434E+02  0.94511748192E+03  0.94977322562E+03  0.10000000000E+02 0.  1.
</event>
<event>
 5    1  0.1757379E-008  0.3849751E+03  0.7957747E-01  0.3429778E+00
         13   -1    0    0    0    0  0.00000000000E+00  0.00000000000E+00  0.14999999963E+04  0.15000000000E+04  0.10566000000E+00 0.  1.
        994   -1    0    0    0    0 -0.00000000000E+00 -0.00000000000E+00  0.11368683772E-12  0.17120000000E+03  0.17120000000E+03 0.  0.
         13    1    1    2    0    0  0.40661976045E+01  0.10986798417E+02  0.41040543456E+02  0.42679984461E+02  0.10566000000E+00 0.  1.
        994    1    1    2    0    0 -0.17275622765E+01 -0.10897532664E+02  0.20429823466E+01  0.17156734674E+03  0.17120000000E+03 0.  0.
        998    1    1    2    0    0 -0.23386353281E+01 -0.89265753435E-01  0.14569164705E+04  0.14569526688E+04  0.10000000000E+02 0.  1.
</event>
<event>
 5    1  0.1757379E-008  0.3711796E+03  0.7957747E-01  0.3490487E+00
         13   -1    0    0    0    0  0.00000000000E+00  0.00000000000E+00  0.14999999963E+04  0.15000000000E+04  0.10566000000E+00 0. -1.
        994   -1    0    0    0    0 -0.00000000000E+00 -0.00000000000E+00  0.11368683772E-12  0.17120000000E+03  0.17120000000E+03 0.  0.
         13    1    1    2    0    0 -0.35932805252E+02  0.10477482364E+02  0.74566694766E+02  0.83433490052E+02  0.10566000000E+00 0. -1.
        994    1    1    2    0    0  0.35263776713E+02 -0.88966959058E+01  0.13222342716E+02  0.17551910293E+03  0.17120000000E+03 0.  0.
        998    1    1    2    0    0  0.66902853847E+00 -0.15807864577E+01  0.14122109588E+04  0.14122474070E+04  0.10000000000E+02 0. -1.
</event>
<event>
 5    1  0.1757379E-008  0.3849486E+03  0.7957747E-01  0.3429890E+00
         13   -1    0    0    0    0  0.00000000000E+00  0.00000000000E+00  0.14999999963E+04  0.15000000000E+04  0.10566000000E+00 0.  1.
        994   -1    0    0    0    0 -0.00000000000E+00 -0.00000000000E+00  0.11368683772E-12  0.17120000000E+03  0.17120000000E+03 0.  0.
         13    1    1    2    0    0 -0.96327731624E+01 -0.10139988238E+02  0.60950833801E+02  0.62534990088E+02  0.10566000000E+00 0.  1.
        994    1    1    2    0    0  0.49623167180E+01  0.89654524708E+00  0.17393292282E+01  0.17128308045E+03  0.17120000000E+03 0.  0.
        998    1    1    2    0    0  0.46704564444E+01  0.92434429913E+01  0.14373098332E+04  0.14373819295E+04  0.10000000000E+02 0.  1.
</event>
<event>
 5    1  0.1757379E-008  0.3709968E+03  0.7957747E-01  0.3491322E+00
         13   -1    0    0    0    0  0.00000000000E+00  0.00000000000E+00  0.14999999963E+04  0.15000000000E+04  0.10566000000E+00 0.  1.
        994   -1    0    0    0    0 -0.00000000000E+00 -0.00000000000E+00  0.11368683772E-12  0.17120000000E+03  0.17120000000E+03 0.  0.
         13    1    1    2    0    0  0.11574690585E+01  0.26981057703E+02  0.37094807601E+02  0.45884127151E+02  0.10566000000E+00 0.  1.
        994    1    1    2    0    0  0.10178833030E+01 -0.29177626063E+02  0.11691723443E+02  0.17406466139E+03  0.17120000000E+03 0.  0.
        998    1    1    2    0    0 -0.21753523615E+01  0.21965683594E+01  0.14512134652E+04  0.14512512115E+04  0.10000000000E+02 0.  1.
</event>
<event>
 5    1  0.1757379E-008  0.3845776E+03  0.7957747E-01  0.3431466E+00
         13   -1    0    0    0    0  0.00000000000E+00  0.00000000000E+00  0.14999999963E+04  0.15000000000E+04  0.10566000000E+00 0.  1.
        994   -1    0    0    0    0 -0.00000000000E+00 -0.00000000000E+00  0.11368683772E-12  0.17120000000E+03  0.17120000000E+03 0.  0.
         13    1    1    2    0    0  0.96194533065E+01  0.63810381101E+01  0.35090508860E+02  0.36940580740E+02  0.10566000000E+00 0.  1.
        994    1    1    2    0    0 -0.13848707165E+02 -0.21732012289E+01  0.24873941121E+01  0.17179096782E+03  0.17120000000E+03 0.  0.
        998    1    1    2    0    0  0.42292538581E+01 -0.42078368812E+01  0.14624220933E+04  0.14624684514E+04  0.10000000000E+02 0.  1.
</event>
<event>
 5    1  0.1757379E-008  0.3788717E+03  0.7957747E-01  0.3456086E+00
         13   -1    0    0    0    0  0.00000000000E+00  0.00000000000E+00  0.14999999963E+04  0.15000000000E+04  0.10566000000E+00 0. -1.
        994   -1    0    0    0    0 -0.00000000000E+00 -0.00000000000E+00  0.11368683772E-12  0.17120000000E+03  0.17120000000E+03 0.  0.
         13    1    1    2    0    0  0.14828640736E+02 -0.15518970244E+02  0.45389233715E+02  0.50208771393E+02  0.10566000000E+00 0. -1.
        994    1    1    2    0    0 -0.16027117339E+02  0.19647508711E+02  0.68639360719E+01  0.17320348353E+03  0.17120000000E+03 0.  0.
        998    1    1    2    0    0  0.11984766031E+01 -0.41285384673E+01  0.14477468265E+04  0.14477877451E+04  0.10000000000E+02 0. -1.
</event>
<event>
 5    1  0.1757379E-008  0.3793682E+03  0.7957747E-01  0.3453914E+00
         13   -1    0    0    0    0  0.00000000000E+00  0.00000000000E+00  0.14999999963E+04  0.15000000000E+04  0.10566000000E+00 0.  1.
        994   -1    0    0    0    0 -0.00000000000E+00 -0.00000000000E+00  0.11368683772E-12  0.17120000000E+03  0.17120000000E+03 0.  0.
         13    1    1    2    0    0  0.46056442362E+00  0.24544311794E+02  0.69050345373E+02  0.73284355228E+02  0.10566000000E+00 0.  1.
        994    1    1    2    0    0 -0.13335737335E+02 -0.48238999837E+01  0.51263903235E+01  0.17186282838E+03  0.17120000000E+03 0.  0.
        998    1    1    2    0    0  0.12875172911E+02 -0.19720411811E+02  0.14258232606E+04  0.14260528164E+04  0.10000000000E+02 0.  1.
</event>
<event>
 5    1  0.1757379E-008  0.3845192E+03  0.7957747E-01  0.3431714E+00
         13   -1    0    0    0    0  0.00000000000E+00  0.00000000000E+00  0.14999999963E+04  0.15000000000E+04  0.10566000000E+00 0.  1.
        994   -1    0    0    0    0 -0.00000000000E+00 -0.00000000000E+00  0.11368683772E-12  0.17120000000E+03  0.17120000000E+03 0.  0.
         13    1    1    2    0    0  0.68823155046E+01  0.80192754072E+01  0.29009712866E+02  0.30874741284E+02  0.10566000000E+00 0.  1.
        994    1    1    2    0    0 -0.10642792083E+02 -0.52714934898E+01  0.23337948932E+01  0.17162734125E+03  0.17120000000E+03 0.  0.
        998    1    1    2    0    0  0.37604765787E+01 -0.27477819174E+01  0.14686564885E+04  0.14686979175E+04  0.10000000000E+02 0.  1.
</event>
<event>
 5    1  0.1757379E-008  0.3791322E+03  0.7957747E-01  0.3454946E+00
         13   -1    0    0    0    0  0.00000000000E+00  0.00000000000E+00  0.14999999963E+04  0.15000000000E+04  0.10566000000E+00 0.  1.
        994   -1    0    0    0    0 -0.00000000000E+00 -0.00000000000E+00  0.11368683772E-12  0.17120000000E+03  0.17120000000E+03 0.  0.
         13    1    1    2    0    0  0.48866216222E+02  0.26492626205E+02  0.28372222999E+03  0.28911603429E+03  0.10566000000E+00 0.  1.
        994    1    1    2    0    0 -0.49381877002E+02 -0.18007149268E+02  0.13890648246E+02  0.17962521346E+03  0.17120000000E+03 0.  0.
        998    1    1    2    0    0  0.51566078007E+00 -0.84854769371E+01  0.12023871180E+04  0.12024587523E+04  0.10000000000E+02 0.  1.
</event>
<event>
 5    1  0.1757379E-008  0.3816864E+03  0.7957747E-01  0.3443848E+00
         13   -1    0    0    0    0  0.00000000000E+00  0.00000000000E+00  0.14999999963E+04  0.15000000000E+04  0.10566000000E+00 0.  1.
        994   -1    0    0    0    0 -0.00000000000E+00 -0.00000000000E+00  0.11368683772E-12  0.17120000000E+03  0.17120000000E+03 0.  0.
         13    1    1    2    0    0 -0.16233635080E+01 -0.17568639343E+02  0.45079354865E+02  0.48409211898E+02  0.10566000000E+00 0. -1.
        994    1    1    2    0    0  0.22237058042E+01  0.17968844664E+02  0.43748489348E+01  0.17221034681E+03  0.17120000000E+03 0.  0.
        998    1    1    2    0    0 -0.60034229622E+00 -0.40020532104E+00  0.14505457925E+04  0.14505804413E+04  0.10000000000E+02 0.  1.
</event>
<event>
 5    1  0.1757379E-008  0.3831640E+03  0.7957747E-01  0.3437496E+00
         13   -1    0    0    0    0  0.00000000000E+00  0.00000000000E+00  0.14999999963E+04  0.15000000000E+04  0.10566000000E+00 0.  1.
        994   -1    0    0    0    0 -0.00000000000E+00 -0.00000000000E+00  0.11368683772E-12  0.17120000000E+03  0.17120000000E+03 0.  0.
         13    1    1    2    0    0 -0.21533294591E+02 -0.54645637830E+00  0.94573623671E+02  0.96995684692E+02  0.10566000000E+00 0.  1.
        994    1    1    2    0    0  0.97508896300E+01 -0.43402376276E+02  0.91188522074E+01  0.17711984525E+03  0.17120000000E+03 0.  0.
        998    1    1    2    0    0  0.11782404961E+02  0.43948832654E+02  0.13963075204E+04  0.13970844701E+04  0.10000000000E+02 0.  1.
</event>
<event>
 5    1  0.1757379E-008  0.3758183E+03  0.7957747E-01  0.3469571E+00
         13   -1    0    0    0    0  0.00000000000E+00  0.00000000000E+00  0.14999999963E+04  0.15000000000E+04  0.10566000000E+00 0.  1.
        994   -1    0    0    0    0 -0.00000000000E+00 -0.00000000000E+00  0.11368683772E-12  0.17120000000E+03  0.17120000000E+03 0.  0.
         13    1    1    2    0    0 -0.14573907324E+02  0.56450406335E+01  0.16645471065E+02  0.22833049062E+02  0.10566000000E+00 0.  1.
        994    1    1    2    0    0  0.10434242422E+02 -0.14047721486E+02  0.72978235518E+01  0.17224665489E+03  0.17120000000E+03 0.  0.
        998    1    1    2    0    0  0.41396649018E+01  0.84026808524E+01  0.14760567017E+04  0.14761202960E+04  0.10000000000E+02 0.  1.
</event>
<event>
 5    1  0.1757379E-008  0.3798073E+03  0.7957747E-01  0.3451998E+00
         13   -1    0    0    0    0  0.00000000000E+00  0.00000000000E+00  0.14999999963E+04  0.15000000000E+04  0.10566000000E+00 0. -1.
        994   -1    0    0    0    0 -0.00000000000E+00 -0.00000000000E+00  0.11368683772E-12  0.17120000000E+03  0.17120000000E+03 0.  0.
         13    1    1    2    0    0  0.10352491472E+02  0.23702219691E+02  0.85462314267E+02  0.89290467698E+02  0.10566000000E+00 0. -1.
        994    1    1    2    0    0 -0.28123020590E+02  0.16102377273E+02  0.77513641801E+01  0.17441248375E+03  0.17120000000E+03 0.  0.
        998    1    1    2    0    0  0.17770529118E+02 -0.39804596964E+02  0.14067863178E+04  0.14074970486E+04  0.10000000000E+02 0. -1.
</event>
<event>
 5    1  0.1757379E-008  0.3749579E+03  0.7957747E-01  0.3473411E+00
         13   -1    0    0    0    0  0.00000000000E+00  0.00000000000E+00  0.14999999963E+04  0.15000000000E+04  0.10566000000E+00 0.  1.
        994   -1    0    0    0    0 -0.00000000000E+00 -0.00000000000E+00  0.11368683772E-12  0.17120000000E+03  0.17120000000E+03 0.  0.
         13    1    1    2    0    0 -0.37621219671E+02 -0.53236973344E+02  0.12923166308E+03  0.14474241053E+03  0.10566000000E+00 0.  1.
        994    1    1    2    0    0  0.27536356359E+02  0.83789218223E+02  0.41806554662E+02  0.19706880023E+03  0.17120000000E+03 0.  0.
        998    1    1    2    0    0  0.10084863312E+02 -0.30552244879E+02  0.13289617785E+04  0.13293887892E+04  0.10000000000E+02 0.  1.
</event>
<event>
 5    1  0.1757379E-008  0.3847014E+03  0.7957747E-01  0.3430940E+00
         13   -1    0    0    0    0  0.00000000000E+00  0.00000000000E+00  0.14999999963E+04  0.15000000000E+04  0.10566000000E+00 0. -1.
        994   -1    0    0    0    0 -0.00000000000E+00 -0.00000000000E+00  0.11368683772E-12  0.17120000000E+03  0.17120000000E+03 0.  0.
         13    1    1    2    0    0  0.95394143092E+01 -0.49901998642E+01  0.32169820422E+02  0.33923605794E+02  0.10566000000E+00 0. -1.
        994    1    1    2    0    0 -0.62063993123E+01  0.53053884699E+01  0.19979524632E+01  0.17140623779E+03  0.17120000000E+03 0.  0.
        998    1    1    2    0    0 -0.33330149969E+01 -0.31518860572E+00  0.14658322234E+04  0.14658701564E+04  0.10000000000E+02 0. -1.
</event>
<event>
 5    1  0.1757379E-008  0.3773369E+03  0.7957747E-01  0.3462837E+00
         13   -1    0    0    0    0  0.00000000000E+00  0.00000000000E+00  0.14999999963E+04  0.15000000000E+04  0.10566000000E+00 0.  1.
        994   -1    0    0    0    0 -0.00000000000E+00 -0.00000000000E+00  0.11368683772E-12  0.17120000000E+03  0.17120000000E+03 0.  0.
         13    1    1    2    0    0  0.36139779812E+02  0.54256127842E+02  0.28029861581E+03  0.28777966621E+03  0.10566000000E+00 0.  1.
        994    1    1    2    0    0 -0.45287739967E+02  0.11658844133E+03  0.73383896495E+02  0.22436238612E+03  0.17120000000E+03 0.  0.
        998    1    1    2    0    0  0.91479601553E+01 -0.17084456917E+03  0.11463174840E+04  0.11590579477E+04  0.10000000000E+02 0.  1.
</event>
<event>
 5    1  0.1757379E-008  0.3864246E+03  0.7957747E-01  0.3423653E+00
         13   -1    0    0    0    0  0.00000000000E+00  0.00000000000E+00  0.14999999963E+04  0.15000000000E+04  0.10566000000E+00 0. -1.
        994   -1    0    0    0    0 -0.00000000000E+00 -0.00000000000E+00  0.11368683772E-12  0.17120000000E+03  0.17120000000E+03 0.  0.
         13    1    1    2    0    0  0.63554864820E+01 -0.19396943169E+02  0.12307674687E+03  0.12475788711E+03  0.10566000000E+00 0. -1.
        994    1    1    2    0    0 -0.21384878073E+02  0.70408318502E+02  0.18854112651E+02  0.18729538672E+03  0.17120000000E+03 0.  0.
        998    1    1    2    0    0  0.15029391591E+02 -0.51011375333E+02  0.13580691368E+04  0.13591467262E+04  0.10000000000E+02 0. -1.
</event>
<event>
 5    1  0.1757379E-008  0.3796592E+03  0.7957747E-01  0.3452644E+00
         13   -1    0    0    0    0  0.00000000000E+00  0.00000000000E+00  0.14999999963E+04  0.15000000000E+04  0.10566000000E+00 0. -1.
        994   -1    0    0    0    0 -0.00000000000E+00 -0.00000000000E+00  0.11368683772E-12  0.17120000000E+03  0.17120000000E+03 0.  0.
         13    1    1    2    0    0  0.87213367820E+01  0.79415649201E+01  0.14138676077E+02  0.18413133733E+02  0.10566000000E+00 0. -1.
        994    1    1    2    0    0 -0.83217864493E+01 -0.10086828575E+02  0.48777732795E+01  0.17176795077E+03  0.17120000000E+03 0.  0.
        998    1    1    2    0    0 -0.39955033267E+00  0.21452636546E+01  0.14809835469E+04  0.14810189155E+04  0.10000000000E+02 0. -1.
</event>
<event>
 5    1  0.1757379E-008  0.3733280E+03  0.7957747E-01  0.3480735E+00
         13   -1    0    0    0    0  0.00000000000E+00  0.00000000000E+00  0.14999999963E+04  0.15000000000E+04  0.10566000000E+00 0.  1.
        994   -1    0    0    0    0 -0.00000000000E+00 -0.00000000000E+00  0.11368683772E-12  0.17120000000E+03  0.17120000000E+03 0.  0.
         13    1    1    2    0    0  0.82190086337E+02 -0.25694652639E+02  0.42701594610E+03  0.43561227583E+03  0.10566000000E+00 0.  1.
        994    1    1    2    0    0 -0.64612688752E+02  0.11022468919E+02  0.22372133305E+02  0.18467876629E+03  0.17120000000E+03 0.  0.
        998    1    1    2    0    0 -0.17577397584E+02  0.14672183720E+02  0.10506119169E+04  0.10509089579E+04  0.10000000000E+02 0.  1.
</event>
<event>
 5    1  0.1757379E-008  0.3839057E+03  0.7957747E-01  0.3434326E+00
         13   -1    0    0    0    0  0.00000000000E+00  0.00000000000E+00  0.14999999963E+04  0.15000000000E+04  0.10566000000E+00 0.  1.
        994   -1    0    0    0    0 -0.00000000000E+00 -0.00000000000E+00  0.11368683772E-12  0.17120000000E+03  0.17120000000E+03 0.  0.
         13    1    1    2    0    0 -0.33979640273E+01  0.17376407359E+02  0.74227051904E+02  0.76309580596E+02  0.10566000000E+00 0.  1.
        994    1    1    2    0    0  0.14541317128E+02 -0.28981057411E+01  0.29003096968E+01  0.17186535636E+03  0.17120000000E+03 0.  0.
        998    1    1    2    0    0 -0.11143353101E+02 -0.14478301618E+02  0.14228726347E+04  0.14230250630E+04  0.10000000000E+02 0.  1.
</event>
<event>
 5    1  0.1757379E-008  0.3838502E+03  0.7957747E-01  0.3434563E+00
         13   -1    0    0    0    0  0.00000000000E+00  0.00000000000E+00  0.14999999963E+04  0.15000000000E+04  0.10566000000E+00 0. -1.
        994   -1    0    0    0    0 -0.00000000000E+00 -0.00000000000E+00  0.11368683772E-12  0.17120000000E+03  0.17120000000E+03 0.  0.
         13    1    1    2    0    0 -0.13440099318E+02 -0.11290999506E+02  0.66638193145E+02  0.68911413345E+02  0.10566000000E+00 0. -1.
        994    1    1    2    0    0  0.14426440220E+02  0.12214006646E+02  0.33823948828E+01  0.17227357525E+03  0.17120000000E+03 0.  0.
        998    1    1    2    0    0 -0.98634090195E+00 -0.92300714069E+00  0.14299794083E+04  0.14300150114E+04  0.10000000000E+02 0. -1.
</event>
<event>
 5    1  0.1757379E-008  0.3712575E+03  0.7957747E-01  0.3490132E+00
         13   -1    0    0    0    0  0.00000000000E+00  0.00000000000E+00  0.14999999963E+04  0.15000000000E+04  0.10566000000E+00 0.  1.
        994   -1    0    0    0    0 -0.00000000000E+00 -0.00000000000E+00  0.11368683772E-12  0.17120000000E+03  0.17120000000E+03 0.  0.
         13    1    1    2    0    0  0.43673629960E+02 -0.16687233044E+03  0.87480929393E+03  0.89165300006E+03  0.10566000000E+00 0.  1.
        994    1    1    2    0    0 -0.28348844065E+02  0.15211525494E+03  0.96165740402E+02  0.24999999475E+03  0.17120000000E+03 0.  0.
        998    1    1    2    0    0 -0.15324785895E+02  0.14757075495E+02  0.52902496195E+03  0.52954700519E+03  0.10000000000E+02 0.  1.
</event>
<event>
 5    1  0.1757379E-008  0.3802487E+03  0.7957747E-01  0.3450076E+00
         13   -1    0    0    0    0  0.00000000000E+00  0.00000000000E+00  0.14999999963E+04  0.15000000000E+04  0.10566000000E+00 0.  1.
        994   -1    0    0    0    0 -0.00000000000E+00 -0.00000000000E+00  0.11368683772E-12  0.17120000000E+03  0.17120000000E+03 0.  0.
         13    1    1    2    0    0  0.27961889438E+02 -0.47563036692E+02  0.31073736873E+03  0.31559758113E+03  0.10566000000E+00 0.  1.
        994    1    1    2    0    0 -0.21806157482E+02  0.48040389113E+02  0.13361219545E+02  0.17964228254E+03  0.17120000000E+03 0.  0.
        998    1    1    2    0    0 -0.61557319566E+01 -0.47735242057E+00  0.11759014080E+04  0.11759601363E+04  0.10000000000E+02 0.  0.
</event>
<event>
 5    1  0.1924042E-008  0.3864858E+03  0.7957747E-01  0.3423395E+00
         13   -1    0    0    0    0  0.00000000000E+00  0.00000000000E+00  0.14999999963E+04  0.15000000000E+04  0.10566000000E+00 0. -1.
        994   -1    0    0    0    0 -0.00000000000E+00 -0.00000000000E+00  0.11368683772E-12  0.17120000000E+03  0.17120000000E+03 0.  0.
         13    1    1    2    0    0  0.89630984710E+01  0.59923687377E+01  0.63202993115E+02  0.64116106557E+02  0.10566000000E+00 0. -1.
        994    1    1    2    0    0 -0.11309880471E+02 -0.67440424914E+01  0.14619485691E+01  0.17171188893E+03  0.17120000000E+03 0.  0.
        998    1    1    2    0    0  0.23467820004E+01  0.75167375374E+00  0.14353350546E+04  0.14353720045E+04  0.10000000000E+02 0. -1.
</event>
<event>
 5    1  0.1757379E-008  0.3866581E+03  0.7957747E-01  0.3422670E+00
         13   -1    0    0    0    0  0.00000000000E+00  0.00000000000E+00  0.14999999963E+04  0.15000000000E+04  0.10566000000E+00 0.  1.
        994   -1    0    0    0    0 -0.00000000000E+00 -0.00000000000E+00  0.11368683772E-12  0.17120000000E+03  0.17120000000E+03 0.  0.
         13    1    1    2    0    0 -0.71936573850E+01  0.70996530117E+01  0.56688816349E+02  0.57582869350E+02  0.10566000000E+00 0.  1.
        994    1    1    2    0    0  0.12106801645E+02 -0.20961224520E+02  0.27281698822E+01  0.17292434904E+03  0.17120000000E+03 0.  0.
        998    1    1    2    0    0 -0.49131442598E+01  0.13861571508E+02  0.14405830100E+04  0.14406927816E+04  0.10000000000E+02 0.  1.
</event>
<event>
 5    1  0.1757379E-008  0.3839351E+03  0.7957747E-01  0.3434201E+00
         13   -1    0    0    0    0  0.00000000000E+00  0.00000000000E+00  0.14999999963E+04  0.15000000000E+04  0.10566000000E+00 0.  1.
        994   -1    0    0    0    0 -0.00000000000E+00 -0.00000000000E+00  0.11368683772E-12  0.17120000000E+03  0.17120000000E+03 0.  0.
         13    1    1    2    0    0 -0.24547416130E+02 -0.99347311437E+01  0.14805312220E+03  0.15040283467E+03  0.10566000000E+00 0.  1.
        994    1    1    2    0    0  0.20295663925E+02  0.21664225061E+02  0.50733555530E+01  0.17382874204E+03  0.17120000000E+03 0.  0.
        998    1    1    2    0    0  0.42517522049E+01 -0.11729493918E+02  0.13468735185E+04  0.13469684233E+04  0.10000000000E+02 0.  1.
</event>
<event>
 5    1  0.1757379E-008  0.3824002E+03  0.7957747E-01  0.3440774E+00
         13   -1    0    0    0    0  0.00000000000E+00  0.00000000000E+00  0.14999999963E+04  0.15000000000E+04  0.10566000000E+00 0.  1.
        994   -1    0    0    0    0 -0.00000000000E+00 -0.00000000000E+00  0.11368683772E-12  0.17120000000E+03  0.17120000000E+03 0.  0.
         13    1    1    2    0    0  0.18577749093E+03 -0.20297852799E+02  0.10526375866E+04  0.10690983018E+04  0.10566000000E+00 0.  1.
        994    1    1    2    0    0 -0.19141246763E+03  0.34621709877E+02  0.14064454138E+03  0.29483507691E+03  0.17120000000E+03 0.  0.
        998    1    1    2    0    0  0.56349766991E+01 -0.14323857078E+02  0.30671786825E+03  0.30726662127E+03  0.10000000000E+02 0.  1.
</event>
<event>
 5    1  0.1757379E-008  0.3702441E+03  0.7957747E-01  0.3494770E+00
         13   -1    0    0    0    0  0.00000000000E+00  0.00000000000E+00  0.14999999963E+04  0.15000000000E+04  0.10566000000E+00 0.  1.
        994   -1    0    0    0    0 -0.00000000000E+00 -0.00000000000E+00  0.11368683772E-12  0.17120000000E+03  0.17120000000E+03 0.  0.
         13    1    1    2    0    0  0.19313182122E+02  0.23080282977E+02  0.42563616855E+02  0.52128409814E+02  0.10566000000E+00 0.  1.
        994    1    1    2    0    0 -0.31589635085E+02 -0.35759325750E+02  0.17048122735E+02  0.17854050776E+03  0.17120000000E+03 0.  0.
        998    1    1    2    0    0  0.12276452964E+02  0.12679042773E+02  0.14403882567E+04  0.14405310824E+04  0.10000000000E+02 0.  1.
</event>
<event>
 5    1  0.1757379E-008  0.3832842E+03  0.7957747E-01  0.3436982E+00
         13   -1    0    0    0    0  0.00000000000E+00  0.00000000000E+00  0.14999999963E+04  0.15000000000E+04  0.10566000000E+00 0.  1.
        994   -1    0    0    0    0 -0.00000000000E+00 -0.00000000000E+00  0.11368683772E-12  0.17120000000E+03  0.17120000000E+03 0.  0.
         13    1    1    2    0    0 -0.92215409489E+01 -0.12688522944E+02  0.47993193131E+02  0.50491515950E+02  0.10566000000E+00 0.  1.
        994    1    1    2    0    0  0.26441752908E+01  0.15534991677E+02  0.33060703971E+01  0.17195551091E+03  0.17120000000E+03 0.  0.
        998    1    1    2    0    0  0.65773656581E+01 -0.28464687330E+01  0.14487007328E+04  0.14487529731E+04  0.10000000000E+02 0.  1.
</event>
<event>
 5    1  0.1757379E-008  0.3767564E+03  0.7957747E-01  0.3465405E+00
         13   -1    0    0    0    0  0.00000000000E+00  0.00000000000E+00  0.14999999963E+04  0.15000000000E+04  0.10566000000E+00 0. -1.
        994   -1    0    0    0    0 -0.00000000000E+00 -0.00000000000E+00  0.11368683772E-12  0.17120000000E+03  0.17120000000E+03 0.  0.
         13    1    1    2    0    0  0.91441004501E+00  0.17421495486E+02  0.25832912330E+02  0.31172025507E+02  0.10566000000E+00 0. -1.
        994    1    1    2    0    0  0.98875091326E+01  0.16941020244E+02  0.70807741334E+01  0.17246547007E+03  0.17120000000E+03 0.  0.
        998    1    1    2    0    0 -0.10801919178E+02 -0.34362515730E+02  0.14670863098E+04  0.14675625044E+04  0.10000000000E+02 0. -1.
</event>
<event>
 5    1  0.1757379E-008  0.3817939E+03  0.7957747E-01  0.3443385E+00
         13   -1    0    0    0    0  0.00000000000E+00  0.00000000000E+00  0.14999999963E+04  0.15000000000E+04  0.10566000000E+00 0. -1.
        994   -1    0    0    0    0 -0.00000000000E+00 -0.00000000000E+00  0.11368683772E-12  0.17120000000E+03  0.17120000000E+03 0.  0.
         13    1    1    2    0    0 -0.21828580981E+02  0.25371821637E+02  0.15365982689E+03  0.15726274144E+03  0.10566000000E+00 0. -1.
        994    1    1    2    0    0  0.27666044750E+02 -0.23761669714E+02  0.76629386502E+01  0.17520898267E+03  0.17120000000E+03 0.  0.
        998    1    1    2    0    0 -0.58374637695E+01 -0.16101519238E+01  0.13386772307E+04  0.13387282759E+04  0.10000000000E+02 0. -1.
</event>
<event>
 5    1  0.1757379E-008  0.3830243E+03  0.7957747E-01  0.3438095E+00
         13   -1    0    0    0    0  0.00000000000E+00  0.00000000000E+00  0.14999999963E+04  0.15000000000E+04  0.10566000000E+00 0.  1.
        994   -1    0    0    0    0 -0.00000000000E+00 -0.00000000000E+00  0.11368683772E-12  0.17120000000E+03  0.17120000000E+03 0.  0.
         13    1    1    2    0    0  0.15645121155E+02  0.20116543899E+02  0.13881807670E+03  0.14113792806E+03  0.10566000000E+00 0.  1.
        994    1    1    2    0    0  0.82261644547E+01 -0.67164808082E+01  0.29875894595E+01  0.17155508324E+03  0.17120000000E+03 0.  0.
        998    1    1    2    0    0 -0.23871285610E+02 -0.13400063091E+02  0.13581943301E+04  0.13585069887E+04  0.10000000000E+02 0.  1.
</event>
<event>
 5    1  0.1757379E-008  0.3723189E+03  0.7957747E-01  0.3485301E+00
         13   -1    0    0    0    0  0.00000000000E+00  0.00000000000E+00  0.14999999963E+04  0.15000000000E+04  0.10566000000E+00 0.  1.
        994   -1    0    0    0    0 -0.00000000000E+00 -0.00000000000E+00  0.11368683772E-12  0.17120000000E+03  0.17120000000E+03 0.  0.
         13    1    1    2    0    0  0.43482923085E+02  0.65489005435E+02  0.20318700020E+03  0.21786358724E+03  0.10566000000E+00 0.  1.
        994    1    1    2    0    0 -0.27394473824E+02 -0.91135905015E+02  0.44815540726E+02  0.20093303131E+03  0.17120000000E+03 0.  0.
        998    1    1    2    0    0 -0.16088449261E+02  0.25646899580E+02  0.12519974554E+04  0.12524033815E+04  0.10000000000E+02 0.  1.
</event>
<event>
 5    1  0.1757379E-008  0.3848221E+03  0.7957747E-01  0.3430427E+00
         13   -1    0    0    0    0  0.00000000000E+00  0.00000000000E+00  0.14999999963E+04  0.15000000000E+04  0.10566000000E+00 0.  1.
        994   -1    0    0    0    0 -0.00000000000E+00 -0.00000000000E+00  0.11368683772E-12  0.17120000000E+03  0.17120000000E+03 0.  0.
         13    1    1    2    0    0 -0.13988321109E+02 -0.42202805396E+01  0.61214770259E+02  0.62934435385E+02  0.10566000000E+00 0.  1.
        994    1    1    2    0    0  0.11127559455E+02  0.41124472282E+01  0.21817176957E+01  0.17162440005E+03  0.17120000000E+03 0.  0.
        998    1    1    2    0    0  0.28607616539E+01  0.10783331138E+00  0.14366035083E+04  0.14366411646E+04  0.10000000000E+02 0.  1.
</event>
<event>
 5    1  0.1757379E-008  0.3726910E+03  0.7957747E-01  0.3483614E+00
         13   -1    0    0    0    0  0.00000000000E+00  0.00000000000E+00  0.14999999963E+04  0.15000000000E+04  0.10566000000E+00 0.  1.
        994   -1    0    0    0    0 -0.00000000000E+00 -0.00000000000E+00  0.11368683772E-12  0.17120000000E+03  0.17120000000E+03 0.  0.
         13    1    1    2    0    0  0.82919454151E+01 -0.56353813799E+02  0.16677462378E+03  0.17623363750E+03  0.10566000000E+00 0.  1.
        994    1    1    2    0    0 -0.67759102530E+02  0.66097119699E+02  0.39218525475E+02  0.19951856542E+03  0.17120000000E+03 0.  0.
        998    1    1    2    0    0  0.59467157115E+02 -0.97433059008E+01  0.12940068470E+04  0.12954477971E+04  0.10000000000E+02 0.  1.
</event>
<event>
 5    1  0.1757379E-008  0.3811592E+03  0.7957747E-01  0.3446127E+00
         13   -1    0    0    0    0  0.00000000000E+00  0.00000000000E+00  0.14999999963E+04  0.15000000000E+04  0.10566000000E+00 0.  1.
        994   -1    0    0    0    0 -0.00000000000E+00 -0.00000000000E+00  0.11368683772E-12  0.17120000000E+03  0.17120000000E+03 0.  0.
         13    1    1    2    0    0  0.38225921840E+02  0.29969188645E+02  0.62764846906E+02  0.79365046083E+02  0.10566000000E+00 0.  1.
        994    1    1    2    0    0 -0.15276275940E+02 -0.41904385174E+02  0.24239832754E+02  0.17856749871E+03  0.17120000000E+03 0.  0.
        998    1    1    2    0    0 -0.22949645899E+02  0.11935196530E+02  0.14129953166E+04  0.14132674552E+04  0.10000000000E+02 0.  1.
</event>
<event>
 5    1  0.1757379E-008  0.3822910E+03  0.7957747E-01  0.3441243E+00
         13   -1    0    0    0    0  0.00000000000E+00  0.00000000000E+00  0.14999999963E+04  0.15000000000E+04  0.10566000000E+00 0.  1.
        994   -1    0    0    0    0 -0.00000000000E+00 -0.00000000000E+00  0.11368683772E-12  0.17120000000E+03  0.17120000000E+03 0.  0.
         13    1    1    2    0    0  0.24991191202E+01 -0.25321756939E+02  0.11542745231E+03  0.11819875161E+03  0.10566000000E+00 0.  1.
        994    1    1    2    0    0  0.34328783516E+00  0.47887352442E+01  0.30575824800E+01  0.17129459607E+03  0.17120000000E+03 0.  0.
        998    1    1    2    0    0 -0.28424069553E+01  0.20533021695E+02  0.13815149615E+04  0.13817066523E+04  0.10000000000E+02 0.  1.
</event>
<event>
 5    1  0.1757379E-008  0.3719043E+03  0.7957747E-01  0.3487185E+00
         13   -1    0    0    0    0  0.00000000000E+00  0.00000000000E+00  0.14999999963E+04  0.15000000000E+04  0.10566000000E+00 0. -1.
        994   -1    0    0    0    0 -0.00000000000E+00 -0.00000000000E+00  0.11368683772E-12  0.17120000000E+03  0.17120000000E+03 0.  0.
         13    1    1    2    0    0  0.84263790759E+01 -0.28353781961E+02  0.42676196554E+02  0.51925039548E+02  0.10566000000E+00 0. -1.
        994    1    1    2    0    0 -0.28826135914E+02  0.65983796553E+02  0.26303409737E+02  0.18757962811E+03  0.17120000000E+03 0.  0.
        998    1    1    2    0    0  0.20399756838E+02 -0.37630014593E+02  0.14310203900E+04  0.14316953323E+04  0.10000000000E+02 0. -1.
</event>
<event>
 5    1  0.1757379E-008  0.3840565E+03  0.7957747E-01  0.3433683E+00
         13   -1    0    0    0    0  0.00000000000E+00  0.00000000000E+00  0.14999999963E+04  0.15000000000E+04  0.10566000000E+00 0. -1.
        994   -1    0    0    0    0 -0.00000000000E+00 -0.00000000000E+00  0.11368683772E-12  0.17120000000E+03  0.17120000000E+03 0.  0.
         13    1    1    2    0    0 -0.85228366805E+01 -0.20861940444E+02  0.12055067435E+03  0.12263904580E+03  0.10566000000E+00 0. -1.
        994    1    1    2    0    0 -0.13772236820E+02  0.21398586767E+02  0.42383713160E+01  0.17313283286E+03  0.17120000000E+03 0.  0.
        998    1    1    2    0    0  0.22295073501E+02 -0.53664632351E+00  0.13752109506E+04  0.13754281213E+04  0.10000000000E+02 0. -1.
</event>
<event>
 5    1  0.1757379E-008  0.3696138E+03  0.7957747E-01  0.3497668E+00
         13   -1    0    0    0    0  0.00000000000E+00  0.00000000000E+00  0.14999999963E+04  0.15000000000E+04  0.10566000000E+00 0.  1.
        994   -1    0    0    0    0 -0.00000000000E+00 -0.00000000000E+00  0.11368683772E-12  0.17120000000E+03  0.17120000000E+03 0.  0.
         13    1    1    2    0    0 -0.34501664378E+02  0.27715789715E+01  0.59863356686E+02  0.69149686425E+02  0.10566000000E+00 0.  1.
        994    1    1    2    0    0  0.20550367391E+02 -0.16206602363E+02  0.11846269742E+02  0.17359362220E+03  0.17120000000E+03 0.  0.
        998    1    1    2    0    0  0.13951296987E+02  0.13435023391E+02  0.14282903699E+04  0.14284566914E+04  0.10000000000E+02 0.  1.
</event>
<event>
 5    1  0.1757379E-008  0.3806783E+03  0.7957747E-01  0.3448210E+00
         13   -1    0    0    0    0  0.00000000000E+00  0.00000000000E+00  0.14999999963E+04  0.15000000000E+04  0.10566000000E+00 0.  1.
        994   -1    0    0    0    0 -0.00000000000E+00 -0.00000000000E+00  0.11368683772E-12  0.17120000000E+03  0.17120000000E+03 0.  0.
         13    1    1    2    0    0  0.11194312527E+02  0.12955184108E+02  0.36286778519E+02  0.40123445609E+02  0.10566000000E+00 0.  1.
        994    1    1    2    0    0 -0.90775585148E+01 -0.17215800632E+02  0.50555671803E+01  0.17237686799E+03  0.17120000000E+03 0.  0.
        998    1    1    2    0    0 -0.21167540118E+01  0.42606165246E+01  0.14586576506E+04  0.14586996864E+04  0.10000000000E+02 0.  1.
</event>
<event>
 5    1  0.1757379E-008  0.3847637E+03  0.7957747E-01  0.3430675E+00
         13   -1    0    0    0    0  0.00000000000E+00  0.00000000000E+00  0.14999999963E+04  0.15000000000E+04  0.10566000000E+00 0.  1.
        994   -1    0    0    0    0 -0.00000000000E+00 -0.00000000000E+00  0.11368683772E-12  0.17120000000E+03  0.17120000000E+03 0.  0.
         13    1    1    2    0    0  0.15121006081E+02 -0.45054786508E+01  0.70382004992E+02  0.72128925914E+02  0.10566000000E+00 0.  1.
        994    1    1    2    0    0 -0.13053398523E+02 -0.17249936546E+01  0.23182748807E+01  0.17172123111E+03  0.17120000000E+03 0.  0.
        998    1    1    2    0    0 -0.20676075577E+01  0.62304723054E+01  0.14272997164E+04  0.14273498430E+04  0.10000000000E+02 0.  1.
</event>
<event>
 5    1  0.1757379E-008  0.3753988E+03  0.7957747E-01  0.3471441E+00
         13   -1    0    0    0    0  0.00000000000E+00  0.00000000000E+00  0.14999999963E+04  0.15000000000E+04  0.10566000000E+00 0.  1.
        994   -1    0    0    0    0 -0.00000000000E+00 -0.00000000000E+00  0.11368683772E-12  0.17120000000E+03  0.17120000000E+03 0.  0.
         13    1    1    2    0    0  0.75946577429E+02  0.27040152401E+02  0.22163083857E+03  0.23583742755E+03  0.10566000000E+00 0.  1.
        994    1    1    2    0    0 -0.76784839470E+02  0.39661188223E+02  0.40942112029E+02  0.19609849046E+03  0.17120000000E+03 0.  0.
        998    1    1    2    0    0  0.83826204178E+00 -0.66701340624E+02  0.12374270457E+04  0.12392640820E+04  0.10000000000E+02 0.  1.
</event>
<event>
 5    1  0.1757379E-008  0.3722589E+03  0.7957747E-01  0.3485573E+00
         13   -1    0    0    0    0  0.00000000000E+00  0.00000000000E+00  0.14999999963E+04  0.15000000000E+04  0.10566000000E+00 0. -1.
        994   -1    0    0    0    0 -0.00000000000E+00 -0.00000000000E+00  0.11368683772E-12  0.17120000000E+03  0.17120000000E+03 0.  0.
         13    1    1    2    0    0 -0.50837593601E+00  0.11414744047E+02 -0.25632644593E+00  0.11429422341E+02  0.10566000000E+00 0. -1.
        994    1    1    2    0    0 -0.21024675760E+01 -0.70430721252E+01  0.12328707942E+02  0.17180064690E+03  0.17120000000E+03 0.  0.
        998    1    1    2    0    0  0.26108435120E+01 -0.43716719222E+01  0.14879276148E+04  0.14879699308E+04  0.10000000000E+02 0. -1.
</event>
<event>
 5    1  0.1757379E-008  0.3803877E+03  0.7957747E-01  0.3449472E+00
         13   -1    0    0    0    0  0.00000000000E+00  0.00000000000E+00  0.14999999963E+04  0.15000000000E+04  0.10566000000E+00 0.  1.
        994   -1    0    0    0    0 -0.00000000000E+00 -0.00000000000E+00  0.11368683772E-12  0.17120000000E+03  0.17120000000E+03 0.  0.
         13    1    1    2    0    0  0.45609317880E+01 -0.21857142084E+02  0.59715703811E+02  0.63753534839E+02  0.10566000000E+00 0.  1.
        994    1    1    2    0    0 -0.97462638693E+01  0.21432699170E+02  0.57905333455E+01  0.17290841660E+03  0.17120000000E+03 0.  0.
        998    1    1    2    0    0  0.51853320813E+01  0.42444291367E+00  0.14344937591E+04  0.14345380486E+04  0.10000000000E+02 0.  1.
</event>
<event>
 5    1  0.1757379E-008  0.3844953E+03  0.7957747E-01  0.3431816E+00
         13   -1    0    0    0    0  0.00000000000E+00  0.00000000000E+00  0.14999999963E+04  0.15000000000E+04  0.10566000000E+00 0.  1.
        994   -1    0    0    0    0 -0.00000000000E+00 -0.00000000000E+00  0.11368683772E-12  0.17120000000E+03  0.17120000000E+03 0.  0.
         13    1    1    2    0    0 -0.17359073085E+02 -0.15554429300E+02  0.12898244153E+03  0.13107157997E+03  0.10566000000E+00 0.  1.
        994    1    1    2    0    0  0.24890857147E+02  0.14103297065E+02  0.45816071115E+01  0.17363435398E+03  0.17120000000E+03 0.  0.
        998    1    1    2    0    0 -0.75317840620E+01  0.14511322346E+01  0.13664359476E+04  0.13664940660E+04  0.10000000000E+02 0.  1.
</event>
<event>
 5    1  0.2779821E-008  0.3863988E+03  0.7957747E-01  0.3423762E+00
         13   -1    0    0    0    0  0.00000000000E+00  0.00000000000E+00  0.14999999963E+04  0.15000000000E+04  0.10566000000E+00 0. -1.
        994   -1    0    0    0    0 -0.00000000000E+00 -0.00000000000E+00  0.11368683772E-12  0.17120000000E+03  0.17120000000E+03 0.  0.
         13    1    1    2    0    0  0.86974891695E+01  0.50001154168E+01  0.55575750101E+02  0.56474088177E+02  0.10566000000E+00 0. -1.
        994    1    1    2    0    0 -0.28141952740E+01 -0.47696348131E+01  0.10376736847E+01  0.17129269067E+03  0.17120000000E+03 0.  0.
        998    1    1    2    0    0 -0.58832938955E+01 -0.23048060365E+00  0.14433865725E+04  0.14434332212E+04  0.10000000000E+02 0. -1.
</event>
<event>
 5    1  0.1757379E-008  0.3748746E+03  0.7957747E-01  0.3473784E+00
         13   -1    0    0    0    0  0.00000000000E+00  0.00000000000E+00  0.14999999963E+04  0.15000000000E+04  0.10566000000E+00 0. -1.
        994   -1    0    0    0    0 -0.00000000000E+00 -0.00000000000E+00  0.11368683772E-12  0.17120000000E+03  0.17120000000E+03 0.  0.
         13    1    1    2    0    0  0.89729843192E+01  0.72657519834E+02  0.17401306998E+03  0.18878609410E+03  0.10566000000E+00 0. -1.
        994    1    1    2    0    0 -0.39723507435E+02 -0.65917162044E+02  0.34919049521E+02  0.19092356930E+03  0.17120000000E+03 0.  0.
        998    1    1    2    0    0  0.30750523116E+02 -0.67403577908E+01  0.12910678768E+04  0.12914903366E+04  0.10000000000E+02 0. -1.
</event>
<event>
 5    1  0.1757379E-008  0.3812876E+03  0.7957747E-01  0.3445571E+00
         13   -1    0    0    0    0  0.00000000000E+00  0.00000000000E+00  0.14999999963E+04  0.15000000000E+04  0.10566000000E+00 0. -1.
        994   -1    0    0    0    0 -0.00000000000E+00 -0.00000000000E+00  0.11368683772E-12  0.17120000000E+03  0.17120000000E+03 0.  0.
         13    1    1    2    0    0  0.29362878061E+01  0.13621293879E+02  0.26745348999E+02  0.30157690397E+02  0.10566000000E+00 0. -1.
        994    1    1    2    0    0 -0.28863374957E+01 -0.62012038024E+01  0.36403470699E+01  0.17137525492E+03  0.17120000000E+03 0.  0.
        998    1    1    2    0    0 -0.49950310334E-01 -0.74200900764E+01  0.14696143002E+04  0.14696670547E+04  0.10000000000E+02 0. -1.
</event>
<event>
 5    1  0.1757379E-008  0.3814053E+03  0.7957747E-01  0.3445062E+00
         13   -1    0    0    0    0  0.00000000000E+00  0.00000000000E+00  0.14999999963E+04  0.15000000000E+04  0.10566000000E+00 0. -1.
        994   -1    0    0    0    0 -0.00000000000E+00 -0.00000000000E+00  0.11368683772E-12  0.17120000000E+03  0.17120000000E+03 0.  0.
         13    1    1    2    0    0 -0.19226331924E+02  0.10884966888E+02  0.64444960136E+02  0.68127075340E+02  0.10566000000E+00 0. -1.
        994    1    1    2    0    0  0.18806707963E+02 -0.33567867474E+02  0.83674430744E+01  0.17566999771E+03  0.17120000000E+03 0.  0.
        998    1    1    2    0    0  0.41962396159E+00  0.22682900586E+02  0.14271875931E+04  0.14274029270E+04  0.10000000000E+02 0. -1.
</event>
<event>
 5    1  0.1757379E-008  0.3700765E+03  0.7957747E-01  0.3495539E+00
         13   -1    0    0    0    0  0.00000000000E+00  0.00000000000E+00  0.14999999963E+04  0.15000000000E+04  0.10566000000E+00 0. -1.
        994   -1    0    0    0    0 -0.00000000000E+00 -0.00000000000E+00  0.11368683772E-12  0.17120000000E+03  0.17120000000E+03 0.  0.
         13    1    1    2    0    0 -0.68987127658E+02  0.14894738475E+03  0.80253741687E+03  0.81915252782E+03  0.10566000000E+00 0. -1.
        994    1    1    2    0    0  0.59739979123E+02 -0.13341307136E+03  0.87168185073E+02  0.24140349046E+03  0.17120000000E+03 0.  0.
        998    1    1    2    0    0  0.92471485352E+01 -0.15534313384E+02  0.61029439434E+03  0.61064398172E+03  0.10000000000E+02 0.  0.
</event>
<event>
 5    1  0.1757379E-008  0.3738551E+03  0.7957747E-01  0.3478359E+00
         13   -1    0    0    0    0  0.00000000000E+00  0.00000000000E+00  0.14999999963E+04  0.15000000000E+04  0.10566000000E+00 0.  1.
        994   -1    0    0    0    0 -0.00000000000E+00 -0.00000000000E+00  0.11368683772E-12  0.17120000000E+03  0.17120000000E+03 0.  0.
         13    1    1    2    0    0 -0.13509368195E+01  0.83025656819E+02  0.22005157346E+03  0.23519734451E+03  0.10566000000E+00 0.  1.
        994    1    1    2    0    0 -0.87509616982E+01 -0.85476199211E+02  0.39640369105E+02  0.19561073290E+03  0.17120000000E+03 0.  0.
        998    1    1    2    0    0  0.10101898518E+02  0.24505423918E+01  0.12403080537E+04  0.12403919226E+04  0.10000000000E+02 0.  1.
</event>
<event>
 5    1  0.1757379E-008  0.3832125E+03  0.7957747E-01  0.3437289E+00
         13   -1    0    0    0    0  0.00000000000E+00  0.00000000000E+00  0.14999999963E+04  0.15000000000E+04  0.10566000000E+00 0. -1.
        994   -1    0    0    0    0 -0.00000000000E+00 -0.00000000000E+00  0.11368683772E-12  0.17120000000E+03  0.17120000000E+03 0.  0.
         13    1    1    2    0    0 -0.45447111289E+01 -0.10901609266E+02  0.26272352993E+02  0.28805332486E+02  0.10566000000E+00 0. -1.
        994    1    1    2    0    0  0.93934951437E+01  0.11320779405E+02  0.32363467416E+01  0.17186131542E+03  0.17120000000E+03 0.  0.
        998    1    1    2    0    0 -0.48487840147E+01 -0.41917013886E+00  0.14704912965E+04  0.14705333521E+04  0.10000000000E+02 0. -1.
</event>
<event>
 5    1  0.1757379E-008  0.3821081E+03  0.7957747E-01  0.3442031E+00
         13   -1    0    0    0    0  0.00000000000E+00  0.00000000000E+00  0.14999999963E+04  0.15000000000E+04  0.10566000000E+00 0. -1.
        994   -1    0    0    0    0 -0.00000000000E+00 -0.00000000000E+00  0.11368683772E-12  0.17120000000E+03  0.17120000000E+03 0.  0.
         13    1    1    2    0    0 -0.17395617668E+02  0.22146259645E+02  0.12365266318E+03  0.12681899150E+03  0.10566000000E+00 0. -1.
        994    1    1    2    0    0  0.10741725884E+02 -0.19995622304E+02  0.47850281718E+01  0.17276442366E+03  0.17120000000E+03 0.  0.
        998    1    1    2    0    0  0.66538917837E+01 -0.21506373405E+01  0.13715623049E+04  0.13716165848E+04  0.10000000000E+02 0.  0.
</event>
<event>
 5    1  0.1757379E-008  0.3760048E+03  0.7957747E-01  0.3468741E+00
         13   -1    0    0    0    0  0.00000000000E+00  0.00000000000E+00  0.14999999963E+04  0.15000000000E+04  0.10566000000E+00 0. -1.
        994   -1    0    0    0    0 -0.00000000000E+00 -0.00000000000E+00  0.11368683772E-12  0.17120000000E+03  0.17120000000E+03 0.  0.
         13    1    1    2    0    0 -0.12463828548E+02  0.22435151630E+02  0.50982426640E+02  0.57078034662E+02  0.10566000000E+00 0. -1.
        994    1    1    2    0    0  0.29571404298E+00 -0.19486638639E+02  0.74514067417E+01  0.17246675040E+03  0.17120000000E+03 0.  0.
        998    1    1    2    0    0  0.12168114505E+02 -0.29485129903E+01  0.14415661629E+04  0.14416552149E+04  0.10000000000E+02 0. -1.
</event>
<event>
 5    1  0.1757379E-008  0.3824523E+03  0.7957747E-01  0.3440550E+00
         13   -1    0    0    0    0  0.00000000000E+00  0.00000000000E+00  0.14999999963E+04  0.15000000000E+04  0.10566000000E+00 0. -1.
        994   -1    0    0    0    0 -0.00000000000E+00 -0.00000000000E+00  0.11368683772E-12  0.17120000000E+03  0.17120000000E+03 0.  0.
         13    1    1    2    0    0  0.24779114594E+02 -0.23753686487E+02  0.18673809973E+03  0.18986671956E+03  0.10566000000E+00 0. -1.
        994    1    1    2    0    0 -0.26867165234E+02  0.14987421904E+02  0.60451933539E+01  0.17404726871E+03  0.17120000000E+03 0.  0.
        998    1    1    2    0    0  0.20880506393E+01  0.87662645836E+01  0.13072167032E+04  0.13072860117E+04  0.10000000000E+02 0. -1.
</event>
<event>
 5    1  0.1757379E-008  0.3701531E+03  0.7957747E-01  0.3495188E+00
         13   -1    0    0    0    0  0.00000000000E+00  0.00000000000E+00  0.14999999963E+04  0.15000000000E+04  0.10566000000E+00 0. -1.
        994   -1    0    0    0    0 -0.00000000000E+00 -0.00000000000E+00  0.11368683772E-12  0.17120000000E+03  0.17120000000E+03 0.  0.
         13    1    1    2    0    0  0.32508060202E+02  0.15053025901E+02  0.68085719503E+02  0.76935323040E+02  0.10566000000E+00 0. -1.
        994    1    1    2    0    0 -0.14029851917E+02 -0.68003884505E+01  0.10029566024E+02  0.17220079623E+03  0.17120000000E+03 0.  0.
        998    1    1    2    0    0 -0.18478208285E+02 -0.82526374504E+01  0.14218847108E+04  0.14220638807E+04  0.10000000000E+02 0. -1.
</event>
<event>
 5    1  0.1757379E-008  0.3752819E+03  0.7957747E-01  0.3471963E+00
         13   -1    0    0    0    0  0.00000000000E+00  0.00000000000E+00  0.14999999963E+04  0.15000000000E+04  0.10566000000E+00 0. -1.
        994   -1    0    0    0    0 -0.00000000000E+00 -0.00000000000E+00  0.11368683772E-12  0.17120000000E+03  0.17120000000E+03 0.  0.
         13    1    1    2    0    0 -0.97378314577E+01 -0.86930039774E+01  0.99997732235E+01  0.16443853204E+02  0.10566000000E+00 0. -1.
        994    1    1    2    0    0  0.11163532642E+02  0.85941462000E+01  0.72083668449E+01  0.17192988211E+03  0.17120000000E+03 0.  0.
        998    1    1    2    0    0 -0.14257011842E+01  0.98857777377E-01  0.14827918562E+04  0.14828262647E+04  0.10000000000E+02 0. -1.
</event>
<event>
 5    1  0.1757379E-008  0.3750225E+03  0.7957747E-01  0.3473122E+00
         13   -1    0    0    0    0  0.00000000000E+00  0.00000000000E+00  0.14999999963E+04  0.15000000000E+04  0.10566000000E+00 0. -1.
        994   -1    0    0    0    0 -0.00000000000E+00 -0.00000000000E+00  0.11368683772E-12  0.17120000000E+03  0.17120000000E+03 0.  0.
         13    1    1    2    0    0  0.20086244964E+02 -0.61792303874E+02  0.13874955211E+03  0.15320964536E+03  0.10566000000E+00 0. -1.
        994    1    1    2    0    0  0.73060444076E+02  0.89815989724E+02  0.63000421181E+02  0.21606303147E+03  0.17120000000E+03 0.  0.
        998    1    1    2    0    0 -0.93146689040E+02 -0.28023685849E+02  0.12982500230E+04  0.13019273232E+04  0.10000000000E+02 0. -1.
</event>
<event>
 5    1  0.1757379E-008  0.3824361E+03  0.7957747E-01  0.3440619E+00
         13   -1    0    0    0    0  0.00000000000E+00  0.00000000000E+00  0.14999999963E+04  0.15000000000E+04  0.10566000000E+00 0.  1.
        994   -1    0    0    0    0 -0.00000000000E+00 -0.00000000000E+00  0.11368683772E-12  0.17120000000E+03  0.17120000000E+03 0.  0.
         13    1    1    2    0    0  0.25712812329E+01  0.97139977056E+01  0.16522996300E+02  0.19338919550E+02  0.10566000000E+00 0.  1.
        994    1    1    2    0    0 -0.68727789927E+01  0.18297423710E+01  0.30762273050E+01  0.17137527891E+03  0.17120000000E+03 0.  0.
        998    1    1    2    0    0  0.43014977599E+01 -0.11543740077E+02  0.14804007727E+04  0.14804858015E+04  0.10000000000E+02 0.  1.
</event>
<event>
 5    1  0.1757379E-008  0.3852866E+03  0.7957747E-01  0.3428457E+00
         13   -1    0    0    0    0  0.00000000000E+00  0.00000000000E+00  0.14999999963E+04  0.15000000000E+04  0.10566000000E+00 0.  1.
        994   -1    0    0    0    0 -0.00000000000E+00 -0.00000000000E+00  0.11368683772E-12  0.17120000000E+03  0.17120000000E+03 0.  0.
         13    1    1    2    0    0 -0.60352794609E+01  0.15823690899E+02  0.99499158273E+02  0.10093021080E+03  0.10566000000E+00 0.  1.
        994    1    1    2    0    0 -0.60080049061E+01 -0.10323336736E+02  0.19567855791E+01  0.17162731838E+03  0.17120000000E+03 0.  0.
        998    1    1    2    0    0  0.12043284367E+02 -0.55003541630E+01  0.13985440524E+04  0.13986424708E+04  0.10000000000E+02 0.  1.
</event>
<event>
 5    1  0.1757379E-008  0.3841757E+03  0.7957747E-01  0.3433176E+00
         13   -1    0    0    0    0  0.00000000000E+00  0.00000000000E+00  0.14999999963E+04  0.15000000000E+04  0.10566000000E+00 0. -1.
        994   -1    0    0    0    0 -0.00000000000E+00 -0.00000000000E+00  0.11368683772E-12  0.17120000000E+03  0.17120000000E+03 0.  0.
         13    1    1    2    0    0  0.39302312939E+01 -0.13024342040E+02  0.44259067598E+02  0.46302877149E+02  0.10566000000E+00 0. -1.
        994    1    1    2    0    0 -0.44637938443E+01  0.11490232761E+02  0.25411375399E+01  0.17166201759E+03  0.17120000000E+03 0.  0.
        998    1    1    2    0    0  0.53356255044E+00  0.15341092789E+01  0.14531997911E+04  0.14532351053E+04  0.10000000000E+02 0. -1.
</event>
<event>
 5    1  0.1757379E-008  0.3887494E+03  0.7957747E-01  0.3413925E+00
         13   -1    0    0    0    0  0.00000000000E+00  0.00000000000E+00  0.14999999963E+04  0.15000000000E+04  0.10566000000E+00 0.  1.
        994   -1    0    0    0    0 -0.00000000000E+00 -0.00000000000E+00  0.11368683772E-12  0.17120000000E+03  0.17120000000E+03 0.  0.
         13    1    1    2    0    0 -0.30498908494E+02 -0.33866511396E+02  0.39961630147E+02  0.60614083030E+02  0.10566000000E+00 0.  1.
        994    1    1    2    0    0  0.51876227299E+02  0.12408678268E+02  0.31949601433E+02  0.18214097641E+03  0.17120000000E+03 0.  0.
        998    1    1    2    0    0 -0.21377318804E+02  0.21457833127E+02  0.14280887647E+04  0.14284449406E+04  0.10000000000E+02 0.  1.
</event>
<event>
 5    1  0.1757379E-008  0.3159703E+03  0.7957747E-01  0.3788215E+00
         13   -1    0    0    0    0  0.00000000000E+00  0.00000000000E+00  0.14999999963E+04  0.15000000000E+04  0.10566000000E+00 0.  1.
        994   -1    0    0    0    0 -0.00000000000E+00 -0.00000000000E+00  0.11368683772E-12  0.17120000000E+03  0.17120000000E+03 0.  0.
         13    1    1    2    0    0 -0.11616030162E+03 -0.19841743838E+03  0.72753138190E+03  0.76299712866E+03  0.10566000000E+00 0.  1.
        994    1    1    2    0    0  0.50511296269E+02  0.20398874602E+03  0.21287777052E+03  0.34465806930E+03  0.17120000000E+03 0.  0.
        998    1    1    2    0    0  0.65649005356E+02 -0.55713076470E+01  0.55959084386E+03  0.56354480204E+03  0.10000000000E+02 0.  1.
</event>
<event>
 5    1  0.1757379E-008  0.3744872E+03  0.7957747E-01  0.3475520E+00
         13   -1    0    0    0    0  0.00000000000E+00  0.00000000000E+00  0.14999999963E+04  0.15000000000E+04  0.10566000000E+00 0.  1.
        994   -1    0    0    0    0 -0.00000000000E+00 -0.00000000000E+00  0.11368683772E-12  0.17120000000E+03  0.17120000000E+03 0.  0.
         13    1    1    2    0    0 -0.12695140503E+02  0.37871317897E+02  0.10756068973E+03  0.11473759824E+03  0.10566000000E+00 0.  1.
        994    1    1    2    0    0  0.42314573028E+01 -0.35211756517E+02  0.11237163402E+02  0.17519556749E+03  0.17120000000E+03 0.  0.
        998    1    1    2    0    0  0.84636832003E+01 -0.26595613807E+01  0.13812021432E+04  0.13812668343E+04  0.10000000000E+02 0.  1.
</event>
<event>
 5    1  0.1757379E-008  0.3796212E+03  0.7957747E-01  0.3452810E+00
         13   -1    0    0    0    0  0.00000000000E+00  0.00000000000E+00  0.14999999963E+04  0.15000000000E+04  0.10566000000E+00 0. -1.
        994   -1    0    0    0    0 -0.00000000000E+00 -0.00000000000E+00  0.11368683772E-12  0.17120000000E+03  0.17120000000E+03 0.  0.
         13    1    1    2    0    0  0.42952177195E+02 -0.41192722942E+02  0.33001482988E+03  0.33533793262E+03  0.10566000000E+00 0. -1.
        994    1    1    2    0    0 -0.45526104264E+02  0.34230078946E+02  0.15261147163E+02  0.18107088967E+03  0.17120000000E+03 0.  0.
        998    1    1    2    0    0  0.25739270683E+01  0.69626439969E+01  0.11547240192E+04  0.11547911777E+04  0.10000000000E+02 0. -1.
</event>
<event>
 5    1  0.1757379E-008  0.3719034E+03  0.7957747E-01  0.3487189E+00
         13   -1    0    0    0    0  0.00000000000E+00  0.00000000000E+00  0.14999999963E+04  0.15000000000E+04  0.10566000000E+00 0. -1.
        994   -1    0    0    0    0 -0.00000000000E+00 -0.00000000000E+00  0.11368683772E-12  0.17120000000E+03  0.17120000000E+03 0.  0.
         13    1    1    2    0    0 -0.25294842851E+02  0.27415721724E+02  0.51638172717E+02  0.63702142178E+02  0.10566000000E+00 0. -1.
        994    1    1    2    0    0  0.28910461994E+02 -0.27245865148E+02  0.17523614404E+02  0.17662012638E+03  0.17120000000E+03 0.  0.
        998    1    1    2    0    0 -0.36156191431E+01 -0.16985657573E+00  0.14308382092E+04  0.14308777314E+04  0.10000000000E+02 0. -1.
</event>
<event>
 5    1  0.1757379E-008  0.3843008E+03  0.7957747E-01  0.3432643E+00
         13   -1    0    0    0    0  0.00000000000E+00  0.00000000000E+00  0.14999999963E+04  0.15000000000E+04  0.10566000000E+00 0.  1.
        994   -1    0    0    0    0 -0.00000000000E+00 -0.00000000000E+00  0.11368683772E-12  0.17120000000E+03  0.17120000000E+03 0.  0.
         13    1    1    2    0    0 -0.12264191865E+02  0.34078121647E+01  0.39221508612E+02  0.41235439706E+02  0.10566000000E+00 0.  1.
        994    1    1    2    0    0  0.16289401575E+02 -0.79385310812E+00  0.28548575906E+01  0.17199873551E+03  0.17120000000E+03 0.  0.
        998    1    1    2    0    0 -0.40252097100E+01 -0.26139590566E+01  0.14579236301E+04  0.14579658248E+04  0.10000000000E+02 0.  1.
</event>
<event>
 5    1  0.1757379E-008  0.3857129E+03  0.7957747E-01  0.3426654E+00
         13   -1    0    0    0    0  0.00000000000E+00  0.00000000000E+00  0.14999999963E+04  0.15000000000E+04  0.10566000000E+00 0.  1.
        994   -1    0    0    0    0 -0.00000000000E+00 -0.00000000000E+00  0.11368683772E-12  0.17120000000E+03  0.17120000000E+03 0.  0.
         13    1    1    2    0    0 -0.14816006759E+02  0.71911523556E+00  0.84239736082E+02  0.85535814032E+02  0.10566000000E+00 0.  1.
        994    1    1    2    0    0  0.13920881286E+02  0.79179137574E+01  0.21186088331E+01  0.17196049778E+03  0.17120000000E+03 0.  0.
        998    1    1    2    0    0  0.89512547298E+00 -0.86370289929E+01  0.14136416514E+04  0.14137036882E+04  0.10000000000E+02 0.  1.
</event>
<event>
 5    1  0.1757379E-008  0.3840553E+03  0.7957747E-01  0.3433689E+00
         13   -1    0    0    0    0  0.00000000000E+00  0.00000000000E+00  0.14999999963E+04  0.15000000000E+04  0.10566000000E+00 0.  1.
        994   -1    0    0    0    0 -0.00000000000E+00 -0.00000000000E+00  0.11368683772E-12  0.17120000000E+03  0.17120000000E+03 0.  0.
         13    1    1    2    0    0 -0.57622845758E+01 -0.17757594018E+02  0.90383296523E+02  0.92291318786E+02  0.10566000000E+00 0.  1.
        994    1    1    2    0    0 -0.46779484549E+01 -0.90273066151E-02  0.21720631795E+01  0.17127767263E+03  0.17120000000E+03 0.  0.
        998    1    1    2    0    0  0.10440233031E+02  0.17766621325E+02  0.14074446366E+04  0.14076310086E+04  0.10000000000E+02 0.  1.
</event>
<event>
 5    1  0.1757379E-008  0.3846827E+03  0.7957747E-01  0.3431019E+00
         13   -1    0    0    0    0  0.00000000000E+00  0.00000000000E+00  0.14999999963E+04  0.15000000000E+04  0.10566000000E+00 0.  1.
        994   -1    0    0    0    0 -0.00000000000E+00 -0.00000000000E+00  0.11368683772E-12  0.17120000000E+03  0.17120000000E+03 0.  0.
         13    1    1    2    0    0  0.12064491384E+02 -0.11877673746E+02  0.74913455464E+02  0.76802786795E+02  0.10566000000E+00 0.  1.
        994    1    1    2    0    0 -0.15818473868E+02  0.14251089666E+02  0.32814981416E+01  0.17255006781E+03  0.17120000000E+03 0.  0.
        998    1    1    2    0    0  0.37539824843E+01 -0.23734159204E+01  0.14218050427E+04  0.14218471454E+04  0.10000000000E+02 0.  1.
</event>
<event>
 5    1  0.1757379E-008  0.3723839E+03  0.7957747E-01  0.3485006E+00
         13   -1    0    0    0    0  0.00000000000E+00  0.00000000000E+00  0.14999999963E+04  0.15000000000E+04  0.10566000000E+00 0. -1.
        994   -1    0    0    0    0 -0.00000000000E+00 -0.00000000000E+00  0.11368683772E-12  0.17120000000E+03  0.17120000000E+03 0.  0.
         13    1    1    2    0    0  0.57188001459E+02 -0.48867815468E+02  0.23680232136E+03  0.24846303843E+03  0.10566000000E+00 0. -1.
        994    1    1    2    0    0 -0.11962547961E+03  0.32331130721E+02  0.62677978986E+02  0.22043939402E+03  0.17120000000E+03 0.  0.
        998    1    1    2    0    0  0.62437478152E+02  0.16536684746E+02  0.12005196959E+04  0.12022975676E+04  0.10000000000E+02 0. -1.
</event>
<event>
 5    1  0.1757379E-008  0.3790447E+03  0.7957747E-01  0.3455329E+00
         13   -1    0    0    0    0  0.00000000000E+00  0.00000000000E+00  0.14999999963E+04  0.15000000000E+04  0.10566000000E+00 0.  1.
        994   -1    0    0    0    0 -0.00000000000E+00 -0.00000000000E+00  0.11368683772E-12  0.17120000000E+03  0.17120000000E+03 0.  0.
         13    1    1    2    0    0 -0.10568064834E+03 -0.60195417428E+02  0.72661582309E+03  0.73672413645E+03  0.10566000000E+00 0.  1.
        994    1    1    2    0    0  0.11964476184E+03  0.46743825330E+02  0.62101154465E+02  0.22285835777E+03  0.17120000000E+03 0.  0.
        998    1    1    2    0    0 -0.13964113500E+02  0.13451592099E+02  0.71128301873E+03  0.71161750578E+03  0.10000000000E+02 0.  1.
</event>
<event>
 5    1  0.1757379E-008  0.3791429E+03  0.7957747E-01  0.3454899E+00
         13   -1    0    0    0    0  0.00000000000E+00  0.00000000000E+00  0.14999999963E+04  0.15000000000E+04  0.10566000000E+00 0.  1.
        994   -1    0    0    0    0 -0.00000000000E+00 -0.00000000000E+00  0.11368683772E-12  0.17120000000E+03  0.17120000000E+03 0.  0.
         13    1    1    2    0    0  0.21598628851E+02 -0.15618609278E+03  0.74198724405E+03  0.75855499329E+03  0.10566000000E+00 0.  1.
        994    1    1    2    0    0 -0.50310143875E+01  0.18708398713E+03  0.13267956356E+03  0.28624995359E+03  0.17120000000E+03 0.  0.
        998    1    1    2    0    0 -0.16567614464E+02 -0.30897894349E+02  0.62533318866E+03  0.62639505312E+03  0.10000000000E+02 0.  1.
</event>
<event>
 5    1  0.1757379E-008  0.3816544E+03  0.7957747E-01  0.3443986E+00
         13   -1    0    0    0    0  0.00000000000E+00  0.00000000000E+00  0.14999999963E+04  0.15000000000E+04  0.10566000000E+00 0. -1.
        994   -1    0    0    0    0 -0.00000000000E+00 -0.00000000000E+00  0.11368683772E-12  0.17120000000E+03  0.17120000000E+03 0.  0.
         13    1    1    2    0    0  0.20259393290E+02  0.14327342275E+02  0.91318611969E+02  0.94629888561E+02  0.10566000000E+00 0. -1.
        994    1    1    2    0    0 -0.16307121712E+02 -0.65695135370E+01  0.43286131833E+01  0.17215474904E+03  0.17120000000E+03 0.  0.
        998    1    1    2    0    0 -0.39522715781E+01 -0.77578287385E+01  0.14043527711E+04  0.14044153624E+04  0.10000000000E+02 0. -1.
</event>
<event>
 5    1  0.2171464E-008  0.3862738E+03  0.7957747E-01  0.3424288E+00
         13   -1    0    0    0    0  0.00000000000E+00  0.00000000000E+00  0.14999999963E+04  0.15000000000E+04  0.10566000000E+00 0. -1.
        994   -1    0    0    0    0 -0.00000000000E+00 -0.00000000000E+00  0.11368683772E-12  0.17120000000E+03  0.17120000000E+03 0.  0.
         13    1    1    2    0    0 -0.45147941238E+01 -0.10443387001E+02  0.67176853432E+02  0.68133607706E+02  0.10566000000E+00 0. -1.
        994    1    1    2    0    0  0.16955512256E+01  0.49092130652E+01  0.10873601592E+01  0.17128221630E+03  0.17120000000E+03 0.  0.
        998    1    1    2    0    0  0.28192428982E+01  0.55341739358E+01  0.14317357827E+04  0.14317841760E+04  0.10000000000E+02 0. -1.
</event>
<event>
 5    1  0.1757379E-008  0.3794390E+03  0.7957747E-01  0.3453605E+00
         13   -1    0    0    0    0  0.00000000000E+00  0.00000000000E+00  0.14999999963E+04  0.15000000000E+04  0.10566000000E+00 0. -1.
        994   -1    0    0    0    0 -0.00000000000E+00 -0.00000000000E+00  0.11368683772E-12  0.17120000000E+03  0.17120000000E+03 0.  0.
         13    1    1    2    0    0  0.11301466339E+01 -0.47366083931E+02  0.22463112124E+03  0.22957346304E+03  0.10566000000E+00 0. -1.
        994    1    1    2    0    0  0.22621662528E+01  0.42867131121E+02  0.10612922972E+02  0.17681850147E+03  0.17120000000E+03 0.  0.
        998    1    1    2    0    0 -0.33923128867E+01  0.44989528099E+01  0.12647559521E+04  0.12648080355E+04  0.10000000000E+02 0. -1.
</event>
<event>
 5    1  0.1757379E-008  0.3824105E+03  0.7957747E-01  0.3440729E+00
         13   -1    0    0    0    0  0.00000000000E+00  0.00000000000E+00  0.14999999963E+04  0.15000000000E+04  0.10566000000E+00 0. -1.
        994   -1    0    0    0    0 -0.00000000000E+00 -0.00000000000E+00  0.11368683772E-12  0.17120000000E+03  0.17120000000E+03 0.  0.
         13    1    1    2    0    0  0.51454675191E+01 -0.27010764967E+02  0.12385900136E+03  0.12687442863E+03  0.10566000000E+00 0. -1.
        994    1    1    2    0    0 -0.33791564970E+01  0.21857317016E+02  0.45452370065E+01  0.17268254163E+03  0.17120000000E+03 0.  0.
        998    1    1    2    0    0 -0.17663110221E+01  0.51534479501E+01  0.13715957579E+04  0.13716430297E+04  0.10000000000E+02 0. -1.
</event>
<event>
 5    1  0.1757379E-008  0.3838370E+03  0.7957747E-01  0.3434620E+00
         13   -1    0    0    0    0  0.00000000000E+00  0.00000000000E+00  0.14999999963E+04  0.15000000000E+04  0.10566000000E+00 0. -1.
        994   -1    0    0    0    0 -0.00000000000E+00 -0.00000000000E+00  0.11368683772E-12  0.17120000000E+03  0.17120000000E+03 0.  0.
         13    1    1    2    0    0 -0.88853011776E+01 -0.14528338327E+02  0.64209241189E+02  0.66429353524E+02  0.10566000000E+00 0. -1.
        994    1    1    2    0    0  0.42770761282E+01  0.13555084268E+02  0.28758507579E+01  0.17181310837E+03  0.17120000000E+03 0.  0.
        998    1    1    2    0    0  0.46082250494E+01  0.97325405846E+00  0.14329149043E+04  0.14329575381E+04  0.10000000000E+02 0. -1.
</event>
<event>
 5    1  0.1757379E-008  0.3812423E+03  0.7957747E-01  0.3445767E+00
         13   -1    0    0    0    0  0.00000000000E+00  0.00000000000E+00  0.14999999963E+04  0.15000000000E+04  0.10566000000E+00 0.  1.
        994   -1    0    0    0    0 -0.00000000000E+00 -0.00000000000E+00  0.11368683772E-12  0.17120000000E+03  0.17120000000E+03 0.  0.
         13    1    1    2    0    0  0.47596019536E+02 -0.22470893713E+02  0.31829260675E+03  0.32261512180E+03  0.10566000000E+00 0.  1.
        994    1    1    2    0    0 -0.45500945828E+02  0.23280812197E+02  0.12253792002E+02  0.17908636940E+03  0.17120000000E+03 0.  0.
        998    1    1    2    0    0 -0.20950737080E+01 -0.80991848462E+00  0.11694535975E+04  0.11694985088E+04  0.10000000000E+02 0.  0.
</event>
<event>
 5    1  0.1757379E-008  0.3803709E+03  0.7957747E-01  0.3449545E+00
         13   -1    0    0    0    0  0.00000000000E+00  0.00000000000E+00  0.14999999963E+04  0.15000000000E+04  0.10566000000E+00 0.  1.
        994   -1    0    0    0    0 -0.00000000000E+00 -0.00000000000E+00  0.11368683772E-12  0.17120000000E+03  0.17120000000E+03 0.  0.
         13    1    1    2    0    0 -0.40437488262E+02  0.30446010132E+02  0.24903605678E+03  0.25412815415E+03  0.10566000000E+00 0.  1.
        994    1    1    2    0    0  0.25164771789E+02 -0.72922763470E+02  0.24077939483E+02  0.18931503464E+03  0.17120000000E+03 0.  0.
        998    1    1    2    0    0  0.15272716472E+02  0.42476753337E+02  0.12268860000E+04  0.12277568112E+04  0.10000000000E+02 0.  1.
</event>
<event>
 5    1  0.1757379E-008  0.3835589E+03  0.7957747E-01  0.3435807E+00
         13   -1    0    0    0    0  0.00000000000E+00  0.00000000000E+00  0.14999999963E+04  0.15000000000E+04  0.10566000000E+00 0.  1.
        994   -1    0    0    0    0 -0.00000000000E+00 -0.00000000000E+00  0.11368683772E-12  0.17120000000E+03  0.17120000000E+03 0.  0.
         13    1    1    2    0    0  0.11239766470E+02 -0.31719822458E+01  0.27729978134E+02  0.30089145435E+02  0.10566000000E+00 0.  1.
        994    1    1    2    0    0 -0.11932848784E+02  0.80813172773E+01  0.30338762492E+01  0.17183231644E+03  0.17120000000E+03 0.  0.
        998    1    1    2    0    0  0.69308231321E+00 -0.49093350316E+01  0.14692361419E+04  0.14692785381E+04  0.10000000000E+02 0.  0.
</event>
<event>
 5    1  0.1757379E-008  0.3824579E+03  0.7957747E-01  0.3440526E+00
         13   -1    0    0    0    0  0.00000000000E+00  0.00000000000E+00  0.14999999963E+04  0.15000000000E+04  0.10566000000E+00 0.  1.
        994   -1    0    0    0    0 -0.00000000000E+00 -0.00000000000E+00  0.11368683772E-12  0.17120000000E+03  0.17120000000E+03 0.  0.
         13    1    1    2    0    0 -0.66880721665E+01  0.32345132591E+02  0.17096435908E+03  0.17412570503E+03  0.10566000000E+00 0.  1.
        994    1    1    2    0    0  0.48073433759E+01 -0.30690149335E+02  0.61040508643E+01  0.17410254235E+03  0.17120000000E+03 0.  0.
        998    1    1    2    0    0  0.18807287906E+01 -0.16549832558E+01  0.13229315863E+04  0.13229717526E+04  0.10000000000E+02 0.  1.
</event>
<event>
 5    1  0.1757379E-008  0.3766350E+03  0.7957747E-01  0.3465943E+00
         13   -1    0    0    0    0  0.00000000000E+00  0.00000000000E+00  0.14999999963E+04  0.15000000000E+04  0.10566000000E+00 0.  1.
        994   -1    0    0    0    0 -0.00000000000E+00 -0.00000000000E+00  0.11368683772E-12  0.17120000000E+03  0.17120000000E+03 0.  0.
         13    1    1    2    0    0  0.43975133775E+01 -0.23574631671E+02  0.46357134396E+02  0.52192877443E+02  0.10566000000E+00 0.  1.
        994    1    1    2    0    0  0.60046517395E+01  0.21168572721E+02  0.74799593205E+01  0.17277023501E+03  0.17120000000E+03 0.  0.
        998    1    1    2    0    0 -0.10402165117E+02  0.24060589501E+01  0.14461629026E+04  0.14462368875E+04  0.10000000000E+02 0.  1.
</event>
<event>
 5    1  0.1757379E-008  0.3784804E+03  0.7957747E-01  0.3457802E+00
         13   -1    0    0    0    0  0.00000000000E+00  0.00000000000E+00  0.14999999963E+04  0.15000000000E+04  0.10566000000E+00 0. -1.
        994   -1    0    0    0    0 -0.00000000000E+00 -0.00000000000E+00  0.11368683772E-12  0.17120000000E+03  0.17120000000E+03 0.  0.
         13    1    1    2    0    0 -0.84333178000E+02 -0.99171762283E+02  0.39561250921E+03  0.41648096229E+03  0.10566000000E+00 0. -1.
        994    1    1    2    0    0  0.78210628299E+02  0.99106276294E+02  0.75429881803E+02  0.22569462432E+03  0.17120000000E+03 0.  0.
        998    1    1    2    0    0  0.61225497011E+01  0.65485988666E-01  0.10289576053E+04  0.10290244134E+04  0.10000000000E+02 0.  0.
</event>
<event>
 5    1  0.1757379E-008  0.3721634E+03  0.7957747E-01  0.3486007E+00
         13   -1    0    0    0    0  0.00000000000E+00  0.00000000000E+00  0.14999999963E+04  0.15000000000E+04  0.10566000000E+00 0.  1.
        994   -1    0    0    0    0 -0.00000000000E+00 -0.00000000000E+00  0.11368683772E-12  0.17120000000E+03  0.17120000000E+03 0.  0.
         13    1    1    2    0    0  0.33714407253E+02  0.52704972639E+00  0.66798450685E+02  0.74826353752E+02  0.10566000000E+00 0.  1.
        994    1    1    2    0    0 -0.21678439841E+02  0.13970092918E+01  0.97639308258E+01  0.17284872211E+03  0.17120000000E+03 0.  0.
        998    1    1    2    0    0 -0.12035967412E+02 -0.19240590182E+01  0.14234376148E+04  0.14235249241E+04  0.10000000000E+02 0.  1.
</event>
<event>
 5    1  0.1757379E-008  0.3845851E+03  0.7957747E-01  0.3431434E+00
         13   -1    0    0    0    0  0.00000000000E+00  0.00000000000E+00  0.14999999963E+04  0.15000000000E+04  0.10566000000E+00 0. -1.
        994   -1    0    0    0    0 -0.00000000000E+00 -0.00000000000E+00  0.11368683772E-12  0.17120000000E+03  0.17120000000E+03 0.  0.
         13    1    1    2    0    0 -0.10497196451E+02  0.90204669334E+00  0.29784381482E+02  0.31593122130E+02  0.10566000000E+00 0. -1.
        994    1    1    2    0    0  0.76045074929E+01 -0.14147068952E-01  0.20267033005E+01  0.17138079315E+03  0.17120000000E+03 0.  0.
        998    1    1    2    0    0  0.28926889583E+01 -0.88789962439E+00  0.14681889115E+04  0.14682260847E+04  0.10000000000E+02 0. -1.
</event>
<event>
 5    1  0.1757379E-008  0.3746660E+03  0.7957747E-01  0.3474718E+00
         13   -1    0    0    0    0  0.00000000000E+00  0.00000000000E+00  0.14999999963E+04  0.15000000000E+04  0.10566000000E+00 0.  1.
        994   -1    0    0    0    0 -0.00000000000E+00 -0.00000000000E+00  0.11368683772E-12  0.17120000000E+03  0.17120000000E+03 0.  0.
         13    1    1    2    0    0 -0.72235607490E+01 -0.48009252476E+02  0.23417187804E+03  0.23915172544E+03  0.10566000000E+00 0.  1.
        994    1    1    2    0    0 -0.80797913148E+01 -0.18138494492E+02  0.81932362074E+01  0.17254233431E+03  0.17120000000E+03 0.  0.
        998    1    1    2    0    0  0.15303352064E+02  0.66147746969E+02  0.12576348820E+04  0.12595059402E+04  0.10000000000E+02 0.  1.
</event>
<event>
 5    1  0.1757379E-008  0.3725988E+03  0.7957747E-01  0.3484032E+00
         13   -1    0    0    0    0  0.00000000000E+00  0.00000000000E+00  0.14999999963E+04  0.15000000000E+04  0.10566000000E+00 0.  1.
        994   -1    0    0    0    0 -0.00000000000E+00 -0.00000000000E+00  0.11368683772E-12  0.17120000000E+03  0.17120000000E+03 0.  0.
         13    1    1    2    0    0  0.10786374451E+03  0.42075296627E+01  0.53155434054E+03  0.54240420241E+03  0.10566000000E+00 0.  1.
        994    1    1    2    0    0 -0.95026294976E+02 -0.13025899910E+02  0.40133683095E+02  0.20029933431E+03  0.17120000000E+03 0.  0.
        998    1    1    2    0    0 -0.12837449538E+02  0.88183702471E+01  0.92831197265E+03  0.92849646328E+03  0.10000000000E+02 0.  0.
</event>
<event>
 5    1  0.1757379E-008  0.3844102E+03  0.7957747E-01  0.3432178E+00
         13   -1    0    0    0    0  0.00000000000E+00  0.00000000000E+00  0.14999999963E+04  0.15000000000E+04  0.10566000000E+00 0. -1.
        994   -1    0    0    0    0 -0.00000000000E+00 -0.00000000000E+00  0.11368683772E-12  0.17120000000E+03  0.17120000000E+03 0.  0.
         13    1    1    2    0    0 -0.19627264880E+02 -0.16389160996E+01  0.10101674999E+03  0.10291895120E+03  0.10566000000E+00 0. -1.
        994    1    1    2    0    0  0.11208072449E+02  0.97077765705E+01  0.26480195086E+01  0.17186132148E+03  0.17120000000E+03 0.  0.
        998    1    1    2    0    0  0.84191924307E+01 -0.80688604709E+01  0.13963352268E+04  0.13964197273E+04  0.10000000000E+02 0. -1.
</event>
<event>
 5    1  0.1868733E-008  0.3855017E+03  0.7957747E-01  0.3427547E+00
         13   -1    0    0    0    0  0.00000000000E+00  0.00000000000E+00  0.14999999963E+04  0.15000000000E+04  0.10566000000E+00 0.  1.
        994   -1    0    0    0    0 -0.00000000000E+00 -0.00000000000E+00  0.11368683772E-12  0.17120000000E+03  0.17120000000E+03 0.  0.
         13    1    1    2    0    0 -0.27548539476E+01  0.10605798699E+02  0.42888200792E+02  0.44266026674E+02  0.10566000000E+00 0.  1.
        994    1    1    2    0    0 -0.39731237638E-01 -0.10791119932E+02  0.17637009299E+01  0.17154882829E+03  0.17120000000E+03 0.  0.
        998    1    1    2    0    0  0.27945851853E+01  0.18532123347E+00  0.14553480946E+04  0.14553851450E+04  0.10000000000E+02 0.  1.
</event>
<event>
 5    1  0.1757379E-008  0.3846812E+03  0.7957747E-01  0.3431025E+00
         13   -1    0    0    0    0  0.00000000000E+00  0.00000000000E+00  0.14999999963E+04  0.15000000000E+04  0.10566000000E+00 0.  1.
        994   -1    0    0    0    0 -0.00000000000E+00 -0.00000000000E+00  0.11368683772E-12  0.17120000000E+03  0.17120000000E+03 0.  0.
         13    1    1    2    0    0 -0.11039549547E+02 -0.10470724454E+02  0.64599434069E+02  0.66367204031E+02  0.10566000000E+00 0.  1.
        994    1    1    2    0    0  0.57039790547E+01  0.84208993657E+01  0.21291202031E+01  0.17151507245E+03  0.17120000000E+03 0.  0.
        998    1    1    2    0    0  0.53355704924E+01  0.20498250880E+01  0.14332714420E+04  0.14333177235E+04  0.10000000000E+02 0.  1.
</event>
<event>
 5    1  0.1757379E-008  0.3715570E+03  0.7957747E-01  0.3488765E+00
         13   -1    0    0    0    0  0.00000000000E+00  0.00000000000E+00  0.14999999963E+04  0.15000000000E+04  0.10566000000E+00 0. -1.
        994   -1    0    0    0    0 -0.00000000000E+00 -0.00000000000E+00  0.11368683772E-12  0.17120000000E+03  0.17120000000E+03 0.  0.
         13    1    1    2    0    0 -0.25280688189E+02 -0.19342396192E+02  0.56451521683E+02  0.64807614908E+02  0.10566000000E+00 0. -1.
        994    1    1    2    0    0  0.11224222295E+02  0.21888363061E+02  0.10541266030E+02  0.17327908672E+03  0.17120000000E+03 0.  0.
        998    1    1    2    0    0  0.14056465894E+02 -0.25459668696E+01  0.14330072086E+04  0.14331132984E+04  0.10000000000E+02 0. -1.
</event>
<event>
 5    1  0.1757379E-008  0.3838425E+03  0.7957747E-01  0.3434596E+00
         13   -1    0    0    0    0  0.00000000000E+00  0.00000000000E+00  0.14999999963E+04  0.15000000000E+04  0.10566000000E+00 0. -1.
        994   -1    0    0    0    0 -0.00000000000E+00 -0.00000000000E+00  0.11368683772E-12  0.17120000000E+03  0.17120000000E+03 0.  0.
         13    1    1    2    0    0  0.11339993913E+01  0.11957051872E+02  0.27127916488E+02  0.29668030961E+02  0.10566000000E+00 0. -1.
        994    1    1    2    0    0  0.22422952825E+02 -0.55688949270E+02  0.14195137608E+02  0.18197524506E+03  0.17120000000E+03 0.  0.
        998    1    1    2    0    0 -0.23556952216E+02  0.43731897398E+02  0.14586769422E+04  0.14595567240E+04  0.10000000000E+02 0. -1.
</event>
<event>
 5    1  0.1757379E-008  0.3803046E+03  0.7957747E-01  0.3449833E+00
         13   -1    0    0    0    0  0.00000000000E+00  0.00000000000E+00  0.14999999963E+04  0.15000000000E+04  0.10566000000E+00 0.  1.
        994   -1    0    0    0    0 -0.00000000000E+00 -0.00000000000E+00  0.11368683772E-12  0.17120000000E+03  0.17120000000E+03 0.  0.
         13    1    1    2    0    0 -0.23050207113E+02 -0.32542680096E+02  0.21540093084E+03  0.21906143030E+03  0.10566000000E+00 0.  1.
        994    1    1    2    0    0  0.55407657123E+01  0.11633069451E+02  0.45341159468E+01  0.17174407296E+03  0.17120000000E+03 0.  0.
        998    1    1    2    0    0  0.17509441401E+02  0.20909610645E+02  0.12800649495E+04  0.12803944967E+04  0.10000000000E+02 0.  1.
</event>
<event>
 5    1  0.1757379E-008  0.3849415E+03  0.7957747E-01  0.3429920E+00
         13   -1    0    0    0    0  0.00000000000E+00  0.00000000000E+00  0.14999999963E+04  0.15000000000E+04  0.10566000000E+00 0. -1.
        994   -1    0    0    0    0 -0.00000000000E+00 -0.00000000000E+00  0.11368683772E-12  0.17120000000E+03  0.17120000000E+03 0.  0.
         13    1    1    2    0    0  0.10096158296E+02 -0.99212938539E+01  0.59348077557E+02  0.61012867149E+02  0.10566000000E+00 0. -1.
        994    1    1    2    0    0 -0.93193769090E+01  0.78602570234E+01  0.21482202606E+01  0.17164699029E+03  0.17120000000E+03 0.  0.
        998    1    1    2    0    0 -0.77678138694E+00  0.20610368304E+01  0.14385036985E+04  0.14385401426E+04  0.10000000000E+02 0. -1.
</event>
<event>
 5    1  0.1757379E-008  0.3844945E+03  0.7957747E-01  0.3431819E+00
         13   -1    0    0    0    0  0.00000000000E+00  0.00000000000E+00  0.14999999963E+04  0.15000000000E+04  0.10566000000E+00 0. -1.
        994   -1    0    0    0    0 -0.00000000000E+00 -0.00000000000E+00  0.11368683772E-12  0.17120000000E+03  0.17120000000E+03 0.  0.
         13    1    1    2    0    0 -0.59775750649E+01  0.15237696448E+02  0.91875246104E+02  0.93321973872E+02  0.10566000000E+00 0. -1.
        994    1    1    2    0    0 -0.39160462040E+02  0.88878758905E+01  0.72112561435E+01  0.17599425655E+03  0.17120000000E+03 0.  0.
        998    1    1    2    0    0  0.45138037105E+02 -0.24125572339E+02  0.14009134940E+04  0.14018837696E+04  0.10000000000E+02 0. -1.
</event>
<event>
 5    1  0.1757379E-008  0.3857638E+03  0.7957747E-01  0.3426439E+00
         13   -1    0    0    0    0  0.00000000000E+00  0.00000000000E+00  0.14999999963E+04  0.15000000000E+04  0.10566000000E+00 0. -1.
        994   -1    0    0    0    0 -0.00000000000E+00 -0.00000000000E+00  0.11368683772E-12  0.17120000000E+03  0.17120000000E+03 0.  0.
         13    1    1    2    0    0  0.37490136039E+00 -0.10932991851E+02  0.47311441641E+02  0.48559803706E+02  0.10566000000E+00 0. -1.
        994    1    1    2    0    0 -0.31477121100E+01  0.10269082704E+02  0.16299516815E+01  0.17154433507E+03  0.17120000000E+03 0.  0.
        998    1    1    2    0    0  0.27728107496E+01  0.66390914793E+00  0.14510586030E+04  0.14510958612E+04  0.10000000000E+02 0. -1.
</event>
<event>
 5    1  0.1757379E-008  0.3698731E+03  0.7957747E-01  0.3496474E+00
         13   -1    0    0    0    0  0.00000000000E+00  0.00000000000E+00  0.14999999963E+04  0.15000000000E+04  0.10566000000E+00 0.  1.
        994   -1    0    0    0    0 -0.00000000000E+00 -0.00000000000E+00  0.11368683772E-12  0.17120000000E+03  0.17120000000E+03 0.  0.
         13    1    1    2    0    0  0.15307653299E+02  0.34364493793E+02  0.58186661004E+02  0.69288825693E+02  0.10566000000E+00 0.  1.
        994    1    1    2    0    0 -0.36519237276E+02 -0.28841539877E+02  0.18477410529E+02  0.17837136489E+03  0.17120000000E+03 0.  0.
        998    1    1    2    0    0  0.21211583978E+02 -0.55229539159E+01  0.14233359247E+04  0.14235398094E+04  0.10000000000E+02 0.  1.
</event>
<event>
 5    1  0.1757379E-008  0.3834586E+03  0.7957747E-01  0.3436236E+00
         13   -1    0    0    0    0  0.00000000000E+00  0.00000000000E+00  0.14999999963E+04  0.15000000000E+04  0.10566000000E+00 0.  1.
        994   -1    0    0    0    0 -0.00000000000E+00 -0.00000000000E+00  0.11368683772E-12  0.17120000000E+03  0.17120000000E+03 0.  0.
         13    1    1    2    0    0  0.23715953611E+02 -0.10594693368E+02  0.12409854347E+03  0.12678782922E+03  0.10566000000E+00 0.  1.
        994    1    1    2    0    0 -0.24169431947E+02  0.26641398661E+02  0.66857874017E+01  0.17506588850E+03  0.17120000000E+03 0.  0.
        998    1    1    2    0    0  0.45347833592E+00 -0.16046705293E+02  0.13692156654E+04  0.13693462823E+04  0.10000000000E+02 0.  1.
</event>
<event>
 5    1  0.2170812E-008  0.3855721E+03  0.7957747E-01  0.3427250E+00
         13   -1    0    0    0    0  0.00000000000E+00  0.00000000000E+00  0.14999999963E+04  0.15000000000E+04  0.10566000000E+00 0.  1.
        994   -1    0    0    0    0 -0.00000000000E+00 -0.00000000000E+00  0.11368683772E-12  0.17120000000E+03  0.17120000000E+03 0.  0.
         13    1    1    2    0    0  0.10167736391E+02  0.17488080758E+01  0.39094741418E+02  0.40433292762E+02  0.10566000000E+00 0.  1.
        994    1    1    2    0    0 -0.97181519964E+01 -0.90007024013E+00  0.16591190622E+01  0.17148599150E+03  0.17120000000E+03 0.  0.
        998    1    1    2    0    0 -0.44958439476E+00 -0.84873783564E+00  0.14592461358E+04  0.14592807157E+04  0.10000000000E+02 0.  1.
</event>
<event>
 5    1  0.1757379E-008  0.3750368E+03  0.7957747E-01  0.3473058E+00
         13   -1    0    0    0    0  0.00000000000E+00  0.00000000000E+00  0.14999999963E+04  0.15000000000E+04  0.10566000000E+00 0.  1.
        994   -1    0    0    0    0 -0.00000000000E+00 -0.00000000000E+00  0.11368683772E-12  0.17120000000E+03  0.17120000000E+03 0.  0.
         13    1    1    2    0    0 -0.32920018552E+01 -0.10200927993E+02  0.55342425257E+01  0.12063797599E+02  0.10566000000E+00 0.  1.
        994    1    1    2    0    0  0.39687523546E+01  0.89644307469E+01  0.69865707108E+01  0.17162273796E+03  0.17120000000E+03 0.  0.
        998    1    1    2    0    0 -0.67675049941E+00  0.12364972461E+01  0.14874791830E+04  0.14875134644E+04  0.10000000000E+02 0.  1.
</event>
<event>
 5    1  0.1757379E-008  0.3791994E+03  0.7957747E-01  0.3454652E+00
         13   -1    0    0    0    0  0.00000000000E+00  0.00000000000E+00  0.14999999963E+04  0.15000000000E+04  0.10566000000E+00 0.  1.
        994   -1    0    0    0    0 -0.00000000000E+00 -0.00000000000E+00  0.11368683772E-12  0.17120000000E+03  0.17120000000E+03 0.  0.
         13    1    1    2    0    0  0.30325169846E+01 -0.11226897589E+02  0.13001499482E+02  0.17443896972E+02  0.10566000000E+00 0.  1.
        994    1    1    2    0    0 -0.50095284319E+01  0.44247689297E+01  0.46875867831E+01  0.17139453733E+03  0.17120000000E+03 0.  0.
        998    1    1    2    0    0  0.19770114474E+01  0.68021286592E+01  0.14823109100E+04  0.14823615657E+04  0.10000000000E+02 0.  1.
</event>
<event>
 5    1  0.1757379E-008  0.3783795E+03  0.7957747E-01  0.3458245E+00
         13   -1    0    0    0    0  0.00000000000E+00  0.00000000000E+00  0.14999999963E+04  0.15000000000E+04  0.10566000000E+00 0. -1.
        994   -1    0    0    0    0 -0.00000000000E+00 -0.00000000000E+00  0.11368683772E-12  0.17120000000E+03  0.17120000000E+03 0.  0.
         13    1    1    2    0    0 -0.15933055619E+02 -0.63271083568E+00  0.24474516005E+02  0.29210882939E+02  0.10566000000E+00 0. -1.
        994    1    1    2    0    0 -0.25250472674E+01  0.52749633162E+01  0.50683557006E+01  0.17137482117E+03  0.17120000000E+03 0.  0.
        998    1    1    2    0    0  0.18458102886E+02 -0.46422524805E+01  0.14704571246E+04  0.14706142959E+04  0.10000000000E+02 0. -1.
</event>
<event>
 5    1  0.1757379E-008  0.3732384E+03  0.7957747E-01  0.3481139E+00
         13   -1    0    0    0    0  0.00000000000E+00  0.00000000000E+00  0.14999999963E+04  0.15000000000E+04  0.10566000000E+00 0.  1.
        994   -1    0    0    0    0 -0.00000000000E+00 -0.00000000000E+00  0.11368683772E-12  0.17120000000E+03  0.17120000000E+03 0.  0.
         13    1    1    2    0    0 -0.93174461386E+01  0.17111982535E+02  0.21522680401E+02  0.29032252488E+02  0.10566000000E+00 0.  1.
        994    1    1    2    0    0  0.11457691684E+02 -0.15301185885E+02  0.88366440415E+01  0.17249038021E+03  0.17120000000E+03 0.  0.
        998    1    1    2    0    0 -0.21402455453E+01 -0.18107966502E+01  0.14696406718E+04  0.14696773673E+04  0.10000000000E+02 0.  1.
</event>
<event>
 5    1  0.1757379E-008  0.3816752E+03  0.7957747E-01  0.3443897E+00
         13   -1    0    0    0    0  0.00000000000E+00  0.00000000000E+00  0.14999999963E+04  0.15000000000E+04  0.10566000000E+00 0.  1.
        994   -1    0    0    0    0 -0.00000000000E+00 -0.00000000000E+00  0.11368683772E-12  0.17120000000E+03  0.17120000000E+03 0.  0.
         13    1    1    2    0    0 -0.20059435860E+02 -0.51470607436E+01  0.64549194393E+02  0.67789990870E+02  0.10566000000E+00 0.  1.
        994    1    1    2    0    0  0.48139060552E+01  0.29952023617E+02  0.63554613761E+01  0.17398312935E+03  0.17120000000E+03 0.  0.
        998    1    1    2    0    0  0.15245529805E+02 -0.24804962874E+02  0.14290953405E+04  0.14294268798E+04  0.10000000000E+02 0.  1.
</event>
<event>
 5    1  0.1757379E-008  0.3892978E+03  0.7957747E-01  0.3411647E+00
         13   -1    0    0    0    0  0.00000000000E+00  0.00000000000E+00  0.14999999963E+04  0.15000000000E+04  0.10566000000E+00 0. -1.
        994   -1    0    0    0    0 -0.00000000000E+00 -0.00000000000E+00  0.11368683772E-12  0.17120000000E+03  0.17120000000E+03 0.  0.
         13    1    1    2    0    0  0.16907319386E+02 -0.46568781227E+02  0.41874737416E+02  0.64869204030E+02  0.10566000000E+00 0. -1.
        994    1    1    2    0    0  0.79114749765E+00  0.10063004494E+03  0.60619944126E+02  0.20763248658E+03  0.17120000000E+03 0.  0.
        998    1    1    2    0    0 -0.17698466884E+02 -0.54061263714E+02  0.13975053147E+04  0.13986983094E+04  0.10000000000E+02 0. -1.
</event>
<event>
 5    1  0.2374987E-008  0.3864028E+03  0.7957747E-01  0.3423745E+00
         13   -1    0    0    0    0  0.00000000000E+00  0.00000000000E+00  0.14999999963E+04  0.15000000000E+04  0.10566000000E+00 0.  1.
        994   -1    0    0    0    0 -0.00000000000E+00 -0.00000000000E+00  0.11368683772E-12  0.17120000000E+03  0.17120000000E+03 0.  0.
         13    1    1    2    0    0 -0.62366531041E+01  0.78833592557E+01  0.55481315949E+02  0.56384667938E+02  0.10566000000E+00 0.  1.
        994    1    1    2    0    0  0.61139377042E+01 -0.26266866370E+01  0.10802423794E+01  0.17133267826E+03  0.17120000000E+03 0.  0.
        998    1    1    2    0    0  0.12271539983E+00 -0.52566726188E+01  0.14434384380E+04  0.14434826538E+04  0.10000000000E+02 0.  1.
</event>
<event>
 5    1  0.1757379E-008  0.2638015E+03  0.7957747E-01  0.4193967E+00
         13   -1    0    0    0    0  0.00000000000E+00  0.00000000000E+00  0.14999999963E+04  0.15000000000E+04  0.10566000000E+00 0.  1.
        994   -1    0    0    0    0 -0.00000000000E+00 -0.00000000000E+00  0.11368683772E-12  0.17120000000E+03  0.17120000000E+03 0.  0.
         13    1    1    2    0    0 -0.62098558575E+02  0.13314486317E+03  0.57340384935E+03  0.59192547772E+03  0.10566000000E+00 0.  1.
        994    1    1    2    0    0  0.40637973059E+02 -0.26960392991E+02  0.35442277013E+02  0.18150455268E+03  0.17120000000E+03 0.  0.
        998    1    1    2    0    0  0.21460585516E+02 -0.10618447018E+03  0.89115386992E+03  0.89776996959E+03  0.10000000000E+02 0.  1.
</event>
<event>
 5    1  0.1757379E-008  0.3691541E+03  0.7957747E-01  0.3499788E+00
         13   -1    0    0    0    0  0.00000000000E+00  0.00000000000E+00  0.14999999963E+04  0.15000000000E+04  0.10566000000E+00 0.  1.
        994   -1    0    0    0    0 -0.00000000000E+00 -0.00000000000E+00  0.11368683772E-12  0.17120000000E+03  0.17120000000E+03 0.  0.
         13    1    1    2    0    0  0.86042248849E+01 -0.51225973054E+02  0.12030563667E+03  0.13104041506E+03  0.10566000000E+00 0.  1.
        994    1    1    2    0    0 -0.11583563632E+02  0.40761443588E+02  0.16777524163E+02  0.17716263587E+03  0.17120000000E+03 0.  0.
        998    1    1    2    0    0  0.29793387470E+01  0.10464529465E+02  0.13629168354E+04  0.13629969491E+04  0.10000000000E+02 0.  1.
</event>
<event>
 5    1  0.1757379E-008  0.3855893E+03  0.7957747E-01  0.3427177E+00
         13   -1    0    0    0    0  0.00000000000E+00  0.00000000000E+00  0.14999999963E+04  0.15000000000E+04  0.10566000000E+00 0. -1.
        994   -1    0    0    0    0 -0.00000000000E+00 -0.00000000000E+00  0.11368683772E-12  0.17120000000E+03  0.17120000000E+03 0.  0.
         13    1    1    2    0    0  0.10269562719E+02 -0.86408344405E+01  0.74394113936E+02  0.75595127427E+02  0.10566000000E+00 0. -1.
        994    1    1    2    0    0  0.20492177718E+00 -0.51751439241E+01  0.14259025668E+01  0.17128425878E+03  0.17120000000E+03 0.  0.
        998    1    1    2    0    0 -0.10474484497E+02  0.13815978365E+02  0.14241799798E+04  0.14243206138E+04  0.10000000000E+02 0. -1.
</event>
<event>
 5    1  0.1757379E-008  0.3694902E+03  0.7957747E-01  0.3498237E+00
         13   -1    0    0    0    0  0.00000000000E+00  0.00000000000E+00  0.14999999963E+04  0.15000000000E+04  0.10566000000E+00 0.  1.
        994   -1    0    0    0    0 -0.00000000000E+00 -0.00000000000E+00  0.11368683772E-12  0.17120000000E+03  0.17120000000E+03 0.  0.
         13    1    1    2    0    0  0.22809325370E+02  0.74124766188E+00  0.23543650848E+02  0.32789166370E+02  0.10566000000E+00 0.  1.
        994    1    1    2    0    0 -0.10989670776E+02 -0.18498766950E+02  0.11141050337E+02  0.17290616023E+03  0.17120000000E+03 0.  0.
        998    1    1    2    0    0 -0.11819654594E+02  0.17757519288E+02  0.14653152951E+04  0.14655046734E+04  0.10000000000E+02 0.  1.
</event>
<event>
 5    1  0.1757379E-008  0.3954210E+03  0.7957747E-01  0.3386643E+00
         13   -1    0    0    0    0  0.00000000000E+00  0.00000000000E+00  0.14999999963E+04  0.15000000000E+04  0.10566000000E+00 0. -1.
        994   -1    0    0    0    0 -0.00000000000E+00 -0.00000000000E+00  0.11368683772E-12  0.17120000000E+03  0.17120000000E+03 0.  0.
         13    1    1    2    0    0 -0.45126409514E+02  0.20973380505E+02  0.40255599168E+02  0.64006249335E+02  0.10566000000E+00 0. -1.
        994    1    1    2    0    0  0.56674797818E+02  0.41817562087E+02  0.44396440151E+02  0.19037128225E+03  0.17120000000E+03 0.  0.
        998    1    1    2    0    0 -0.11548388304E+02 -0.62790942592E+02  0.14153479570E+04  0.14168224684E+04  0.10000000000E+02 0. -1.
</event>
<event>
 5    1  0.1757379E-008  0.3183516E+03  0.7957747E-01  0.3773133E+00
         13   -1    0    0    0    0  0.00000000000E+00  0.00000000000E+00  0.14999999963E+04  0.15000000000E+04  0.10566000000E+00 0. -1.
        994   -1    0    0    0    0 -0.00000000000E+00 -0.00000000000E+00  0.11368683772E-12  0.17120000000E+03  0.17120000000E+03 0.  0.
         13    1    1    2    0    0  0.14044400615E+03  0.12433968544E+03  0.92638773047E+03  0.94518734363E+03  0.10566000000E+00 0. -1.
        994    1    1    2    0    0 -0.68183329411E+02 -0.77192937465E+02  0.65093660242E+02  0.21012934257E+03  0.17120000000E+03 0.  0.
        998    1    1    2    0    0 -0.72260676741E+02 -0.47146747972E+02  0.50851860557E+03  0.51588331380E+03  0.10000000000E+02 0. -1.
</event>
<event>
 5    1  0.1757379E-008  0.3777091E+03  0.7957747E-01  0.3461195E+00
         13   -1    0    0    0    0  0.00000000000E+00  0.00000000000E+00  0.14999999963E+04  0.15000000000E+04  0.10566000000E+00 0. -1.
        994   -1    0    0    0    0 -0.00000000000E+00 -0.00000000000E+00  0.11368683772E-12  0.17120000000E+03  0.17120000000E+03 0.  0.
         13    1    1    2    0    0  0.18013906983E+02  0.33091522482E+01  0.28871978709E+02  0.34191426586E+02  0.10566000000E+00 0. -1.
        994    1    1    2    0    0 -0.21015223498E+02  0.19519267309E+01  0.67959946595E+01  0.17262987916E+03  0.17120000000E+03 0.  0.
        998    1    1    2    0    0  0.30013165143E+01 -0.52610789791E+01  0.14643320229E+04  0.14643786942E+04  0.10000000000E+02 0. -1.
</event>
<event>
 5    1  0.1757379E-008  0.3842681E+03  0.7957747E-01  0.3432782E+00
         13   -1    0    0    0    0  0.00000000000E+00  0.00000000000E+00  0.14999999963E+04  0.15000000000E+04  0.10566000000E+00 0. -1.
        994   -1    0    0    0    0 -0.00000000000E+00 -0.00000000000E+00  0.11368683772E-12  0.17120000000E+03  0.17120000000E+03 0.  0.
         13    1    1    2    0    0 -0.10649154764E+02 -0.47514765506E+01  0.32820629754E+02  0.34830818654E+02  0.10566000000E+00 0. -1.
        994    1    1    2    0    0  0.13450159495E+02  0.34755210933E+01  0.26304019588E+01  0.17178284272E+03  0.17120000000E+03 0.  0.
        998    1    1    2    0    0 -0.28010047313E+01  0.12759554573E+01  0.14645489646E+04  0.14645863386E+04  0.10000000000E+02 0. -1.
</event>
<event>
 5    1  0.1757379E-008  0.3842011E+03  0.7957747E-01  0.3433068E+00
         13   -1    0    0    0    0  0.00000000000E+00  0.00000000000E+00  0.14999999963E+04  0.15000000000E+04  0.10566000000E+00 0. -1.
        994   -1    0    0    0    0 -0.00000000000E+00 -0.00000000000E+00  0.11368683772E-12  0.17120000000E+03  0.17120000000E+03 0.  0.
         13    1    1    2    0    0 -0.14106973457E+02  0.41590179577E+01  0.48559044707E+02  0.50737521790E+02  0.10566000000E+00 0. -1.
        994    1    1    2    0    0  0.18999300555E+02 -0.34105608005E+02  0.70690168643E+01  0.17573723828E+03  0.17120000000E+03 0.  0.
        998    1    1    2    0    0 -0.48923270976E+01  0.29946590047E+02  0.14443719347E+04  0.14447252399E+04  0.10000000000E+02 0. -1.
</event>
<event>
 5    1  0.1757379E-008  0.2627918E+03  0.7957747E-01  0.4203607E+00
         13   -1    0    0    0    0  0.00000000000E+00  0.00000000000E+00  0.14999999963E+04  0.15000000000E+04  0.10566000000E+00 0.  1.
        994   -1    0    0    0    0 -0.00000000000E+00 -0.00000000000E+00  0.11368683772E-12  0.17120000000E+03  0.17120000000E+03 0.  0.
         13    1    1    2    0    0  0.18329730233E+03 -0.30351208521E+02  0.45347635279E+03  0.49006112946E+03  0.10566000000E+00 0.  1.
        994    1    1    2    0    0 -0.12150403337E+03  0.35967240373E+02  0.10490756665E+03  0.23742769435E+03  0.17120000000E+03 0.  0.
        998    1    1    2    0    0 -0.61793268964E+02 -0.56160318523E+01  0.94161607684E+03  0.94371117619E+03  0.10000000000E+02 0.  1.
</event>
<event>
 5    1  0.1757379E-008  0.3811625E+03  0.7957747E-01  0.3446112E+00
         13   -1    0    0    0    0  0.00000000000E+00  0.00000000000E+00  0.14999999963E+04  0.15000000000E+04  0.10566000000E+00 0. -1.
        994   -1    0    0    0    0 -0.00000000000E+00 -0.00000000000E+00  0.11368683772E-12  0.17120000000E+03  0.17120000000E+03 0.  0.
         13    1    1    2    0    0  0.52808979873E+01  0.13284800383E+02  0.27133042658E+02  0.30668990408E+02  0.10566000000E+00 0. -1.
        994    1    1    2    0    0 -0.85129170356E-01 -0.14191423495E+02  0.42184506092E+01  0.17183899171E+03  0.17120000000E+03 0.  0.
        998    1    1    2    0    0 -0.51957688169E+01  0.90662311238E+00  0.14686485030E+04  0.14686920179E+04  0.10000000000E+02 0. -1.
</event>
<event>
 5    1  0.1984961E-008  0.3855805E+03  0.7957747E-01  0.3427214E+00
         13   -1    0    0    0    0  0.00000000000E+00  0.00000000000E+00  0.14999999963E+04  0.15000000000E+04  0.10566000000E+00 0.  1.
        994   -1    0    0    0    0 -0.00000000000E+00 -0.00000000000E+00  0.11368683772E-12  0.17120000000E+03  0.17120000000E+03 0.  0.
         13    1    1    2    0    0 -0.22712189633E+01 -0.10239533406E+02  0.41803568163E+02  0.43099373025E+02  0.10566000000E+00 0.  1.
        994    1    1    2    0    0 -0.82836478001E+00  0.46057313812E+01  0.14140969563E+01  0.17126978315E+03  0.17120000000E+03 0.  0.
        998    1    1    2    0    0  0.30995837433E+01  0.56338020244E+01  0.14567823312E+04  0.14568308438E+04  0.10000000000E+02 0.  1.
</event>
<event>
 5    1  0.1757379E-008  0.3216302E+03  0.7957747E-01  0.3752757E+00
         13   -1    0    0    0    0  0.00000000000E+00  0.00000000000E+00  0.14999999963E+04  0.15000000000E+04  0.10566000000E+00 0.  1.
        994   -1    0    0    0    0 -0.00000000000E+00 -0.00000000000E+00  0.11368683772E-12  0.17120000000E+03  0.17120000000E+03 0.  0.
         13    1    1    2    0    0 -0.22669774734E+03  0.97086121397E+02  0.63649080409E+03  0.68259661475E+03  0.10566000000E+00 0.  1.
        994    1    1    2    0    0  0.21341319370E+03 -0.14813561836E+03  0.33430304436E+03  0.45668076173E+03  0.17120000000E+03 0.  0.
        998    1    1    2    0    0  0.13284553637E+02  0.51049496959E+02  0.52920614783E+03  0.53192262352E+03  0.10000000000E+02 0. -1.
</event>
<event>
 5    1  0.1757379E-008  0.3761709E+03  0.7957747E-01  0.3468002E+00
         13   -1    0    0    0    0  0.00000000000E+00  0.00000000000E+00  0.14999999963E+04  0.15000000000E+04  0.10566000000E+00 0.  1.
        994   -1    0    0    0    0 -0.00000000000E+00 -0.00000000000E+00  0.11368683772E-12  0.17120000000E+03  0.17120000000E+03 0.  0.
         13    1    1    2    0    0 -0.18498763412E+02  0.52751222154E+02  0.20289795728E+03  0.21045780555E+03  0.10566000000E+00 0.  1.
        994    1    1    2    0    0 -0.13127922335E+01 -0.75017113031E+02  0.25382977914E+02  0.18863463690E+03  0.17120000000E+03 0.  0.
        998    1    1    2    0    0  0.19811555645E+02  0.22265890878E+02  0.12717190611E+04  0.12721075575E+04  0.10000000000E+02 0.  1.
</event>
<event>
 5    1  0.1757379E-008  0.3781576E+03  0.7957747E-01  0.3459220E+00
         13   -1    0    0    0    0  0.00000000000E+00  0.00000000000E+00  0.14999999963E+04  0.15000000000E+04  0.10566000000E+00 0. -1.
        994   -1    0    0    0    0 -0.00000000000E+00 -0.00000000000E+00  0.11368683772E-12  0.17120000000E+03  0.17120000000E+03 0.  0.
         13    1    1    2    0    0 -0.19625138331E+02  0.86455957781E+01  0.43298609962E+02  0.48318455786E+02  0.10566000000E+00 0. -1.
        994    1    1    2    0    0  0.11626930606E+02 -0.10797096570E+02  0.59133222061E+01  0.17203537482E+03  0.17120000000E+03 0.  0.
        998    1    1    2    0    0  0.79982077250E+01  0.21515007916E+01  0.14507880641E+04  0.14508461694E+04  0.10000000000E+02 0. -1.
</event>
<event>
 5    1  0.1757379E-008  0.3720153E+03  0.7957747E-01  0.3486680E+00
         13   -1    0    0    0    0  0.00000000000E+00  0.00000000000E+00  0.14999999963E+04  0.15000000000E+04  0.10566000000E+00 0. -1.
        994   -1    0    0    0    0 -0.00000000000E+00 -0.00000000000E+00  0.11368683772E-12  0.17120000000E+03  0.17120000000E+03 0.  0.
         13    1    1    2    0    0 -0.25385369804E+02  0.52062435606E+02  0.15012443067E+03  0.16091075181E+03  0.10566000000E+00 0. -1.
        994    1    1    2    0    0  0.35608212551E+01 -0.10891237642E+02  0.12470860300E+02  0.17203563835E+03  0.17120000000E+03 0.  0.
        998    1    1    2    0    0  0.21824548549E+02 -0.41171197965E+02  0.13374047053E+04  0.13382536098E+04  0.10000000000E+02 0. -1.
</event>
<event>
 5    1  0.1757379E-008  0.3858433E+03  0.7957747E-01  0.3426104E+00
         13   -1    0    0    0    0  0.00000000000E+00  0.00000000000E+00  0.14999999963E+04  0.15000000000E+04  0.10566000000E+00 0. -1.
        994   -1    0    0    0    0 -0.00000000000E+00 -0.00000000000E+00  0.11368683772E-12  0.17120000000E+03  0.17120000000E+03 0.  0.
         13    1    1    2    0    0  0.16133058803E+01  0.14939271700E+02  0.89151050960E+02  0.90408548523E+02  0.10566000000E+00 0. -1.
        994    1    1    2    0    0 -0.34170700307E+01 -0.15680383116E+02  0.20571874094E+01  0.17196285297E+03  0.17120000000E+03 0.  0.
        998    1    1    2    0    0  0.18037641505E+01  0.74111141511E+00  0.14087917579E+04  0.14088285985E+04  0.10000000000E+02 0. -1.
</event>
<event>
 5    1  0.1757379E-008  0.3845684E+03  0.7957747E-01  0.3431505E+00
         13   -1    0    0    0    0  0.00000000000E+00  0.00000000000E+00  0.14999999963E+04  0.15000000000E+04  0.10566000000E+00 0. -1.
        994   -1    0    0    0    0 -0.00000000000E+00 -0.00000000000E+00  0.11368683772E-12  0.17120000000E+03  0.17120000000E+03 0.  0.
         13    1    1    2    0    0 -0.11646393634E+02 -0.50791382542E+01  0.41700792660E+02  0.43593616535E+02  0.10566000000E+00 0. -1.
        994    1    1    2    0    0  0.16138999101E+02  0.59074279259E+01  0.28178838726E+01  0.17208354211E+03  0.17120000000E+03 0.  0.
        998    1    1    2    0    0 -0.44926054670E+01 -0.82828967164E+00  0.14554813197E+04  0.14555228414E+04  0.10000000000E+02 0. -1.
</event>
<event>
 5    1  0.1757379E-008  0.3788428E+03  0.7957747E-01  0.3456213E+00
         13   -1    0    0    0    0  0.00000000000E+00  0.00000000000E+00  0.14999999963E+04  0.15000000000E+04  0.10566000000E+00 0.  1.
        994   -1    0    0    0    0 -0.00000000000E+00 -0.00000000000E+00  0.11368683772E-12  0.17120000000E+03  0.17120000000E+03 0.  0.
         13    1    1    2    0    0 -0.21475342504E+02 -0.55059431865E+02  0.29811236092E+03  0.30391400473E+03  0.10566000000E+00 0.  1.
        994    1    1    2    0    0  0.37135197220E+01  0.62171630812E+02  0.17847848414E+02  0.18304941300E+03  0.17120000000E+03 0.  0.
        998    1    1    2    0    0  0.17761822782E+02 -0.71121989466E+01  0.11840397869E+04  0.11842365823E+04  0.10000000000E+02 0.  1.
</event>
<event>
 5    1  0.1757379E-008  0.3799397E+03  0.7957747E-01  0.3451421E+00
         13   -1    0    0    0    0  0.00000000000E+00  0.00000000000E+00  0.14999999963E+04  0.15000000000E+04  0.10566000000E+00 0. -1.
        994   -1    0    0    0    0 -0.00000000000E+00 -0.00000000000E+00  0.11368683772E-12  0.17120000000E+03  0.17120000000E+03 0.  0.
         13    1    1    2    0    0  0.26431587669E+02  0.35551633448E+01  0.80112533012E+02  0.84435165203E+02  0.10566000000E+00 0. -1.
        994    1    1    2    0    0 -0.26751374144E+02 -0.16224572887E+01  0.65688743555E+01  0.17340951097E+03  0.17120000000E+03 0.  0.
        998    1    1    2    0    0  0.31978647472E+00 -0.19327060561E+01  0.14133185889E+04  0.14133553238E+04  0.10000000000E+02 0. -1.
</event>
<event>
 5    1  0.1757379E-008  0.3795065E+03  0.7957747E-01  0.3453310E+00
         13   -1    0    0    0    0  0.00000000000E+00  0.00000000000E+00  0.14999999963E+04  0.15000000000E+04  0.10566000000E+00 0. -1.
        994   -1    0    0    0    0 -0.00000000000E+00 -0.00000000000E+00  0.11368683772E-12  0.17120000000E+03  0.17120000000E+03 0.  0.
         13    1    1    2    0    0 -0.49860341770E+02  0.31025039402E+02  0.29069237258E+03  0.29656478785E+03  0.10566000000E+00 0. -1.
        994    1    1    2    0    0  0.59149407866E+02 -0.34704581686E+02  0.20294484783E+02  0.18553804611E+03  0.17120000000E+03 0.  0.
        998    1    1    2    0    0 -0.92890660957E+01  0.36795422841E+01  0.11890131389E+04  0.11890971660E+04  0.10000000000E+02 0. -1.
</event>
<event>
 5    1  0.1757379E-008  0.3852261E+03  0.7957747E-01  0.3428714E+00
         13   -1    0    0    0    0  0.00000000000E+00  0.00000000000E+00  0.14999999963E+04  0.15000000000E+04  0.10566000000E+00 0. -1.
        994   -1    0    0    0    0 -0.00000000000E+00 -0.00000000000E+00  0.11368683772E-12  0.17120000000E+03  0.17120000000E+03 0.  0.
         13    1    1    2    0    0 -0.11885521153E+02 -0.77740665717E+01  0.64029141848E+02  0.65585393908E+02  0.10566000000E+00 0. -1.
        994    1    1    2    0    0  0.91666259626E+01  0.14332689276E+02  0.24697231371E+01  0.17206101402E+03  0.17120000000E+03 0.  0.
        998    1    1    2    0    0  0.27188951909E+01 -0.65586227046E+01  0.14335011313E+04  0.14335535921E+04  0.10000000000E+02 0. -1.
</event>
<event>
 5    1  0.1757379E-008  0.3802211E+03  0.7957747E-01  0.3450196E+00
         13   -1    0    0    0    0  0.00000000000E+00  0.00000000000E+00  0.14999999963E+04  0.15000000000E+04  0.10566000000E+00 0.  1.
        994   -1    0    0    0    0 -0.00000000000E+00 -0.00000000000E+00  0.11368683772E-12  0.17120000000E+03  0.17120000000E+03 0.  0.
         13    1    1    2    0    0  0.25829019982E+02  0.41472560558E+01  0.70879595700E+02  0.75553069142E+02  0.10566000000E+00 0.  1.
        994    1    1    2    0    0 -0.59676595567E+02  0.26321290984E+02  0.18365575244E+02  0.18412180960E+03  0.17120000000E+03 0.  0.
        998    1    1    2    0    0  0.33847575584E+02 -0.30468547039E+02  0.14107548253E+04  0.14115251213E+04  0.10000000000E+02 0.  1.
</event>
<event>
 5    1  0.1757379E-008  0.3828813E+03  0.7957747E-01  0.3438708E+00
         13   -1    0    0    0    0  0.00000000000E+00  0.00000000000E+00  0.14999999963E+04  0.15000000000E+04  0.10566000000E+00 0. -1.
        994   -1    0    0    0    0 -0.00000000000E+00 -0.00000000000E+00  0.11368683772E-12  0.17120000000E+03  0.17120000000E+03 0.  0.
         13    1    1    2    0    0  0.15002760242E+02  0.23565234477E+02  0.13787211297E+03  0.14067385610E+03  0.10566000000E+00 0. -1.
        994    1    1    2    0    0 -0.96640223435E+01 -0.21332957923E+02  0.45040600079E+01  0.17285316016E+03  0.17120000000E+03 0.  0.
        998    1    1    2    0    0 -0.53387378986E+01 -0.22322765539E+01  0.13576238233E+04  0.13576729837E+04  0.10000000000E+02 0. -1.
</event>
<event>
 5    1  0.1757379E-008  0.3714504E+03  0.7957747E-01  0.3489251E+00
         13   -1    0    0    0    0  0.00000000000E+00  0.00000000000E+00  0.14999999963E+04  0.15000000000E+04  0.10566000000E+00 0.  1.
        994   -1    0    0    0    0 -0.00000000000E+00 -0.00000000000E+00  0.11368683772E-12  0.17120000000E+03  0.17120000000E+03 0.  0.
         13    1    1    2    0    0 -0.95873798205E+02  0.11694254898E+03  0.76998004744E+03  0.78468887437E+03  0.10566000000E+00 0.  1.
        994    1    1    2    0    0  0.91946301639E+02 -0.99112842865E+02  0.74284646777E+02  0.23044549627E+03  0.17120000000E+03 0.  0.
        998    1    1    2    0    0  0.39274965658E+01 -0.17829706118E+02  0.65573530206E+03  0.65606562935E+03  0.10000000000E+02 0.  1.
</event>
<event>
 5    1  0.1757379E-008  0.3855652E+03  0.7957747E-01  0.3427279E+00
         13   -1    0    0    0    0  0.00000000000E+00  0.00000000000E+00  0.14999999963E+04  0.15000000000E+04  0.10566000000E+00 0.  1.
        994   -1    0    0    0    0 -0.00000000000E+00 -0.00000000000E+00  0.11368683772E-12  0.17120000000E+03  0.17120000000E+03 0.  0.
         13    1    1    2    0    0  0.10122433099E+00  0.11097545929E+02  0.46287047508E+02  0.47599030485E+02  0.10566000000E+00 0.  1.
        994    1    1    2    0    0  0.25179599740E+00 -0.58430788203E+01  0.14620644438E+01  0.17130610790E+03  0.17120000000E+03 0.  0.
        998    1    1    2    0    0 -0.35302032838E+00 -0.52544671082E+01  0.14522508843E+04  0.14522948616E+04  0.10000000000E+02 0.  1.
</event>
<event>
 5    1  0.1757379E-008  0.3822609E+03  0.7957747E-01  0.3441373E+00
         13   -1    0    0    0    0  0.00000000000E+00  0.00000000000E+00  0.14999999963E+04  0.15000000000E+04  0.10566000000E+00 0.  1.
        994   -1    0    0    0    0 -0.00000000000E+00 -0.00000000000E+00  0.11368683772E-12  0.17120000000E+03  0.17120000000E+03 0.  0.
         13    1    1    2    0    0 -0.38565061653E+01  0.19223357908E+02  0.69212489382E+02  0.71936013092E+02  0.10566000000E+00 0.  1.
        994    1    1    2    0    0 -0.24749083883E+01  0.51833327485E+01  0.31056572000E+01  0.17132447933E+03  0.17120000000E+03 0.  0.
        998    1    1    2    0    0  0.63314145536E+01 -0.24406690656E+02  0.14276818497E+04  0.14279395076E+04  0.10000000000E+02 0.  1.
</event>
<event>
 5    1  0.1757379E-008  0.4370219E+03  0.7957747E-01  0.3235149E+00
         13   -1    0    0    0    0  0.00000000000E+00  0.00000000000E+00  0.14999999963E+04  0.15000000000E+04  0.10566000000E+00 0. -1.
        994   -1    0    0    0    0 -0.00000000000E+00 -0.00000000000E+00  0.11368683772E-12  0.17120000000E+03  0.17120000000E+03 0.  0.
         13    1    1    2    0    0  0.78060553926E+02 -0.48582067785E+02  0.73139299761E+02  0.11748632143E+03  0.10566000000E+00 0. -1.
        994    1    1    2    0    0 -0.35806893727E+02  0.24407027852E+02  0.60834246328E+02  0.18678351687E+03  0.17120000000E+03 0.  0.
        998    1    1    2    0    0 -0.42253660200E+02  0.24175039933E+02  0.13660264502E+04  0.13669301617E+04  0.10000000000E+02 0. -1.
</event>
<event>
 5    1  0.1757379E-008  0.3861141E+03  0.7957747E-01  0.3424961E+00
         13   -1    0    0    0    0  0.00000000000E+00  0.00000000000E+00  0.14999999963E+04  0.15000000000E+04  0.10566000000E+00 0. -1.
        994   -1    0    0    0    0 -0.00000000000E+00 -0.00000000000E+00  0.11368683772E-12  0.17120000000E+03  0.17120000000E+03 0.  0.
         13    1    1    2    0    0 -0.57477120526E+02 -0.37965401635E+02  0.12287422591E+03  0.14086545943E+03  0.10566000000E+00 0. -1.
        994    1    1    2    0    0  0.15594626155E+02  0.18415970900E+02  0.21888495249E+02  0.17427244927E+03  0.17120000000E+03 0.  0.
        998    1    1    2    0    0  0.41882494372E+02  0.19549430735E+02  0.13552372751E+04  0.13560620913E+04  0.10000000000E+02 0. -1.
</event>
<event>
 5    1  0.1757379E-008  0.3797322E+03  0.7957747E-01  0.3452325E+00
         13   -1    0    0    0    0  0.00000000000E+00  0.00000000000E+00  0.14999999963E+04  0.15000000000E+04  0.10566000000E+00 0. -1.
        994   -1    0    0    0    0 -0.00000000000E+00 -0.00000000000E+00  0.11368683772E-12  0.17120000000E+03  0.17120000000E+03 0.  0.
         13    1    1    2    0    0 -0.88613755841E+01 -0.22313079664E+02  0.65326320996E+02  0.69598397110E+02  0.10566000000E+00 0. -1.
        994    1    1    2    0    0  0.47640507686E+01  0.17045167553E+02  0.53171322983E+01  0.17219449995E+03  0.17120000000E+03 0.  0.
        998    1    1    2    0    0  0.40973248155E+01  0.52679121102E+01  0.14293565430E+04  0.14294071029E+04  0.10000000000E+02 0. -1.
</event>
<event>
 5    1  0.1757379E-008  0.3810666E+03  0.7957747E-01  0.3446528E+00
         13   -1    0    0    0    0  0.00000000000E+00  0.00000000000E+00  0.14999999963E+04  0.15000000000E+04  0.10566000000E+00 0. -1.
        994   -1    0    0    0    0 -0.00000000000E+00 -0.00000000000E+00  0.11368683772E-12  0.17120000000E+03  0.17120000000E+03 0.  0.
         13    1    1    2    0    0  0.21142670867E+02  0.63100920918E+01  0.66739504655E+02  0.70292264434E+02  0.10566000000E+00 0. -1.
        994    1    1    2    0    0 -0.12090935886E+02 -0.51393892376E+01  0.41708993783E+01  0.17175401146E+03  0.17120000000E+03 0.  0.
        998    1    1    2    0    0 -0.90517349815E+01 -0.11707028541E+01  0.14290895922E+04  0.14291537241E+04  0.10000000000E+02 0. -1.
</event>
<event>
 5    1  0.1757379E-008  0.3792574E+03  0.7957747E-01  0.3454398E+00
         13   -1    0    0    0    0  0.00000000000E+00  0.00000000000E+00  0.14999999963E+04  0.15000000000E+04  0.10566000000E+00 0. -1.
        994   -1    0    0    0    0 -0.00000000000E+00 -0.00000000000E+00  0.11368683772E-12  0.17120000000E+03  0.17120000000E+03 0.  0.
         13    1    1    2    0    0 -0.18765642815E+03  0.80205422069E+02  0.10525043451E+04  0.10721069221E+04  0.10566000000E+00 0. -1.
        994    1    1    2    0    0  0.18576233083E+03 -0.76492791021E+02  0.15438551931E+03  0.30578279744E+03  0.17120000000E+03 0.  0.
        998    1    1    2    0    0  0.18940973150E+01 -0.37126310480E+01  0.29311013188E+03  0.29331028050E+03  0.10000000000E+02 0.  0.
</event>
<event>
 5    1  0.1757379E-008  0.3813893E+03  0.7957747E-01  0.3445131E+00
         13   -1    0    0    0    0  0.00000000000E+00  0.00000000000E+00  0.14999999963E+04  0.15000000000E+04  0.10566000000E+00 0.  1.
        994   -1    0    0    0    0 -0.00000000000E+00 -0.00000000000E+00  0.11368683772E-12  0.17120000000E+03  0.17120000000E+03 0.  0.
         13    1    1    2    0    0 -0.36778048856E+02  0.26602585618E+02  0.24849169922E+03  0.25260336139E+03  0.10566000000E+00 0.  1.
        994    1    1    2    0    0  0.36976312784E+02 -0.28937946323E+02  0.10804770002E+02  0.17785059882E+03  0.17120000000E+03 0.  0.
        998    1    1    2    0    0 -0.19826392829E+00  0.23353607053E+01  0.12407035271E+04  0.12407460398E+04  0.10000000000E+02 0.  0.
</event>
<event>
 5    1  0.1757379E-008  0.3727365E+03  0.7957747E-01  0.3483408E+00
         13   -1    0    0    0    0  0.00000000000E+00  0.00000000000E+00  0.14999999963E+04  0.15000000000E+04  0.10566000000E+00 0.  1.
        994   -1    0    0    0    0 -0.00000000000E+00 -0.00000000000E+00  0.11368683772E-12  0.17120000000E+03  0.17120000000E+03 0.  0.
         13    1    1    2    0    0  0.93274114946E+01  0.10521085077E+02  0.89865231521E+01  0.16687198650E+02  0.10566000000E+00 0.  1.
        994    1    1    2    0    0 -0.11146450526E+02 -0.87570914246E+01  0.85342484170E+01  0.17199768430E+03  0.17120000000E+03 0.  0.
        998    1    1    2    0    0  0.18190390312E+01 -0.17639936527E+01  0.14824792247E+04  0.14825151170E+04  0.10000000000E+02 0.  1.
</event>
<event>
 5    1  0.1757379E-008  0.3703943E+03  0.7957747E-01  0.3494081E+00
         13   -1    0    0    0    0  0.00000000000E+00  0.00000000000E+00  0.14999999963E+04  0.15000000000E+04  0.10566000000E+00 0.  1.
        994   -1    0    0    0    0 -0.00000000000E+00 -0.00000000000E+00  0.11368683772E-12  0.17120000000E+03  0.17120000000E+03 0.  0.
         13    1    1    2    0    0  0.97829199793E+01 -0.53289311938E+01  0.25803441196E+01  0.11435574791E+02  0.10566000000E+00 0.  1.
        994    1    1    2    0    0 -0.11966676551E+02  0.69914863039E+01  0.97266237062E+01  0.17203525638E+03  0.17120000000E+03 0.  0.
        998    1    1    2    0    0  0.21837565717E+01 -0.16625551101E+01  0.14876930285E+04  0.14877291688E+04  0.10000000000E+02 0.  1.
</event>
<event>
 5    1  0.1757379E-008  0.3750630E+03  0.7957747E-01  0.3472941E+00
         13   -1    0    0    0    0  0.00000000000E+00  0.00000000000E+00  0.14999999963E+04  0.15000000000E+04  0.10566000000E+00 0. -1.
        994   -1    0    0    0    0 -0.00000000000E+00 -0.00000000000E+00  0.11368683772E-12  0.17120000000E+03  0.17120000000E+03 0.  0.
         13    1    1    2    0    0  0.43976652993E+02  0.25621387169E+01  0.15361069431E+03  0.15980227512E+03  0.10566000000E+00 0. -1.
        994    1    1    2    0    0 -0.15282986771E+02  0.23745293548E+02  0.93611320584E+01  0.17376558763E+03  0.17120000000E+03 0.  0.
        998    1    1    2    0    0 -0.28693666223E+02 -0.26307432265E+02  0.13370281699E+04  0.13376321373E+04  0.10000000000E+02 0. -1.
</event>
<event>
 5    1  0.1757379E-008  0.3864983E+03  0.7957747E-01  0.3423343E+00
         13   -1    0    0    0    0  0.00000000000E+00  0.00000000000E+00  0.14999999963E+04  0.15000000000E+04  0.10566000000E+00 0.  1.
        994   -1    0    0    0    0 -0.00000000000E+00 -0.00000000000E+00  0.11368683772E-12  0.17120000000E+03  0.17120000000E+03 0.  0.
         13    1    1    2    0    0  0.43132350099E+01  0.10206763688E+02  0.64523370110E+02  0.65467995812E+02  0.10566000000E+00 0.  1.
        994    1    1    2    0    0 -0.14879191009E+02 -0.13651071538E+02  0.22236538405E+01  0.17240106356E+03  0.17120000000E+03 0.  0.
        998    1    1    2    0    0  0.10565955999E+02  0.34443078499E+01  0.14332529723E+04  0.14333309406E+04  0.10000000000E+02 0.  1.
</event>
<event>
 5    1  0.1757379E-008  0.3840101E+03  0.7957747E-01  0.3433881E+00
         13   -1    0    0    0    0  0.00000000000E+00  0.00000000000E+00  0.14999999963E+04  0.15000000000E+04  0.10566000000E+00 0.  1.
        994   -1    0    0    0    0 -0.00000000000E+00 -0.00000000000E+00  0.11368683772E-12  0.17120000000E+03  0.17120000000E+03 0.  0.
         13    1    1    2    0    0  0.83481148785E+01  0.16214007870E+02  0.76748527197E+02  0.78885566894E+02  0.10566000000E+00 0.  1.
        994    1    1    2    0    0 -0.81839580898E+01 -0.11812947149E+02  0.28040483686E+01  0.17182498531E+03  0.17120000000E+03 0.  0.
        998    1    1    2    0    0 -0.16415678870E+00 -0.44010607207E+01  0.14204474207E+04  0.14204894478E+04  0.10000000000E+02 0.  1.
</event>
<event>
 5    1  0.1757379E-008  0.3840815E+03  0.7957747E-01  0.3433577E+00
         13   -1    0    0    0    0  0.00000000000E+00  0.00000000000E+00  0.14999999963E+04  0.15000000000E+04  0.10566000000E+00 0.  1.
        994   -1    0    0    0    0 -0.00000000000E+00 -0.00000000000E+00  0.11368683772E-12  0.17120000000E+03  0.17120000000E+03 0.  0.
         13    1    1    2    0    0 -0.18650413874E+02  0.26709053534E+01  0.96011342777E+02  0.97842530522E+02  0.10566000000E+00 0.  1.
        994    1    1    2    0    0 -0.38870978556E+01  0.13280436450E+02  0.27186981268E+01  0.17177983246E+03  0.17120000000E+03 0.  0.
        998    1    1    2    0    0  0.22537511729E+02 -0.15951341803E+02  0.14012699554E+04  0.14015776370E+04  0.10000000000E+02 0.  1.
</event>
<event>
 5    1  0.1757379E-008  0.3818811E+03  0.7957747E-01  0.3443008E+00
         13   -1    0    0    0    0  0.00000000000E+00  0.00000000000E+00  0.14999999963E+04  0.15000000000E+04  0.10566000000E+00 0.  1.
        994   -1    0    0    0    0 -0.00000000000E+00 -0.00000000000E+00  0.11368683772E-12  0.17120000000E+03  0.17120000000E+03 0.  0.
         13    1    1    2    0    0 -0.52183198745E+01 -0.92645916088E+01  0.16671239105E+02  0.19773843767E+02  0.10566000000E+00 0.  1.
        994    1    1    2    0    0  0.44760233827E+01  0.29152619630E+00  0.32534187176E+01  0.17128965090E+03  0.17120000000E+03 0.  0.
        998    1    1    2    0    0  0.74229649181E+00  0.89730654125E+01  0.14800753385E+04  0.14801365053E+04  0.10000000000E+02 0.  1.
</event>
<event>
 5    1  0.1757379E-008  0.3834873E+03  0.7957747E-01  0.3436113E+00
         13   -1    0    0    0    0  0.00000000000E+00  0.00000000000E+00  0.14999999963E+04  0.15000000000E+04  0.10566000000E+00 0.  1.
        994   -1    0    0    0    0 -0.00000000000E+00 -0.00000000000E+00  0.11368683772E-12  0.17120000000E+03  0.17120000000E+03 0.  0.
         13    1    1    2    0    0  0.14705028414E+02 -0.45225117917E+01  0.47020258362E+02  0.49473294150E+02  0.10566000000E+00 0.  1.
        994    1    1    2    0    0 -0.17649324121E+02  0.83422110652E+01  0.36434754914E+01  0.17234792149E+03  0.17120000000E+03 0.  0.
        998    1    1    2    0    0  0.29442957071E+01 -0.38196992735E+01  0.14493362624E+04  0.14493787844E+04  0.10000000000E+02 0.  1.
</event>
<event>
 5    1  0.1757379E-008  0.3804549E+03  0.7957747E-01  0.3449180E+00
         13   -1    0    0    0    0  0.00000000000E+00  0.00000000000E+00  0.14999999963E+04  0.15000000000E+04  0.10566000000E+00 0. -1.
        994   -1    0    0    0    0 -0.00000000000E+00 -0.00000000000E+00  0.11368683772E-12  0.17120000000E+03  0.17120000000E+03 0.  0.
         13    1    1    2    0    0 -0.19717668803E+02  0.85721935866E+02  0.50648016283E+03  0.51406147809E+03  0.10566000000E+00 0. -1.
        994    1    1    2    0    0  0.36721811234E+02 -0.10093855898E+03  0.43425904471E+02  0.20671800427E+03  0.17120000000E+03 0.  0.
        998    1    1    2    0    0 -0.17004142431E+02  0.15216623112E+02  0.95009392897E+03  0.95042051764E+03  0.10000000000E+02 0. -1.
</event>
<event>
 5    1  0.1757379E-008  0.3810837E+03  0.7957747E-01  0.3446453E+00
         13   -1    0    0    0    0  0.00000000000E+00  0.00000000000E+00  0.14999999963E+04  0.15000000000E+04  0.10566000000E+00 0. -1.
        994   -1    0    0    0    0 -0.00000000000E+00 -0.00000000000E+00  0.11368683772E-12  0.17120000000E+03  0.17120000000E+03 0.  0.
         13    1    1    2    0    0 -0.16690142242E+02  0.13518649242E+02  0.68833072976E+02  0.72106295320E+02  0.10566000000E+00 0. -1.
        994    1    1    2    0    0  0.13549126019E+01  0.99886675406E+01  0.39256141767E+01  0.17154142274E+03  0.17120000000E+03 0.  0.
        998    1    1    2    0    0  0.15335229640E+02 -0.23507316783E+02  0.14272413091E+04  0.14275522819E+04  0.10000000000E+02 0. -1.
</event>
<event>
 5    1  0.1757379E-008  0.3768727E+03  0.7957747E-01  0.3464889E+00
         13   -1    0    0    0    0  0.00000000000E+00  0.00000000000E+00  0.14999999963E+04  0.15000000000E+04  0.10566000000E+00 0.  1.
        994   -1    0    0    0    0 -0.00000000000E+00 -0.00000000000E+00  0.11368683772E-12  0.17120000000E+03  0.17120000000E+03 0.  0.
         13    1    1    2    0    0 -0.71169028223E+02 -0.19271827855E+02  0.42137760232E+03  0.42777976673E+03  0.10566000000E+00 0.  1.
        994    1    1    2    0    0  0.55339083054E+02  0.28258314657E+01  0.16162808155E+02  0.18066841396E+03  0.17120000000E+03 0.  0.
        998    1    1    2    0    0  0.15829945169E+02  0.16445996389E+02  0.10624595858E+04  0.10627518193E+04  0.10000000000E+02 0.  1.
</event>
<event>
 5    1  0.1757379E-008  0.3836349E+03  0.7957747E-01  0.3435483E+00
         13   -1    0    0    0    0  0.00000000000E+00  0.00000000000E+00  0.14999999963E+04  0.15000000000E+04  0.10566000000E+00 0.  1.
        994   -1    0    0    0    0 -0.00000000000E+00 -0.00000000000E+00  0.11368683772E-12  0.17120000000E+03  0.17120000000E+03 0.  0.
         13    1    1    2    0    0 -0.29586629837E+01 -0.18089013005E+02  0.78744610348E+02  0.80849804583E+02  0.10566000000E+00 0.  1.
        994    1    1    2    0    0 -0.59094332972E+01 -0.17389024653E+01  0.24347644570E+01  0.17132808661E+03  0.17120000000E+03 0.  0.
        998    1    1    2    0    0  0.88680962809E+01  0.19827915470E+02  0.14188206215E+04  0.14190221088E+04  0.10000000000E+02 0.  1.
</event>
<event>
 5    1  0.1757379E-008  0.3771922E+03  0.7957747E-01  0.3463476E+00
         13   -1    0    0    0    0  0.00000000000E+00  0.00000000000E+00  0.14999999963E+04  0.15000000000E+04  0.10566000000E+00 0.  1.
        994   -1    0    0    0    0 -0.00000000000E+00 -0.00000000000E+00  0.11368683772E-12  0.17120000000E+03  0.17120000000E+03 0.  0.
         13    1    1    2    0    0 -0.62600769213E+02 -0.27655760406E+00  0.27171839243E+03  0.27883656277E+03  0.10566000000E+00 0.  1.
        994    1    1    2    0    0  0.70288856641E+02 -0.10866316281E+02  0.22821223650E+02  0.18678556809E+03  0.17120000000E+03 0.  0.
        998    1    1    2    0    0 -0.76880874278E+01  0.11142873885E+02  0.12054603802E+04  0.12055778691E+04  0.10000000000E+02 0.  1.
</event>
<event>
 5    1  0.1757379E-008  0.3837781E+03  0.7957747E-01  0.3434871E+00
         13   -1    0    0    0    0  0.00000000000E+00  0.00000000000E+00  0.14999999963E+04  0.15000000000E+04  0.10566000000E+00 0.  1.
        994   -1    0    0    0    0 -0.00000000000E+00 -0.00000000000E+00  0.11368683772E-12  0.17120000000E+03  0.17120000000E+03 0.  0.
         13    1    1    2    0    0  0.28512800220E+02  0.37674636925E+01  0.16700069368E+03  0.16945918804E+03  0.10566000000E+00 0.  1.
        994    1    1    2    0    0 -0.28133335450E+02 -0.37021841648E+01  0.49010645381E+01  0.17360487080E+03  0.17120000000E+03 0.  0.
        998    1    1    2    0    0 -0.37946476979E+00 -0.65279527676E-01  0.13280982381E+04  0.13281359412E+04  0.10000000000E+02 0.  0.
</event>
<event>
 5    1  0.1757379E-008  0.3830197E+03  0.7957747E-01  0.3438115E+00
         13   -1    0    0    0    0  0.00000000000E+00  0.00000000000E+00  0.14999999963E+04  0.15000000000E+04  0.10566000000E+00 0. -1.
        994   -1    0    0    0    0 -0.00000000000E+00 -0.00000000000E+00  0.11368683772E-12  0.17120000000E+03  0.17120000000E+03 0.  0.
         13    1    1    2    0    0  0.11817379932E+02 -0.14919959925E+02  0.65175969457E+02  0.67898260886E+02  0.10566000000E+00 0. -1.
        994    1    1    2    0    0 -0.12262321532E+02  0.18304476709E+02  0.42248791387E+01  0.17266356883E+03  0.17120000000E+03 0.  0.
        998    1    1    2    0    0  0.44494160096E+00 -0.33845167844E+01  0.14305991477E+04  0.14306381703E+04  0.10000000000E+02 0. -1.
</event>
<event>
 5    1  0.1757379E-008  0.3763448E+03  0.7957747E-01  0.3467230E+00
         13   -1    0    0    0    0  0.00000000000E+00  0.00000000000E+00  0.14999999963E+04  0.15000000000E+04  0.10566000000E+00 0. -1.
        994   -1    0    0    0    0 -0.00000000000E+00 -0.00000000000E+00  0.11368683772E-12  0.17120000000E+03  0.17120000000E+03 0.  0.
         13    1    1    2    0    0  0.73915371071E+02 -0.10772847196E+03  0.68674754180E+03  0.69906444845E+03  0.10566000000E+00 0. -1.
        994    1    1    2    0    0 -0.92689725148E+02  0.10048346115E+03  0.72100607986E+02  0.23064311996E+03  0.17120000000E+03 0.  0.
        998    1    1    2    0    0  0.18774354077E+02  0.72450108136E+01  0.74115184649E+03  0.74149243159E+03  0.10000000000E+02 0.  1.
</event>
<event>
 5    1  0.1757379E-008  0.3851038E+03  0.7957747E-01  0.3429232E+00
         13   -1    0    0    0    0  0.00000000000E+00  0.00000000000E+00  0.14999999963E+04  0.15000000000E+04  0.10566000000E+00 0. -1.
        994   -1    0    0    0    0 -0.00000000000E+00 -0.00000000000E+00  0.11368683772E-12  0.17120000000E+03  0.17120000000E+03 0.  0.
         13    1    1    2    0    0  0.14863999014E+02  0.79310685390E+00  0.68510092853E+02  0.70108569176E+02  0.10566000000E+00 0. -1.
        994    1    1    2    0    0 -0.13734352615E+02  0.13726368737E+01  0.22052119081E+01  0.17176967000E+03  0.17120000000E+03 0.  0.
        998    1    1    2    0    0 -0.11296463991E+01 -0.21657437276E+01  0.14292846915E+04  0.14293217608E+04  0.10000000000E+02 0. -1.
</event>
<event>
 5    1  0.1757379E-008  0.3695112E+03  0.7957747E-01  0.3498140E+00
         13   -1    0    0    0    0  0.00000000000E+00  0.00000000000E+00  0.14999999963E+04  0.15000000000E+04  0.10566000000E+00 0. -1.
        994   -1    0    0    0    0 -0.00000000000E+00 -0.00000000000E+00  0.11368683772E-12  0.17120000000E+03  0.17120000000E+03 0.  0.
         13    1    1    2    0    0 -0.37867066801E+02 -0.77451856111E+01  0.73018753579E+02  0.82617505327E+02  0.10566000000E+00 0. -1.
        994    1    1    2    0    0  0.30707210962E+02  0.14158640663E+02  0.13495264387E+02  0.17502846075E+03  0.17120000000E+03 0.  0.
        998    1    1    2    0    0  0.71598558397E+01 -0.64134550515E+01  0.14134859783E+04  0.14135540339E+04  0.10000000000E+02 0. -1.
</event>
<event>
 5    1  0.1757379E-008  0.3708580E+03  0.7957747E-01  0.3491957E+00
         13   -1    0    0    0    0  0.00000000000E+00  0.00000000000E+00  0.14999999963E+04  0.15000000000E+04  0.10566000000E+00 0. -1.
        994   -1    0    0    0    0 -0.00000000000E+00 -0.00000000000E+00  0.11368683772E-12  0.17120000000E+03  0.17120000000E+03 0.  0.
         13    1    1    2    0    0  0.10129658173E+02  0.34161398728E+01  0.23448588588E+01  0.10944839580E+02  0.10566000000E+00 0. -1.
        994    1    1    2    0    0 -0.65040580927E+01 -0.13005987501E+02  0.95505944920E+01  0.17208170251E+03  0.17120000000E+03 0.  0.
        998    1    1    2    0    0 -0.36256000804E+01  0.95898476282E+01  0.14881045429E+04  0.14881734579E+04  0.10000000000E+02 0. -1.
</event>
<event>
 5    1  0.1757379E-008  0.3853574E+03  0.7957747E-01  0.3428158E+00
         13   -1    0    0    0    0  0.00000000000E+00  0.00000000000E+00  0.14999999963E+04  0.15000000000E+04  0.10566000000E+00 0. -1.
        994   -1    0    0    0    0 -0.00000000000E+00 -0.00000000000E+00  0.11368683772E-12  0.17120000000E+03  0.17120000000E+03 0.  0.
         13    1    1    2    0    0 -0.14645582898E+02 -0.64811799384E+01  0.84872420130E+02  0.86370351710E+02  0.10566000000E+00 0. -1.
        994    1    1    2    0    0  0.21560446929E+02 -0.80542828688E+01  0.31947916907E+01  0.17276970521E+03  0.17120000000E+03 0.  0.
        998    1    1    2    0    0 -0.69148640316E+01  0.14535462807E+02  0.14119327845E+04  0.14120599431E+04  0.10000000000E+02 0. -1.
</event>
<event>
 5    1  0.1757379E-008  0.3837926E+03  0.7957747E-01  0.3434809E+00
         13   -1    0    0    0    0  0.00000000000E+00  0.00000000000E+00  0.14999999963E+04  0.15000000000E+04  0.10566000000E+00 0. -1.
        994   -1    0    0    0    0 -0.00000000000E+00 -0.00000000000E+00  0.11368683772E-12  0.17120000000E+03  0.17120000000E+03 0.  0.
         13    1    1    2    0    0 -0.12149362123E+02 -0.68594222221E+01  0.43576585405E+02  0.45755749724E+02  0.10566000000E+00 0. -1.
        994    1    1    2    0    0  0.48932066204E+01  0.50057261390E+01  0.23925876958E+01  0.17135975385E+03  0.17120000000E+03 0.  0.
        998    1    1    2    0    0  0.72561555025E+01  0.18536960831E+01  0.14540308232E+04  0.14540844964E+04  0.10000000000E+02 0. -1.
</event>
<event>
 5    1  0.1757379E-008  0.3815533E+03  0.7957747E-01  0.3444423E+00
         13   -1    0    0    0    0  0.00000000000E+00  0.00000000000E+00  0.14999999963E+04  0.15000000000E+04  0.10566000000E+00 0. -1.
        994   -1    0    0    0    0 -0.00000000000E+00 -0.00000000000E+00  0.11368683772E-12  0.17120000000E+03  0.17120000000E+03 0.  0.
         13    1    1    2    0    0  0.71693460502E+02  0.32573615321E+02  0.21074592977E+03  0.22497744503E+03  0.10566000000E+00 0. -1.
        994    1    1    2    0    0 -0.43664465875E+02  0.73752965404E+02  0.44472337839E+02  0.19655359147E+03  0.17120000000E+03 0.  0.
        998    1    1    2    0    0 -0.28028994627E+02 -0.10632658073E+03  0.12447817287E+04  0.12496689635E+04  0.10000000000E+02 0.  1.
</event>
<event>
 5    1  0.1757379E-008  0.3684612E+03  0.7957747E-01  0.3502993E+00
         13   -1    0    0    0    0  0.00000000000E+00  0.00000000000E+00  0.14999999963E+04  0.15000000000E+04  0.10566000000E+00 0.  1.
        994   -1    0    0    0    0 -0.00000000000E+00 -0.00000000000E+00  0.11368683772E-12  0.17120000000E+03  0.17120000000E+03 0.  0.
         13    1    1    2    0    0 -0.12621284053E+02  0.21406675819E+02  0.26044907684E+02  0.35998485538E+02  0.10566000000E+00 0.  1.
        994    1    1    2    0    0  0.78081585456E+01 -0.23441415984E+02  0.12200583922E+02  0.17340346470E+03  0.17120000000E+03 0.  0.
        998    1    1    2    0    0  0.48131255071E+01  0.20347401650E+01  0.14617545047E+04  0.14617980498E+04  0.10000000000E+02 0.  1.
</event>
<event>
 5    1  0.1757379E-008  0.3750424E+03  0.7957747E-01  0.3473033E+00
         13   -1    0    0    0    0  0.00000000000E+00  0.00000000000E+00  0.14999999963E+04  0.15000000000E+04  0.10566000000E+00 0.  1.
        994   -1    0    0    0    0 -0.00000000000E+00 -0.00000000000E+00  0.11368683772E-12  0.17120000000E+03  0.17120000000E+03 0.  0.
         13    1    1    2    0    0  0.90355894044E+02 -0.51629921135E+02  0.50238926916E+03  0.51305440772E+03  0.10566000000E+00 0.  1.
        994    1    1    2    0    0 -0.89132411268E+02  0.62826395396E+02  0.48212587271E+02  0.20862798534E+03  0.17120000000E+03 0.  0.
        998    1    1    2    0    0 -0.12234827758E+01 -0.11196474261E+02  0.94939813985E+03  0.94951760694E+03  0.10000000000E+02 0.  1.
</event>
<event>
 5    1  0.1757379E-008  0.3847242E+03  0.7957747E-01  0.3430843E+00
         13   -1    0    0    0    0  0.00000000000E+00  0.00000000000E+00  0.14999999963E+04  0.15000000000E+04  0.10566000000E+00 0. -1.
        994   -1    0    0    0    0 -0.00000000000E+00 -0.00000000000E+00  0.11368683772E-12  0.17120000000E+03  0.17120000000E+03 0.  0.
         13    1    1    2    0    0 -0.14219372561E+02  0.31585461489E+01  0.55557877715E+02  0.57435667578E+02  0.10566000000E+00 0. -1.
        994    1    1    2    0    0  0.23131360287E+02 -0.22412971258E+01  0.35468876632E+01  0.17280654980E+03  0.17120000000E+03 0.  0.
        998    1    1    2    0    0 -0.89119877261E+01 -0.91724902308E+00  0.14408952309E+04  0.14409577826E+04  0.10000000000E+02 0. -1.
</event>
<event>
 5    1  0.1757379E-008  0.2829307E+03  0.7957747E-01  0.4025955E+00
         13   -1    0    0    0    0  0.00000000000E+00  0.00000000000E+00  0.14999999963E+04  0.15000000000E+04  0.10566000000E+00 0. -1.
        994   -1    0    0    0    0 -0.00000000000E+00 -0.00000000000E+00  0.11368683772E-12  0.17120000000E+03  0.17120000000E+03 0.  0.
         13    1    1    2    0    0 -0.11355314540E+02 -0.16383977505E+03  0.58158998161E+03  0.60433379265E+03  0.10566000000E+00 0. -1.
        994    1    1    2    0    0  0.32023309244E+02  0.13848456162E+03  0.93686043969E+02  0.24143318118E+03  0.17120000000E+03 0.  0.
        998    1    1    2    0    0 -0.20667994704E+02  0.25355213438E+02  0.82472397070E+03  0.82543302617E+03  0.10000000000E+02 0. -1.
</event>
<event>
 5    1  0.1757379E-008  0.3744177E+03  0.7957747E-01  0.3475831E+00
         13   -1    0    0    0    0  0.00000000000E+00  0.00000000000E+00  0.14999999963E+04  0.15000000000E+04  0.10566000000E+00 0. -1.
        994   -1    0    0    0    0 -0.00000000000E+00 -0.00000000000E+00  0.11368683772E-12  0.17120000000E+03  0.17120000000E+03 0.  0.
         13    1    1    2    0    0 -0.44635752800E+02  0.42795564463E+02  0.18043997162E+03  0.19074172403E+03  0.10566000000E+00 0. -1.
        994    1    1    2    0    0  0.38597390114E+01  0.33011492488E+02  0.17226752811E+02  0.17524513469E+03  0.17120000000E+03 0.  0.
        998    1    1    2    0    0  0.40776013789E+02 -0.75807056951E+02  0.13023332719E+04  0.13052131413E+04  0.10000000000E+02 0. -1.
</event>
<event>
 5    1  0.1757379E-008  0.3844870E+03  0.7957747E-01  0.3431851E+00
         13   -1    0    0    0    0  0.00000000000E+00  0.00000000000E+00  0.14999999963E+04  0.15000000000E+04  0.10566000000E+00 0.  1.
        994   -1    0    0    0    0 -0.00000000000E+00 -0.00000000000E+00  0.11368683772E-12  0.17120000000E+03  0.17120000000E+03 0.  0.
         13    1    1    2    0    0 -0.18582087827E+02  0.18097868687E+01  0.10746327101E+03  0.10907307228E+03  0.10566000000E+00 0.  1.
        994    1    1    2    0    0 -0.62022827497E+01  0.12528439076E+02  0.25290722800E+01  0.17178843472E+03  0.17120000000E+03 0.  0.
        998    1    1    2    0    0  0.24784370577E+02 -0.14338225945E+02  0.13900076530E+04  0.13903384930E+04  0.10000000000E+02 0.  1.
</event>
<event>
 5    1  0.1757379E-008  0.3842669E+03  0.7957747E-01  0.3432788E+00
         13   -1    0    0    0    0  0.00000000000E+00  0.00000000000E+00  0.14999999963E+04  0.15000000000E+04  0.10566000000E+00 0.  1.
        994   -1    0    0    0    0 -0.00000000000E+00 -0.00000000000E+00  0.11368683772E-12  0.17120000000E+03  0.17120000000E+03 0.  0.
         13    1    1    2    0    0  0.65734667715E+01 -0.82014698192E+01  0.26481553174E+02  0.28491374048E+02  0.10566000000E+00 0.  1.
        994    1    1    2    0    0 -0.70877780652E+01  0.12041881398E+02  0.26384501047E+01  0.17178953671E+03  0.17120000000E+03 0.  0.
        998    1    1    2    0    0  0.51431129367E+00 -0.38404115791E+01  0.14708799930E+04  0.14709190892E+04  0.10000000000E+02 0.  1.
</event>
<event>
 5    1  0.1757379E-008  0.3790811E+03  0.7957747E-01  0.3455169E+00
         13   -1    0    0    0    0  0.00000000000E+00  0.00000000000E+00  0.14999999963E+04  0.15000000000E+04  0.10566000000E+00 0. -1.
        994   -1    0    0    0    0 -0.00000000000E+00 -0.00000000000E+00  0.11368683772E-12  0.17120000000E+03  0.17120000000E+03 0.  0.
         13    1    1    2    0    0 -0.31338914971E+02 -0.89573495692E+01  0.12384767638E+03  0.12806490469E+03  0.10566000000E+00 0. -1.
        994    1    1    2    0    0  0.12228515103E+02 -0.24251509284E+02  0.70751250858E+01  0.17348535869E+03  0.17120000000E+03 0.  0.
        998    1    1    2    0    0  0.19110399867E+02  0.33208858853E+02  0.13690771948E+04  0.13696497366E+04  0.10000000000E+02 0. -1.
</event>
<event>
 5    1  0.1757379E-008  0.3845068E+03  0.7957747E-01  0.3431767E+00
         13   -1    0    0    0    0  0.00000000000E+00  0.00000000000E+00  0.14999999963E+04  0.15000000000E+04  0.10566000000E+00 0. -1.
        994   -1    0    0    0    0 -0.00000000000E+00 -0.00000000000E+00  0.11368683772E-12  0.17120000000E+03  0.17120000000E+03 0.  0.
         13    1    1    2    0    0 -0.13446241545E+02  0.12655381613E+02  0.97159381385E+02  0.98898516928E+02  0.10566000000E+00 0. -1.
        994    1    1    2    0    0 -0.44358622289E+01 -0.84031018917E+01  0.21726806895E+01  0.17147725662E+03  0.17120000000E+03 0.  0.
        998    1    1    2    0    0  0.17882103774E+02 -0.42522797214E+01  0.14006679342E+04  0.14008242265E+04  0.10000000000E+02 0. -1.
</event>
<event>
 5    1  0.1757379E-008  0.3812844E+03  0.7957747E-01  0.3445585E+00
         13   -1    0    0    0    0  0.00000000000E+00  0.00000000000E+00  0.14999999963E+04  0.15000000000E+04  0.10566000000E+00 0.  1.
        994   -1    0    0    0    0 -0.00000000000E+00 -0.00000000000E+00  0.11368683772E-12  0.17120000000E+03  0.17120000000E+03 0.  0.
         13    1    1    2    0    0  0.19739646225E+02  0.21030062691E+02  0.12871224462E+03  0.13190439815E+03  0.10566000000E+00 0.  1.
        994    1    1    2    0    0 -0.73840058217E+01  0.14981817719E+01  0.36751644804E+01  0.17140511931E+03  0.17120000000E+03 0.  0.
        998    1    1    2    0    0 -0.12355640403E+02 -0.22528244463E+02  0.13676125872E+04  0.13678904825E+04  0.10000000000E+02 0.  1.
</event>
<event>
 5    1  0.1931002E-008  0.3860560E+03  0.7957747E-01  0.3425206E+00
         13   -1    0    0    0    0  0.00000000000E+00  0.00000000000E+00  0.14999999963E+04  0.15000000000E+04  0.10566000000E+00 0.  1.
        994   -1    0    0    0    0 -0.00000000000E+00 -0.00000000000E+00  0.11368683772E-12  0.17120000000E+03  0.17120000000E+03 0.  0.
         13    1    1    2    0    0  0.10509531273E+02  0.14215918930E+01  0.49892095961E+02  0.51006897323E+02  0.10566000000E+00 0.  1.
        994    1    1    2    0    0 -0.11926436936E+02  0.23977465820E+00  0.15732566721E+01  0.17162229612E+03  0.17120000000E+03 0.  0.
        998    1    1    2    0    0  0.14169056632E+01 -0.16613665512E+01  0.14485346436E+04  0.14485708066E+04  0.10000000000E+02 0.  1.
</event>
<event>
 5    1  0.1757379E-008  0.3815266E+03  0.7957747E-01  0.3444538E+00
         13   -1    0    0    0    0  0.00000000000E+00  0.00000000000E+00  0.14999999963E+04  0.15000000000E+04  0.10566000000E+00 0. -1.
        994   -1    0    0    0    0 -0.00000000000E+00 -0.00000000000E+00  0.11368683772E-12  0.17120000000E+03  0.17120000000E+03 0.  0.
         13    1    1    2    0    0  0.27879674519E+02  0.15064189493E+02  0.18127642596E+03  0.18402543257E+03  0.10566000000E+00 0. -1.
        994    1    1    2    0    0 -0.51310133709E+00  0.14426229195E+02  0.40578934868E+01  0.17185542139E+03  0.17120000000E+03 0.  0.
        998    1    1    2    0    0 -0.27366573182E+02 -0.29490418688E+02  0.13146656768E+04  0.13153191460E+04  0.10000000000E+02 0. -1.
</event>
<event>
 5    1  0.1757379E-008  0.3761338E+03  0.7957747E-01  0.3468168E+00
         13   -1    0    0    0    0  0.00000000000E+00  0.00000000000E+00  0.14999999963E+04  0.15000000000E+04  0.10566000000E+00 0. -1.
        994   -1    0    0    0    0 -0.00000000000E+00 -0.00000000000E+00  0.11368683772E-12  0.17120000000E+03  0.17120000000E+03 0.  0.
         13    1    1    2    0    0  0.68714714991E+01 -0.47317318274E+02  0.21622338608E+03  0.22144685498E+03  0.10566000000E+00 0. -1.
        994    1    1    2    0    0  0.27124513082E+02  0.95072801977E+01  0.89001961525E+01  0.17382399454E+03  0.17120000000E+03 0.  0.
        998    1    1    2    0    0 -0.33995984581E+02  0.37810038077E+02  0.12748764140E+04  0.12759291505E+04  0.10000000000E+02 0. -1.
</event>
<event>
 5    1  0.1757379E-008  0.3822664E+03  0.7957747E-01  0.3441349E+00
         13   -1    0    0    0    0  0.00000000000E+00  0.00000000000E+00  0.14999999963E+04  0.15000000000E+04  0.10566000000E+00 0. -1.
        994   -1    0    0    0    0 -0.00000000000E+00 -0.00000000000E+00  0.11368683772E-12  0.17120000000E+03  0.17120000000E+03 0.  0.
         13    1    1    2    0    0  0.86883798323E+01 -0.25667114515E+02  0.10428966059E+03  0.10775264814E+03  0.10566000000E+00 0. -1.
        994    1    1    2    0    0 -0.47919747034E+02  0.30079702685E+02  0.13688530745E+02  0.18082562469E+03  0.17120000000E+03 0.  0.
        998    1    1    2    0    0  0.39231367201E+02 -0.44125881697E+01  0.13820218049E+04  0.13826217272E+04  0.10000000000E+02 0. -1.
</event>
<event>
 5    1  0.1757379E-008  0.3837730E+03  0.7957747E-01  0.3434893E+00
         13   -1    0    0    0    0  0.00000000000E+00  0.00000000000E+00  0.14999999963E+04  0.15000000000E+04  0.10566000000E+00 0. -1.
        994   -1    0    0    0    0 -0.00000000000E+00 -0.00000000000E+00  0.11368683772E-12  0.17120000000E+03  0.17120000000E+03 0.  0.
         13    1    1    2    0    0 -0.82365484478E+01  0.18955389467E+02  0.95933899266E+02  0.98134966819E+02  0.10566000000E+00 0. -1.
        994    1    1    2    0    0 -0.75765680340E+01 -0.15780850019E+02  0.32529925148E+01  0.17212339054E+03  0.17120000000E+03 0.  0.
        998    1    1    2    0    0  0.15813116482E+02 -0.31745394481E+01  0.14008131045E+04  0.14009416426E+04  0.10000000000E+02 0. -1.
</event>
<event>
 5    1  0.1757379E-008  0.3843442E+03  0.7957747E-01  0.3432458E+00
         13   -1    0    0    0    0  0.00000000000E+00  0.00000000000E+00  0.14999999963E+04  0.15000000000E+04  0.10566000000E+00 0.  1.
        994   -1    0    0    0    0 -0.00000000000E+00 -0.00000000000E+00  0.11368683772E-12  0.17120000000E+03  0.17120000000E+03 0.  0.
         13    1    1    2    0    0  0.13978073849E+02 -0.92565874272E+01  0.74231686902E+02  0.76101415648E+02  0.10566000000E+00 0.  1.
        994    1    1    2    0    0 -0.68426939534E+01 -0.12129866512E+01  0.21152643299E+01  0.17135404326E+03  0.17120000000E+03 0.  0.
        998    1    1    2    0    0 -0.71353798953E+01  0.10469574078E+02  0.14236530450E+04  0.14237445411E+04  0.10000000000E+02 0.  1.
</event>
<event>
 5    1  0.1757379E-008  0.3860481E+03  0.7957747E-01  0.3425239E+00
         13   -1    0    0    0    0  0.00000000000E+00  0.00000000000E+00  0.14999999963E+04  0.15000000000E+04  0.10566000000E+00 0.  1.
        994   -1    0    0    0    0 -0.00000000000E+00 -0.00000000000E+00  0.11368683772E-12  0.17120000000E+03  0.17120000000E+03 0.  0.
         13    1    1    2    0    0 -0.23076627482E+00 -0.12014866807E+02  0.65337622529E+02  0.66433623710E+02  0.10566000000E+00 0.  1.
        994    1    1    2    0    0 -0.17781780643E+01  0.90153756856E+01  0.13874743496E+01  0.17145204578E+03  0.17120000000E+03 0.  0.
        998    1    1    2    0    0  0.20089443391E+01  0.29994911213E+01  0.14332748994E+04  0.14333143305E+04  0.10000000000E+02 0.  1.
</event>
<event>
 5    1  0.1757379E-008  0.3690051E+03  0.7957747E-01  0.3500476E+00
         13   -1    0    0    0    0  0.00000000000E+00  0.00000000000E+00  0.14999999963E+04  0.15000000000E+04  0.10566000000E+00 0.  1.
        994   -1    0    0    0    0 -0.00000000000E+00 -0.00000000000E+00  0.11368683772E-12  0.17120000000E+03  0.17120000000E+03 0.  0.
         13    1    1    2    0    0 -0.19275420476E+02  0.52266529464E+02  0.19534629016E+03  0.20313423193E+03  0.10566000000E+00 0.  1.
        994    1    1    2    0    0 -0.10035331407E+03 -0.19730970212E+02  0.47798273073E+02  0.20507124064E+03  0.17120000000E+03 0.  0.
        998    1    1    2    0    0  0.11962873455E+03 -0.32535559253E+02  0.12568554330E+04  0.12629945274E+04  0.10000000000E+02 0.  1.
</event>
<event>
 5    1  0.1757379E-008  0.3775229E+03  0.7957747E-01  0.3462016E+00
         13   -1    0    0    0    0  0.00000000000E+00  0.00000000000E+00  0.14999999963E+04  0.15000000000E+04  0.10566000000E+00 0. -1.
        994   -1    0    0    0    0 -0.00000000000E+00 -0.00000000000E+00  0.11368683772E-12  0.17120000000E+03  0.17120000000E+03 0.  0.
         13    1    1    2    0    0 -0.96096645171E+01  0.55577303846E+01  0.90580252357E+01  0.14328049566E+02  0.10566000000E+00 0. -1.
        994    1    1    2    0    0  0.90063425839E+01  0.48235234119E+01  0.57407190435E+01  0.17160063065E+03  0.17120000000E+03 0.  0.
        998    1    1    2    0    0  0.60332193318E+00 -0.10381253796E+02  0.14852012520E+04  0.14852713198E+04  0.10000000000E+02 0. -1.
</event>
<event>
 5    1  0.1757379E-008  0.3817438E+03  0.7957747E-01  0.3443600E+00
         13   -1    0    0    0    0  0.00000000000E+00  0.00000000000E+00  0.14999999963E+04  0.15000000000E+04  0.10566000000E+00 0. -1.
        994   -1    0    0    0    0 -0.00000000000E+00 -0.00000000000E+00  0.11368683772E-12  0.17120000000E+03  0.17120000000E+03 0.  0.
         13    1    1    2    0    0  0.39141153857E+02 -0.93236431186E+02  0.24664703460E+03  0.26657050262E+03  0.10566000000E+00 0. -1.
        994    1    1    2    0    0 -0.48295757554E+02  0.84297408092E+02  0.52579666497E+02  0.20374639761E+03  0.17120000000E+03 0.  0.
        998    1    1    2    0    0  0.91546036969E+01  0.89390230943E+01  0.12007732952E+04  0.12008830998E+04  0.10000000000E+02 0. -1.
</event>
<event>
 5    1  0.1757379E-008  0.3842705E+03  0.7957747E-01  0.3432772E+00
         13   -1    0    0    0    0  0.00000000000E+00  0.00000000000E+00  0.14999999963E+04  0.15000000000E+04  0.10566000000E+00 0.  1.
        994   -1    0    0    0    0 -0.00000000000E+00 -0.00000000000E+00  0.11368683772E-12  0.17120000000E+03  0.17120000000E+03 0.  0.
         13    1    1    2    0    0  0.23345151629E+01 -0.17967717362E+02  0.92022751739E+02  0.93789588068E+02  0.10566000000E+00 0.  1.
        994    1    1    2    0    0 -0.44793351613E+01 -0.53659571692E+01  0.21538305865E+01  0.17135616979E+03  0.17120000000E+03 0.  0.
        998    1    1    2    0    0  0.21448199984E+01  0.23333674531E+02  0.14058234140E+04  0.14060542421E+04  0.10000000000E+02 0.  1.
</event>
<event>
 5    1  0.1757379E-008  0.3763698E+03  0.7957747E-01  0.3467119E+00
         13   -1    0    0    0    0  0.00000000000E+00  0.00000000000E+00  0.14999999963E+04  0.15000000000E+04  0.10566000000E+00 0. -1.
        994   -1    0    0    0    0 -0.00000000000E+00 -0.00000000000E+00  0.11368683772E-12  0.17120000000E+03  0.17120000000E+03 0.  0.
         13    1    1    2    0    0 -0.67534181575E+02 -0.82760175005E+02  0.54395125184E+03  0.55434022747E+03  0.10566000000E+00 0. -1.
        994    1    1    2    0    0  0.76060112111E+02  0.84442378534E+02  0.51010113959E+02  0.21172417829E+03  0.17120000000E+03 0.  0.
        998    1    1    2    0    0 -0.85259305366E+01 -0.16822035289E+01  0.90503863048E+03  0.90513559424E+03  0.10000000000E+02 0. -1.
</event>
<event>
 5    1  0.1757379E-008  0.3820726E+03  0.7957747E-01  0.3442183E+00
         13   -1    0    0    0    0  0.00000000000E+00  0.00000000000E+00  0.14999999963E+04  0.15000000000E+04  0.10566000000E+00 0. -1.
        994   -1    0    0    0    0 -0.00000000000E+00 -0.00000000000E+00  0.11368683772E-12  0.17120000000E+03  0.17120000000E+03 0.  0.
         13    1    1    2    0    0  0.47642996172E+02  0.13736731484E+03  0.87414199989E+03  0.88615116172E+03  0.10566000000E+00 0. -1.
        994    1    1    2    0    0 -0.31774646039E+02 -0.16162903615E+03  0.99130446131E+02  0.25742932779E+03  0.17120000000E+03 0.  0.
        998    1    1    2    0    0 -0.15868350133E+02  0.24261721308E+02  0.52672755026E+03  0.52761951049E+03  0.10000000000E+02 0. -1.
</event>
<event>
 5    1  0.1757379E-008  0.3711351E+03  0.7957747E-01  0.3490690E+00
         13   -1    0    0    0    0  0.00000000000E+00  0.00000000000E+00  0.14999999963E+04  0.15000000000E+04  0.10566000000E+00 0. -1.
        994   -1    0    0    0    0 -0.00000000000E+00 -0.00000000000E+00  0.11368683772E-12  0.17120000000E+03  0.17120000000E+03 0.  0.
         13    1    1    2    0    0  0.13650723341E+03  0.86708614531E+02  0.86748155807E+03  0.88242669575E+03  0.10566000000E+00 0. -1.
        994    1    1    2    0    0 -0.11148197802E+03 -0.83087199378E+02  0.78520029152E+02  0.23410798598E+03  0.17120000000E+03 0.  0.
        998    1    1    2    0    0 -0.25025255395E+02 -0.36214151537E+01  0.55399840905E+03  0.55466531827E+03  0.10000000000E+02 0.  1.
</event>
<event>
 5    1  0.1757379E-008  0.3845885E+03  0.7957747E-01  0.3431419E+00
         13   -1    0    0    0    0  0.00000000000E+00  0.00000000000E+00  0.14999999963E+04  0.15000000000E+04  0.10566000000E+00 0. -1.
        994   -1    0    0    0    0 -0.00000000000E+00 -0.00000000000E+00  0.11368683772E-12  0.17120000000E+03  0.17120000000E+03 0.  0.
         13    1    1    2    0    0 -0.19466000383E+02  0.16693037566E+02  0.14941627795E+03  0.15160085077E+03  0.10566000000E+00 0. -1.
        994    1    1    2    0    0  0.17609163091E+02 -0.35346324708E+02  0.69868383379E+01  0.17583430042E+03  0.17120000000E+03 0.  0.
        998    1    1    2    0    0  0.18568372918E+01  0.18653287143E+02  0.13435968800E+04  0.13437648488E+04  0.10000000000E+02 0. -1.
</event>
<event>
 5    1  0.1757379E-008  0.3816003E+03  0.7957747E-01  0.3444220E+00
         13   -1    0    0    0    0  0.00000000000E+00  0.00000000000E+00  0.14999999963E+04  0.15000000000E+04  0.10566000000E+00 0. -1.
        994   -1    0    0    0    0 -0.00000000000E+00 -0.00000000000E+00  0.11368683772E-12  0.17120000000E+03  0.17120000000E+03 0.  0.
         13    1    1    2    0    0  0.87581413170E+01 -0.16766239530E+02  0.53611880957E+02  0.56851180912E+02  0.10566000000E+00 0. -1.
        994    1    1    2    0    0  0.20244128049E+01  0.99521616749E+01  0.36705839283E+01  0.17154024879E+03  0.17120000000E+03 0.  0.
        998    1    1    2    0    0 -0.10782554122E+02  0.68140778549E+01  0.14427175314E+04  0.14428085703E+04  0.10000000000E+02 0. -1.
</event>
<event>
 5    1  0.1757379E-008  0.3835692E+03  0.7957747E-01  0.3435763E+00
         13   -1    0    0    0    0  0.00000000000E+00  0.00000000000E+00  0.14999999963E+04  0.15000000000E+04  0.10566000000E+00 0.  1.
        994   -1    0    0    0    0 -0.00000000000E+00 -0.00000000000E+00  0.11368683772E-12  0.17120000000E+03  0.17120000000E+03 0.  0.
         13    1    1    2    0    0 -0.82155699547E+01 -0.11913457087E+02  0.45300345896E+02  0.47555846662E+02  0.10566000000E+00 0.  1.
        994    1    1    2    0    0  0.68168825123E+01 -0.29410512221E+00  0.24960048962E+01  0.17135409661E+03  0.17120000000E+03 0.  0.
        998    1    1    2    0    0  0.13986874425E+01  0.12207562210E+02  0.14522036455E+04  0.14522900567E+04  0.10000000000E+02 0.  1.
</event>
<event>
 5    1  0.1757379E-008  0.3857148E+03  0.7957747E-01  0.3426646E+00
         13   -1    0    0    0    0  0.00000000000E+00  0.00000000000E+00  0.14999999963E+04  0.15000000000E+04  0.10566000000E+00 0. -1.
        994   -1    0    0    0    0 -0.00000000000E+00 -0.00000000000E+00  0.11368683772E-12  0.17120000000E+03  0.17120000000E+03 0.  0.
         13    1    1    2    0    0 -0.80729031540E+01 -0.10535508116E+02  0.72963104504E+02  0.74160599239E+02  0.10566000000E+00 0. -1.
        994    1    1    2    0    0  0.53803515087E+01 -0.89450605705E+00  0.13732864702E+01  0.17129236480E+03  0.17120000000E+03 0.  0.
        998    1    1    2    0    0  0.26925516452E+01  0.11430014173E+02  0.14256636053E+04  0.14257470360E+04  0.10000000000E+02 0. -1.
</event>
<event>
 5    1  0.1757379E-008  0.3861123E+03  0.7957747E-01  0.3424968E+00
         13   -1    0    0    0    0  0.00000000000E+00  0.00000000000E+00  0.14999999963E+04  0.15000000000E+04  0.10566000000E+00 0.  1.
        994   -1    0    0    0    0 -0.00000000000E+00 -0.00000000000E+00  0.11368683772E-12  0.17120000000E+03  0.17120000000E+03 0.  0.
         13    1    1    2    0    0  0.81807609589E+01 -0.61818359224E+01  0.50471437848E+02  0.51502593602E+02  0.10566000000E+00 0.  1.
        994    1    1    2    0    0 -0.30299398527E+00  0.58770034850E+01  0.11923916684E+01  0.17130526195E+03  0.17120000000E+03 0.  0.
        998    1    1    2    0    0 -0.78777669736E+01  0.30483243741E+00  0.14483361668E+04  0.14483921444E+04  0.10000000000E+02 0.  1.
</event>
<event>
 5    1  0.1757379E-008  0.4536994E+03  0.7957747E-01  0.3182048E+00
         13   -1    0    0    0    0  0.00000000000E+00  0.00000000000E+00  0.14999999963E+04  0.15000000000E+04  0.10566000000E+00 0. -1.
        994   -1    0    0    0    0 -0.00000000000E+00 -0.00000000000E+00  0.11368683772E-12  0.17120000000E+03  0.17120000000E+03 0.  0.
         13    1    1    2    0    0 -0.40560688183E+01 -0.15972015461E+02 -0.24017430532E+02  0.29127394418E+02  0.10566000000E+00 0. -1.
        994    1    1    2    0    0  0.28067893225E+01  0.17290709882E+02  0.66461875256E+02  0.18448161853E+03  0.17120000000E+03 0.  0.
        998    1    1    2    0    0  0.12492794957E+01 -0.13186944208E+01  0.14575555516E+04  0.14575909870E+04  0.10000000000E+02 0. -1.
</event>
<event>
 5    1  0.1757379E-008  0.3830526E+03  0.7957747E-01  0.3437973E+00
         13   -1    0    0    0    0  0.00000000000E+00  0.00000000000E+00  0.14999999963E+04  0.15000000000E+04  0.10566000000E+00 0.  1.
        994   -1    0    0    0    0 -0.00000000000E+00 -0.00000000000E+00  0.11368683772E-12  0.17120000000E+03  0.17120000000E+03 0.  0.
         13    1    1    2    0    0 -0.13086092618E+02 -0.97084327790E+01  0.55504957172E+02  0.57847306954E+02  0.10566000000E+00 0.  1.
        994    1    1    2    0    0 -0.33284295529E+01 -0.11852552163E+02  0.31018275294E+01  0.17167009865E+03  0.17120000000E+03 0.  0.
        998    1    1    2    0    0  0.16414522171E+02  0.21560984942E+02  0.14413932116E+04  0.14416825944E+04  0.10000000000E+02 0.  1.
</event>
<event>
 5    1  0.1757379E-008  0.3719181E+03  0.7957747E-01  0.3487122E+00
         13   -1    0    0    0    0  0.00000000000E+00  0.00000000000E+00  0.14999999963E+04  0.15000000000E+04  0.10566000000E+00 0. -1.
        994   -1    0    0    0    0 -0.00000000000E+00 -0.00000000000E+00  0.11368683772E-12  0.17120000000E+03  0.17120000000E+03 0.  0.
         13    1    1    2    0    0 -0.59070431369E+02  0.22641677791E+02  0.20116606008E+03  0.21087853454E+03  0.10566000000E+00 0. -1.
        994    1    1    2    0    0  0.63394688035E+02 -0.27438286965E+02  0.24843051629E+02  0.18627496686E+03  0.17120000000E+03 0.  0.
        998    1    1    2    0    0 -0.43242566660E+01  0.47966091736E+01  0.12739908846E+04  0.12740464986E+04  0.10000000000E+02 0. -1.
</event>
<event>
 5    1  0.1757379E-008  0.3754515E+03  0.7957747E-01  0.3471206E+00
         13   -1    0    0    0    0  0.00000000000E+00  0.00000000000E+00  0.14999999963E+04  0.15000000000E+04  0.10566000000E+00 0. -1.
        994   -1    0    0    0    0 -0.00000000000E+00 -0.00000000000E+00  0.11368683772E-12  0.17120000000E+03  0.17120000000E+03 0.  0.
         13    1    1    2    0    0 -0.20666926150E+01 -0.11033605315E+02  0.67499585671E+01  0.13099036961E+02  0.10566000000E+00 0. -1.
        994    1    1    2    0    0  0.17377975884E+01  0.12804508469E+02  0.70139896865E+01  0.17183018195E+03  0.17120000000E+03 0.  0.
        998    1    1    2    0    0  0.32889502654E+00 -0.17709031544E+01  0.14862360480E+04  0.14862707811E+04  0.10000000000E+02 0. -1.
</event>
<event>
 5    1  0.1757379E-008  0.3754059E+03  0.7957747E-01  0.3471410E+00
         13   -1    0    0    0    0  0.00000000000E+00  0.00000000000E+00  0.14999999963E+04  0.15000000000E+04  0.10566000000E+00 0.  1.
        994   -1    0    0    0    0 -0.00000000000E+00 -0.00000000000E+00  0.11368683772E-12  0.17120000000E+03  0.17120000000E+03 0.  0.
         13    1    1    2    0    0 -0.89258683590E+01 -0.59023318617E+02  0.34187955930E+03  0.34705196657E+03  0.10566000000E+00 0.  1.
        994    1    1    2    0    0  0.12392708072E+02  0.65486843046E+01  0.71376416277E+01  0.17192105865E+03  0.17120000000E+03 0.  0.
        998    1    1    2    0    0 -0.34668397132E+01  0.52474634312E+02  0.11509827953E+04  0.11522269748E+04  0.10000000000E+02 0.  1.
</event>
<event>
 5    1  0.1757379E-008  0.3832675E+03  0.7957747E-01  0.3437053E+00
         13   -1    0    0    0    0  0.00000000000E+00  0.00000000000E+00  0.14999999963E+04  0.15000000000E+04  0.10566000000E+00 0. -1.
        994   -1    0    0    0    0 -0.00000000000E+00 -0.00000000000E+00  0.11368683772E-12  0.17120000000E+03  0.17120000000E+03 0.  0.
         13    1    1    2    0    0  0.24464404905E+02 -0.32639756351E+01  0.13916436707E+03  0.14133609897E+03  0.10566000000E+00 0. -1.
        994    1    1    2    0    0  0.17997849966E+01 -0.37114394652E+01  0.25489934495E+01  0.17126865264E+03  0.17120000000E+03 0.  0.
        998    1    1    2    0    0 -0.26264189902E+02  0.69754151003E+01  0.13582866358E+04  0.13585952484E+04  0.10000000000E+02 0. -1.
</event>
<event>
 5    1  0.1757379E-008  0.3820105E+03  0.7957747E-01  0.3442451E+00
         13   -1    0    0    0    0  0.00000000000E+00  0.00000000000E+00  0.14999999963E+04  0.15000000000E+04  0.10566000000E+00 0. -1.
        994   -1    0    0    0    0 -0.00000000000E+00 -0.00000000000E+00  0.11368683772E-12  0.17120000000E+03  0.17120000000E+03 0.  0.
         13    1    1    2    0    0  0.11591283784E+02 -0.15434147268E+01  0.20781245234E+02  0.23845572048E+02  0.10566000000E+00 0. -1.
        994    1    1    2    0    0 -0.62064150293E+01  0.23817722290E+01  0.32684515305E+01  0.17136019142E+03  0.17120000000E+03 0.  0.
        998    1    1    2    0    0 -0.53848687542E+01 -0.83835750216E+00  0.14759502995E+04  0.14759942365E+04  0.10000000000E+02 0. -1.
</event>
