<event>
 4    1  0.2471347E+000  0.5297796E+02  0.7957747E-01  0.1429911E+00
         13   -1    0    0    0    0  0.00000000000E+00  0.00000000000E+00  0.99999944178E+02  0.99999999998E+02  0.10566000000E+00 0. -1.
         22   -1    0    0    0    0 -0.00000000000E+00 -0.00000000000E+00 -0.20884862682E+02  0.20884862682E+02  0.00000000000E+00 0.  1.
         13    1    1    2    0    0 -0.48605913522E+01  0.16823750784E+02 -0.77409998148E+01  0.19146753795E+02  0.10566000000E+00 0.  1.
        996    1    1    2    0    0  0.48605913522E+01 -0.16823750784E+02  0.86856081311E+02  0.10173810888E+03  0.50000000000E+02 0.  0.
<mgrwt>
<rscale>  0 0.52977957E+02</rscale>
<asrwt>0</asrwt>
<pdfrwt beam="1">  1       13 0.10000000E+01 0.52977957E+02</pdfrwt>
<pdfrwt beam="2">  1       22 0.20884885E+00 0.52977957E+02</pdfrwt>
<totfact> 0.41838629E-01</totfact>
</mgrwt>
</event>
<event>
 4    1  0.2471347E+000  0.5364618E+02  0.7957747E-01  0.1426612E+00
         13   -1    0    0    0    0  0.00000000000E+00  0.00000000000E+00  0.99999944178E+02  0.99999999998E+02  0.10566000000E+00 0. -1.
         22   -1    0    0    0    0 -0.00000000000E+00 -0.00000000000E+00 -0.41776703438E+02  0.41776703438E+02  0.00000000000E+00 0.  1.
         13    1    1    2    0    0 -0.15570272850E+02 -0.11639540171E+02 -0.31630386744E+02  0.37126874655E+02  0.10566000000E+00 0.  1.
        996    1    1    2    0    0  0.15570272850E+02  0.11639540171E+02  0.89853627484E+02  0.10464982878E+03  0.50000000000E+02 0.  0.
<mgrwt>
<rscale>  0 0.53646177E+02</rscale>
<asrwt>0</asrwt>
<pdfrwt beam="1">  1       13 0.10000000E+01 0.53646177E+02</pdfrwt>
<pdfrwt beam="2">  1       22 0.41776720E+00 0.53646177E+02</pdfrwt>
<totfact> 0.11371205E-01</totfact>
</mgrwt>
</event>
<event>
 4    1  0.2471347E+000  0.5114809E+02  0.7957747E-01  0.1439246E+00
         13   -1    0    0    0    0  0.00000000000E+00  0.00000000000E+00  0.99999944186E+02  0.10000000001E+03  0.10566000000E+00 0.  1.
         22   -1    0    0    0    0 -0.00000000000E+00 -0.00000000000E+00 -0.36971680357E+02  0.36971680357E+02  0.00000000000E+00 0. -1.
         13    1    1    2    0    0  0.19427344071E+01  0.10599654349E+02 -0.29412173772E+02  0.31324335896E+02  0.10566000000E+00 0. -1.
        996    1    1    2    0    0 -0.19427344071E+01 -0.10599654349E+02  0.92440437600E+02  0.10564734447E+03  0.50000000000E+02 0.  0.
<mgrwt>
<rscale>  0 0.51148088E+02</rscale>
<asrwt>0</asrwt>
<pdfrwt beam="1">  1       13 0.10000000E+01 0.51148088E+02</pdfrwt>
<pdfrwt beam="2">  1       22 0.36971698E+00 0.51148088E+02</pdfrwt>
<totfact> 0.14264451E-01</totfact>
</mgrwt>
</event>
<event>
 4    1  0.2471347E+000  0.5363323E+02  0.7957747E-01  0.1426675E+00
         13   -1    0    0    0    0  0.00000000000E+00  0.00000000000E+00  0.99999944172E+02  0.99999999993E+02  0.10566000000E+00 0.  1.
         22   -1    0    0    0    0 -0.00000000000E+00 -0.00000000000E+00 -0.24781565809E+02  0.24781565809E+02  0.00000000000E+00 0. -1.
         13    1    1    2    0    0  0.97577557386E+01  0.16772277416E+02 -0.11691828742E+02  0.22654648754E+02  0.10566000000E+00 0. -1.
        996    1    1    2    0    0 -0.97577557386E+01 -0.16772277416E+02  0.86910207105E+02  0.10212691705E+03  0.50000000000E+02 0.  0.
<mgrwt>
<rscale>  0 0.53633227E+02</rscale>
<asrwt>0</asrwt>
<pdfrwt beam="1">  1       13 0.10000000E+01 0.53633227E+02</pdfrwt>
<pdfrwt beam="2">  1       22 0.24781587E+00 0.53633227E+02</pdfrwt>
<totfact> 0.30068765E-01</totfact>
</mgrwt>
</event>
<event>
 4    1  0.2471347E+000  0.6149130E+02  0.7957747E-01  0.1391678E+00
         13   -1    0    0    0    0  0.00000000000E+00  0.00000000000E+00  0.99999944178E+02  0.99999999998E+02  0.10566000000E+00 0. -1.
         22   -1    0    0    0    0 -0.00000000000E+00 -0.00000000000E+00 -0.59825013753E+02  0.59825013753E+02  0.00000000000E+00 0.  1.
         13    1    1    2    0    0  0.23954388540E+02  0.26596367932E+02 -0.43279343080E+02  0.56163085910E+02  0.10566000000E+00 0.  1.
        996    1    1    2    0    0 -0.23954388540E+02 -0.26596367932E+02  0.83454273504E+02  0.10366192784E+03  0.50000000000E+02 0.  0.
<mgrwt>
<rscale>  0 0.61491296E+02</rscale>
<asrwt>0</asrwt>
<pdfrwt beam="1">  1       13 0.10000000E+01 0.61491296E+02</pdfrwt>
<pdfrwt beam="2">  1       22 0.59825025E+00 0.61491296E+02</pdfrwt>
<totfact> 0.63037211E-02</totfact>
</mgrwt>
</event>
<event>
 4    1  0.2471347E+000  0.5347785E+02  0.7957747E-01  0.1427437E+00
         13   -1    0    0    0    0  0.00000000000E+00  0.00000000000E+00  0.99999944178E+02  0.99999999998E+02  0.10566000000E+00 0. -1.
         22   -1    0    0    0    0 -0.00000000000E+00 -0.00000000000E+00 -0.20266655103E+02  0.20266655103E+02  0.00000000000E+00 0.  1.
         13    1    1    2    0    0  0.16790302710E+02  0.88298448110E+01 -0.54052789406E+01  0.19725836584E+02  0.10566000000E+00 0.  1.
        996    1    1    2    0    0 -0.16790302710E+02 -0.88298448110E+01  0.85138568015E+02  0.10054081852E+03  0.50000000000E+02 0.  0.
<mgrwt>
<rscale>  0 0.53477850E+02</rscale>
<asrwt>0</asrwt>
<pdfrwt beam="1">  1       13 0.10000000E+01 0.53477850E+02</pdfrwt>
<pdfrwt beam="2">  1       22 0.20266677E+00 0.53477850E+02</pdfrwt>
<totfact> 0.44314580E-01</totfact>
</mgrwt>
</event>
<event>
 4    1  0.2471347E+000  0.6194107E+02  0.7957747E-01  0.1389862E+00
         13   -1    0    0    0    0  0.00000000000E+00  0.00000000000E+00  0.99999944181E+02  0.10000000000E+03  0.10566000000E+00 0. -1.
         22   -1    0    0    0    0 -0.00000000000E+00 -0.00000000000E+00 -0.26688000099E+02  0.26688000099E+02  0.00000000000E+00 0.  1.
         13    1    1    2    0    0 -0.96788749510E+01 -0.35256424472E+02  0.95381032439E+01  0.37784688227E+02  0.10566000000E+00 0.  1.
        996    1    1    2    0    0  0.96788749510E+01  0.35256424472E+02  0.63773840838E+02  0.88903311874E+02  0.50000000000E+02 0.  0.
<mgrwt>
<rscale>  0 0.61941069E+02</rscale>
<asrwt>0</asrwt>
<pdfrwt beam="1">  1       13 0.10000000E+01 0.61941069E+02</pdfrwt>
<pdfrwt beam="2">  1       22 0.26688021E+00 0.61941069E+02</pdfrwt>
<totfact> 0.26277067E-01</totfact>
</mgrwt>
</event>
<event>
 4    1  0.2471347E+000  0.5113876E+02  0.7957747E-01  0.1439294E+00
         13   -1    0    0    0    0  0.00000000000E+00  0.00000000000E+00  0.99999944176E+02  0.99999999996E+02  0.10566000000E+00 0. -1.
         22   -1    0    0    0    0 -0.00000000000E+00 -0.00000000000E+00 -0.14006234007E+02  0.14006234007E+02  0.00000000000E+00 0. -1.
         13    1    1    2    0    0 -0.89998666036E+01  0.58459670553E+01 -0.31939974205E+01  0.11197576222E+02  0.10566000000E+00 0.  1.
        996    1    1    2    0    0  0.89998666036E+01 -0.58459670553E+01  0.89187707589E+02  0.10280865778E+03  0.50000000000E+02 0.  0.
<mgrwt>
<rscale>  0 0.51138762E+02</rscale>
<asrwt>0</asrwt>
<pdfrwt beam="1">  1       13 0.10000000E+01 0.51138762E+02</pdfrwt>
<pdfrwt beam="2">  1       22 0.14006258E+00 0.51138762E+02</pdfrwt>
<totfact> 0.84113027E-01</totfact>
</mgrwt>
</event>
<event>
 4    1  0.2471347E+000  0.5249185E+02  0.7957747E-01  0.1432347E+00
         13   -1    0    0    0    0  0.00000000000E+00  0.00000000000E+00  0.99999944177E+02  0.99999999997E+02  0.10566000000E+00 0. -1.
         22   -1    0    0    0    0 -0.00000000000E+00 -0.00000000000E+00 -0.33396870034E+02  0.33396870034E+02  0.00000000000E+00 0.  1.
         13    1    1    2    0    0 -0.15963825822E+02  0.74190806314E+00 -0.23912885862E+02  0.28761631330E+02  0.10566000000E+00 0.  1.
        996    1    1    2    0    0  0.15963825822E+02 -0.74190806314E+00  0.90515960005E+02  0.10463523870E+03  0.50000000000E+02 0.  0.
<mgrwt>
<rscale>  0 0.52491849E+02</rscale>
<asrwt>0</asrwt>
<pdfrwt beam="1">  1       13 0.10000000E+01 0.52491849E+02</pdfrwt>
<pdfrwt beam="2">  1       22 0.33396889E+00 0.52491849E+02</pdfrwt>
<totfact> 0.17065509E-01</totfact>
</mgrwt>
</event>
<event>
 4    1  0.2471347E+000  0.5169663E+02  0.7957747E-01  0.1436399E+00
         13   -1    0    0    0    0  0.00000000000E+00  0.00000000000E+00  0.99999944179E+02  0.99999999999E+02  0.10566000000E+00 0.  1.
         22   -1    0    0    0    0 -0.00000000000E+00 -0.00000000000E+00 -0.13628819526E+02  0.13628819526E+02  0.00000000000E+00 0.  1.
         13    1    1    2    0    0 -0.12733470141E+02 -0.32248765200E+01  0.19696341612E+00  0.13137391257E+02  0.10566000000E+00 0. -1.
        996    1    1    2    0    0  0.12733470141E+02  0.32248765200E+01  0.86174161237E+02  0.10049142827E+03  0.50000000000E+02 0.  0.
<mgrwt>
<rscale>  0 0.51696626E+02</rscale>
<asrwt>0</asrwt>
<pdfrwt beam="1">  1       13 0.10000000E+01 0.51696626E+02</pdfrwt>
<pdfrwt beam="2">  1       22 0.13628844E+00 0.51696626E+02</pdfrwt>
<totfact> 0.88004091E-01</totfact>
</mgrwt>
</event>
<event>
 4    1  0.2471347E+000  0.5212863E+02  0.7957747E-01  0.1434187E+00
         13   -1    0    0    0    0  0.00000000000E+00  0.00000000000E+00  0.99999944178E+02  0.99999999998E+02  0.10566000000E+00 0.  1.
         22   -1    0    0    0    0 -0.00000000000E+00 -0.00000000000E+00 -0.25406013114E+02  0.25406013114E+02  0.00000000000E+00 0. -1.
         13    1    1    2    0    0 -0.12981856802E+02  0.69903899216E+01 -0.15452902987E+02  0.21358781146E+02  0.10566000000E+00 0. -1.
        996    1    1    2    0    0  0.12981856802E+02 -0.69903899216E+01  0.90046834051E+02  0.10404723197E+03  0.50000000000E+02 0.  0.
<mgrwt>
<rscale>  0 0.52128631E+02</rscale>
<asrwt>0</asrwt>
<pdfrwt beam="1">  1       13 0.10000000E+01 0.52128631E+02</pdfrwt>
<pdfrwt beam="2">  1       22 0.25406034E+00 0.52128631E+02</pdfrwt>
<totfact> 0.28565151E-01</totfact>
</mgrwt>
</event>
<event>
 4    1  0.2471347E+000  0.5155411E+02  0.7957747E-01  0.1437135E+00
         13   -1    0    0    0    0  0.00000000000E+00  0.00000000000E+00  0.99999944184E+02  0.10000000000E+03  0.10566000000E+00 0. -1.
         22   -1    0    0    0    0 -0.00000000000E+00 -0.00000000000E+00 -0.59585183833E+02  0.59585183833E+02  0.00000000000E+00 0.  1.
         13    1    1    2    0    0 -0.72869228867E+01  0.10233596556E+02 -0.52144648708E+02  0.53636753226E+02  0.10566000000E+00 0.  1.
        996    1    1    2    0    0  0.72869228867E+01 -0.10233596556E+02  0.92559409060E+02  0.10594843061E+03  0.50000000000E+02 0.  0.
<mgrwt>
<rscale>  0 0.51554105E+02</rscale>
<asrwt>0</asrwt>
<pdfrwt beam="1">  1       13 0.10000000E+01 0.51554105E+02</pdfrwt>
<pdfrwt beam="2">  1       22 0.59585195E+00 0.51554105E+02</pdfrwt>
<totfact> 0.62169602E-02</totfact>
</mgrwt>
</event>
<event>
 4    1  0.2471347E+000  0.5197722E+02  0.7957747E-01  0.1434960E+00
         13   -1    0    0    0    0  0.00000000000E+00  0.00000000000E+00  0.99999944182E+02  0.10000000000E+03  0.10566000000E+00 0. -1.
         22   -1    0    0    0    0 -0.00000000000E+00 -0.00000000000E+00 -0.14085967476E+02  0.14085967476E+02  0.00000000000E+00 0. -1.
         13    1    1    2    0    0  0.21250904304E+01 -0.14039780687E+02  0.63365106716E+00  0.14214222764E+02  0.10566000000E+00 0.  1.
        996    1    1    2    0    0 -0.21250904304E+01  0.14039780687E+02  0.85280325639E+02  0.99871744714E+02  0.50000000000E+02 0.  0.
<mgrwt>
<rscale>  0 0.51977221E+02</rscale>
<asrwt>0</asrwt>
<pdfrwt beam="1">  1       13 0.10000000E+01 0.51977221E+02</pdfrwt>
<pdfrwt beam="2">  1       22 0.14085991E+00 0.51977221E+02</pdfrwt>
<totfact> 0.83490118E-01</totfact>
</mgrwt>
</event>
<event>
 4    1  0.2471347E+000  0.5119040E+02  0.7957747E-01  0.1439025E+00
         13   -1    0    0    0    0  0.00000000000E+00  0.00000000000E+00  0.99999944176E+02  0.99999999996E+02  0.10566000000E+00 0.  1.
         22   -1    0    0    0    0 -0.00000000000E+00 -0.00000000000E+00 -0.24619155654E+02  0.24619155654E+02  0.00000000000E+00 0. -1.
         13    1    1    2    0    0 -0.89205501100E+01  0.63938510334E+01 -0.16279034401E+02  0.19633534332E+02  0.10566000000E+00 0. -1.
        996    1    1    2    0    0  0.89205501100E+01 -0.63938510334E+01  0.91659822923E+02  0.10498562132E+03  0.50000000000E+02 0.  0.
<mgrwt>
<rscale>  0 0.51190405E+02</rscale>
<asrwt>0</asrwt>
<pdfrwt beam="1">  1       13 0.10000000E+01 0.51190405E+02</pdfrwt>
<pdfrwt beam="2">  1       22 0.24619177E+00 0.51190405E+02</pdfrwt>
<totfact> 0.30343298E-01</totfact>
</mgrwt>
</event>
<event>
 4    1  0.2471347E+000  0.5257407E+02  0.7957747E-01  0.1431932E+00
         13   -1    0    0    0    0  0.00000000000E+00  0.00000000000E+00  0.99999944182E+02  0.10000000000E+03  0.10566000000E+00 0. -1.
         22   -1    0    0    0    0 -0.00000000000E+00 -0.00000000000E+00 -0.12176249479E+02  0.12176249479E+02  0.00000000000E+00 0.  1.
         13    1    1    2    0    0  0.68035240815E+00 -0.16234826090E+02  0.13433351366E+02  0.21083134267E+02  0.10566000000E+00 0.  1.
        996    1    1    2    0    0 -0.68035240815E+00  0.16234826090E+02  0.74390343337E+02  0.91093115214E+02  0.50000000000E+02 0.  0.
<mgrwt>
<rscale>  0 0.52574066E+02</rscale>
<asrwt>0</asrwt>
<pdfrwt beam="1">  1       13 0.10000000E+01 0.52574066E+02</pdfrwt>
<pdfrwt beam="2">  1       22 0.12176274E+00 0.52574066E+02</pdfrwt>
<totfact> 0.10524724E+00</totfact>
</mgrwt>
</event>
<event>
 4    1  0.2471347E+000  0.6085123E+02  0.7957747E-01  0.1394294E+00
         13   -1    0    0    0    0  0.00000000000E+00  0.00000000000E+00  0.99999944178E+02  0.99999999998E+02  0.10566000000E+00 0.  1.
         22   -1    0    0    0    0 -0.00000000000E+00 -0.00000000000E+00 -0.31753702239E+02  0.31753702239E+02  0.00000000000E+00 0. -1.
         13    1    1    2    0    0  0.28837445929E+02 -0.19268467929E+02 -0.65866417925E+01  0.35302509234E+02  0.10566000000E+00 0. -1.
        996    1    1    2    0    0 -0.28837445929E+02  0.19268467929E+02  0.74832883732E+02  0.96451193003E+02  0.50000000000E+02 0.  0.
<mgrwt>
<rscale>  0 0.60851230E+02</rscale>
<asrwt>0</asrwt>
<pdfrwt beam="1">  1       13 0.10000000E+01 0.60851230E+02</pdfrwt>
<pdfrwt beam="2">  1       22 0.31753721E+00 0.60851230E+02</pdfrwt>
<totfact> 0.18841573E-01</totfact>
</mgrwt>
</event>
<event>
 4    1  0.2471347E+000  0.5614273E+02  0.7957747E-01  0.1414771E+00
         13   -1    0    0    0    0  0.00000000000E+00  0.00000000000E+00  0.99999944176E+02  0.99999999996E+02  0.10566000000E+00 0.  1.
         22   -1    0    0    0    0 -0.00000000000E+00 -0.00000000000E+00 -0.31183991957E+02  0.31183991957E+02  0.00000000000E+00 0. -1.
         13    1    1    2    0    0  0.67898384866E+01 -0.24615132742E+02 -0.15511561791E+02  0.29876853579E+02  0.10566000000E+00 0. -1.
        996    1    1    2    0    0 -0.67898384866E+01  0.24615132742E+02  0.84327514009E+02  0.10130713837E+03  0.50000000000E+02 0.  0.
<mgrwt>
<rscale>  0 0.56142735E+02</rscale>
<asrwt>0</asrwt>
<pdfrwt beam="1">  1       13 0.10000000E+01 0.56142735E+02</pdfrwt>
<pdfrwt beam="2">  1       22 0.31184011E+00 0.56142735E+02</pdfrwt>
<totfact> 0.19373298E-01</totfact>
</mgrwt>
</event>
<event>
 4    1  0.2471347E+000  0.5121865E+02  0.7957747E-01  0.1438877E+00
         13   -1    0    0    0    0  0.00000000000E+00  0.00000000000E+00  0.99999944181E+02  0.10000000000E+03  0.10566000000E+00 0.  1.
         22   -1    0    0    0    0 -0.00000000000E+00 -0.00000000000E+00 -0.10278684198E+02  0.10278684198E+02  0.00000000000E+00 0.  1.
         13    1    1    2    0    0 -0.96178011524E+01 -0.55540764365E+01  0.74746230120E+01  0.13387718897E+02  0.10566000000E+00 0. -1.
        996    1    1    2    0    0  0.96178011524E+01  0.55540764365E+01  0.82246636971E+02  0.96890965302E+02  0.50000000000E+02 0.  0.
<mgrwt>
<rscale>  0 0.51218648E+02</rscale>
<asrwt>0</asrwt>
<pdfrwt beam="1">  1       13 0.10000000E+01 0.51218648E+02</pdfrwt>
<pdfrwt beam="2">  1       22 0.10278709E+00 0.51218648E+02</pdfrwt>
<totfact> 0.13520206E+00</totfact>
</mgrwt>
</event>
<event>
 4    1  0.2471347E+000  0.5123337E+02  0.7957747E-01  0.1438800E+00
         13   -1    0    0    0    0  0.00000000000E+00  0.00000000000E+00  0.99999944181E+02  0.10000000000E+03  0.10566000000E+00 0. -1.
         22   -1    0    0    0    0 -0.00000000000E+00 -0.00000000000E+00 -0.20955329478E+02  0.20955329478E+02  0.00000000000E+00 0.  1.
         13    1    1    2    0    0  0.57571474572E-01 -0.11173867709E+02 -0.12054908308E+02  0.16437475852E+02  0.10566000000E+00 0.  1.
        996    1    1    2    0    0 -0.57571474572E-01  0.11173867709E+02  0.91099523011E+02  0.10451785363E+03  0.50000000000E+02 0.  0.
<mgrwt>
<rscale>  0 0.51233374E+02</rscale>
<asrwt>0</asrwt>
<pdfrwt beam="1">  1       13 0.10000000E+01 0.51233374E+02</pdfrwt>
<pdfrwt beam="2">  1       22 0.20955352E+00 0.51233374E+02</pdfrwt>
<totfact> 0.41445778E-01</totfact>
</mgrwt>
</event>
<event>
 4    1  0.2471347E+000  0.5932666E+02  0.7957747E-01  0.1400679E+00
         13   -1    0    0    0    0  0.00000000000E+00  0.00000000000E+00  0.99999944182E+02  0.10000000000E+03  0.10566000000E+00 0.  1.
         22   -1    0    0    0    0 -0.00000000000E+00 -0.00000000000E+00 -0.37857059725E+02  0.37857059725E+02  0.00000000000E+00 0. -1.
         13    1    1    2    0    0  0.27948321841E+02 -0.15444864446E+02 -0.19137870325E+02  0.37227970346E+02  0.10566000000E+00 0. -1.
        996    1    1    2    0    0 -0.27948321841E+02  0.15444864446E+02  0.81280754783E+02  0.10062908938E+03  0.50000000000E+02 0.  0.
<mgrwt>
<rscale>  0 0.59326660E+02</rscale>
<asrwt>0</asrwt>
<pdfrwt beam="1">  1       13 0.10000000E+01 0.59326660E+02</pdfrwt>
<pdfrwt beam="2">  1       22 0.37857077E+00 0.59326660E+02</pdfrwt>
<totfact> 0.13770335E-01</totfact>
</mgrwt>
</event>
<event>
 4    1  0.2471347E+000  0.5175227E+02  0.7957747E-01  0.1436113E+00
         13   -1    0    0    0    0  0.00000000000E+00  0.00000000000E+00  0.99999944186E+02  0.10000000001E+03  0.10566000000E+00 0.  1.
         22   -1    0    0    0    0 -0.00000000000E+00 -0.00000000000E+00 -0.27400674842E+02  0.27400674842E+02  0.00000000000E+00 0. -1.
         13    1    1    2    0    0 -0.11289752548E+02 -0.71301584129E+01 -0.18388022679E+02  0.22725056956E+02  0.10566000000E+00 0. -1.
        996    1    1    2    0    0  0.11289752548E+02  0.71301584129E+01  0.90987292022E+02  0.10467561789E+03  0.50000000000E+02 0.  0.
<mgrwt>
<rscale>  0 0.51752272E+02</rscale>
<asrwt>0</asrwt>
<pdfrwt beam="1">  1       13 0.10000000E+01 0.51752272E+02</pdfrwt>
<pdfrwt beam="2">  1       22 0.27400695E+00 0.51752272E+02</pdfrwt>
<totfact> 0.24615269E-01</totfact>
</mgrwt>
</event>
<event>
 4    1  0.2471347E+000  0.5280420E+02  0.7957747E-01  0.1430778E+00
         13   -1    0    0    0    0  0.00000000000E+00  0.00000000000E+00  0.99999944177E+02  0.99999999998E+02  0.10566000000E+00 0.  1.
         22   -1    0    0    0    0 -0.00000000000E+00 -0.00000000000E+00 -0.12177162164E+02  0.12177162164E+02  0.00000000000E+00 0.  1.
         13    1    1    2    0    0 -0.16743471598E+02  0.28177781126E+01  0.22111690185E+02  0.27878696554E+02  0.10566000000E+00 0. -1.
        996    1    1    2    0    0  0.16743471598E+02 -0.28177781126E+01  0.65711091828E+02  0.84298465608E+02  0.50000000000E+02 0.  0.
<mgrwt>
<rscale>  0 0.52804202E+02</rscale>
<asrwt>0</asrwt>
<pdfrwt beam="1">  1       13 0.10000000E+01 0.52804202E+02</pdfrwt>
<pdfrwt beam="2">  1       22 0.12177187E+00 0.52804202E+02</pdfrwt>
<totfact> 0.10528816E+00</totfact>
</mgrwt>
</event>
<event>
 4    1  0.2471347E+000  0.6005996E+02  0.7957747E-01  0.1397580E+00
         13   -1    0    0    0    0  0.00000000000E+00  0.00000000000E+00  0.99999944176E+02  0.99999999996E+02  0.10566000000E+00 0. -1.
         22   -1    0    0    0    0 -0.00000000000E+00 -0.00000000000E+00 -0.21790077442E+02  0.21790077442E+02  0.00000000000E+00 0.  1.
         13    1    1    2    0    0 -0.24591737512E+02  0.22415284965E+02  0.26538328063E+02  0.42561632656E+02  0.10566000000E+00 0.  1.
        996    1    1    2    0    0  0.24591737512E+02 -0.22415284965E+02  0.51671538670E+02  0.79228444782E+02  0.50000000000E+02 0.  0.
<mgrwt>
<rscale>  0 0.60059958E+02</rscale>
<asrwt>0</asrwt>
<pdfrwt beam="1">  1       13 0.10000000E+01 0.60059958E+02</pdfrwt>
<pdfrwt beam="2">  1       22 0.21790099E+00 0.60059958E+02</pdfrwt>
<totfact> 0.39019100E-01</totfact>
</mgrwt>
</event>
<event>
 4    1  0.2471347E+000  0.5116271E+02  0.7957747E-01  0.1439169E+00
         13   -1    0    0    0    0  0.00000000000E+00  0.00000000000E+00  0.99999944185E+02  0.10000000001E+03  0.10566000000E+00 0.  1.
         22   -1    0    0    0    0 -0.00000000000E+00 -0.00000000000E+00 -0.96327707818E+01  0.96327707818E+01  0.00000000000E+00 0.  1.
         13    1    1    2    0    0 -0.10261334383E+02 -0.35111698729E+01  0.13962948162E+02  0.17680451991E+02  0.10566000000E+00 0. -1.
        996    1    1    2    0    0  0.10261334383E+02  0.35111698729E+01  0.76404225242E+02  0.91952318796E+02  0.50000000000E+02 0.  0.
<mgrwt>
<rscale>  0 0.51162714E+02</rscale>
<asrwt>0</asrwt>
<pdfrwt beam="1">  1       13 0.10000000E+01 0.51162714E+02</pdfrwt>
<pdfrwt beam="2">  1       22 0.96327960E-01 0.51162714E+02</pdfrwt>
<totfact> 0.14848621E+00</totfact>
</mgrwt>
</event>
<event>
 4    1  0.2471347E+000  0.5126477E+02  0.7957747E-01  0.1438637E+00
         13   -1    0    0    0    0  0.00000000000E+00  0.00000000000E+00  0.99999944175E+02  0.99999999995E+02  0.10566000000E+00 0. -1.
         22   -1    0    0    0    0 -0.00000000000E+00 -0.00000000000E+00 -0.12118943717E+02  0.12118943717E+02  0.00000000000E+00 0.  1.
         13    1    1    2    0    0 -0.13660313538E+01  0.11234332646E+02  0.11576561672E+01  0.11376625312E+02  0.10566000000E+00 0.  1.
        996    1    1    2    0    0  0.13660313538E+01 -0.11234332646E+02  0.86723344291E+02  0.10074231840E+03  0.50000000000E+02 0.  0.
<mgrwt>
<rscale>  0 0.51264766E+02</rscale>
<asrwt>0</asrwt>
<pdfrwt beam="1">  1       13 0.10000000E+01 0.51264766E+02</pdfrwt>
<pdfrwt beam="2">  1       22 0.12118968E+00 0.51264766E+02</pdfrwt>
<totfact> 0.10570492E+00</totfact>
</mgrwt>
</event>
<event>
 4    1  0.2471347E+000  0.5103684E+02  0.7957747E-01  0.1439828E+00
         13   -1    0    0    0    0  0.00000000000E+00  0.00000000000E+00  0.99999944183E+02  0.10000000000E+03  0.10566000000E+00 0. -1.
         22   -1    0    0    0    0 -0.00000000000E+00 -0.00000000000E+00 -0.11086909334E+02  0.11086909334E+02  0.00000000000E+00 0. -1.
         13    1    1    2    0    0  0.41075793413E+01  0.93748218613E+01  0.22003738346E+01  0.10469589391E+02  0.10566000000E+00 0.  1.
        996    1    1    2    0    0 -0.41075793413E+01 -0.93748218613E+01  0.86712661014E+02  0.10061731995E+03  0.50000000000E+02 0.  0.
<mgrwt>
<rscale>  0 0.51036844E+02</rscale>
<asrwt>0</asrwt>
<pdfrwt beam="1">  1       13 0.10000000E+01 0.51036844E+02</pdfrwt>
<pdfrwt beam="2">  1       22 0.11086934E+00 0.51036844E+02</pdfrwt>
<totfact> 0.12087266E+00</totfact>
</mgrwt>
</event>
<event>
 4    1  0.2471347E+000  0.5512254E+02  0.7957747E-01  0.1419520E+00
         13   -1    0    0    0    0  0.00000000000E+00  0.00000000000E+00  0.99999944177E+02  0.99999999997E+02  0.10566000000E+00 0. -1.
         22   -1    0    0    0    0 -0.00000000000E+00 -0.00000000000E+00 -0.15737315514E+02  0.15737315514E+02  0.00000000000E+00 0. -1.
         13    1    1    2    0    0 -0.84763028041E+01  0.21601995486E+02  0.16962704193E+02  0.28744363200E+02  0.10566000000E+00 0.  1.
        996    1    1    2    0    0  0.84763028041E+01 -0.21601995486E+02  0.67299924470E+02  0.86992952311E+02  0.50000000000E+02 0.  0.
<mgrwt>
<rscale>  0 0.55122535E+02</rscale>
<asrwt>0</asrwt>
<pdfrwt beam="1">  1       13 0.10000000E+01 0.55122535E+02</pdfrwt>
<pdfrwt beam="2">  1       22 0.15737339E+00 0.55122535E+02</pdfrwt>
<totfact> 0.69878500E-01</totfact>
</mgrwt>
</event>
<event>
 4    1  0.2471347E+000  0.5124853E+02  0.7957747E-01  0.1438721E+00
         13   -1    0    0    0    0  0.00000000000E+00  0.00000000000E+00  0.99999944182E+02  0.10000000000E+03  0.10566000000E+00 0.  1.
         22   -1    0    0    0    0 -0.00000000000E+00 -0.00000000000E+00 -0.13660808013E+02  0.13660808013E+02  0.00000000000E+00 0.  1.
         13    1    1    2    0    0 -0.96285942929E+01  0.58053030443E+01 -0.21073123161E+01  0.11439549848E+02  0.10566000000E+00 0. -1.
        996    1    1    2    0    0  0.96285942929E+01 -0.58053030443E+01  0.88446448485E+02  0.10222125817E+03  0.50000000000E+02 0.  0.
<mgrwt>
<rscale>  0 0.51248526E+02</rscale>
<asrwt>0</asrwt>
<pdfrwt beam="1">  1       13 0.10000000E+01 0.51248526E+02</pdfrwt>
<pdfrwt beam="2">  1       22 0.13660832E+00 0.51248526E+02</pdfrwt>
<totfact> 0.87589593E-01</totfact>
</mgrwt>
</event>
<event>
 4    1  0.2471347E+000  0.5387086E+02  0.7957747E-01  0.1425515E+00
         13   -1    0    0    0    0  0.00000000000E+00  0.00000000000E+00  0.99999944176E+02  0.99999999996E+02  0.10566000000E+00 0. -1.
         22   -1    0    0    0    0 -0.00000000000E+00 -0.00000000000E+00 -0.34642337141E+02  0.34642337141E+02  0.00000000000E+00 0.  1.
         13    1    1    2    0    0 -0.36083389056E+01 -0.19724323368E+02 -0.23399636288E+02  0.30815956653E+02  0.10566000000E+00 0.  1.
        996    1    1    2    0    0  0.36083389056E+01  0.19724323368E+02  0.88757243323E+02  0.10382638048E+03  0.50000000000E+02 0.  0.
<mgrwt>
<rscale>  0 0.53870855E+02</rscale>
<asrwt>0</asrwt>
<pdfrwt beam="1">  1       13 0.10000000E+01 0.53870855E+02</pdfrwt>
<pdfrwt beam="2">  1       22 0.34642355E+00 0.53870855E+02</pdfrwt>
<totfact> 0.16029343E-01</totfact>
</mgrwt>
</event>
<event>
 4    1  0.2471347E+000  0.5180858E+02  0.7957747E-01  0.1435824E+00
         13   -1    0    0    0    0  0.00000000000E+00  0.00000000000E+00  0.99999944177E+02  0.99999999997E+02  0.10566000000E+00 0. -1.
         22   -1    0    0    0    0 -0.00000000000E+00 -0.00000000000E+00 -0.10809046136E+02  0.10809046136E+02  0.00000000000E+00 0. -1.
         13    1    1    2    0    0  0.92915025346E+01  0.98892319597E+01  0.13997064894E+02  0.19495074193E+02  0.10566000000E+00 0.  1.
        996    1    1    2    0    0 -0.92915025346E+01 -0.98892319597E+01  0.75193833147E+02  0.91313971940E+02  0.50000000000E+02 0.  0.
<mgrwt>
<rscale>  0 0.51808580E+02</rscale>
<asrwt>0</asrwt>
<pdfrwt beam="1">  1       13 0.10000000E+01 0.51808580E+02</pdfrwt>
<pdfrwt beam="2">  1       22 0.10809071E+00 0.51808580E+02</pdfrwt>
<totfact> 0.12574371E+00</totfact>
</mgrwt>
</event>
<event>
 4    1  0.2471347E+000  0.5318494E+02  0.7957747E-01  0.1428883E+00
         13   -1    0    0    0    0  0.00000000000E+00  0.00000000000E+00  0.99999944180E+02  0.10000000000E+03  0.10566000000E+00 0. -1.
         22   -1    0    0    0    0 -0.00000000000E+00 -0.00000000000E+00 -0.14668039922E+02  0.14668039922E+02  0.00000000000E+00 0.  1.
         13    1    1    2    0    0  0.17879448296E+02  0.29938811517E+01  0.58804464368E+01  0.19058562644E+02  0.10566000000E+00 0.  1.
        996    1    1    2    0    0 -0.17879448296E+02 -0.29938811517E+01  0.79451457821E+02  0.95609477279E+02  0.50000000000E+02 0.  0.
<mgrwt>
<rscale>  0 0.53184941E+02</rscale>
<asrwt>0</asrwt>
<pdfrwt beam="1">  1       13 0.10000000E+01 0.53184941E+02</pdfrwt>
<pdfrwt beam="2">  1       22 0.14668064E+00 0.53184941E+02</pdfrwt>
<totfact> 0.78326999E-01</totfact>
</mgrwt>
</event>
<event>
 4    1  0.2471347E+000  0.5257725E+02  0.7957747E-01  0.1431916E+00
         13   -1    0    0    0    0  0.00000000000E+00  0.00000000000E+00  0.99999944177E+02  0.99999999997E+02  0.10566000000E+00 0.  1.
         22   -1    0    0    0    0 -0.00000000000E+00 -0.00000000000E+00 -0.12096478454E+02  0.12096478454E+02  0.00000000000E+00 0.  1.
         13    1    1    2    0    0  0.46914001955E+01 -0.15567854536E+02  0.28117550829E+02  0.32480381145E+02  0.10566000000E+00 0. -1.
        996    1    1    2    0    0 -0.46914001955E+01  0.15567854536E+02  0.59785914894E+02  0.79616097307E+02  0.50000000000E+02 0.  0.
<mgrwt>
<rscale>  0 0.52577251E+02</rscale>
<asrwt>0</asrwt>
<pdfrwt beam="1">  1       13 0.10000000E+01 0.52577251E+02</pdfrwt>
<pdfrwt beam="2">  1       22 0.12096503E+00 0.52577251E+02</pdfrwt>
<totfact> 0.10631751E+00</totfact>
</mgrwt>
</event>
<event>
 4    1  0.2471347E+000  0.5101780E+02  0.7957747E-01  0.1439928E+00
         13   -1    0    0    0    0  0.00000000000E+00  0.00000000000E+00  0.99999944177E+02  0.99999999997E+02  0.10566000000E+00 0.  1.
         22   -1    0    0    0    0 -0.00000000000E+00 -0.00000000000E+00 -0.61747894191E+02  0.61747894191E+02  0.00000000000E+00 0. -1.
         13    1    1    2    0    0  0.92423554700E+01 -0.41706681554E+01 -0.54744829027E+02  0.55676054788E+02  0.10566000000E+00 0. -1.
        996    1    1    2    0    0 -0.92423554700E+01  0.41706681554E+01  0.92996879013E+02  0.10607183940E+03  0.50000000000E+02 0.  0.
<mgrwt>
<rscale>  0 0.51017797E+02</rscale>
<asrwt>0</asrwt>
<pdfrwt beam="1">  1       13 0.10000000E+01 0.51017797E+02</pdfrwt>
<pdfrwt beam="2">  1       22 0.61747905E+00 0.51017797E+02</pdfrwt>
<totfact> 0.71430893E-02</totfact>
</mgrwt>
</event>
<event>
 4    1  0.2471347E+000  0.5141478E+02  0.7957747E-01  0.1437857E+00
         13   -1    0    0    0    0  0.00000000000E+00  0.00000000000E+00  0.99999944181E+02  0.10000000000E+03  0.10566000000E+00 0.  1.
         22   -1    0    0    0    0 -0.00000000000E+00 -0.00000000000E+00 -0.10054698241E+02  0.10054698241E+02  0.00000000000E+00 0.  1.
         13    1    1    2    0    0  0.11928442634E+02  0.10917598402E+01  0.18223396274E+02  0.21807865990E+02  0.10566000000E+00 0. -1.
        996    1    1    2    0    0 -0.11928442634E+02 -0.10917598402E+01  0.71721849665E+02  0.88246832253E+02  0.50000000000E+02 0.  0.
<mgrwt>
<rscale>  0 0.51414781E+02</rscale>
<asrwt>0</asrwt>
<pdfrwt beam="1">  1       13 0.10000000E+01 0.51414781E+02</pdfrwt>
<pdfrwt beam="2">  1       22 0.10054723E+00 0.51414781E+02</pdfrwt>
<totfact> 0.13967098E+00</totfact>
</mgrwt>
</event>
<event>
 4    1  0.2471347E+000  0.5123504E+02  0.7957747E-01  0.1438792E+00
         13   -1    0    0    0    0  0.00000000000E+00  0.00000000000E+00  0.99999944180E+02  0.10000000000E+03  0.10566000000E+00 0.  1.
         22   -1    0    0    0    0 -0.00000000000E+00 -0.00000000000E+00 -0.99659380187E+01  0.99659380187E+01  0.00000000000E+00 0.  1.
         13    1    1    2    0    0 -0.81273659535E+01  0.76795183095E+01  0.10381977466E+02  0.15258627034E+02  0.10566000000E+00 0. -1.
        996    1    1    2    0    0  0.81273659535E+01 -0.76795183095E+01  0.79652028695E+02  0.94707310985E+02  0.50000000000E+02 0.  0.
<mgrwt>
<rscale>  0 0.51235038E+02</rscale>
<asrwt>0</asrwt>
<pdfrwt beam="1">  1       13 0.10000000E+01 0.51235038E+02</pdfrwt>
<pdfrwt beam="2">  1       22 0.99659632E-01 0.51235038E+02</pdfrwt>
<totfact> 0.14141475E+00</totfact>
</mgrwt>
</event>
<event>
 4    1  0.2471347E+000  0.5104210E+02  0.7957747E-01  0.1439800E+00
         13   -1    0    0    0    0  0.00000000000E+00  0.00000000000E+00  0.99999944180E+02  0.10000000000E+03  0.10566000000E+00 0.  1.
         22   -1    0    0    0    0 -0.00000000000E+00 -0.00000000000E+00 -0.16099088467E+02  0.16099088467E+02  0.00000000000E+00 0. -1.
         13    1    1    2    0    0  0.91865187445E+00  0.10220173732E+02 -0.65968968683E+01  0.12199429687E+02  0.10566000000E+00 0. -1.
        996    1    1    2    0    0 -0.91865187445E+00 -0.10220173732E+02  0.90497752582E+02  0.10389965878E+03  0.50000000000E+02 0.  0.
<mgrwt>
<rscale>  0 0.51042099E+02</rscale>
<asrwt>0</asrwt>
<pdfrwt beam="1">  1       13 0.10000000E+01 0.51042099E+02</pdfrwt>
<pdfrwt beam="2">  1       22 0.16099112E+00 0.51042099E+02</pdfrwt>
<totfact> 0.66686838E-01</totfact>
</mgrwt>
</event>
<event>
 4    1  0.2471347E+000  0.5742440E+02  0.7957747E-01  0.1408970E+00
         13   -1    0    0    0    0  0.00000000000E+00  0.00000000000E+00  0.99999944180E+02  0.10000000000E+03  0.10566000000E+00 0. -1.
         22   -1    0    0    0    0 -0.00000000000E+00 -0.00000000000E+00 -0.18935813820E+02  0.18935813820E+02  0.00000000000E+00 0. -1.
         13    1    1    2    0    0  0.10945379873E+02 -0.26033823811E+02  0.17270630206E+02  0.33103582201E+02  0.10566000000E+00 0.  1.
        996    1    1    2    0    0 -0.10945379873E+02  0.26033823811E+02  0.63793500155E+02  0.85832231620E+02  0.50000000000E+02 0.  0.
<mgrwt>
<rscale>  0 0.57424397E+02</rscale>
<asrwt>0</asrwt>
<pdfrwt beam="1">  1       13 0.10000000E+01 0.57424397E+02</pdfrwt>
<pdfrwt beam="2">  1       22 0.18935836E+00 0.57424397E+02</pdfrwt>
<totfact> 0.50599983E-01</totfact>
</mgrwt>
</event>
<event>
 4    1  0.2471347E+000  0.5215315E+02  0.7957747E-01  0.1434062E+00
         13   -1    0    0    0    0  0.00000000000E+00  0.00000000000E+00  0.99999944180E+02  0.10000000000E+03  0.10566000000E+00 0.  1.
         22   -1    0    0    0    0 -0.00000000000E+00 -0.00000000000E+00 -0.12882988104E+02  0.12882988104E+02  0.00000000000E+00 0.  1.
         13    1    1    2    0    0 -0.61525023572E+01 -0.13494377239E+02  0.50900395545E+01  0.15680279622E+02  0.10566000000E+00 0. -1.
        996    1    1    2    0    0  0.61525023572E+01  0.13494377239E+02  0.82026916521E+02  0.97202708482E+02  0.50000000000E+02 0.  0.
<mgrwt>
<rscale>  0 0.52153154E+02</rscale>
<asrwt>0</asrwt>
<pdfrwt beam="1">  1       13 0.10000000E+01 0.52153154E+02</pdfrwt>
<pdfrwt beam="2">  1       22 0.12883012E+00 0.52153154E+02</pdfrwt>
<totfact> 0.96318143E-01</totfact>
</mgrwt>
</event>
<event>
 4    1  0.2471347E+000  0.5494526E+02  0.7957747E-01  0.1420358E+00
         13   -1    0    0    0    0  0.00000000000E+00  0.00000000000E+00  0.99999944180E+02  0.10000000000E+03  0.10566000000E+00 0.  1.
         22   -1    0    0    0    0 -0.00000000000E+00 -0.00000000000E+00 -0.16005909613E+02  0.16005909613E+02  0.00000000000E+00 0. -1.
         13    1    1    2    0    0  0.39307032111E+01  0.22439499000E+02  0.12987771647E+02  0.26223556576E+02  0.10566000000E+00 0. -1.
        996    1    1    2    0    0 -0.39307032111E+01 -0.22439499000E+02  0.71006262919E+02  0.89782353037E+02  0.50000000000E+02 0.  0.
<mgrwt>
<rscale>  0 0.54945260E+02</rscale>
<asrwt>0</asrwt>
<pdfrwt beam="1">  1       13 0.10000000E+01 0.54945260E+02</pdfrwt>
<pdfrwt beam="2">  1       22 0.16005933E+00 0.54945260E+02</pdfrwt>
<totfact> 0.67866788E-01</totfact>
</mgrwt>
</event>
<event>
 4    1  0.2471347E+000  0.5176799E+02  0.7957747E-01  0.1436032E+00
         13   -1    0    0    0    0  0.00000000000E+00  0.00000000000E+00  0.99999944171E+02  0.99999999992E+02  0.10566000000E+00 0.  1.
         22   -1    0    0    0    0 -0.00000000000E+00 -0.00000000000E+00 -0.13520386680E+02  0.13520386680E+02  0.00000000000E+00 0.  1.
         13    1    1    2    0    0 -0.47275903191E+01 -0.12552878122E+02  0.82762924706E+00  0.13439531003E+02  0.10566000000E+00 0. -1.
        996    1    1    2    0    0  0.47275903191E+01  0.12552878122E+02  0.85651928244E+02  0.10008085567E+03  0.50000000000E+02 0.  0.
<mgrwt>
<rscale>  0 0.51767991E+02</rscale>
<asrwt>0</asrwt>
<pdfrwt beam="1">  1       13 0.10000000E+01 0.51767991E+02</pdfrwt>
<pdfrwt beam="2">  1       22 0.13520411E+00 0.51767991E+02</pdfrwt>
<totfact> 0.89150147E-01</totfact>
</mgrwt>
</event>
<event>
 4    1  0.2471347E+000  0.5614928E+02  0.7957747E-01  0.1414741E+00
         13   -1    0    0    0    0  0.00000000000E+00  0.00000000000E+00  0.99999944178E+02  0.99999999998E+02  0.10566000000E+00 0. -1.
         22   -1    0    0    0    0 -0.00000000000E+00 -0.00000000000E+00 -0.17655496227E+02  0.17655496227E+02  0.00000000000E+00 0. -1.
         13    1    1    2    0    0 -0.21665507014E+02 -0.13540576424E+02  0.13761924504E+02  0.29019702517E+02  0.10566000000E+00 0.  1.
        996    1    1    2    0    0  0.21665507014E+02  0.13540576424E+02  0.68582523446E+02  0.88635793708E+02  0.50000000000E+02 0.  0.
<mgrwt>
<rscale>  0 0.56149278E+02</rscale>
<asrwt>0</asrwt>
<pdfrwt beam="1">  1       13 0.10000000E+01 0.56149278E+02</pdfrwt>
<pdfrwt beam="2">  1       22 0.17655519E+00 0.56149278E+02</pdfrwt>
<totfact> 0.57302458E-01</totfact>
</mgrwt>
</event>
<event>
 4    1  0.2471347E+000  0.5616528E+02  0.7957747E-01  0.1414667E+00
         13   -1    0    0    0    0  0.00000000000E+00  0.00000000000E+00  0.99999944174E+02  0.99999999994E+02  0.10566000000E+00 0.  1.
         22   -1    0    0    0    0 -0.00000000000E+00 -0.00000000000E+00 -0.71948906755E+02  0.71948906755E+02  0.00000000000E+00 0. -1.
         13    1    1    2    0    0  0.18214518057E+01  0.25519033097E+02 -0.61292537366E+02  0.66417806631E+02  0.10566000000E+00 0. -1.
        996    1    1    2    0    0 -0.18214518057E+01 -0.25519033097E+02  0.89343574785E+02  0.10553110012E+03  0.50000000000E+02 0.  0.
<mgrwt>
<rscale>  0 0.56165281E+02</rscale>
<asrwt>0</asrwt>
<pdfrwt beam="1">  1       13 0.10000000E+01 0.56165281E+02</pdfrwt>
<pdfrwt beam="2">  1       22 0.71948915E+00 0.56165281E+02</pdfrwt>
<totfact> 0.64318405E-02</totfact>
</mgrwt>
</event>
<event>
 4    1  0.2471347E+000  0.5357543E+02  0.7957747E-01  0.1426958E+00
         13   -1    0    0    0    0  0.00000000000E+00  0.00000000000E+00  0.99999944174E+02  0.99999999994E+02  0.10566000000E+00 0. -1.
         22   -1    0    0    0    0 -0.00000000000E+00 -0.00000000000E+00 -0.31934462526E+02  0.31934462526E+02  0.00000000000E+00 0.  1.
         13    1    1    2    0    0  0.17543555812E+02 -0.79088578302E+01 -0.20693999515E+02  0.28259142992E+02  0.10566000000E+00 0.  1.
        996    1    1    2    0    0 -0.17543555812E+02  0.79088578302E+01  0.88759481164E+02  0.10367531953E+03  0.50000000000E+02 0.  0.
<mgrwt>
<rscale>  0 0.53575427E+02</rscale>
<asrwt>0</asrwt>
<pdfrwt beam="1">  1       13 0.10000000E+01 0.53575427E+02</pdfrwt>
<pdfrwt beam="2">  1       22 0.31934482E+00 0.53575427E+02</pdfrwt>
<totfact> 0.18500644E-01</totfact>
</mgrwt>
</event>
<event>
 4    1  0.2471347E+000  0.5765756E+02  0.7957747E-01  0.1407933E+00
         13   -1    0    0    0    0  0.00000000000E+00  0.00000000000E+00  0.99999944183E+02  0.10000000000E+03  0.10566000000E+00 0. -1.
         22   -1    0    0    0    0 -0.00000000000E+00 -0.00000000000E+00 -0.20615893246E+02  0.20615893246E+02  0.00000000000E+00 0.  1.
         13    1    1    2    0    0 -0.25279990351E+02 -0.13613083712E+02  0.10004539268E+02  0.30405524667E+02  0.10566000000E+00 0.  1.
        996    1    1    2    0    0  0.25279990351E+02  0.13613083712E+02  0.69379511669E+02  0.90210368582E+02  0.50000000000E+02 0.  0.
<mgrwt>
<rscale>  0 0.57657558E+02</rscale>
<asrwt>0</asrwt>
<pdfrwt beam="1">  1       13 0.10000000E+01 0.57657558E+02</pdfrwt>
<pdfrwt beam="2">  1       22 0.20615915E+00 0.57657558E+02</pdfrwt>
<totfact> 0.43209433E-01</totfact>
</mgrwt>
</event>
<event>
 4    1  0.2471347E+000  0.5118497E+02  0.7957747E-01  0.1439053E+00
         13   -1    0    0    0    0  0.00000000000E+00  0.00000000000E+00  0.99999944181E+02  0.10000000000E+03  0.10566000000E+00 0. -1.
         22   -1    0    0    0    0 -0.00000000000E+00 -0.00000000000E+00 -0.14975777899E+02  0.14975777899E+02  0.00000000000E+00 0. -1.
         13    1    1    2    0    0  0.89875734284E+01  0.62549586928E+01 -0.45105445291E+01  0.11843021589E+02  0.10566000000E+00 0.  1.
        996    1    1    2    0    0 -0.89875734284E+01 -0.62549586928E+01  0.89534710811E+02  0.10313275631E+03  0.50000000000E+02 0.  0.
<mgrwt>
<rscale>  0 0.51184968E+02</rscale>
<asrwt>0</asrwt>
<pdfrwt beam="1">  1       13 0.10000000E+01 0.51184968E+02</pdfrwt>
<pdfrwt beam="2">  1       22 0.14975802E+00 0.51184968E+02</pdfrwt>
<totfact> 0.75368504E-01</totfact>
</mgrwt>
</event>
<event>
 4    1  0.2471347E+000  0.5381584E+02  0.7957747E-01  0.1425783E+00
         13   -1    0    0    0    0  0.00000000000E+00  0.00000000000E+00  0.99999944179E+02  0.99999999999E+02  0.10566000000E+00 0.  1.
         22   -1    0    0    0    0 -0.00000000000E+00 -0.00000000000E+00 -0.16553149814E+02  0.16553149814E+02  0.00000000000E+00 0.  1.
         13    1    1    2    0    0  0.18367001878E+02  0.76680031313E+01  0.35431716188E+01  0.20216583766E+02  0.10566000000E+00 0. -1.
        996    1    1    2    0    0 -0.18367001878E+02 -0.76680031313E+01  0.79903622745E+02  0.96336566048E+02  0.50000000000E+02 0.  0.
<mgrwt>
<rscale>  0 0.53815844E+02</rscale>
<asrwt>0</asrwt>
<pdfrwt beam="1">  1       13 0.10000000E+01 0.53815844E+02</pdfrwt>
<pdfrwt beam="2">  1       22 0.16553173E+00 0.53815844E+02</pdfrwt>
<totfact> 0.63910308E-01</totfact>
</mgrwt>
</event>
<event>
 4    1  0.2471347E+000  0.5225720E+02  0.7957747E-01  0.1433534E+00
         13   -1    0    0    0    0  0.00000000000E+00  0.00000000000E+00  0.99999944185E+02  0.10000000001E+03  0.10566000000E+00 0.  1.
         22   -1    0    0    0    0 -0.00000000000E+00 -0.00000000000E+00 -0.16362376137E+02  0.16362376137E+02  0.00000000000E+00 0. -1.
         13    1    1    2    0    0 -0.53660821535E+01  0.14213384551E+02 -0.27103251119E+01  0.15432827490E+02  0.10566000000E+00 0. -1.
        996    1    1    2    0    0  0.53660821535E+01 -0.14213384551E+02  0.86347893160E+02  0.10092954865E+03  0.50000000000E+02 0.  0.
<mgrwt>
<rscale>  0 0.52257202E+02</rscale>
<asrwt>0</asrwt>
<pdfrwt beam="1">  1       13 0.10000000E+01 0.52257202E+02</pdfrwt>
<pdfrwt beam="2">  1       22 0.16362399E+00 0.52257202E+02</pdfrwt>
<totfact> 0.65009773E-01</totfact>
</mgrwt>
</event>
<event>
 4    1  0.2471347E+000  0.5239379E+02  0.7957747E-01  0.1432842E+00
         13   -1    0    0    0    0  0.00000000000E+00  0.00000000000E+00  0.99999944172E+02  0.99999999992E+02  0.10566000000E+00 0.  1.
         22   -1    0    0    0    0 -0.00000000000E+00 -0.00000000000E+00 -0.29208551152E+02  0.29208551152E+02  0.00000000000E+00 0. -1.
         13    1    1    2    0    0 -0.12892442821E+02 -0.88822129289E+01 -0.19384019847E+02  0.24917065997E+02  0.10566000000E+00 0. -1.
        996    1    1    2    0    0  0.12892442821E+02  0.88822129289E+01  0.90175412868E+02  0.10429148515E+03  0.50000000000E+02 0.  0.
<mgrwt>
<rscale>  0 0.52393786E+02</rscale>
<asrwt>0</asrwt>
<pdfrwt beam="1">  1       13 0.10000000E+01 0.52393786E+02</pdfrwt>
<pdfrwt beam="2">  1       22 0.29208571E+00 0.52393786E+02</pdfrwt>
<totfact> 0.21784660E-01</totfact>
</mgrwt>
</event>
<event>
 4    1  0.2471347E+000  0.5149305E+02  0.7957747E-01  0.1437451E+00
         13   -1    0    0    0    0  0.00000000000E+00  0.00000000000E+00  0.99999944177E+02  0.99999999997E+02  0.10566000000E+00 0.  1.
         22   -1    0    0    0    0 -0.00000000000E+00 -0.00000000000E+00 -0.23666765327E+02  0.23666765327E+02  0.00000000000E+00 0. -1.
         13    1    1    2    0    0 -0.11526781066E+02 -0.43205925276E+01 -0.14642133480E+02  0.19129491327E+02  0.10566000000E+00 0. -1.
        996    1    1    2    0    0  0.11526781066E+02  0.43205925276E+01  0.90975312329E+02  0.10453727400E+03  0.50000000000E+02 0.  0.
<mgrwt>
<rscale>  0 0.51493050E+02</rscale>
<asrwt>0</asrwt>
<pdfrwt beam="1">  1       13 0.10000000E+01 0.51493050E+02</pdfrwt>
<pdfrwt beam="2">  1       22 0.23666787E+00 0.51493050E+02</pdfrwt>
<totfact> 0.32798244E-01</totfact>
</mgrwt>
</event>
<event>
 4    1  0.2471347E+000  0.5317476E+02  0.7957747E-01  0.1428933E+00
         13   -1    0    0    0    0  0.00000000000E+00  0.00000000000E+00  0.99999944182E+02  0.10000000000E+03  0.10566000000E+00 0. -1.
         22   -1    0    0    0    0 -0.00000000000E+00 -0.00000000000E+00 -0.27252284836E+02  0.27252284836E+02  0.00000000000E+00 0.  1.
         13    1    1    2    0    0 -0.10056978223E+00  0.18098200820E+02 -0.15760369683E+02  0.23999070894E+02  0.10566000000E+00 0.  1.
        996    1    1    2    0    0  0.10056978223E+00 -0.18098200820E+02  0.88508029029E+02  0.10325321394E+03  0.50000000000E+02 0.  0.
<mgrwt>
<rscale>  0 0.53174759E+02</rscale>
<asrwt>0</asrwt>
<pdfrwt beam="1">  1       13 0.10000000E+01 0.53174759E+02</pdfrwt>
<pdfrwt beam="2">  1       22 0.27252305E+00 0.53174759E+02</pdfrwt>
<totfact> 0.24928537E-01</totfact>
</mgrwt>
</event>
<event>
 4    1  0.2471347E+000  0.6170312E+02  0.7957747E-01  0.1390820E+00
         13   -1    0    0    0    0  0.00000000000E+00  0.00000000000E+00  0.99999944181E+02  0.10000000000E+03  0.10566000000E+00 0.  1.
         22   -1    0    0    0    0 -0.00000000000E+00 -0.00000000000E+00 -0.28483298426E+02  0.28483298426E+02  0.00000000000E+00 0. -1.
         13    1    1    2    0    0 -0.13709791927E+02  0.33456186865E+02  0.30039278996E+01  0.36280980983E+02  0.10566000000E+00 0. -1.
        996    1    1    2    0    0  0.13709791927E+02 -0.33456186865E+02  0.68512717855E+02  0.92202317444E+02  0.50000000000E+02 0.  0.
<mgrwt>
<rscale>  0 0.61703119E+02</rscale>
<asrwt>0</asrwt>
<pdfrwt beam="1">  1       13 0.10000000E+01 0.61703119E+02</pdfrwt>
<pdfrwt beam="2">  1       22 0.28483318E+00 0.61703119E+02</pdfrwt>
<totfact> 0.23128664E-01</totfact>
</mgrwt>
</event>
<event>
 4    1  0.2471347E+000  0.6748146E+02  0.7957747E-01  0.1368873E+00
         13   -1    0    0    0    0  0.00000000000E+00  0.00000000000E+00  0.99999944174E+02  0.99999999994E+02  0.10566000000E+00 0.  1.
         22   -1    0    0    0    0 -0.00000000000E+00 -0.00000000000E+00 -0.33988108578E+02  0.33988108578E+02  0.00000000000E+00 0. -1.
         13    1    1    2    0    0  0.23044920704E+02 -0.39021525297E+02  0.10284422713E+02  0.46470725423E+02  0.10566000000E+00 0. -1.
        996    1    1    2    0    0 -0.23044920704E+02  0.39021525297E+02  0.55727412883E+02  0.87517383150E+02  0.50000000000E+02 0.  0.
<mgrwt>
<rscale>  0 0.67481463E+02</rscale>
<asrwt>0</asrwt>
<pdfrwt beam="1">  1       13 0.10000000E+01 0.67481463E+02</pdfrwt>
<pdfrwt beam="2">  1       22 0.33988127E+00 0.67481463E+02</pdfrwt>
<totfact> 0.16785246E-01</totfact>
</mgrwt>
</event>
<event>
 4    1  0.2471347E+000  0.5742152E+02  0.7957747E-01  0.1408982E+00
         13   -1    0    0    0    0  0.00000000000E+00  0.00000000000E+00  0.99999944170E+02  0.99999999990E+02  0.10566000000E+00 0.  1.
         22   -1    0    0    0    0 -0.00000000000E+00 -0.00000000000E+00 -0.20562959924E+02  0.20562959924E+02  0.00000000000E+00 0. -1.
         13    1    1    2    0    0 -0.53422809240E+01  0.27725267175E+02  0.88922742925E+01  0.29602603121E+02  0.10566000000E+00 0. -1.
        996    1    1    2    0    0  0.53422809240E+01 -0.27725267175E+02  0.70544709954E+02  0.90960356793E+02  0.50000000000E+02 0.  0.
<mgrwt>
<rscale>  0 0.57421515E+02</rscale>
<asrwt>0</asrwt>
<pdfrwt beam="1">  1       13 0.10000000E+01 0.57421515E+02</pdfrwt>
<pdfrwt beam="2">  1       22 0.20562982E+00 0.57421515E+02</pdfrwt>
<totfact> 0.43403541E-01</totfact>
</mgrwt>
</event>
<event>
 4    1  0.2471347E+000  0.5128951E+02  0.7957747E-01  0.1438508E+00
         13   -1    0    0    0    0  0.00000000000E+00  0.00000000000E+00  0.99999944176E+02  0.99999999997E+02  0.10566000000E+00 0.  1.
         22   -1    0    0    0    0 -0.00000000000E+00 -0.00000000000E+00 -0.13020086211E+02  0.13020086211E+02  0.00000000000E+00 0. -1.
         13    1    1    2    0    0 -0.11370112511E+02  0.11551839664E+01 -0.68934044245E+00  0.11449902305E+02  0.10566000000E+00 0. -1.
        996    1    1    2    0    0  0.11370112511E+02 -0.11551839664E+01  0.87669198408E+02  0.10157018390E+03  0.50000000000E+02 0.  0.
<mgrwt>
<rscale>  0 0.51289511E+02</rscale>
<asrwt>0</asrwt>
<pdfrwt beam="1">  1       13 0.10000000E+01 0.51289511E+02</pdfrwt>
<pdfrwt beam="2">  1       22 0.13020110E+00 0.51289511E+02</pdfrwt>
<totfact> 0.94549243E-01</totfact>
</mgrwt>
</event>
<event>
 4    1  0.2471347E+000  0.5278589E+02  0.7957747E-01  0.1430869E+00
         13   -1    0    0    0    0  0.00000000000E+00  0.00000000000E+00  0.99999944175E+02  0.99999999995E+02  0.10566000000E+00 0.  1.
         22   -1    0    0    0    0 -0.00000000000E+00 -0.00000000000E+00 -0.29988000551E+02  0.29988000551E+02  0.00000000000E+00 0. -1.
         13    1    1    2    0    0 -0.72500302257E+01 -0.15290090012E+02 -0.19655868338E+02  0.25936732929E+02  0.10566000000E+00 0. -1.
        996    1    1    2    0    0  0.72500302257E+01  0.15290090012E+02  0.89667811961E+02  0.10405126762E+03  0.50000000000E+02 0.  0.
<mgrwt>
<rscale>  0 0.52785886E+02</rscale>
<asrwt>0</asrwt>
<pdfrwt beam="1">  1       13 0.10000000E+01 0.52785886E+02</pdfrwt>
<pdfrwt beam="2">  1       22 0.29988020E+00 0.52785886E+02</pdfrwt>
<totfact> 0.20739923E-01</totfact>
</mgrwt>
</event>
<event>
 4    1  0.2471347E+000  0.5149240E+02  0.7957747E-01  0.1437454E+00
         13   -1    0    0    0    0  0.00000000000E+00  0.00000000000E+00  0.99999944177E+02  0.99999999997E+02  0.10566000000E+00 0. -1.
         22   -1    0    0    0    0 -0.00000000000E+00 -0.00000000000E+00 -0.10300765832E+02  0.10300765832E+02  0.00000000000E+00 0. -1.
         13    1    1    2    0    0 -0.43071116873E+01 -0.11528933894E+02  0.12831665457E+02  0.17780054281E+02  0.10566000000E+00 0.  1.
        996    1    1    2    0    0  0.43071116873E+01  0.11528933894E+02  0.76867512887E+02  0.92520711548E+02  0.50000000000E+02 0.  0.
<mgrwt>
<rscale>  0 0.51492403E+02</rscale>
<asrwt>0</asrwt>
<pdfrwt beam="1">  1       13 0.10000000E+01 0.51492403E+02</pdfrwt>
<pdfrwt beam="2">  1       22 0.10300791E+00 0.51492403E+02</pdfrwt>
<totfact> 0.13486793E+00</totfact>
</mgrwt>
</event>
<event>
 4    1  0.2471347E+000  0.5117775E+02  0.7957747E-01  0.1439091E+00
         13   -1    0    0    0    0  0.00000000000E+00  0.00000000000E+00  0.99999944174E+02  0.99999999995E+02  0.10566000000E+00 0. -1.
         22   -1    0    0    0    0 -0.00000000000E+00 -0.00000000000E+00 -0.10524605756E+02  0.10524605756E+02  0.00000000000E+00 0.  1.
         13    1    1    2    0    0  0.78556418546E+01 -0.75796262424E+01  0.56013758583E+01  0.12269817377E+02  0.10566000000E+00 0.  1.
        996    1    1    2    0    0 -0.78556418546E+01  0.75796262424E+01  0.83873962560E+02  0.98254788374E+02  0.50000000000E+02 0.  0.
<mgrwt>
<rscale>  0 0.51177748E+02</rscale>
<asrwt>0</asrwt>
<pdfrwt beam="1">  1       13 0.10000000E+01 0.51177748E+02</pdfrwt>
<pdfrwt beam="2">  1       22 0.10524631E+00 0.51177748E+02</pdfrwt>
<totfact> 0.13059087E+00</totfact>
</mgrwt>
</event>
<event>
 4    1  0.2471347E+000  0.5118930E+02  0.7957747E-01  0.1439030E+00
         13   -1    0    0    0    0  0.00000000000E+00  0.00000000000E+00  0.99999944176E+02  0.99999999997E+02  0.10566000000E+00 0.  1.
         22   -1    0    0    0    0 -0.00000000000E+00 -0.00000000000E+00 -0.40451301874E+02  0.40451301874E+02  0.00000000000E+00 0. -1.
         13    1    1    2    0    0  0.10968342616E+02 -0.20038539614E+00 -0.32952590227E+02  0.34730808524E+02  0.10566000000E+00 0. -1.
        996    1    1    2    0    0 -0.10968342616E+02  0.20038539614E+00  0.92501232529E+02  0.10572049335E+03  0.50000000000E+02 0.  0.
<mgrwt>
<rscale>  0 0.51189303E+02</rscale>
<asrwt>0</asrwt>
<pdfrwt beam="1">  1       13 0.10000000E+01 0.51189303E+02</pdfrwt>
<pdfrwt beam="2">  1       22 0.40451319E+00 0.51189303E+02</pdfrwt>
<totfact> 0.12097529E-01</totfact>
</mgrwt>
</event>
<event>
 4    1  0.2471347E+000  0.5518391E+02  0.7957747E-01  0.1419231E+00
         13   -1    0    0    0    0  0.00000000000E+00  0.00000000000E+00  0.99999944175E+02  0.99999999996E+02  0.10566000000E+00 0.  1.
         22   -1    0    0    0    0 -0.00000000000E+00 -0.00000000000E+00 -0.54971325414E+02  0.54971325414E+02  0.00000000000E+00 0. -1.
         13    1    1    2    0    0  0.22099984566E+02 -0.75401647973E+01 -0.44239129991E+02  0.50023746255E+02  0.10566000000E+00 0. -1.
        996    1    1    2    0    0 -0.22099984566E+02  0.75401647973E+01  0.89267748753E+02  0.10494757915E+03  0.50000000000E+02 0.  0.
<mgrwt>
<rscale>  0 0.55183905E+02</rscale>
<asrwt>0</asrwt>
<pdfrwt beam="1">  1       13 0.10000000E+01 0.55183905E+02</pdfrwt>
<pdfrwt beam="2">  1       22 0.54971338E+00 0.55183905E+02</pdfrwt>
<totfact> 0.59301057E-02</totfact>
</mgrwt>
</event>
<event>
 4    1  0.2471347E+000  0.6178060E+02  0.7957747E-01  0.1390508E+00
         13   -1    0    0    0    0  0.00000000000E+00  0.00000000000E+00  0.99999944182E+02  0.10000000000E+03  0.10566000000E+00 0.  1.
         22   -1    0    0    0    0 -0.00000000000E+00 -0.00000000000E+00 -0.27159146392E+02  0.27159146392E+02  0.00000000000E+00 0.  1.
         13    1    1    2    0    0 -0.45027461001E+01  0.36007885448E+02  0.71599122938E+01  0.36988079769E+02  0.10566000000E+00 0. -1.
        996    1    1    2    0    0  0.45027461001E+01 -0.36007885448E+02  0.65680885496E+02  0.90171066626E+02  0.50000000000E+02 0.  0.
<mgrwt>
<rscale>  0 0.61780600E+02</rscale>
<asrwt>0</asrwt>
<pdfrwt beam="1">  1       13 0.10000000E+01 0.61780600E+02</pdfrwt>
<pdfrwt beam="2">  1       22 0.27159167E+00 0.61780600E+02</pdfrwt>
<totfact> 0.25382512E-01</totfact>
</mgrwt>
</event>
<event>
 4    1  0.2471347E+000  0.5342567E+02  0.7957747E-01  0.1427694E+00
         13   -1    0    0    0    0  0.00000000000E+00  0.00000000000E+00  0.99999944181E+02  0.10000000000E+03  0.10566000000E+00 0. -1.
         22   -1    0    0    0    0 -0.00000000000E+00 -0.00000000000E+00 -0.15924447193E+02  0.15924447193E+02  0.00000000000E+00 0.  1.
         13    1    1    2    0    0  0.66376735212E+01  0.17613731247E+02  0.33469593825E+01  0.19118460695E+02  0.10566000000E+00 0.  1.
        996    1    1    2    0    0 -0.66376735212E+01 -0.17613731247E+02  0.80728537605E+02  0.96805986499E+02  0.50000000000E+02 0.  0.
<mgrwt>
<rscale>  0 0.53425670E+02</rscale>
<asrwt>0</asrwt>
<pdfrwt beam="1">  1       13 0.10000000E+01 0.53425670E+02</pdfrwt>
<pdfrwt beam="2">  1       22 0.15924471E+00 0.53425670E+02</pdfrwt>
<totfact> 0.68263746E-01</totfact>
</mgrwt>
</event>
<event>
 4    1  0.2471347E+000  0.5180525E+02  0.7957747E-01  0.1435841E+00
         13   -1    0    0    0    0  0.00000000000E+00  0.00000000000E+00  0.99999944180E+02  0.10000000000E+03  0.10566000000E+00 0.  1.
         22   -1    0    0    0    0 -0.00000000000E+00 -0.00000000000E+00 -0.12105247706E+02  0.12105247706E+02  0.00000000000E+00 0.  1.
         13    1    1    2    0    0  0.74207118747E+00  0.13536382502E+02  0.37321314781E+02  0.39707379942E+02  0.10566000000E+00 0. -1.
        996    1    1    2    0    0 -0.74207118747E+00 -0.13536382502E+02  0.50573381693E+02  0.72397867764E+02  0.50000000000E+02 0.  0.
<mgrwt>
<rscale>  0 0.51805254E+02</rscale>
<asrwt>0</asrwt>
<pdfrwt beam="1">  1       13 0.10000000E+01 0.51805254E+02</pdfrwt>
<pdfrwt beam="2">  1       22 0.12105272E+00 0.51805254E+02</pdfrwt>
<totfact> 0.10601739E+00</totfact>
</mgrwt>
</event>
<event>
 4    1  0.2471347E+000  0.5108394E+02  0.7957747E-01  0.1439581E+00
         13   -1    0    0    0    0  0.00000000000E+00  0.00000000000E+00  0.99999944187E+02  0.10000000001E+03  0.10566000000E+00 0.  1.
         22   -1    0    0    0    0 -0.00000000000E+00 -0.00000000000E+00 -0.21571673901E+02  0.21571673901E+02  0.00000000000E+00 0. -1.
         13    1    1    2    0    0 -0.96184342074E+01  0.41297812724E+01 -0.13090374193E+02  0.16761218050E+02  0.10566000000E+00 0. -1.
        996    1    1    2    0    0  0.96184342074E+01 -0.41297812724E+01  0.91518644479E+02  0.10481045586E+03  0.50000000000E+02 0.  0.
<mgrwt>
<rscale>  0 0.51083944E+02</rscale>
<asrwt>0</asrwt>
<pdfrwt beam="1">  1       13 0.10000000E+01 0.51083944E+02</pdfrwt>
<pdfrwt beam="2">  1       22 0.21571696E+00 0.51083944E+02</pdfrwt>
<totfact> 0.39211360E-01</totfact>
</mgrwt>
</event>
<event>
 4    1  0.2471347E+000  0.5606501E+02  0.7957747E-01  0.1415128E+00
         13   -1    0    0    0    0  0.00000000000E+00  0.00000000000E+00  0.99999944180E+02  0.10000000000E+03  0.10566000000E+00 0.  1.
         22   -1    0    0    0    0 -0.00000000000E+00 -0.00000000000E+00 -0.42180455729E+02  0.42180455729E+02  0.00000000000E+00 0. -1.
         13    1    1    2    0    0 -0.23230364818E+02 -0.10180167182E+02 -0.29191575857E+02  0.38670982900E+02  0.10566000000E+00 0. -1.
        996    1    1    2    0    0  0.23230364818E+02  0.10180167182E+02  0.87011064307E+02  0.10350947283E+03  0.50000000000E+02 0.  0.
<mgrwt>
<rscale>  0 0.56065013E+02</rscale>
<asrwt>0</asrwt>
<pdfrwt beam="1">  1       13 0.10000000E+01 0.56065013E+02</pdfrwt>
<pdfrwt beam="2">  1       22 0.42180472E+00 0.56065013E+02</pdfrwt>
<totfact> 0.11167149E-01</totfact>
</mgrwt>
</event>
<event>
 4    1  0.2471347E+000  0.5268018E+02  0.7957747E-01  0.1431399E+00
         13   -1    0    0    0    0  0.00000000000E+00  0.00000000000E+00  0.99999944177E+02  0.99999999998E+02  0.10566000000E+00 0.  1.
         22   -1    0    0    0    0 -0.00000000000E+00 -0.00000000000E+00 -0.12398072752E+02  0.12398072752E+02  0.00000000000E+00 0.  1.
         13    1    1    2    0    0  0.12432831667E+02  0.10982979357E+02  0.13026943210E+02  0.21092974002E+02  0.10566000000E+00 0. -1.
        996    1    1    2    0    0 -0.12432831667E+02 -0.10982979357E+02  0.74574928216E+02  0.91305098747E+02  0.50000000000E+02 0.  0.
<mgrwt>
<rscale>  0 0.52680178E+02</rscale>
<asrwt>0</asrwt>
<pdfrwt beam="1">  1       13 0.10000000E+01 0.52680178E+02</pdfrwt>
<pdfrwt beam="2">  1       22 0.12398097E+00 0.52680178E+02</pdfrwt>
<totfact> 0.10237617E+00</totfact>
</mgrwt>
</event>
<event>
 4    1  0.2471347E+000  0.5104444E+02  0.7957747E-01  0.1439788E+00
         13   -1    0    0    0    0  0.00000000000E+00  0.00000000000E+00  0.99999944184E+02  0.10000000000E+03  0.10566000000E+00 0.  1.
         22   -1    0    0    0    0 -0.00000000000E+00 -0.00000000000E+00 -0.42526910606E+02  0.42526910606E+02  0.00000000000E+00 0. -1.
         13    1    1    2    0    0  0.99229609863E+01  0.26589798002E+01 -0.35231278693E+02  0.36698630638E+02  0.10566000000E+00 0. -1.
        996    1    1    2    0    0 -0.99229609863E+01 -0.26589798002E+01  0.92704312271E+02  0.10582827997E+03  0.50000000000E+02 0.  0.
<mgrwt>
<rscale>  0 0.51044445E+02</rscale>
<asrwt>0</asrwt>
<pdfrwt beam="1">  1       13 0.10000000E+01 0.51044445E+02</pdfrwt>
<pdfrwt beam="2">  1       22 0.42526927E+00 0.51044445E+02</pdfrwt>
<totfact> 0.10941930E-01</totfact>
</mgrwt>
</event>
<event>
 4    1  0.2471347E+000  0.5190701E+02  0.7957747E-01  0.1435319E+00
         13   -1    0    0    0    0  0.00000000000E+00  0.00000000000E+00  0.99999944175E+02  0.99999999995E+02  0.10566000000E+00 0.  1.
         22   -1    0    0    0    0 -0.00000000000E+00 -0.00000000000E+00 -0.24093797818E+02  0.24093797818E+02  0.00000000000E+00 0.  1.
         13    1    1    2    0    0 -0.63309453478E+01 -0.12420027437E+02 -0.14330578626E+02  0.19992863685E+02  0.10566000000E+00 0. -1.
        996    1    1    2    0    0  0.63309453478E+01  0.12420027437E+02  0.90236724983E+02  0.10410093413E+03  0.50000000000E+02 0.  0.
<mgrwt>
<rscale>  0 0.51907013E+02</rscale>
<asrwt>0</asrwt>
<pdfrwt beam="1">  1       13 0.10000000E+01 0.51907013E+02</pdfrwt>
<pdfrwt beam="2">  1       22 0.24093819E+00 0.51907013E+02</pdfrwt>
<totfact> 0.31691634E-01</totfact>
</mgrwt>
</event>
<event>
 4    1  0.2471347E+000  0.5123208E+02  0.7957747E-01  0.1438807E+00
         13   -1    0    0    0    0  0.00000000000E+00  0.00000000000E+00  0.99999944183E+02  0.10000000000E+03  0.10566000000E+00 0.  1.
         22   -1    0    0    0    0 -0.00000000000E+00 -0.00000000000E+00 -0.98549159218E+01  0.98549159218E+01  0.00000000000E+00 0. -1.
         13    1    1    2    0    0 -0.71801946209E+01 -0.85539830344E+01  0.21161006505E+02  0.23927498425E+02  0.10566000000E+00 0. -1.
        996    1    1    2    0    0  0.71801946209E+01  0.85539830344E+01  0.68984021757E+02  0.85927417500E+02  0.50000000000E+02 0.  0.
<mgrwt>
<rscale>  0 0.51232078E+02</rscale>
<asrwt>0</asrwt>
<pdfrwt beam="1">  1       13 0.10000000E+01 0.51232078E+02</pdfrwt>
<pdfrwt beam="2">  1       22 0.98549411E-01 0.51232078E+02</pdfrwt>
<totfact> 0.14372095E+00</totfact>
</mgrwt>
</event>
<event>
 4    1  0.2471347E+000  0.5366476E+02  0.7957747E-01  0.1426521E+00
         13   -1    0    0    0    0  0.00000000000E+00  0.00000000000E+00  0.99999944172E+02  0.99999999992E+02  0.10566000000E+00 0. -1.
         22   -1    0    0    0    0 -0.00000000000E+00 -0.00000000000E+00 -0.19410552168E+02  0.19410552168E+02  0.00000000000E+00 0.  1.
         13    1    1    2    0    0 -0.19331280497E+02 -0.24915531454E+01 -0.33552844130E+01  0.19778153106E+02  0.10566000000E+00 0.  1.
        996    1    1    2    0    0  0.19331280497E+02  0.24915531454E+01  0.83944676416E+02  0.99632399055E+02  0.50000000000E+02 0.  0.
<mgrwt>
<rscale>  0 0.53664758E+02</rscale>
<asrwt>0</asrwt>
<pdfrwt beam="1">  1       13 0.10000000E+01 0.53664758E+02</pdfrwt>
<pdfrwt beam="2">  1       22 0.19410575E+00 0.53664758E+02</pdfrwt>
<totfact> 0.48036993E-01</totfact>
</mgrwt>
</event>
<event>
 4    1  0.2471347E+000  0.5139737E+02  0.7957747E-01  0.1437947E+00
         13   -1    0    0    0    0  0.00000000000E+00  0.00000000000E+00  0.99999944181E+02  0.10000000000E+03  0.10566000000E+00 0.  1.
         22   -1    0    0    0    0 -0.00000000000E+00 -0.00000000000E+00 -0.10856151589E+02  0.10856151589E+02  0.00000000000E+00 0.  1.
         13    1    1    2    0    0 -0.11868323117E+02  0.91250279851E+00  0.31243443363E+02  0.33434318779E+02  0.10566000000E+00 0. -1.
        996    1    1    2    0    0  0.11868323117E+02 -0.91250279851E+00  0.57900349229E+02  0.77421832811E+02  0.50000000000E+02 0.  0.
<mgrwt>
<rscale>  0 0.51397371E+02</rscale>
<asrwt>0</asrwt>
<pdfrwt beam="1">  1       13 0.10000000E+01 0.51397371E+02</pdfrwt>
<pdfrwt beam="2">  1       22 0.10856176E+00 0.51397371E+02</pdfrwt>
<totfact> 0.12481628E+00</totfact>
</mgrwt>
</event>
<event>
 4    1  0.2471347E+000  0.5099383E+02  0.7957747E-01  0.1440054E+00
         13   -1    0    0    0    0  0.00000000000E+00  0.00000000000E+00  0.99999944172E+02  0.99999999992E+02  0.10566000000E+00 0. -1.
         22   -1    0    0    0    0 -0.00000000000E+00 -0.00000000000E+00 -0.95366389653E+01  0.95366389653E+01  0.00000000000E+00 0. -1.
         13    1    1    2    0    0  0.99856451398E+01  0.81073997774E+00  0.21955898133E+02  0.24133856613E+02  0.10566000000E+00 0.  1.
        996    1    1    2    0    0 -0.99856451398E+01 -0.81073997774E+00  0.68507407074E+02  0.85402782344E+02  0.50000000000E+02 0.  0.
<mgrwt>
<rscale>  0 0.50993827E+02</rscale>
<asrwt>0</asrwt>
<pdfrwt beam="1">  1       13 0.10000000E+01 0.50993827E+02</pdfrwt>
<pdfrwt beam="2">  1       22 0.95366642E-01 0.50993827E+02</pdfrwt>
<totfact> 0.15057106E+00</totfact>
</mgrwt>
</event>
<event>
 4    1  0.2471347E+000  0.5138039E+02  0.7957747E-01  0.1438035E+00
         13   -1    0    0    0    0  0.00000000000E+00  0.00000000000E+00  0.99999944176E+02  0.99999999997E+02  0.10566000000E+00 0.  1.
         22   -1    0    0    0    0 -0.00000000000E+00 -0.00000000000E+00 -0.13417193685E+02  0.13417193685E+02  0.00000000000E+00 0.  1.
         13    1    1    2    0    0  0.28430106139E+01  0.11483109218E+02 -0.10033651669E+01  0.11872759256E+02  0.10566000000E+00 0. -1.
        996    1    1    2    0    0 -0.28430106139E+01 -0.11483109218E+02  0.87586115658E+02  0.10154443443E+03  0.50000000000E+02 0.  0.
<mgrwt>
<rscale>  0 0.51380390E+02</rscale>
<asrwt>0</asrwt>
<pdfrwt beam="1">  1       13 0.10000000E+01 0.51380390E+02</pdfrwt>
<pdfrwt beam="2">  1       22 0.13417218E+00 0.51380390E+02</pdfrwt>
<totfact> 0.90171579E-01</totfact>
</mgrwt>
</event>
<event>
 4    1  0.2471347E+000  0.5792848E+02  0.7957747E-01  0.1406736E+00
         13   -1    0    0    0    0  0.00000000000E+00  0.00000000000E+00  0.99999944179E+02  0.99999999999E+02  0.10566000000E+00 0. -1.
         22   -1    0    0    0    0 -0.00000000000E+00 -0.00000000000E+00 -0.87777987991E+02  0.87777987991E+02  0.00000000000E+00 0.  1.
         13    1    1    2    0    0  0.92952002220E+01 -0.27736406504E+02 -0.76453062215E+02  0.81858358639E+02  0.10566000000E+00 0.  1.
        996    1    1    2    0    0 -0.92952002220E+01  0.27736406504E+02  0.88675018403E+02  0.10591962935E+03  0.50000000000E+02 0.  0.
<mgrwt>
<rscale>  0 0.57928482E+02</rscale>
<asrwt>0</asrwt>
<pdfrwt beam="1">  1       13 0.10000000E+01 0.57928482E+02</pdfrwt>
<pdfrwt beam="2">  1       22 0.87777991E+00 0.57928482E+02</pdfrwt>
<totfact> 0.13880963E-02</totfact>
</mgrwt>
</event>
<event>
 4    1  0.2471347E+000  0.5650886E+02  0.7957747E-01  0.1413095E+00
         13   -1    0    0    0    0  0.00000000000E+00  0.00000000000E+00  0.99999944178E+02  0.99999999998E+02  0.10566000000E+00 0. -1.
         22   -1    0    0    0    0 -0.00000000000E+00 -0.00000000000E+00 -0.18335544405E+02  0.18335544405E+02  0.00000000000E+00 0.  1.
         13    1    1    2    0    0 -0.23045203875E+02  0.12734602929E+02  0.12867260763E+02  0.29305786067E+02  0.10566000000E+00 0.  1.
        996    1    1    2    0    0  0.23045203875E+02 -0.12734602929E+02  0.68797139010E+02  0.89029758336E+02  0.50000000000E+02 0.  0.
<mgrwt>
<rscale>  0 0.56508862E+02</rscale>
<asrwt>0</asrwt>
<pdfrwt beam="1">  1       13 0.10000000E+01 0.56508862E+02</pdfrwt>
<pdfrwt beam="2">  1       22 0.18335567E+00 0.56508862E+02</pdfrwt>
<totfact> 0.53575007E-01</totfact>
</mgrwt>
</event>
<event>
 4    1  0.2471347E+000  0.5405858E+02  0.7957747E-01  0.1424604E+00
         13   -1    0    0    0    0  0.00000000000E+00  0.00000000000E+00  0.99999944178E+02  0.99999999999E+02  0.10566000000E+00 0.  1.
         22   -1    0    0    0    0 -0.00000000000E+00 -0.00000000000E+00 -0.13945190309E+02  0.13945190309E+02  0.00000000000E+00 0.  1.
         13    1    1    2    0    0 -0.13005949011E+02  0.15911474541E+02  0.21430784483E+02  0.29692076710E+02  0.10566000000E+00 0. -1.
        996    1    1    2    0    0  0.13005949011E+02 -0.15911474541E+02  0.64623969386E+02  0.84253113598E+02  0.50000000000E+02 0.  0.
<mgrwt>
<rscale>  0 0.54058577E+02</rscale>
<asrwt>0</asrwt>
<pdfrwt beam="1">  1       13 0.10000000E+01 0.54058577E+02</pdfrwt>
<pdfrwt beam="2">  1       22 0.13945214E+00 0.54058577E+02</pdfrwt>
<totfact> 0.85225877E-01</totfact>
</mgrwt>
</event>
<event>
 4    1  0.2471347E+000  0.5479174E+02  0.7957747E-01  0.1421086E+00
         13   -1    0    0    0    0  0.00000000000E+00  0.00000000000E+00  0.99999944184E+02  0.10000000000E+03  0.10566000000E+00 0. -1.
         22   -1    0    0    0    0 -0.00000000000E+00 -0.00000000000E+00 -0.74164729282E+02  0.74164729282E+02  0.00000000000E+00 0.  1.
         13    1    1    2    0    0  0.20019866890E+01 -0.22318763774E+02 -0.64627699600E+02  0.68402382171E+02  0.10566000000E+00 0.  1.
        996    1    1    2    0    0 -0.20019866890E+01  0.22318763774E+02  0.90462914501E+02  0.10576234711E+03  0.50000000000E+02 0.  0.
<mgrwt>
<rscale>  0 0.54791744E+02</rscale>
<asrwt>0</asrwt>
<pdfrwt beam="1">  1       13 0.10000000E+01 0.54791744E+02</pdfrwt>
<pdfrwt beam="2">  1       22 0.74164737E+00 0.54791744E+02</pdfrwt>
<totfact> 0.52925903E-02</totfact>
</mgrwt>
</event>
<event>
 4    1  0.2471347E+000  0.5732657E+02  0.7957747E-01  0.1409406E+00
         13   -1    0    0    0    0  0.00000000000E+00  0.00000000000E+00  0.99999944179E+02  0.10000000000E+03  0.10566000000E+00 0. -1.
         22   -1    0    0    0    0 -0.00000000000E+00 -0.00000000000E+00 -0.38803516700E+02  0.38803516700E+02  0.00000000000E+00 0.  1.
         13    1    1    2    0    0  0.27295619562E+02  0.64253528103E+01 -0.23461503381E+02  0.36562129464E+02  0.10566000000E+00 0.  1.
        996    1    1    2    0    0 -0.27295619562E+02 -0.64253528103E+01  0.84657930861E+02  0.10224138723E+03  0.50000000000E+02 0.  0.
<mgrwt>
<rscale>  0 0.57326573E+02</rscale>
<asrwt>0</asrwt>
<pdfrwt beam="1">  1       13 0.10000000E+01 0.57326573E+02</pdfrwt>
<pdfrwt beam="2">  1       22 0.38803534E+00 0.57326573E+02</pdfrwt>
<totfact> 0.13143786E-01</totfact>
</mgrwt>
</event>
<event>
 4    1  0.2471347E+000  0.5263326E+02  0.7957747E-01  0.1431635E+00
         13   -1    0    0    0    0  0.00000000000E+00  0.00000000000E+00  0.99999944176E+02  0.99999999996E+02  0.10566000000E+00 0. -1.
         22   -1    0    0    0    0 -0.00000000000E+00 -0.00000000000E+00 -0.12393223056E+02  0.12393223056E+02  0.00000000000E+00 0. -1.
         13    1    1    2    0    0  0.16244825838E+02 -0.25230845635E+01  0.31054999341E+02  0.35138077214E+02  0.10566000000E+00 0.  1.
        996    1    1    2    0    0 -0.16244825838E+02  0.25230845635E+01  0.56551721779E+02  0.77255145838E+02  0.50000000000E+02 0.  0.
<mgrwt>
<rscale>  0 0.52633263E+02</rscale>
<asrwt>0</asrwt>
<pdfrwt beam="1">  1       13 0.10000000E+01 0.52633263E+02</pdfrwt>
<pdfrwt beam="2">  1       22 0.12393248E+00 0.52633263E+02</pdfrwt>
<totfact> 0.10242780E+00</totfact>
</mgrwt>
</event>
<event>
 4    1  0.2471347E+000  0.5104846E+02  0.7957747E-01  0.1439767E+00
         13   -1    0    0    0    0  0.00000000000E+00  0.00000000000E+00  0.99999944178E+02  0.99999999998E+02  0.10566000000E+00 0. -1.
         22   -1    0    0    0    0 -0.00000000000E+00 -0.00000000000E+00 -0.97172038277E+01  0.97172038277E+01  0.00000000000E+00 0. -1.
         13    1    1    2    0    0 -0.71226352114E+01 -0.74305473755E+01  0.86905090091E+01  0.13471491288E+02  0.10566000000E+00 0.  1.
        996    1    1    2    0    0  0.71226352114E+01  0.74305473755E+01  0.81592231341E+02  0.96245712538E+02  0.50000000000E+02 0.  0.
<mgrwt>
<rscale>  0 0.51048457E+02</rscale>
<asrwt>0</asrwt>
<pdfrwt beam="1">  1       13 0.10000000E+01 0.51048457E+02</pdfrwt>
<pdfrwt beam="2">  1       22 0.97172290E-01 0.51048457E+02</pdfrwt>
<totfact> 0.14659635E+00</totfact>
</mgrwt>
</event>
<event>
 4    1  0.2471347E+000  0.5110029E+02  0.7957747E-01  0.1439496E+00
         13   -1    0    0    0    0  0.00000000000E+00  0.00000000000E+00  0.99999944188E+02  0.10000000001E+03  0.10566000000E+00 0.  1.
         22   -1    0    0    0    0 -0.00000000000E+00 -0.00000000000E+00 -0.20958497247E+02  0.20958497247E+02  0.00000000000E+00 0. -1.
         13    1    1    2    0    0 -0.58885555608E+01  0.87500919023E+01 -0.12356140885E+02  0.16245755646E+02  0.10566000000E+00 0. -1.
        996    1    1    2    0    0  0.58885555608E+01 -0.87500919023E+01  0.91397587827E+02  0.10471274161E+03  0.50000000000E+02 0.  0.
<mgrwt>
<rscale>  0 0.51100286E+02</rscale>
<asrwt>0</asrwt>
<pdfrwt beam="1">  1       13 0.10000000E+01 0.51100286E+02</pdfrwt>
<pdfrwt beam="2">  1       22 0.20958519E+00 0.51100286E+02</pdfrwt>
<totfact> 0.41424085E-01</totfact>
</mgrwt>
</event>
<event>
 4    1  0.2471347E+000  0.5343937E+02  0.7957747E-01  0.1427627E+00
         13   -1    0    0    0    0  0.00000000000E+00  0.00000000000E+00  0.99999944180E+02  0.10000000000E+03  0.10566000000E+00 0. -1.
         22   -1    0    0    0    0 -0.00000000000E+00 -0.00000000000E+00 -0.14084632700E+02  0.14084632700E+02  0.00000000000E+00 0. -1.
         13    1    1    2    0    0  0.16998632835E+02 -0.81738847424E+01  0.10298041553E+02  0.21490154348E+02  0.10566000000E+00 0.  1.
        996    1    1    2    0    0 -0.16998632835E+02  0.81738847424E+01  0.75617269928E+02  0.92594478352E+02  0.50000000000E+02 0.  0.
<mgrwt>
<rscale>  0 0.53439367E+02</rscale>
<asrwt>0</asrwt>
<pdfrwt beam="1">  1       13 0.10000000E+01 0.53439367E+02</pdfrwt>
<pdfrwt beam="2">  1       22 0.14084657E+00 0.53439367E+02</pdfrwt>
<totfact> 0.83755717E-01</totfact>
</mgrwt>
</event>
<event>
 4    1  0.2471347E+000  0.5145789E+02  0.7957747E-01  0.1437633E+00
         13   -1    0    0    0    0  0.00000000000E+00  0.00000000000E+00  0.99999944174E+02  0.99999999994E+02  0.10566000000E+00 0.  1.
         22   -1    0    0    0    0 -0.00000000000E+00 -0.00000000000E+00 -0.18275468146E+02  0.18275468146E+02  0.00000000000E+00 0.  1.
         13    1    1    2    0    0 -0.68174819388E+01  0.10071564014E+02 -0.82002462610E+01  0.14668662667E+02  0.10566000000E+00 0. -1.
        996    1    1    2    0    0  0.68174819388E+01 -0.10071564014E+02  0.89924722288E+02  0.10360680547E+03  0.50000000000E+02 0.  0.
<mgrwt>
<rscale>  0 0.51457890E+02</rscale>
<asrwt>0</asrwt>
<pdfrwt beam="1">  1       13 0.10000000E+01 0.51457890E+02</pdfrwt>
<pdfrwt beam="2">  1       22 0.18275491E+00 0.51457890E+02</pdfrwt>
<totfact> 0.53405564E-01</totfact>
</mgrwt>
</event>
<event>
 4    1  0.2471347E+000  0.5140622E+02  0.7957747E-01  0.1437901E+00
         13   -1    0    0    0    0  0.00000000000E+00  0.00000000000E+00  0.99999944184E+02  0.10000000000E+03  0.10566000000E+00 0. -1.
         22   -1    0    0    0    0 -0.00000000000E+00 -0.00000000000E+00 -0.10417737647E+02  0.10417737647E+02  0.00000000000E+00 0. -1.
         13    1    1    2    0    0  0.75462018417E+00  0.11917628345E+02  0.26321479488E+02  0.28903819185E+02  0.10566000000E+00 0.  1.
        996    1    1    2    0    0 -0.75462018417E+00 -0.11917628345E+02  0.63260727049E+02  0.81513918466E+02  0.50000000000E+02 0.  0.
<mgrwt>
<rscale>  0 0.51406219E+02</rscale>
<asrwt>0</asrwt>
<pdfrwt beam="1">  1       13 0.10000000E+01 0.51406219E+02</pdfrwt>
<pdfrwt beam="2">  1       22 0.10417763E+00 0.51406219E+02</pdfrwt>
<totfact> 0.13263228E+00</totfact>
</mgrwt>
</event>
<event>
 4    1  0.2471347E+000  0.5100500E+02  0.7957747E-01  0.1439995E+00
         13   -1    0    0    0    0  0.00000000000E+00  0.00000000000E+00  0.99999944182E+02  0.10000000000E+03  0.10566000000E+00 0. -1.
         22   -1    0    0    0    0 -0.00000000000E+00 -0.00000000000E+00 -0.56735068652E+02  0.56735068652E+02  0.00000000000E+00 0.  1.
         13    1    1    2    0    0  0.34936922356E+01 -0.94500818726E+01 -0.49692669092E+02  0.50703870250E+02  0.10566000000E+00 0.  1.
        996    1    1    2    0    0 -0.34936922356E+01  0.94500818726E+01  0.92957544622E+02  0.10603119840E+03  0.50000000000E+02 0.  0.
<mgrwt>
<rscale>  0 0.51004999E+02</rscale>
<asrwt>0</asrwt>
<pdfrwt beam="1">  1       13 0.10000000E+01 0.51004999E+02</pdfrwt>
<pdfrwt beam="2">  1       22 0.56735081E+00 0.51004999E+02</pdfrwt>
<totfact> 0.57901433E-02</totfact>
</mgrwt>
</event>
<event>
 4    1  0.2471347E+000  0.5150793E+02  0.7957747E-01  0.1437374E+00
         13   -1    0    0    0    0  0.00000000000E+00  0.00000000000E+00  0.99999944179E+02  0.99999999999E+02  0.10566000000E+00 0. -1.
         22   -1    0    0    0    0 -0.00000000000E+00 -0.00000000000E+00 -0.11235617603E+02  0.11235617603E+02  0.00000000000E+00 0. -1.
         13    1    1    2    0    0 -0.10363917877E+02 -0.67569465981E+01  0.59958642279E+01  0.13748769871E+02  0.10566000000E+00 0.  1.
        996    1    1    2    0    0  0.10363917877E+02  0.67569465981E+01  0.82768462349E+02  0.97486847732E+02  0.50000000000E+02 0.  0.
<mgrwt>
<rscale>  0 0.51507933E+02</rscale>
<asrwt>0</asrwt>
<pdfrwt beam="1">  1       13 0.10000000E+01 0.51507933E+02</pdfrwt>
<pdfrwt beam="2">  1       22 0.11235642E+00 0.51507933E+02</pdfrwt>
<totfact> 0.11862088E+00</totfact>
</mgrwt>
</event>
<event>
 4    1  0.2471347E+000  0.5099254E+02  0.7957747E-01  0.1440060E+00
         13   -1    0    0    0    0  0.00000000000E+00  0.00000000000E+00  0.99999944180E+02  0.10000000000E+03  0.10566000000E+00 0. -1.
         22   -1    0    0    0    0 -0.00000000000E+00 -0.00000000000E+00 -0.93902224837E+01  0.93902224837E+01  0.00000000000E+00 0. -1.
         13    1    1    2    0    0  0.90110641379E+01  0.43634978713E+01  0.19047481800E+02  0.21518761989E+02  0.10566000000E+00 0.  1.
        996    1    1    2    0    0 -0.90110641379E+01 -0.43634978713E+01  0.71562239896E+02  0.87871460495E+02  0.50000000000E+02 0.  0.
<mgrwt>
<rscale>  0 0.50992542E+02</rscale>
<asrwt>0</asrwt>
<pdfrwt beam="1">  1       13 0.10000000E+01 0.50992542E+02</pdfrwt>
<pdfrwt beam="2">  1       22 0.93902478E-01 0.50992542E+02</pdfrwt>
<totfact> 0.15393241E+00</totfact>
</mgrwt>
</event>
<event>
 4    1  0.2471347E+000  0.5378458E+02  0.7957747E-01  0.1425936E+00
         13   -1    0    0    0    0  0.00000000000E+00  0.00000000000E+00  0.99999944193E+02  0.10000000001E+03  0.10566000000E+00 0. -1.
         22   -1    0    0    0    0 -0.00000000000E+00 -0.00000000000E+00 -0.16866143858E+02  0.16866143858E+02  0.00000000000E+00 0.  1.
         13    1    1    2    0    0 -0.78148582078E+01 -0.18212891963E+02  0.25504739044E+01  0.19982430374E+02  0.10566000000E+00 0.  1.
        996    1    1    2    0    0  0.78148582078E+01  0.18212891963E+02  0.80583326430E+02  0.96883713497E+02  0.50000000000E+02 0.  0.
<mgrwt>
<rscale>  0 0.53784584E+02</rscale>
<asrwt>0</asrwt>
<pdfrwt beam="1">  1       13 0.10000000E+01 0.53784584E+02</pdfrwt>
<pdfrwt beam="2">  1       22 0.16866167E+00 0.53784584E+02</pdfrwt>
<totfact> 0.61855488E-01</totfact>
</mgrwt>
</event>
<event>
 4    1  0.2471347E+000  0.7659982E+02  0.7957747E-01  0.1338987E+00
         13   -1    0    0    0    0  0.00000000000E+00  0.00000000000E+00  0.99999944182E+02  0.10000000000E+03  0.10566000000E+00 0.  1.
         22   -1    0    0    0    0 -0.00000000000E+00 -0.00000000000E+00 -0.48872242562E+02  0.48872242562E+02  0.00000000000E+00 0. -1.
         13    1    1    2    0    0 -0.33422179376E+02  0.47439339428E+02  0.42203536822E+02  0.71754321709E+02  0.10566000000E+00 0. -1.
        996    1    1    2    0    0  0.33422179376E+02 -0.47439339428E+02  0.89241647976E+01  0.77117920855E+02  0.50000000000E+02 0.  0.
<mgrwt>
<rscale>  0 0.76599824E+02</rscale>
<asrwt>0</asrwt>
<pdfrwt beam="1">  1       13 0.10000000E+01 0.76599824E+02</pdfrwt>
<pdfrwt beam="2">  1       22 0.48872257E+00 0.76599824E+02</pdfrwt>
<totfact> 0.79132011E-02</totfact>
</mgrwt>
</event>
<event>
 4    1  0.2471347E+000  0.6080343E+02  0.7957747E-01  0.1394491E+00
         13   -1    0    0    0    0  0.00000000000E+00  0.00000000000E+00  0.99999944177E+02  0.99999999998E+02  0.10566000000E+00 0.  1.
         22   -1    0    0    0    0 -0.00000000000E+00 -0.00000000000E+00 -0.42671940098E+02  0.42671940098E+02  0.00000000000E+00 0. -1.
         13    1    1    2    0    0 -0.16788868165E+01 -0.34557760049E+02 -0.23281070231E+02  0.41702240176E+02  0.10566000000E+00 0. -1.
        996    1    1    2    0    0  0.16788868165E+01  0.34557760049E+02  0.80609074311E+02  0.10096969992E+03  0.50000000000E+02 0.  0.
<mgrwt>
<rscale>  0 0.60803433E+02</rscale>
<asrwt>0</asrwt>
<pdfrwt beam="1">  1       13 0.10000000E+01 0.60803433E+02</pdfrwt>
<pdfrwt beam="2">  1       22 0.42671956E+00 0.60803433E+02</pdfrwt>
<totfact> 0.10931022E-01</totfact>
</mgrwt>
</event>
<event>
 4    1  0.2471347E+000  0.5172073E+02  0.7957747E-01  0.1436275E+00
         13   -1    0    0    0    0  0.00000000000E+00  0.00000000000E+00  0.99999944178E+02  0.99999999998E+02  0.10566000000E+00 0. -1.
         22   -1    0    0    0    0 -0.00000000000E+00 -0.00000000000E+00 -0.15218577349E+02  0.15218577349E+02  0.00000000000E+00 0. -1.
         13    1    1    2    0    0 -0.13227786829E+02  0.24348910464E+00 -0.27832421381E+01  0.13520030776E+02  0.10566000000E+00 0.  1.
        996    1    1    2    0    0  0.13227786829E+02 -0.24348910464E+00  0.87564608967E+02  0.10169854657E+03  0.50000000000E+02 0.  0.
<mgrwt>
<rscale>  0 0.51720727E+02</rscale>
<asrwt>0</asrwt>
<pdfrwt beam="1">  1       13 0.10000000E+01 0.51720727E+02</pdfrwt>
<pdfrwt beam="2">  1       22 0.15218601E+00 0.51720727E+02</pdfrwt>
<totfact> 0.73453521E-01</totfact>
</mgrwt>
</event>
<event>
 4    1  0.2471347E+000  0.5263551E+02  0.7957747E-01  0.1431623E+00
         13   -1    0    0    0    0  0.00000000000E+00  0.00000000000E+00  0.99999944174E+02  0.99999999994E+02  0.10566000000E+00 0.  1.
         22   -1    0    0    0    0 -0.00000000000E+00 -0.00000000000E+00 -0.13013513027E+02  0.13013513027E+02  0.00000000000E+00 0.  1.
         13    1    1    2    0    0  0.13391400359E+02 -0.95481787645E+01  0.36703883599E+02  0.40220437051E+02  0.10566000000E+00 0. -1.
        996    1    1    2    0    0 -0.13391400359E+02  0.95481787645E+01  0.50282547548E+02  0.72793075970E+02  0.50000000000E+02 0.  0.
<mgrwt>
<rscale>  0 0.52635514E+02</rscale>
<asrwt>0</asrwt>
<pdfrwt beam="1">  1       13 0.10000000E+01 0.52635514E+02</pdfrwt>
<pdfrwt beam="2">  1       22 0.13013537E+00 0.52635514E+02</pdfrwt>
<totfact> 0.94900824E-01</totfact>
</mgrwt>
</event>
<event>
 4    1  0.2471347E+000  0.5134665E+02  0.7957747E-01  0.1438211E+00
         13   -1    0    0    0    0  0.00000000000E+00  0.00000000000E+00  0.99999944177E+02  0.99999999998E+02  0.10566000000E+00 0. -1.
         22   -1    0    0    0    0 -0.00000000000E+00 -0.00000000000E+00 -0.21964093403E+02  0.21964093403E+02  0.00000000000E+00 0.  1.
         13    1    1    2    0    0  0.60064076178E+01 -0.10020069620E+02 -0.12980093035E+02  0.17463467780E+02  0.10566000000E+00 0.  1.
        996    1    1    2    0    0 -0.60064076178E+01  0.10020069620E+02  0.91015943809E+02  0.10450062562E+03  0.50000000000E+02 0.  0.
<mgrwt>
<rscale>  0 0.51346653E+02</rscale>
<asrwt>0</asrwt>
<pdfrwt beam="1">  1       13 0.10000000E+01 0.51346653E+02</pdfrwt>
<pdfrwt beam="2">  1       22 0.21964115E+00 0.51346653E+02</pdfrwt>
<totfact> 0.37897384E-01</totfact>
</mgrwt>
</event>
<event>
 4    1  0.2471347E+000  0.5293710E+02  0.7957747E-01  0.1430114E+00
         13   -1    0    0    0    0  0.00000000000E+00  0.00000000000E+00  0.99999944182E+02  0.10000000000E+03  0.10566000000E+00 0. -1.
         22   -1    0    0    0    0 -0.00000000000E+00 -0.00000000000E+00 -0.22433152241E+02  0.22433152241E+02  0.00000000000E+00 0.  1.
         13    1    1    2    0    0 -0.17286524167E+02  0.18742557348E+01 -0.10037013245E+02  0.20077090209E+02  0.10566000000E+00 0.  1.
        996    1    1    2    0    0  0.17286524167E+02 -0.18742557348E+01  0.87603805186E+02  0.10235606204E+03  0.50000000000E+02 0.  0.
<mgrwt>
<rscale>  0 0.52937102E+02</rscale>
<asrwt>0</asrwt>
<pdfrwt beam="1">  1       13 0.10000000E+01 0.52937102E+02</pdfrwt>
<pdfrwt beam="2">  1       22 0.22433174E+00 0.52937102E+02</pdfrwt>
<totfact> 0.36483099E-01</totfact>
</mgrwt>
</event>
<event>
 4    1  0.2471347E+000  0.5142050E+02  0.7957747E-01  0.1437827E+00
         13   -1    0    0    0    0  0.00000000000E+00  0.00000000000E+00  0.99999944170E+02  0.99999999990E+02  0.10566000000E+00 0. -1.
         22   -1    0    0    0    0 -0.00000000000E+00 -0.00000000000E+00 -0.26450315746E+02  0.26450315746E+02  0.00000000000E+00 0.  1.
         13    1    1    2    0    0  0.91489884704E+01 -0.77694172632E+01 -0.17890347543E+02  0.21543990667E+02  0.10566000000E+00 0.  1.
        996    1    1    2    0    0 -0.91489884704E+01  0.77694172632E+01  0.91439975967E+02  0.10490632507E+03  0.50000000000E+02 0.  0.
<mgrwt>
<rscale>  0 0.51420500E+02</rscale>
<asrwt>0</asrwt>
<pdfrwt beam="1">  1       13 0.10000000E+01 0.51420500E+02</pdfrwt>
<pdfrwt beam="2">  1       22 0.26450336E+00 0.51420500E+02</pdfrwt>
<totfact> 0.26361354E-01</totfact>
</mgrwt>
</event>
<event>
 4    1  0.2471347E+000  0.5128772E+02  0.7957747E-01  0.1438517E+00
         13   -1    0    0    0    0  0.00000000000E+00  0.00000000000E+00  0.99999944178E+02  0.99999999998E+02  0.10566000000E+00 0.  1.
         22   -1    0    0    0    0 -0.00000000000E+00 -0.00000000000E+00 -0.14049990761E+02  0.14049990761E+02  0.00000000000E+00 0. -1.
         13    1    1    2    0    0  0.56004721109E+01 -0.99531319967E+01 -0.26057274870E+01  0.11714568032E+02  0.10566000000E+00 0. -1.
        996    1    1    2    0    0 -0.56004721109E+01  0.99531319967E+01  0.88555680904E+02  0.10233542273E+03  0.50000000000E+02 0.  0.
<mgrwt>
<rscale>  0 0.51287719E+02</rscale>
<asrwt>0</asrwt>
<pdfrwt beam="1">  1       13 0.10000000E+01 0.51287719E+02</pdfrwt>
<pdfrwt beam="2">  1       22 0.14050015E+00 0.51287719E+02</pdfrwt>
<totfact> 0.83715361E-01</totfact>
</mgrwt>
</event>
<event>
 4    1  0.2471347E+000  0.5403835E+02  0.7957747E-01  0.1424702E+00
         13   -1    0    0    0    0  0.00000000000E+00  0.00000000000E+00  0.99999944181E+02  0.10000000000E+03  0.10566000000E+00 0. -1.
         22   -1    0    0    0    0 -0.00000000000E+00 -0.00000000000E+00 -0.25856735952E+02  0.25856735952E+02  0.00000000000E+00 0.  1.
         13    1    1    2    0    0  0.62287105653E+01  0.19528087477E+02 -0.12305779743E+02  0.23907873493E+02  0.10566000000E+00 0.  1.
        996    1    1    2    0    0 -0.62287105653E+01 -0.19528087477E+02  0.86448987971E+02  0.10194886246E+03  0.50000000000E+02 0.  0.
<mgrwt>
<rscale>  0 0.54038348E+02</rscale>
<asrwt>0</asrwt>
<pdfrwt beam="1">  1       13 0.10000000E+01 0.54038348E+02</pdfrwt>
<pdfrwt beam="2">  1       22 0.25856757E+00 0.54038348E+02</pdfrwt>
<totfact> 0.27672501E-01</totfact>
</mgrwt>
</event>
<event>
 4    1  0.2471347E+000  0.5535187E+02  0.7957747E-01  0.1418442E+00
         13   -1    0    0    0    0  0.00000000000E+00  0.00000000000E+00  0.99999944181E+02  0.10000000000E+03  0.10566000000E+00 0. -1.
         22   -1    0    0    0    0 -0.00000000000E+00 -0.00000000000E+00 -0.23003402184E+02  0.23003402184E+02  0.00000000000E+00 0.  1.
         13    1    1    2    0    0 -0.22481080409E+02 -0.76440009096E+01 -0.48125510634E+01  0.24228114620E+02  0.10566000000E+00 0.  1.
        996    1    1    2    0    0  0.22481080409E+02  0.76440009096E+01  0.81809093060E+02  0.98775287565E+02  0.50000000000E+02 0.  0.
<mgrwt>
<rscale>  0 0.55351872E+02</rscale>
<asrwt>0</asrwt>
<pdfrwt beam="1">  1       13 0.10000000E+01 0.55351872E+02</pdfrwt>
<pdfrwt beam="2">  1       22 0.23003424E+00 0.55351872E+02</pdfrwt>
<totfact> 0.34883441E-01</totfact>
</mgrwt>
</event>
<event>
 4    1  0.2471347E+000  0.5124108E+02  0.7957747E-01  0.1438760E+00
         13   -1    0    0    0    0  0.00000000000E+00  0.00000000000E+00  0.99999944174E+02  0.99999999994E+02  0.10566000000E+00 0.  1.
         22   -1    0    0    0    0 -0.00000000000E+00 -0.00000000000E+00 -0.12703585029E+02  0.12703585029E+02  0.00000000000E+00 0.  1.
         13    1    1    2    0    0 -0.12196638528E+00 -0.11208646321E+02 -0.30775503055E+00  0.11214031628E+02  0.10566000000E+00 0. -1.
        996    1    1    2    0    0  0.12196638528E+00  0.11208646321E+02  0.87604114175E+02  0.10148955340E+03  0.50000000000E+02 0.  0.
<mgrwt>
<rscale>  0 0.51241083E+02</rscale>
<asrwt>0</asrwt>
<pdfrwt beam="1">  1       13 0.10000000E+01 0.51241083E+02</pdfrwt>
<pdfrwt beam="2">  1       22 0.12703609E+00 0.51241083E+02</pdfrwt>
<totfact> 0.98260239E-01</totfact>
</mgrwt>
</event>
<event>
 4    1  0.2471347E+000  0.5435432E+02  0.7957747E-01  0.1423177E+00
         13   -1    0    0    0    0  0.00000000000E+00  0.00000000000E+00  0.99999944191E+02  0.10000000001E+03  0.10566000000E+00 0. -1.
         22   -1    0    0    0    0 -0.00000000000E+00 -0.00000000000E+00 -0.85460820683E+02  0.85460820683E+02  0.00000000000E+00 0.  1.
         13    1    1    2    0    0  0.18959854520E+02 -0.97424719803E+01 -0.76508595926E+02  0.79422718779E+02  0.10566000000E+00 0.  1.
        996    1    1    2    0    0 -0.18959854520E+02  0.97424719803E+01  0.91047719433E+02  0.10603810191E+03  0.50000000000E+02 0.  0.
<mgrwt>
<rscale>  0 0.54354318E+02</rscale>
<asrwt>0</asrwt>
<pdfrwt beam="1">  1       13 0.10000000E+01 0.54354318E+02</pdfrwt>
<pdfrwt beam="2">  1       22 0.85460825E+00 0.54354318E+02</pdfrwt>
<totfact> 0.18086162E-02</totfact>
</mgrwt>
</event>
<event>
 4    1  0.2471347E+000  0.5736477E+02  0.7957747E-01  0.1409236E+00
         13   -1    0    0    0    0  0.00000000000E+00  0.00000000000E+00  0.99999944174E+02  0.99999999994E+02  0.10566000000E+00 0.  1.
         22   -1    0    0    0    0 -0.00000000000E+00 -0.00000000000E+00 -0.29982535682E+02  0.29982535682E+02  0.00000000000E+00 0. -1.
         13    1    1    2    0    0  0.14358063987E+02 -0.24177728323E+02 -0.11435985654E+02  0.30356374623E+02  0.10566000000E+00 0. -1.
        996    1    1    2    0    0 -0.14358063987E+02  0.24177728323E+02  0.81453394146E+02  0.99626161053E+02  0.50000000000E+02 0.  0.
<mgrwt>
<rscale>  0 0.57364767E+02</rscale>
<asrwt>0</asrwt>
<pdfrwt beam="1">  1       13 0.10000000E+01 0.57364767E+02</pdfrwt>
<pdfrwt beam="2">  1       22 0.29982555E+00 0.57364767E+02</pdfrwt>
<totfact> 0.20865341E-01</totfact>
</mgrwt>
</event>
<event>
 4    1  0.2471347E+000  0.5692432E+02  0.7957747E-01  0.1411212E+00
         13   -1    0    0    0    0  0.00000000000E+00  0.00000000000E+00  0.99999944185E+02  0.10000000001E+03  0.10566000000E+00 0. -1.
         22   -1    0    0    0    0 -0.00000000000E+00 -0.00000000000E+00 -0.18277819866E+02  0.18277819866E+02  0.00000000000E+00 0. -1.
         13    1    1    2    0    0  0.26003801411E+02  0.80112940867E+01  0.16999347114E+02  0.32083757372E+02  0.10566000000E+00 0.  1.
        996    1    1    2    0    0 -0.26003801411E+02 -0.80112940867E+01  0.64722777206E+02  0.86194062499E+02  0.50000000000E+02 0.  0.
<mgrwt>
<rscale>  0 0.56924323E+02</rscale>
<asrwt>0</asrwt>
<pdfrwt beam="1">  1       13 0.10000000E+01 0.56924323E+02</pdfrwt>
<pdfrwt beam="2">  1       22 0.18277843E+00 0.56924323E+02</pdfrwt>
<totfact> 0.53919601E-01</totfact>
</mgrwt>
</event>
<event>
 4    1  0.2471347E+000  0.6579252E+02  0.7957747E-01  0.1375015E+00
         13   -1    0    0    0    0  0.00000000000E+00  0.00000000000E+00  0.99999944181E+02  0.10000000000E+03  0.10566000000E+00 0.  1.
         22   -1    0    0    0    0 -0.00000000000E+00 -0.00000000000E+00 -0.29564502143E+02  0.29564502143E+02  0.00000000000E+00 0. -1.
         13    1    1    2    0    0 -0.21923632640E+02  0.36715249580E+02  0.24020774840E+02  0.49047568827E+02  0.10566000000E+00 0. -1.
        996    1    1    2    0    0  0.21923632640E+02 -0.36715249580E+02  0.46414667197E+02  0.80516933318E+02  0.50000000000E+02 0.  0.
<mgrwt>
<rscale>  0 0.65792516E+02</rscale>
<asrwt>0</asrwt>
<pdfrwt beam="1">  1       13 0.10000000E+01 0.65792516E+02</pdfrwt>
<pdfrwt beam="2">  1       22 0.29564522E+00 0.65792516E+02</pdfrwt>
<totfact> 0.21629241E-01</totfact>
</mgrwt>
</event>
<event>
 4    1  0.2471347E+000  0.6553456E+02  0.7957747E-01  0.1375972E+00
         13   -1    0    0    0    0  0.00000000000E+00  0.00000000000E+00  0.99999944173E+02  0.99999999993E+02  0.10566000000E+00 0.  1.
         22   -1    0    0    0    0 -0.00000000000E+00 -0.00000000000E+00 -0.76245505554E+02  0.76245505554E+02  0.00000000000E+00 0. -1.
         13    1    1    2    0    0  0.32194438722E+02  0.27537187235E+02 -0.57774474681E+02  0.71642722270E+02  0.10566000000E+00 0. -1.
        996    1    1    2    0    0 -0.32194438722E+02 -0.27537187235E+02  0.81528913300E+02  0.10460278328E+03  0.50000000000E+02 0.  0.
<mgrwt>
<rscale>  0 0.65534560E+02</rscale>
<asrwt>0</asrwt>
<pdfrwt beam="1">  1       13 0.10000000E+01 0.65534560E+02</pdfrwt>
<pdfrwt beam="2">  1       22 0.76245512E+00 0.65534560E+02</pdfrwt>
<totfact> 0.43665926E-02</totfact>
</mgrwt>
</event>
<event>
 4    1  0.2471347E+000  0.5132965E+02  0.7957747E-01  0.1438299E+00
         13   -1    0    0    0    0  0.00000000000E+00  0.00000000000E+00  0.99999944180E+02  0.10000000000E+03  0.10566000000E+00 0. -1.
         22   -1    0    0    0    0 -0.00000000000E+00 -0.00000000000E+00 -0.16023790331E+02  0.16023790331E+02  0.00000000000E+00 0. -1.
         13    1    1    2    0    0  0.70364143624E+01 -0.92315440536E+01 -0.55192586000E+01  0.12853245202E+02  0.10566000000E+00 0.  1.
        996    1    1    2    0    0 -0.70364143624E+01  0.92315440536E+01  0.89495412449E+02  0.10317054513E+03  0.50000000000E+02 0.  0.
<mgrwt>
<rscale>  0 0.51329646E+02</rscale>
<asrwt>0</asrwt>
<pdfrwt beam="1">  1       13 0.10000000E+01 0.51329646E+02</pdfrwt>
<pdfrwt beam="2">  1       22 0.16023814E+00 0.51329646E+02</pdfrwt>
<totfact> 0.67263116E-01</totfact>
</mgrwt>
</event>
<event>
 4    1  0.2471347E+000  0.5166799E+02  0.7957747E-01  0.1436547E+00
         13   -1    0    0    0    0  0.00000000000E+00  0.00000000000E+00  0.99999944179E+02  0.99999999999E+02  0.10566000000E+00 0. -1.
         22   -1    0    0    0    0 -0.00000000000E+00 -0.00000000000E+00 -0.23735648516E+02  0.23735648516E+02  0.00000000000E+00 0.  1.
         13    1    1    2    0    0  0.12329388440E+02  0.41913319088E+01 -0.14379608899E+02  0.19400139139E+02  0.10566000000E+00 0.  1.
        996    1    1    2    0    0 -0.12329388440E+02 -0.41913319088E+01  0.90643904562E+02  0.10433550938E+03  0.50000000000E+02 0.  0.
<mgrwt>
<rscale>  0 0.51667989E+02</rscale>
<asrwt>0</asrwt>
<pdfrwt beam="1">  1       13 0.10000000E+01 0.51667989E+02</pdfrwt>
<pdfrwt beam="2">  1       22 0.23735670E+00 0.51667989E+02</pdfrwt>
<totfact> 0.32621825E-01</totfact>
</mgrwt>
</event>
<event>
 4    1  0.2471347E+000  0.5289090E+02  0.7957747E-01  0.1430345E+00
         13   -1    0    0    0    0  0.00000000000E+00  0.00000000000E+00  0.99999944181E+02  0.10000000000E+03  0.10566000000E+00 0. -1.
         22   -1    0    0    0    0 -0.00000000000E+00 -0.00000000000E+00 -0.14132608233E+02  0.14132608233E+02  0.00000000000E+00 0. -1.
         13    1    1    2    0    0 -0.85537685902E+01 -0.14975986626E+02  0.58447013797E+01  0.18210404465E+02  0.10566000000E+00 0.  1.
        996    1    1    2    0    0  0.85537685902E+01  0.14975986626E+02  0.80022634569E+02  0.95922203769E+02  0.50000000000E+02 0.  0.
<mgrwt>
<rscale>  0 0.52890898E+02</rscale>
<asrwt>0</asrwt>
<pdfrwt beam="1">  1       13 0.10000000E+01 0.52890898E+02</pdfrwt>
<pdfrwt beam="2">  1       22 0.14132632E+00 0.52890898E+02</pdfrwt>
<totfact> 0.83200367E-01</totfact>
</mgrwt>
</event>
<event>
 4    1  0.2471347E+000  0.5155566E+02  0.7957747E-01  0.1437127E+00
         13   -1    0    0    0    0  0.00000000000E+00  0.00000000000E+00  0.99999944185E+02  0.10000000001E+03  0.10566000000E+00 0. -1.
         22   -1    0    0    0    0 -0.00000000000E+00 -0.00000000000E+00 -0.17783821808E+02  0.17783821808E+02  0.00000000000E+00 0.  1.
         13    1    1    2    0    0 -0.52217036367E+01 -0.11433265039E+02 -0.72612406956E+01  0.14516284607E+02  0.10566000000E+00 0.  1.
        996    1    1    2    0    0  0.52217036367E+01  0.11433265039E+02  0.89477363073E+02  0.10326753721E+03  0.50000000000E+02 0.  0.
<mgrwt>
<rscale>  0 0.51555657E+02</rscale>
<asrwt>0</asrwt>
<pdfrwt beam="1">  1       13 0.10000000E+01 0.51555657E+02</pdfrwt>
<pdfrwt beam="2">  1       22 0.17783845E+00 0.51555657E+02</pdfrwt>
<totfact> 0.56093047E-01</totfact>
</mgrwt>
</event>
<event>
 4    1  0.2471347E+000  0.5200708E+02  0.7957747E-01  0.1434807E+00
         13   -1    0    0    0    0  0.00000000000E+00  0.00000000000E+00  0.99999944182E+02  0.10000000000E+03  0.10566000000E+00 0. -1.
         22   -1    0    0    0    0 -0.00000000000E+00 -0.00000000000E+00 -0.11879632688E+02  0.11879632688E+02  0.00000000000E+00 0. -1.
         13    1    1    2    0    0  0.41313340083E+01  0.13699211292E+02  0.80962131467E+01  0.16440685571E+02  0.10566000000E+00 0.  1.
        996    1    1    2    0    0 -0.41313340083E+01 -0.13699211292E+02  0.80024098348E+02  0.95438947119E+02  0.50000000000E+02 0.  0.
<mgrwt>
<rscale>  0 0.52007079E+02</rscale>
<asrwt>0</asrwt>
<pdfrwt beam="1">  1       13 0.10000000E+01 0.52007079E+02</pdfrwt>
<pdfrwt beam="2">  1       22 0.11879657E+00 0.52007079E+02</pdfrwt>
<totfact> 0.10916569E+00</totfact>
</mgrwt>
</event>
<event>
 4    1  0.2471347E+000  0.5334632E+02  0.7957747E-01  0.1428085E+00
         13   -1    0    0    0    0  0.00000000000E+00  0.00000000000E+00  0.99999944178E+02  0.99999999998E+02  0.10566000000E+00 0.  1.
         22   -1    0    0    0    0 -0.00000000000E+00 -0.00000000000E+00 -0.16457685071E+02  0.16457685071E+02  0.00000000000E+00 0.  1.
         13    1    1    2    0    0  0.17384079732E+02 -0.66048239406E+01  0.15799878423E+01  0.18663800606E+02  0.10566000000E+00 0. -1.
        996    1    1    2    0    0 -0.17384079732E+02  0.66048239406E+01  0.81962271265E+02  0.97793884463E+02  0.50000000000E+02 0.  0.
<mgrwt>
<rscale>  0 0.53346321E+02</rscale>
<asrwt>0</asrwt>
<pdfrwt beam="1">  1       13 0.10000000E+01 0.53346321E+02</pdfrwt>
<pdfrwt beam="2">  1       22 0.16457708E+00 0.53346321E+02</pdfrwt>
<totfact> 0.64496439E-01</totfact>
</mgrwt>
</event>
<event>
 4    1  0.2471347E+000  0.5119954E+02  0.7957747E-01  0.1438977E+00
         13   -1    0    0    0    0  0.00000000000E+00  0.00000000000E+00  0.99999944179E+02  0.99999999999E+02  0.10566000000E+00 0. -1.
         22   -1    0    0    0    0 -0.00000000000E+00 -0.00000000000E+00 -0.10289158435E+02  0.10289158435E+02  0.00000000000E+00 0.  1.
         13    1    1    2    0    0  0.33899317347E+01 -0.10483393579E+02  0.71287440815E+01  0.13123388827E+02  0.10566000000E+00 0.  1.
        996    1    1    2    0    0 -0.33899317347E+01  0.10483393579E+02  0.82582041663E+02  0.97165769607E+02  0.50000000000E+02 0.  0.
<mgrwt>
<rscale>  0 0.51199543E+02</rscale>
<asrwt>0</asrwt>
<pdfrwt beam="1">  1       13 0.10000000E+01 0.51199543E+02</pdfrwt>
<pdfrwt beam="2">  1       22 0.10289183E+00 0.51199543E+02</pdfrwt>
<totfact> 0.13499509E+00</totfact>
</mgrwt>
</event>
<event>
 4    1  0.2471347E+000  0.5159225E+02  0.7957747E-01  0.1436938E+00
         13   -1    0    0    0    0  0.00000000000E+00  0.00000000000E+00  0.99999944183E+02  0.10000000000E+03  0.10566000000E+00 0.  1.
         22   -1    0    0    0    0 -0.00000000000E+00 -0.00000000000E+00 -0.19229422741E+02  0.19229422741E+02  0.00000000000E+00 0. -1.
         13    1    1    2    0    0  0.78190021440E+01  0.10031125438E+02 -0.90749611925E+01  0.15624543409E+02  0.10566000000E+00 0. -1.
        996    1    1    2    0    0 -0.78190021440E+01 -0.10031125438E+02  0.89845482635E+02  0.10360487933E+03  0.50000000000E+02 0.  0.
<mgrwt>
<rscale>  0 0.51592250E+02</rscale>
<asrwt>0</asrwt>
<pdfrwt beam="1">  1       13 0.10000000E+01 0.51592250E+02</pdfrwt>
<pdfrwt beam="2">  1       22 0.19229445E+00 0.51592250E+02</pdfrwt>
<totfact> 0.48691734E-01</totfact>
</mgrwt>
</event>
<event>
 4    1  0.2471347E+000  0.5443755E+02  0.7957747E-01  0.1422778E+00
         13   -1    0    0    0    0  0.00000000000E+00  0.00000000000E+00  0.99999944178E+02  0.99999999998E+02  0.10566000000E+00 0. -1.
         22   -1    0    0    0    0 -0.00000000000E+00 -0.00000000000E+00 -0.14593438111E+02  0.14593438111E+02  0.00000000000E+00 0. -1.
         13    1    1    2    0    0  0.21527209211E+02  0.16283863460E+00  0.18891124960E+02  0.28641456302E+02  0.10566000000E+00 0.  1.
        996    1    1    2    0    0 -0.21527209211E+02 -0.16283863460E+00  0.66515381106E+02  0.85951981807E+02  0.50000000000E+02 0.  0.
<mgrwt>
<rscale>  0 0.54437554E+02</rscale>
<asrwt>0</asrwt>
<pdfrwt beam="1">  1       13 0.10000000E+01 0.54437554E+02</pdfrwt>
<pdfrwt beam="2">  1       22 0.14593462E+00 0.54437554E+02</pdfrwt>
<totfact> 0.79185888E-01</totfact>
</mgrwt>
</event>
<event>
 4    1  0.2471347E+000  0.5133907E+02  0.7957747E-01  0.1438250E+00
         13   -1    0    0    0    0  0.00000000000E+00  0.00000000000E+00  0.99999944180E+02  0.10000000000E+03  0.10566000000E+00 0.  1.
         22   -1    0    0    0    0 -0.00000000000E+00 -0.00000000000E+00 -0.16636083894E+02  0.16636083894E+02  0.00000000000E+00 0.  1.
         13    1    1    2    0    0  0.22055842630E+01 -0.11438340096E+02 -0.63526223770E+01  0.13269031660E+02  0.10566000000E+00 0. -1.
        996    1    1    2    0    0 -0.22055842630E+01  0.11438340096E+02  0.89716482663E+02  0.10336705223E+03  0.50000000000E+02 0.  0.
<mgrwt>
<rscale>  0 0.51339071E+02</rscale>
<asrwt>0</asrwt>
<pdfrwt beam="1">  1       13 0.10000000E+01 0.51339071E+02</pdfrwt>
<pdfrwt beam="2">  1       22 0.16636107E+00 0.51339071E+02</pdfrwt>
<totfact> 0.63055394E-01</totfact>
</mgrwt>
</event>
<event>
 4    1  0.2471347E+000  0.5451908E+02  0.7957747E-01  0.1422387E+00
         13   -1    0    0    0    0  0.00000000000E+00  0.00000000000E+00  0.99999944182E+02  0.10000000000E+03  0.10566000000E+00 0.  1.
         22   -1    0    0    0    0 -0.00000000000E+00 -0.00000000000E+00 -0.16885811567E+02  0.16885811567E+02  0.00000000000E+00 0. -1.
         13    1    1    2    0    0 -0.87632584957E+01 -0.19888064687E+02  0.61842118617E+01  0.22596138096E+02  0.10566000000E+00 0. -1.
        996    1    1    2    0    0  0.87632584957E+01  0.19888064687E+02  0.76929920754E+02  0.94289673473E+02  0.50000000000E+02 0.  0.
<mgrwt>
<rscale>  0 0.54519078E+02</rscale>
<asrwt>0</asrwt>
<pdfrwt beam="1">  1       13 0.10000000E+01 0.54519078E+02</pdfrwt>
<pdfrwt beam="2">  1       22 0.16885835E+00 0.54519078E+02</pdfrwt>
<totfact> 0.61813934E-01</totfact>
</mgrwt>
</event>
<event>
 4    1  0.2471347E+000  0.6070569E+02  0.7957747E-01  0.1394894E+00
         13   -1    0    0    0    0  0.00000000000E+00  0.00000000000E+00  0.99999944180E+02  0.10000000000E+03  0.10566000000E+00 0. -1.
         22   -1    0    0    0    0 -0.00000000000E+00 -0.00000000000E+00 -0.35014118667E+02  0.35014118667E+02  0.00000000000E+00 0. -1.
         13    1    1    2    0    0  0.26923002410E+02 -0.21455362265E+02 -0.12459672816E+02  0.36611954870E+02  0.10566000000E+00 0.  1.
        996    1    1    2    0    0 -0.26923002410E+02  0.21455362265E+02  0.77445498329E+02  0.98402163798E+02  0.50000000000E+02 0.  0.
<mgrwt>
<rscale>  0 0.60705689E+02</rscale>
<asrwt>0</asrwt>
<pdfrwt beam="1">  1       13 0.10000000E+01 0.60705689E+02</pdfrwt>
<pdfrwt beam="2">  1       22 0.35014137E+00 0.60705689E+02</pdfrwt>
<totfact> 0.15834478E-01</totfact>
</mgrwt>
</event>
<event>
 4    1  0.2471347E+000  0.5695941E+02  0.7957747E-01  0.1411054E+00
         13   -1    0    0    0    0  0.00000000000E+00  0.00000000000E+00  0.99999944180E+02  0.10000000000E+03  0.10566000000E+00 0.  1.
         22   -1    0    0    0    0 -0.00000000000E+00 -0.00000000000E+00 -0.20707597035E+02  0.20707597035E+02  0.00000000000E+00 0. -1.
         13    1    1    2    0    0 -0.20253308907E+02 -0.18280534836E+02  0.60889278486E+01  0.27954618258E+02  0.10566000000E+00 0. -1.
        996    1    1    2    0    0  0.20253308907E+02  0.18280534836E+02  0.73203419296E+02  0.92752978778E+02  0.50000000000E+02 0.  0.
<mgrwt>
<rscale>  0 0.56959411E+02</rscale>
<asrwt>0</asrwt>
<pdfrwt beam="1">  1       13 0.10000000E+01 0.56959411E+02</pdfrwt>
<pdfrwt beam="2">  1       22 0.20707619E+00 0.56959411E+02</pdfrwt>
<totfact> 0.42800803E-01</totfact>
</mgrwt>
</event>
<event>
 4    1  0.2471347E+000  0.5137565E+02  0.7957747E-01  0.1438060E+00
         13   -1    0    0    0    0  0.00000000000E+00  0.00000000000E+00  0.99999944181E+02  0.10000000000E+03  0.10566000000E+00 0.  1.
         22   -1    0    0    0    0 -0.00000000000E+00 -0.00000000000E+00 -0.14709481288E+02  0.14709481288E+02  0.00000000000E+00 0.  1.
         13    1    1    2    0    0 -0.96984184027E+01 -0.67378440081E+01 -0.33332681872E+01  0.12271092137E+02  0.10566000000E+00 0. -1.
        996    1    1    2    0    0  0.96984184027E+01  0.67378440081E+01  0.88623731080E+02  0.10243838915E+03  0.50000000000E+02 0.  0.
<mgrwt>
<rscale>  0 0.51375654E+02</rscale>
<asrwt>0</asrwt>
<pdfrwt beam="1">  1       13 0.10000000E+01 0.51375654E+02</pdfrwt>
<pdfrwt beam="2">  1       22 0.14709505E+00 0.51375654E+02</pdfrwt>
<totfact> 0.77674309E-01</totfact>
</mgrwt>
</event>
<event>
 4    1  0.2471347E+000  0.5226897E+02  0.7957747E-01  0.1433474E+00
         13   -1    0    0    0    0  0.00000000000E+00  0.00000000000E+00  0.99999944171E+02  0.99999999991E+02  0.10566000000E+00 0. -1.
         22   -1    0    0    0    0 -0.00000000000E+00 -0.00000000000E+00 -0.36631397748E+02  0.36631397748E+02  0.00000000000E+00 0.  1.
         13    1    1    2    0    0  0.75288223193E+01  0.13242432586E+02 -0.27709438258E+02  0.31620710285E+02  0.10566000000E+00 0.  1.
        996    1    1    2    0    0 -0.75288223193E+01 -0.13242432586E+02  0.91077984680E+02  0.10501068746E+03  0.50000000000E+02 0.  0.
<mgrwt>
<rscale>  0 0.52268970E+02</rscale>
<asrwt>0</asrwt>
<pdfrwt beam="1">  1       13 0.10000000E+01 0.52268970E+02</pdfrwt>
<pdfrwt beam="2">  1       22 0.36631415E+00 0.52268970E+02</pdfrwt>
<totfact> 0.14514373E-01</totfact>
</mgrwt>
</event>
<event>
 4    1  0.2471347E+000  0.5441822E+02  0.7957747E-01  0.1422870E+00
         13   -1    0    0    0    0  0.00000000000E+00  0.00000000000E+00  0.99999944187E+02  0.10000000001E+03  0.10566000000E+00 0.  1.
         22   -1    0    0    0    0 -0.00000000000E+00 -0.00000000000E+00 -0.18852973231E+02  0.18852973231E+02  0.00000000000E+00 0. -1.
         13    1    1    2    0    0  0.20063592700E+02 -0.76678124148E+01  0.40305319836E+00  0.21482940096E+02  0.10566000000E+00 0. -1.
        996    1    1    2    0    0 -0.20063592700E+02  0.76678124148E+01  0.80743917757E+02  0.97370033142E+02  0.50000000000E+02 0.  0.
<mgrwt>
<rscale>  0 0.54418224E+02</rscale>
<asrwt>0</asrwt>
<pdfrwt beam="1">  1       13 0.10000000E+01 0.54418224E+02</pdfrwt>
<pdfrwt beam="2">  1       22 0.18852996E+00 0.54418224E+02</pdfrwt>
<totfact> 0.50746674E-01</totfact>
</mgrwt>
</event>
<event>
 4    1  0.2471347E+000  0.5148169E+02  0.7957747E-01  0.1437510E+00
         13   -1    0    0    0    0  0.00000000000E+00  0.00000000000E+00  0.99999944176E+02  0.99999999996E+02  0.10566000000E+00 0.  1.
         22   -1    0    0    0    0 -0.00000000000E+00 -0.00000000000E+00 -0.10159749413E+02  0.10159749413E+02  0.00000000000E+00 0.  1.
         13    1    1    2    0    0  0.49557990686E+01 -0.11216278014E+02  0.16781228540E+02  0.20784264053E+02  0.10566000000E+00 0. -1.
        996    1    1    2    0    0 -0.49557990686E+01  0.11216278014E+02  0.73058966224E+02  0.89375485356E+02  0.50000000000E+02 0.  0.
<mgrwt>
<rscale>  0 0.51481694E+02</rscale>
<asrwt>0</asrwt>
<pdfrwt beam="1">  1       13 0.10000000E+01 0.51481694E+02</pdfrwt>
<pdfrwt beam="2">  1       22 0.10159774E+00 0.51481694E+02</pdfrwt>
<totfact> 0.13760068E+00</totfact>
</mgrwt>
</event>
<event>
 4    1  0.2471347E+000  0.7229119E+02  0.7957747E-01  0.1352471E+00
         13   -1    0    0    0    0  0.00000000000E+00  0.00000000000E+00  0.99999944179E+02  0.99999999999E+02  0.10566000000E+00 0.  1.
         22   -1    0    0    0    0 -0.00000000000E+00 -0.00000000000E+00 -0.43299347703E+02  0.43299347703E+02  0.00000000000E+00 0. -1.
         13    1    1    2    0    0  0.28017778116E+02 -0.44057008097E+02  0.13110100023E+01  0.52227825574E+02  0.10566000000E+00 0. -1.
        996    1    1    2    0    0 -0.28017778116E+02  0.44057008097E+02  0.55389586474E+02  0.91071522128E+02  0.50000000000E+02 0.  0.
<mgrwt>
<rscale>  0 0.72291188E+02</rscale>
<asrwt>0</asrwt>
<pdfrwt beam="1">  1       13 0.10000000E+01 0.72291188E+02</pdfrwt>
<pdfrwt beam="2">  1       22 0.43299364E+00 0.72291188E+02</pdfrwt>
<totfact> 0.10655494E-01</totfact>
</mgrwt>
</event>
<event>
 4    1  0.2471347E+000  0.5293512E+02  0.7957747E-01  0.1430124E+00
         13   -1    0    0    0    0  0.00000000000E+00  0.00000000000E+00  0.99999944172E+02  0.99999999992E+02  0.10566000000E+00 0.  1.
         22   -1    0    0    0    0 -0.00000000000E+00 -0.00000000000E+00 -0.17227589996E+02  0.17227589996E+02  0.00000000000E+00 0. -1.
         13    1    1    2    0    0  0.40010189387E+01  0.16915052783E+02 -0.17786525452E+01  0.17472891349E+02  0.10566000000E+00 0. -1.
        996    1    1    2    0    0 -0.40010189387E+01 -0.16915052783E+02  0.84551006720E+02  0.99754698639E+02  0.50000000000E+02 0.  0.
<mgrwt>
<rscale>  0 0.52935122E+02</rscale>
<asrwt>0</asrwt>
<pdfrwt beam="1">  1       13 0.10000000E+01 0.52935122E+02</pdfrwt>
<pdfrwt beam="2">  1       22 0.17227613E+00 0.52935122E+02</pdfrwt>
<totfact> 0.59500464E-01</totfact>
</mgrwt>
</event>
<event>
 4    1  0.2471347E+000  0.5413983E+02  0.7957747E-01  0.1424211E+00
         13   -1    0    0    0    0  0.00000000000E+00  0.00000000000E+00  0.99999944177E+02  0.99999999997E+02  0.10566000000E+00 0.  1.
         22   -1    0    0    0    0 -0.00000000000E+00 -0.00000000000E+00 -0.14390241420E+02  0.14390241420E+02  0.00000000000E+00 0.  1.
         13    1    1    2    0    0  0.14128859076E+02  0.15215009153E+02  0.16045875565E+02  0.26241235661E+02  0.10566000000E+00 0. -1.
        996    1    1    2    0    0 -0.14128859076E+02 -0.15215009153E+02  0.69563827191E+02  0.88149005756E+02  0.50000000000E+02 0.  0.
<mgrwt>
<rscale>  0 0.54139830E+02</rscale>
<asrwt>0</asrwt>
<pdfrwt beam="1">  1       13 0.10000000E+01 0.54139830E+02</pdfrwt>
<pdfrwt beam="2">  1       22 0.14390265E+00 0.54139830E+02</pdfrwt>
<totfact> 0.80985235E-01</totfact>
</mgrwt>
</event>
<event>
 4    1  0.2471347E+000  0.5206340E+02  0.7957747E-01  0.1434520E+00
         13   -1    0    0    0    0  0.00000000000E+00  0.00000000000E+00  0.99999944174E+02  0.99999999994E+02  0.10566000000E+00 0.  1.
         22   -1    0    0    0    0 -0.00000000000E+00 -0.00000000000E+00 -0.11102972313E+02  0.11102972313E+02  0.00000000000E+00 0.  1.
         13    1    1    2    0    0 -0.14002481435E+02  0.38115764322E+01  0.21478587961E+02  0.25921776676E+02  0.10566000000E+00 0. -1.
        996    1    1    2    0    0  0.14002481435E+02 -0.38115764322E+01  0.67418383901E+02  0.85181195631E+02  0.50000000000E+02 0.  0.
<mgrwt>
<rscale>  0 0.52063400E+02</rscale>
<asrwt>0</asrwt>
<pdfrwt beam="1">  1       13 0.10000000E+01 0.52063400E+02</pdfrwt>
<pdfrwt beam="2">  1       22 0.11102997E+00 0.52063400E+02</pdfrwt>
<totfact> 0.12090011E+00</totfact>
</mgrwt>
</event>
<event>
 4    1  0.2471347E+000  0.5212601E+02  0.7957747E-01  0.1434200E+00
         13   -1    0    0    0    0  0.00000000000E+00  0.00000000000E+00  0.99999944177E+02  0.99999999997E+02  0.10566000000E+00 0. -1.
         22   -1    0    0    0    0 -0.00000000000E+00 -0.00000000000E+00 -0.14582647456E+02  0.14582647456E+02  0.00000000000E+00 0.  1.
         13    1    1    2    0    0  0.12383605249E+02  0.79854689319E+01  0.25925332295E+00  0.14737698916E+02  0.10566000000E+00 0.  1.
        996    1    1    2    0    0 -0.12383605249E+02 -0.79854689319E+01  0.85158043398E+02  0.99844948537E+02  0.50000000000E+02 0.  0.
<mgrwt>
<rscale>  0 0.52126015E+02</rscale>
<asrwt>0</asrwt>
<pdfrwt beam="1">  1       13 0.10000000E+01 0.52126015E+02</pdfrwt>
<pdfrwt beam="2">  1       22 0.14582671E+00 0.52126015E+02</pdfrwt>
<totfact> 0.78914317E-01</totfact>
</mgrwt>
</event>
<event>
 4    1  0.2471347E+000  0.5123703E+02  0.7957747E-01  0.1438781E+00
         13   -1    0    0    0    0  0.00000000000E+00  0.00000000000E+00  0.99999944180E+02  0.10000000000E+03  0.10566000000E+00 0. -1.
         22   -1    0    0    0    0 -0.00000000000E+00 -0.00000000000E+00 -0.98949331747E+01  0.98949331747E+01  0.00000000000E+00 0. -1.
         13    1    1    2    0    0  0.11086870305E+02  0.15214288497E+01  0.11348249273E+02  0.15938235928E+02  0.10566000000E+00 0.  1.
        996    1    1    2    0    0 -0.11086870305E+02 -0.15214288497E+01  0.78756761733E+02  0.93956697247E+02  0.50000000000E+02 0.  0.
<mgrwt>
<rscale>  0 0.51237032E+02</rscale>
<asrwt>0</asrwt>
<pdfrwt beam="1">  1       13 0.10000000E+01 0.51237032E+02</pdfrwt>
<pdfrwt beam="2">  1       22 0.98949583E-01 0.51237032E+02</pdfrwt>
<totfact> 0.14288455E+00</totfact>
</mgrwt>
</event>
<event>
 4    1  0.2471347E+000  0.5102324E+02  0.7957747E-01  0.1439899E+00
         13   -1    0    0    0    0  0.00000000000E+00  0.00000000000E+00  0.99999944177E+02  0.99999999997E+02  0.10566000000E+00 0.  1.
         22   -1    0    0    0    0 -0.00000000000E+00 -0.00000000000E+00 -0.94022087325E+01  0.94022087325E+01  0.00000000000E+00 0.  1.
         13    1    1    2    0    0  0.97802239504E+01  0.27781359910E+01  0.12479949908E+02  0.16097550554E+02  0.10566000000E+00 0. -1.
        996    1    1    2    0    0 -0.97802239504E+01 -0.27781359910E+01  0.78117785537E+02  0.93304658176E+02  0.50000000000E+02 0.  0.
<mgrwt>
<rscale>  0 0.51023238E+02</rscale>
<asrwt>0</asrwt>
<pdfrwt beam="1">  1       13 0.10000000E+01 0.51023238E+02</pdfrwt>
<pdfrwt beam="2">  1       22 0.94022340E-01 0.51023238E+02</pdfrwt>
<totfact> 0.15366472E+00</totfact>
</mgrwt>
</event>
<event>
 4    1  0.2471347E+000  0.5242860E+02  0.7957747E-01  0.1432666E+00
         13   -1    0    0    0    0  0.00000000000E+00  0.00000000000E+00  0.99999944179E+02  0.99999999999E+02  0.10566000000E+00 0.  1.
         22   -1    0    0    0    0 -0.00000000000E+00 -0.00000000000E+00 -0.11628969532E+02  0.11628969532E+02  0.00000000000E+00 0.  1.
         13    1    1    2    0    0 -0.13495727245E+02  0.81623492992E+01  0.20117675064E+02  0.25563462480E+02  0.10566000000E+00 0. -1.
        996    1    1    2    0    0  0.13495727245E+02 -0.81623492992E+01  0.68253299583E+02  0.86065507051E+02  0.50000000000E+02 0.  0.
<mgrwt>
<rscale>  0 0.52428605E+02</rscale>
<asrwt>0</asrwt>
<pdfrwt beam="1">  1       13 0.10000000E+01 0.52428605E+02</pdfrwt>
<pdfrwt beam="2">  1       22 0.11628994E+00 0.52428605E+02</pdfrwt>
<totfact> 0.11286837E+00</totfact>
</mgrwt>
</event>
<event>
 4    1  0.2471347E+000  0.5185006E+02  0.7957747E-01  0.1435611E+00
         13   -1    0    0    0    0  0.00000000000E+00  0.00000000000E+00  0.99999944181E+02  0.10000000000E+03  0.10566000000E+00 0. -1.
         22   -1    0    0    0    0 -0.00000000000E+00 -0.00000000000E+00 -0.14167676255E+02  0.14167676255E+02  0.00000000000E+00 0. -1.
         13    1    1    2    0    0  0.42591272388E+01  0.13049477381E+02 -0.18848431957E+00  0.13728645786E+02  0.10566000000E+00 0.  1.
        996    1    1    2    0    0 -0.42591272388E+01 -0.13049477381E+02  0.86020752246E+02  0.10043903047E+03  0.50000000000E+02 0.  0.
<mgrwt>
<rscale>  0 0.51850063E+02</rscale>
<asrwt>0</asrwt>
<pdfrwt beam="1">  1       13 0.10000000E+01 0.51850063E+02</pdfrwt>
<pdfrwt beam="2">  1       22 0.14167700E+00 0.51850063E+02</pdfrwt>
<totfact> 0.82686423E-01</totfact>
</mgrwt>
</event>
<event>
 4    1  0.2471347E+000  0.5114855E+02  0.7957747E-01  0.1439243E+00
         13   -1    0    0    0    0  0.00000000000E+00  0.00000000000E+00  0.99999944183E+02  0.10000000000E+03  0.10566000000E+00 0.  1.
         22   -1    0    0    0    0 -0.00000000000E+00 -0.00000000000E+00 -0.31975144400E+02  0.31975144400E+02  0.00000000000E+00 0. -1.
         13    1    1    2    0    0 -0.76683468439E+01 -0.75743485479E+01 -0.24213543184E+02  0.26504360713E+02  0.10566000000E+00 0. -1.
        996    1    1    2    0    0  0.76683468439E+01  0.75743485479E+01  0.92238342966E+02  0.10547078369E+03  0.50000000000E+02 0.  0.
<mgrwt>
<rscale>  0 0.51148551E+02</rscale>
<asrwt>0</asrwt>
<pdfrwt beam="1">  1       13 0.10000000E+01 0.51148551E+02</pdfrwt>
<pdfrwt beam="2">  1       22 0.31975163E+00 0.51148551E+02</pdfrwt>
<totfact> 0.18404703E-01</totfact>
</mgrwt>
</event>
<event>
 4    1  0.2471347E+000  0.5237377E+02  0.7957747E-01  0.1432943E+00
         13   -1    0    0    0    0  0.00000000000E+00  0.00000000000E+00  0.99999944176E+02  0.99999999996E+02  0.10566000000E+00 0. -1.
         22   -1    0    0    0    0 -0.00000000000E+00 -0.00000000000E+00 -0.16354550102E+02  0.16354550102E+02  0.00000000000E+00 0. -1.
         13    1    1    2    0    0  0.60431517060E+00 -0.15577122492E+02 -0.22504849360E+01  0.15750802787E+02  0.10566000000E+00 0.  1.
        996    1    1    2    0    0 -0.60431517060E+00  0.15577122492E+02  0.85895879010E+02  0.10060374731E+03  0.50000000000E+02 0.  0.
<mgrwt>
<rscale>  0 0.52373772E+02</rscale>
<asrwt>0</asrwt>
<pdfrwt beam="1">  1       13 0.10000000E+01 0.52373772E+02</pdfrwt>
<pdfrwt beam="2">  1       22 0.16354573E+00 0.52373772E+02</pdfrwt>
<totfact> 0.65078307E-01</totfact>
</mgrwt>
</event>
<event>
 4    1  0.2471347E+000  0.5169838E+02  0.7957747E-01  0.1436390E+00
         13   -1    0    0    0    0  0.00000000000E+00  0.00000000000E+00  0.99999944173E+02  0.99999999994E+02  0.10566000000E+00 0. -1.
         22   -1    0    0    0    0 -0.00000000000E+00 -0.00000000000E+00 -0.10617062450E+02  0.10617062450E+02  0.00000000000E+00 0. -1.
         13    1    1    2    0    0 -0.12844519113E+02  0.27821703467E+01  0.13924517173E+02  0.19147466820E+02  0.10566000000E+00 0.  1.
        996    1    1    2    0    0  0.12844519113E+02 -0.27821703467E+01  0.75458364550E+02  0.91469595624E+02  0.50000000000E+02 0.  0.
<mgrwt>
<rscale>  0 0.51698377E+02</rscale>
<asrwt>0</asrwt>
<pdfrwt beam="1">  1       13 0.10000000E+01 0.51698377E+02</pdfrwt>
<pdfrwt beam="2">  1       22 0.10617087E+00 0.51698377E+02</pdfrwt>
<totfact> 0.12908148E+00</totfact>
</mgrwt>
</event>
<event>
 4    1  0.2471347E+000  0.6328887E+02  0.7957747E-01  0.1384526E+00
         13   -1    0    0    0    0  0.00000000000E+00  0.00000000000E+00  0.99999944181E+02  0.10000000000E+03  0.10566000000E+00 0. -1.
         22   -1    0    0    0    0 -0.00000000000E+00 -0.00000000000E+00 -0.65213964357E+02  0.65213964357E+02  0.00000000000E+00 0.  1.
         13    1    1    2    0    0 -0.31403392212E+02 -0.22788325498E+02 -0.47545412379E+02  0.61368218352E+02  0.10566000000E+00 0.  1.
        996    1    1    2    0    0  0.31403392212E+02  0.22788325498E+02  0.82331392203E+02  0.10384574601E+03  0.50000000000E+02 0.  0.
<mgrwt>
<rscale>  0 0.63288868E+02</rscale>
<asrwt>0</asrwt>
<pdfrwt beam="1">  1       13 0.10000000E+01 0.63288868E+02</pdfrwt>
<pdfrwt beam="2">  1       22 0.65213974E+00 0.63288868E+02</pdfrwt>
<totfact> 0.86766248E-02</totfact>
</mgrwt>
</event>
<event>
 4    1  0.2471347E+000  0.5118784E+02  0.7957747E-01  0.1439038E+00
         13   -1    0    0    0    0  0.00000000000E+00  0.00000000000E+00  0.99999944176E+02  0.99999999996E+02  0.10566000000E+00 0. -1.
         22   -1    0    0    0    0 -0.00000000000E+00 -0.00000000000E+00 -0.24565981839E+02  0.24565981839E+02  0.00000000000E+00 0. -1.
         13    1    1    2    0    0  0.10666632389E+02  0.25334366267E+01 -0.16225175719E+02  0.19582207200E+02  0.10566000000E+00 0.  1.
        996    1    1    2    0    0 -0.10666632389E+02 -0.25334366267E+01  0.91659138056E+02  0.10498377464E+03  0.50000000000E+02 0.  0.
<mgrwt>
<rscale>  0 0.51187844E+02</rscale>
<asrwt>0</asrwt>
<pdfrwt beam="1">  1       13 0.10000000E+01 0.51187844E+02</pdfrwt>
<pdfrwt beam="2">  1       22 0.24566003E+00 0.51187844E+02</pdfrwt>
<totfact> 0.30472272E-01</totfact>
</mgrwt>
</event>
<event>
 4    1  0.2471347E+000  0.6470417E+02  0.7957747E-01  0.1379088E+00
         13   -1    0    0    0    0  0.00000000000E+00  0.00000000000E+00  0.99999944180E+02  0.10000000000E+03  0.10566000000E+00 0.  1.
         22   -1    0    0    0    0 -0.00000000000E+00 -0.00000000000E+00 -0.31363062732E+02  0.31363062732E+02  0.00000000000E+00 0. -1.
         13    1    1    2    0    0 -0.14809052065E+02  0.38305632719E+02  0.63614395208E+01  0.41558496098E+02  0.10566000000E+00 0. -1.
        996    1    1    2    0    0  0.14809052065E+02 -0.38305632719E+02  0.62275441928E+02  0.89804566634E+02  0.50000000000E+02 0.  0.
<mgrwt>
<rscale>  0 0.64704169E+02</rscale>
<asrwt>0</asrwt>
<pdfrwt beam="1">  1       13 0.10000000E+01 0.64704169E+02</pdfrwt>
<pdfrwt beam="2">  1       22 0.31363082E+00 0.64704169E+02</pdfrwt>
<totfact> 0.19347081E-01</totfact>
</mgrwt>
</event>
<event>
 4    1  0.2471347E+000  0.5102510E+02  0.7957747E-01  0.1439890E+00
         13   -1    0    0    0    0  0.00000000000E+00  0.00000000000E+00  0.99999944188E+02  0.10000000001E+03  0.10566000000E+00 0. -1.
         22   -1    0    0    0    0 -0.00000000000E+00 -0.00000000000E+00 -0.19924533634E+02  0.19924533634E+02  0.00000000000E+00 0.  1.
         13    1    1    2    0    0 -0.68174901289E+00  0.10153638167E+02 -0.11337428812E+02  0.15235143775E+02  0.10566000000E+00 0.  1.
        996    1    1    2    0    0  0.68174901289E+00 -0.10153638167E+02  0.91412839366E+02  0.10468938987E+03  0.50000000000E+02 0.  0.
<mgrwt>
<rscale>  0 0.51025103E+02</rscale>
<asrwt>0</asrwt>
<pdfrwt beam="1">  1       13 0.10000000E+01 0.51025103E+02</pdfrwt>
<pdfrwt beam="2">  1       22 0.19924556E+00 0.51025103E+02</pdfrwt>
<totfact> 0.45547562E-01</totfact>
</mgrwt>
</event>
<event>
 4    1  0.2471347E+000  0.5573852E+02  0.7957747E-01  0.1416638E+00
         13   -1    0    0    0    0  0.00000000000E+00  0.00000000000E+00  0.99999944186E+02  0.10000000001E+03  0.10566000000E+00 0. -1.
         22   -1    0    0    0    0 -0.00000000000E+00 -0.00000000000E+00 -0.31547165397E+02  0.31547165397E+02  0.00000000000E+00 0.  1.
         13    1    1    2    0    0 -0.90669565547E+01  0.22903546317E+02 -0.16709703328E+02  0.29765877854E+02  0.10566000000E+00 0.  1.
        996    1    1    2    0    0  0.90669565547E+01 -0.22903546317E+02  0.85162482116E+02  0.10178128755E+03  0.50000000000E+02 0.  0.
<mgrwt>
<rscale>  0 0.55738516E+02</rscale>
<asrwt>0</asrwt>
<pdfrwt beam="1">  1       13 0.10000000E+01 0.55738516E+02</pdfrwt>
<pdfrwt beam="2">  1       22 0.31547185E+00 0.55738516E+02</pdfrwt>
<totfact> 0.18960310E-01</totfact>
</mgrwt>
</event>
<event>
 4    1  0.2471347E+000  0.6338965E+02  0.7957747E-01  0.1384133E+00
         13   -1    0    0    0    0  0.00000000000E+00  0.00000000000E+00  0.99999944178E+02  0.99999999999E+02  0.10566000000E+00 0.  1.
         22   -1    0    0    0    0 -0.00000000000E+00 -0.00000000000E+00 -0.35699575685E+02  0.35699575685E+02  0.00000000000E+00 0.  1.
         13    1    1    2    0    0 -0.16049173721E+02 -0.35505935999E+02 -0.77556344302E+01  0.39729189493E+02  0.10566000000E+00 0. -1.
        996    1    1    2    0    0  0.16049173721E+02  0.35505935999E+02  0.72056002923E+02  0.95970386191E+02  0.50000000000E+02 0.  0.
<mgrwt>
<rscale>  0 0.63389648E+02</rscale>
<asrwt>0</asrwt>
<pdfrwt beam="1">  1       13 0.10000000E+01 0.63389648E+02</pdfrwt>
<pdfrwt beam="2">  1       22 0.35699594E+00 0.63389648E+02</pdfrwt>
<totfact> 0.15337764E-01</totfact>
</mgrwt>
</event>
<event>
 4    1  0.2471347E+000  0.5101655E+02  0.7957747E-01  0.1439934E+00
         13   -1    0    0    0    0  0.00000000000E+00  0.00000000000E+00  0.99999944178E+02  0.99999999998E+02  0.10566000000E+00 0.  1.
         22   -1    0    0    0    0 -0.00000000000E+00 -0.00000000000E+00 -0.96541056333E+01  0.96541056333E+01  0.00000000000E+00 0.  1.
         13    1    1    2    0    0 -0.83305924314E+01 -0.57696967423E+01  0.85816072011E+01  0.13279432102E+02  0.10566000000E+00 0. -1.
        996    1    1    2    0    0  0.83305924314E+01  0.57696967423E+01  0.81764231343E+02  0.96374673530E+02  0.50000000000E+02 0.  0.
<mgrwt>
<rscale>  0 0.51016548E+02</rscale>
<asrwt>0</asrwt>
<pdfrwt beam="1">  1       13 0.10000000E+01 0.51016548E+02</pdfrwt>
<pdfrwt beam="2">  1       22 0.96541309E-01 0.51016548E+02</pdfrwt>
<totfact> 0.14796230E+00</totfact>
</mgrwt>
</event>
<event>
 4    1  0.2471347E+000  0.5950741E+02  0.7957747E-01  0.1399911E+00
         13   -1    0    0    0    0  0.00000000000E+00  0.00000000000E+00  0.99999944182E+02  0.10000000000E+03  0.10566000000E+00 0. -1.
         22   -1    0    0    0    0 -0.00000000000E+00 -0.00000000000E+00 -0.33220807252E+02  0.33220807252E+02  0.00000000000E+00 0.  1.
         13    1    1    2    0    0  0.89556640038E+01 -0.30998844050E+02 -0.12058009361E+02  0.34446175462E+02  0.10566000000E+00 0.  1.
        996    1    1    2    0    0 -0.89556640038E+01  0.30998844050E+02  0.78837146291E+02  0.98774631791E+02  0.50000000000E+02 0.  0.
<mgrwt>
<rscale>  0 0.59507413E+02</rscale>
<asrwt>0</asrwt>
<pdfrwt beam="1">  1       13 0.10000000E+01 0.59507413E+02</pdfrwt>
<pdfrwt beam="2">  1       22 0.33220826E+00 0.59507413E+02</pdfrwt>
<totfact> 0.17352708E-01</totfact>
</mgrwt>
</event>
<event>
 4    1  0.2471347E+000  0.5148555E+02  0.7957747E-01  0.1437490E+00
         13   -1    0    0    0    0  0.00000000000E+00  0.00000000000E+00  0.99999944179E+02  0.99999999999E+02  0.10566000000E+00 0.  1.
         22   -1    0    0    0    0 -0.00000000000E+00 -0.00000000000E+00 -0.29054564893E+02  0.29054564893E+02  0.00000000000E+00 0. -1.
         13    1    1    2    0    0 -0.12129360954E+02 -0.19081295394E+01 -0.20624577761E+02  0.24003056625E+02  0.10566000000E+00 0. -1.
        996    1    1    2    0    0  0.12129360954E+02  0.19081295394E+01  0.91569957047E+02  0.10505150827E+03  0.50000000000E+02 0.  0.
<mgrwt>
<rscale>  0 0.51485555E+02</rscale>
<asrwt>0</asrwt>
<pdfrwt beam="1">  1       13 0.10000000E+01 0.51485555E+02</pdfrwt>
<pdfrwt beam="2">  1       22 0.29054585E+00 0.51485555E+02</pdfrwt>
<totfact> 0.21977347E-01</totfact>
</mgrwt>
</event>
<event>
 4    1  0.2471347E+000  0.5249731E+02  0.7957747E-01  0.1432319E+00
         13   -1    0    0    0    0  0.00000000000E+00  0.00000000000E+00  0.99999944174E+02  0.99999999994E+02  0.10566000000E+00 0. -1.
         22   -1    0    0    0    0 -0.00000000000E+00 -0.00000000000E+00 -0.11763379800E+02  0.11763379800E+02  0.00000000000E+00 0. -1.
         13    1    1    2    0    0 -0.15550130798E+02 -0.37631710384E+01  0.18137148156E+02  0.24185436349E+02  0.10566000000E+00 0.  1.
        996    1    1    2    0    0  0.15550130798E+02  0.37631710384E+01  0.70099416217E+02  0.87577943445E+02  0.50000000000E+02 0.  0.
<mgrwt>
<rscale>  0 0.52497314E+02</rscale>
<asrwt>0</asrwt>
<pdfrwt beam="1">  1       13 0.10000000E+01 0.52497314E+02</pdfrwt>
<pdfrwt beam="2">  1       22 0.11763404E+00 0.52497314E+02</pdfrwt>
<totfact> 0.11093464E+00</totfact>
</mgrwt>
</event>
<event>
 4    1  0.2471347E+000  0.6755579E+02  0.7957747E-01  0.1368608E+00
         13   -1    0    0    0    0  0.00000000000E+00  0.00000000000E+00  0.99999944179E+02  0.99999999999E+02  0.10566000000E+00 0. -1.
         22   -1    0    0    0    0 -0.00000000000E+00 -0.00000000000E+00 -0.35156604389E+02  0.35156604389E+02  0.00000000000E+00 0.  1.
         13    1    1    2    0    0  0.89225494553E+01 -0.44544049161E+02  0.64945411814E+01  0.45890897067E+02  0.10566000000E+00 0.  1.
        996    1    1    2    0    0 -0.89225494553E+01  0.44544049161E+02  0.58348798609E+02  0.89265707321E+02  0.50000000000E+02 0.  0.
<mgrwt>
<rscale>  0 0.67555786E+02</rscale>
<asrwt>0</asrwt>
<pdfrwt beam="1">  1       13 0.10000000E+01 0.67555786E+02</pdfrwt>
<pdfrwt beam="2">  1       22 0.35156623E+00 0.67555786E+02</pdfrwt>
<totfact> 0.15811195E-01</totfact>
</mgrwt>
</event>
<event>
 4    1  0.2471347E+000  0.5197670E+02  0.7957747E-01  0.1434962E+00
         13   -1    0    0    0    0  0.00000000000E+00  0.00000000000E+00  0.99999944177E+02  0.99999999997E+02  0.10566000000E+00 0.  1.
         22   -1    0    0    0    0 -0.00000000000E+00 -0.00000000000E+00 -0.14654663753E+02  0.14654663753E+02  0.00000000000E+00 0. -1.
         13    1    1    2    0    0 -0.12142250299E+02 -0.73581883510E+01 -0.60438295653E+00  0.14211038700E+02  0.10566000000E+00 0. -1.
        996    1    1    2    0    0  0.12142250299E+02  0.73581883510E+01  0.85949663380E+02  0.10044362505E+03  0.50000000000E+02 0.  0.
<mgrwt>
<rscale>  0 0.51976698E+02</rscale>
<asrwt>0</asrwt>
<pdfrwt beam="1">  1       13 0.10000000E+01 0.51976698E+02</pdfrwt>
<pdfrwt beam="2">  1       22 0.14654688E+00 0.51976698E+02</pdfrwt>
<totfact> 0.78252036E-01</totfact>
</mgrwt>
</event>
<event>
 4    1  0.2471347E+000  0.5422884E+02  0.7957747E-01  0.1423781E+00
         13   -1    0    0    0    0  0.00000000000E+00  0.00000000000E+00  0.99999944175E+02  0.99999999995E+02  0.10566000000E+00 0.  1.
         22   -1    0    0    0    0 -0.00000000000E+00 -0.00000000000E+00 -0.15454993093E+02  0.15454993093E+02  0.00000000000E+00 0. -1.
         13    1    1    2    0    0 -0.20589896271E+02  0.41016569499E+01  0.99544604795E+01  0.23235099863E+02  0.10566000000E+00 0. -1.
        996    1    1    2    0    0  0.20589896271E+02 -0.41016569499E+01  0.74590490603E+02  0.92219893225E+02  0.50000000000E+02 0.  0.
<mgrwt>
<rscale>  0 0.54228843E+02</rscale>
<asrwt>0</asrwt>
<pdfrwt beam="1">  1       13 0.10000000E+01 0.54228843E+02</pdfrwt>
<pdfrwt beam="2">  1       22 0.15455017E+00 0.54228843E+02</pdfrwt>
<totfact> 0.71932085E-01</totfact>
</mgrwt>
</event>
<event>
 4    1  0.2471347E+000  0.5131610E+02  0.7957747E-01  0.1438369E+00
         13   -1    0    0    0    0  0.00000000000E+00  0.00000000000E+00  0.99999944184E+02  0.10000000000E+03  0.10566000000E+00 0. -1.
         22   -1    0    0    0    0 -0.00000000000E+00 -0.00000000000E+00 -0.43148889844E+02  0.43148889844E+02  0.00000000000E+00 0.  1.
         13    1    1    2    0    0 -0.39061087918E+01 -0.10866679339E+02 -0.35591624227E+02  0.37418141120E+02  0.10566000000E+00 0.  1.
        996    1    1    2    0    0  0.39061087918E+01  0.10866679339E+02  0.92442678568E+02  0.10573074873E+03  0.50000000000E+02 0.  0.
<mgrwt>
<rscale>  0 0.51316103E+02</rscale>
<asrwt>0</asrwt>
<pdfrwt beam="1">  1       13 0.10000000E+01 0.51316103E+02</pdfrwt>
<pdfrwt beam="2">  1       22 0.43148906E+00 0.51316103E+02</pdfrwt>
<totfact> 0.10612183E-01</totfact>
</mgrwt>
</event>
<event>
 4    1  0.2471347E+000  0.5528353E+02  0.7957747E-01  0.1418763E+00
         13   -1    0    0    0    0  0.00000000000E+00  0.00000000000E+00  0.99999944190E+02  0.10000000001E+03  0.10566000000E+00 0. -1.
         22   -1    0    0    0    0 -0.00000000000E+00 -0.00000000000E+00 -0.30054510228E+02  0.30054510228E+02  0.00000000000E+00 0.  1.
         13    1    1    2    0    0 -0.44867877622E+01 -0.23154651094E+02 -0.15544159259E+02  0.28247144685E+02  0.10566000000E+00 0.  1.
        996    1    1    2    0    0  0.44867877622E+01  0.23154651094E+02  0.85489593221E+02  0.10180736555E+03  0.50000000000E+02 0.  0.
<mgrwt>
<rscale>  0 0.55283534E+02</rscale>
<asrwt>0</asrwt>
<pdfrwt beam="1">  1       13 0.10000000E+01 0.55283534E+02</pdfrwt>
<pdfrwt beam="2">  1       22 0.30054530E+00 0.55283534E+02</pdfrwt>
<totfact> 0.20719428E-01</totfact>
</mgrwt>
</event>
<event>
 4    1  0.2471347E+000  0.5577577E+02  0.7957747E-01  0.1416465E+00
         13   -1    0    0    0    0  0.00000000000E+00  0.00000000000E+00  0.99999944176E+02  0.99999999996E+02  0.10566000000E+00 0.  1.
         22   -1    0    0    0    0 -0.00000000000E+00 -0.00000000000E+00 -0.16530955928E+02  0.16530955928E+02  0.00000000000E+00 0.  1.
         13    1    1    2    0    0  0.23887878803E-01 -0.24717117872E+02  0.33599698224E+02  0.41711957174E+02  0.10566000000E+00 0. -1.
        996    1    1    2    0    0 -0.23887878803E-01  0.24717117872E+02  0.49869290023E+02  0.74818998750E+02  0.50000000000E+02 0.  0.
<mgrwt>
<rscale>  0 0.55775770E+02</rscale>
<asrwt>0</asrwt>
<pdfrwt beam="1">  1       13 0.10000000E+01 0.55775770E+02</pdfrwt>
<pdfrwt beam="2">  1       22 0.16530979E+00 0.55775770E+02</pdfrwt>
<totfact> 0.64292204E-01</totfact>
</mgrwt>
</event>
<event>
 4    1  0.2471347E+000  0.5139176E+02  0.7957747E-01  0.1437976E+00
         13   -1    0    0    0    0  0.00000000000E+00  0.00000000000E+00  0.99999944175E+02  0.99999999995E+02  0.10566000000E+00 0. -1.
         22   -1    0    0    0    0 -0.00000000000E+00 -0.00000000000E+00 -0.42365515297E+02  0.42365515297E+02  0.00000000000E+00 0.  1.
         13    1    1    2    0    0  0.37991705936E+01 -0.11255210775E+02 -0.34708492283E+02  0.36685202294E+02  0.10566000000E+00 0.  1.
        996    1    1    2    0    0 -0.37991705936E+01  0.11255210775E+02  0.92342921161E+02  0.10568031300E+03  0.50000000000E+02 0.  0.
<mgrwt>
<rscale>  0 0.51391765E+02</rscale>
<asrwt>0</asrwt>
<pdfrwt beam="1">  1       13 0.10000000E+01 0.51391765E+02</pdfrwt>
<pdfrwt beam="2">  1       22 0.42365531E+00 0.51391765E+02</pdfrwt>
<totfact> 0.11031663E-01</totfact>
</mgrwt>
</event>
<event>
 4    1  0.2471347E+000  0.5416734E+02  0.7957747E-01  0.1424078E+00
         13   -1    0    0    0    0  0.00000000000E+00  0.00000000000E+00  0.99999944180E+02  0.10000000000E+03  0.10566000000E+00 0. -1.
         22   -1    0    0    0    0 -0.00000000000E+00 -0.00000000000E+00 -0.51064304407E+02  0.51064304407E+02  0.00000000000E+00 0.  1.
         13    1    1    2    0    0  0.87368736314E+01 -0.18914736527E+02 -0.41049063261E+02  0.46034084952E+02  0.10566000000E+00 0.  1.
        996    1    1    2    0    0 -0.87368736314E+01  0.18914736527E+02  0.89984703034E+02  0.10503021946E+03  0.50000000000E+02 0.  0.
<mgrwt>
<rscale>  0 0.54167335E+02</rscale>
<asrwt>0</asrwt>
<pdfrwt beam="1">  1       13 0.10000000E+01 0.54167335E+02</pdfrwt>
<pdfrwt beam="2">  1       22 0.51064318E+00 0.54167335E+02</pdfrwt>
<totfact> 0.69584894E-02</totfact>
</mgrwt>
</event>
<event>
 4    1  0.2471347E+000  0.6093961E+02  0.7957747E-01  0.1393930E+00
         13   -1    0    0    0    0  0.00000000000E+00  0.00000000000E+00  0.99999944175E+02  0.99999999996E+02  0.10566000000E+00 0. -1.
         22   -1    0    0    0    0 -0.00000000000E+00 -0.00000000000E+00 -0.26981883892E+02  0.26981883892E+02  0.00000000000E+00 0.  1.
         13    1    1    2    0    0  0.21873439983E+02  0.27114370229E+02  0.42466771291E+01  0.35095325619E+02  0.10566000000E+00 0.  1.
        996    1    1    2    0    0 -0.21873439983E+02 -0.27114370229E+02  0.68771383154E+02  0.91886558269E+02  0.50000000000E+02 0.  0.
<mgrwt>
<rscale>  0 0.60939613E+02</rscale>
<asrwt>0</asrwt>
<pdfrwt beam="1">  1       13 0.10000000E+01 0.60939613E+02</pdfrwt>
<pdfrwt beam="2">  1       22 0.26981904E+00 0.60939613E+02</pdfrwt>
<totfact> 0.25684678E-01</totfact>
</mgrwt>
</event>
<event>
 4    1  0.2471347E+000  0.5338091E+02  0.7957747E-01  0.1427915E+00
         13   -1    0    0    0    0  0.00000000000E+00  0.00000000000E+00  0.99999944168E+02  0.99999999988E+02  0.10566000000E+00 0.  1.
         22   -1    0    0    0    0 -0.00000000000E+00 -0.00000000000E+00 -0.44714291113E+02  0.44714291113E+02  0.00000000000E+00 0. -1.
         13    1    1    2    0    0 -0.14583365026E+02 -0.11698165553E+02 -0.35084992074E+02  0.39755370023E+02  0.10566000000E+00 0. -1.
        996    1    1    2    0    0  0.14583365026E+02  0.11698165553E+02  0.90370645129E+02  0.10495892108E+03  0.50000000000E+02 0.  0.
<mgrwt>
<rscale>  0 0.53380911E+02</rscale>
<asrwt>0</asrwt>
<pdfrwt beam="1">  1       13 0.10000000E+01 0.53380911E+02</pdfrwt>
<pdfrwt beam="2">  1       22 0.44714307E+00 0.53380911E+02</pdfrwt>
<totfact> 0.98141860E-02</totfact>
</mgrwt>
</event>
<event>
 4    1  0.2471347E+000  0.5112000E+02  0.7957747E-01  0.1439393E+00
         13   -1    0    0    0    0  0.00000000000E+00  0.00000000000E+00  0.99999944179E+02  0.10000000000E+03  0.10566000000E+00 0. -1.
         22   -1    0    0    0    0 -0.00000000000E+00 -0.00000000000E+00 -0.95966832855E+01  0.95966832855E+01  0.00000000000E+00 0. -1.
         13    1    1    2    0    0  0.88962468055E+01  0.58404472840E+01  0.12478770945E+02  0.16400759740E+02  0.10566000000E+00 0.  1.
        996    1    1    2    0    0 -0.88962468055E+01 -0.58404472840E+01  0.77924489949E+02  0.93195923545E+02  0.50000000000E+02 0.  0.
<mgrwt>
<rscale>  0 0.51119996E+02</rscale>
<asrwt>0</asrwt>
<pdfrwt beam="1">  1       13 0.10000000E+01 0.51119996E+02</pdfrwt>
<pdfrwt beam="2">  1       22 0.95967085E-01 0.51119996E+02</pdfrwt>
<totfact> 0.14927131E+00</totfact>
</mgrwt>
</event>
<event>
 4    1  0.2471347E+000  0.5132792E+02  0.7957747E-01  0.1438308E+00
         13   -1    0    0    0    0  0.00000000000E+00  0.00000000000E+00  0.99999944175E+02  0.99999999995E+02  0.10566000000E+00 0. -1.
         22   -1    0    0    0    0 -0.00000000000E+00 -0.00000000000E+00 -0.10538413154E+02  0.10538413154E+02  0.00000000000E+00 0.  1.
         13    1    1    2    0    0 -0.54975930484E+01  0.10214316507E+02  0.74420584167E+01  0.13782278061E+02  0.10566000000E+00 0.  1.
        996    1    1    2    0    0  0.54975930484E+01 -0.10214316507E+02  0.82019472604E+02  0.96756135088E+02  0.50000000000E+02 0.  0.
<mgrwt>
<rscale>  0 0.51327924E+02</rscale>
<asrwt>0</asrwt>
<pdfrwt beam="1">  1       13 0.10000000E+01 0.51327924E+02</pdfrwt>
<pdfrwt beam="2">  1       22 0.10538438E+00 0.51327924E+02</pdfrwt>
<totfact> 0.13038636E+00</totfact>
</mgrwt>
</event>
<event>
 4    1  0.2471347E+000  0.5360643E+02  0.7957747E-01  0.1426806E+00
         13   -1    0    0    0    0  0.00000000000E+00  0.00000000000E+00  0.99999944174E+02  0.99999999994E+02  0.10566000000E+00 0. -1.
         22   -1    0    0    0    0 -0.00000000000E+00 -0.00000000000E+00 -0.29641160450E+02  0.29641160450E+02  0.00000000000E+00 0. -1.
         13    1    1    2    0    0 -0.19003806212E+02 -0.35361585960E+01 -0.17921426209E+02  0.26359775219E+02  0.10566000000E+00 0.  1.
        996    1    1    2    0    0  0.19003806212E+02  0.35361585960E+01  0.88280209934E+02  0.10328138523E+03  0.50000000000E+02 0.  0.
<mgrwt>
<rscale>  0 0.53606427E+02</rscale>
<asrwt>0</asrwt>
<pdfrwt beam="1">  1       13 0.10000000E+01 0.53606427E+02</pdfrwt>
<pdfrwt beam="2">  1       22 0.29641180E+00 0.53606427E+02</pdfrwt>
<totfact> 0.21220856E-01</totfact>
</mgrwt>
</event>
<event>
 4    1  0.2471347E+000  0.5102707E+02  0.7957747E-01  0.1439879E+00
         13   -1    0    0    0    0  0.00000000000E+00  0.00000000000E+00  0.99999944174E+02  0.99999999995E+02  0.10566000000E+00 0.  1.
         22   -1    0    0    0    0 -0.00000000000E+00 -0.00000000000E+00 -0.11561582294E+02  0.11561582294E+02  0.00000000000E+00 0.  1.
         13    1    1    2    0    0 -0.35249062453E+01  0.95570285011E+01  0.88693436895E+00  0.10225437615E+02  0.10566000000E+00 0. -1.
        996    1    1    2    0    0  0.35249062453E+01 -0.95570285011E+01  0.87551427512E+02  0.10133614467E+03  0.50000000000E+02 0.  0.
<mgrwt>
<rscale>  0 0.51027069E+02</rscale>
<asrwt>0</asrwt>
<pdfrwt beam="1">  1       13 0.10000000E+01 0.51027069E+02</pdfrwt>
<pdfrwt beam="2">  1       22 0.11561607E+00 0.51027069E+02</pdfrwt>
<totfact> 0.11350181E+00</totfact>
</mgrwt>
</event>
<event>
 4    1  0.2471347E+000  0.5261524E+02  0.7957747E-01  0.1431725E+00
         13   -1    0    0    0    0  0.00000000000E+00  0.00000000000E+00  0.99999944176E+02  0.99999999996E+02  0.10566000000E+00 0.  1.
         22   -1    0    0    0    0 -0.00000000000E+00 -0.00000000000E+00 -0.13792951435E+02  0.13792951435E+02  0.00000000000E+00 0.  1.
         13    1    1    2    0    0 -0.16321635296E+02 -0.14027643432E+01  0.41964432374E+02  0.45048732225E+02  0.10566000000E+00 0. -1.
        996    1    1    2    0    0  0.16321635296E+02  0.14027643432E+01  0.44242560367E+02  0.68744219207E+02  0.50000000000E+02 0.  0.
<mgrwt>
<rscale>  0 0.52615240E+02</rscale>
<asrwt>0</asrwt>
<pdfrwt beam="1">  1       13 0.10000000E+01 0.52615240E+02</pdfrwt>
<pdfrwt beam="2">  1       22 0.13792976E+00 0.52615240E+02</pdfrwt>
<totfact> 0.86494422E-01</totfact>
</mgrwt>
</event>
<event>
 4    1  0.2471347E+000  0.6401424E+02  0.7957747E-01  0.1381718E+00
         13   -1    0    0    0    0  0.00000000000E+00  0.00000000000E+00  0.99999944183E+02  0.10000000000E+03  0.10566000000E+00 0.  1.
         22   -1    0    0    0    0 -0.00000000000E+00 -0.00000000000E+00 -0.36722062382E+02  0.36722062382E+02  0.00000000000E+00 0.  1.
         13    1    1    2    0    0 -0.37822216953E+02 -0.12934565691E+02 -0.81620171486E+01  0.40797705484E+02  0.10566000000E+00 0. -1.
        996    1    1    2    0    0  0.37822216953E+02  0.12934565691E+02  0.71439898950E+02  0.95924356901E+02  0.50000000000E+02 0.  0.
<mgrwt>
<rscale>  0 0.64014241E+02</rscale>
<asrwt>0</asrwt>
<pdfrwt beam="1">  1       13 0.10000000E+01 0.64014241E+02</pdfrwt>
<pdfrwt beam="2">  1       22 0.36722080E+00 0.64014241E+02</pdfrwt>
<totfact> 0.14595440E-01</totfact>
</mgrwt>
</event>
<event>
 4    1  0.2471347E+000  0.5115971E+02  0.7957747E-01  0.1439185E+00
         13   -1    0    0    0    0  0.00000000000E+00  0.00000000000E+00  0.99999944179E+02  0.99999999999E+02  0.10566000000E+00 0.  1.
         22   -1    0    0    0    0 -0.00000000000E+00 -0.00000000000E+00 -0.12830396310E+02  0.12830396310E+02  0.00000000000E+00 0.  1.
         13    1    1    2    0    0  0.30808193834E+01 -0.10383864311E+02  0.45723479765E+02  0.46988975855E+02  0.10566000000E+00 0. -1.
        996    1    1    2    0    0 -0.30808193834E+01  0.10383864311E+02  0.41446068104E+02  0.65841420454E+02  0.50000000000E+02 0.  0.
<mgrwt>
<rscale>  0 0.51159712E+02</rscale>
<asrwt>0</asrwt>
<pdfrwt beam="1">  1       13 0.10000000E+01 0.51159712E+02</pdfrwt>
<pdfrwt beam="2">  1       22 0.12830421E+00 0.51159712E+02</pdfrwt>
<totfact> 0.96727576E-01</totfact>
</mgrwt>
</event>
<event>
 4    1  0.2471347E+000  0.6930147E+02  0.7957747E-01  0.1362485E+00
         13   -1    0    0    0    0  0.00000000000E+00  0.00000000000E+00  0.99999944189E+02  0.10000000001E+03  0.10566000000E+00 0. -1.
         22   -1    0    0    0    0 -0.00000000000E+00 -0.00000000000E+00 -0.69389560872E+02  0.69389560872E+02  0.00000000000E+00 0.  1.
         13    1    1    2    0    0 -0.24289712296E+02  0.41384822414E+02 -0.45728761958E+02  0.66285929758E+02  0.10566000000E+00 0.  1.
        996    1    1    2    0    0  0.24289712296E+02 -0.41384822414E+02  0.76339145275E+02  0.10310363112E+03  0.50000000000E+02 0.  0.
<mgrwt>
<rscale>  0 0.69301469E+02</rscale>
<asrwt>0</asrwt>
<pdfrwt beam="1">  1       13 0.10000000E+01 0.69301469E+02</pdfrwt>
<pdfrwt beam="2">  1       22 0.69389569E+00 0.69301469E+02</pdfrwt>
<totfact> 0.77643727E-02</totfact>
</mgrwt>
</event>
<event>
 4    1  0.2471347E+000  0.5487070E+02  0.7957747E-01  0.1420711E+00
         13   -1    0    0    0    0  0.00000000000E+00  0.00000000000E+00  0.99999944180E+02  0.10000000000E+03  0.10566000000E+00 0.  1.
         22   -1    0    0    0    0 -0.00000000000E+00 -0.00000000000E+00 -0.15239563411E+02  0.15239563411E+02  0.00000000000E+00 0.  1.
         13    1    1    2    0    0  0.20084379843E+02  0.10363937674E+02  0.18485013810E+02  0.29197609789E+02  0.10566000000E+00 0. -1.
        996    1    1    2    0    0 -0.20084379843E+02 -0.10363937674E+02  0.66275366958E+02  0.86041953623E+02  0.50000000000E+02 0.  0.
<mgrwt>
<rscale>  0 0.54870698E+02</rscale>
<asrwt>0</asrwt>
<pdfrwt beam="1">  1       13 0.10000000E+01 0.54870698E+02</pdfrwt>
<pdfrwt beam="2">  1       22 0.15239587E+00 0.54870698E+02</pdfrwt>
<totfact> 0.73742038E-01</totfact>
</mgrwt>
</event>
<event>
 4    1  0.2471347E+000  0.5113164E+02  0.7957747E-01  0.1439332E+00
         13   -1    0    0    0    0  0.00000000000E+00  0.00000000000E+00  0.99999944173E+02  0.99999999993E+02  0.10566000000E+00 0. -1.
         22   -1    0    0    0    0 -0.00000000000E+00 -0.00000000000E+00 -0.31803289143E+02  0.31803289143E+02  0.00000000000E+00 0.  1.
         13    1    1    2    0    0 -0.66785862152E+01 -0.83570697271E+01 -0.24056288558E+02  0.26327937851E+02  0.10566000000E+00 0.  1.
        996    1    1    2    0    0  0.66785862152E+01  0.83570697271E+01  0.92252943588E+02  0.10547535129E+03  0.50000000000E+02 0.  0.
<mgrwt>
<rscale>  0 0.51131635E+02</rscale>
<asrwt>0</asrwt>
<pdfrwt beam="1">  1       13 0.10000000E+01 0.51131635E+02</pdfrwt>
<pdfrwt beam="2">  1       22 0.31803308E+00 0.51131635E+02</pdfrwt>
<totfact> 0.18583193E-01</totfact>
</mgrwt>
</event>
<event>
 4    1  0.2471347E+000  0.5153550E+02  0.7957747E-01  0.1437231E+00
         13   -1    0    0    0    0  0.00000000000E+00  0.00000000000E+00  0.99999944183E+02  0.10000000000E+03  0.10566000000E+00 0.  1.
         22   -1    0    0    0    0 -0.00000000000E+00 -0.00000000000E+00 -0.10250909430E+02  0.10250909430E+02  0.00000000000E+00 0.  1.
         13    1    1    2    0    0  0.99063079221E+01  0.76008400741E+01  0.16671886116E+02  0.20829562098E+02  0.10566000000E+00 0. -1.
        996    1    1    2    0    0 -0.99063079221E+01 -0.76008400741E+01  0.73077148637E+02  0.89421347336E+02  0.50000000000E+02 0.  0.
<mgrwt>
<rscale>  0 0.51535499E+02</rscale>
<asrwt>0</asrwt>
<pdfrwt beam="1">  1       13 0.10000000E+01 0.51535499E+02</pdfrwt>
<pdfrwt beam="2">  1       22 0.10250934E+00 0.51535499E+02</pdfrwt>
<totfact> 0.13583998E+00</totfact>
</mgrwt>
</event>
<event>
 4    1  0.2471347E+000  0.5396020E+02  0.7957747E-01  0.1425081E+00
         13   -1    0    0    0    0  0.00000000000E+00  0.00000000000E+00  0.99999944174E+02  0.99999999994E+02  0.10566000000E+00 0. -1.
         22   -1    0    0    0    0 -0.00000000000E+00 -0.00000000000E+00 -0.13794874848E+02  0.13794874848E+02  0.00000000000E+00 0. -1.
         13    1    1    2    0    0  0.24535641649E+00 -0.20288989739E+02  0.22085345111E+02  0.29991281018E+02  0.10566000000E+00 0.  1.
        996    1    1    2    0    0 -0.24535641649E+00  0.20288989739E+02  0.64119724215E+02  0.83803593824E+02  0.50000000000E+02 0.  0.
<mgrwt>
<rscale>  0 0.53960201E+02</rscale>
<asrwt>0</asrwt>
<pdfrwt beam="1">  1       13 0.10000000E+01 0.53960201E+02</pdfrwt>
<pdfrwt beam="2">  1       22 0.13794899E+00 0.53960201E+02</pdfrwt>
<totfact> 0.86714821E-01</totfact>
</mgrwt>
</event>
<event>
 4    1  0.2471347E+000  0.5136730E+02  0.7957747E-01  0.1438103E+00
         13   -1    0    0    0    0  0.00000000000E+00  0.00000000000E+00  0.99999944182E+02  0.10000000000E+03  0.10566000000E+00 0. -1.
         22   -1    0    0    0    0 -0.00000000000E+00 -0.00000000000E+00 -0.15213728800E+02  0.15213728800E+02  0.00000000000E+00 0.  1.
         13    1    1    2    0    0  0.49935314837E+01  0.10661318848E+02 -0.41714807125E+01  0.12490456022E+02  0.10566000000E+00 0.  1.
        996    1    1    2    0    0 -0.49935314837E+01 -0.10661318848E+02  0.88957696094E+02  0.10272327278E+03  0.50000000000E+02 0.  0.
<mgrwt>
<rscale>  0 0.51367296E+02</rscale>
<asrwt>0</asrwt>
<pdfrwt beam="1">  1       13 0.10000000E+01 0.51367296E+02</pdfrwt>
<pdfrwt beam="2">  1       22 0.15213752E+00 0.51367296E+02</pdfrwt>
<totfact> 0.73439503E-01</totfact>
</mgrwt>
</event>
<event>
 4    1  0.2471347E+000  0.5278509E+02  0.7957747E-01  0.1430873E+00
         13   -1    0    0    0    0  0.00000000000E+00  0.00000000000E+00  0.99999944183E+02  0.10000000000E+03  0.10566000000E+00 0.  1.
         22   -1    0    0    0    0 -0.00000000000E+00 -0.00000000000E+00 -0.12178849708E+02  0.12178849708E+02  0.00000000000E+00 0.  1.
         13    1    1    2    0    0 -0.12087328328E+02 -0.11839022616E+02  0.18911148620E+02  0.25375355540E+02  0.10566000000E+00 0. -1.
        996    1    1    2    0    0  0.12087328328E+02  0.11839022616E+02  0.68909945856E+02  0.86803494172E+02  0.50000000000E+02 0.  0.
<mgrwt>
<rscale>  0 0.52785092E+02</rscale>
<asrwt>0</asrwt>
<pdfrwt beam="1">  1       13 0.10000000E+01 0.52785092E+02</pdfrwt>
<pdfrwt beam="2">  1       22 0.12178874E+00 0.52785092E+02</pdfrwt>
<totfact> 0.10526129E+00</totfact>
</mgrwt>
</event>
<event>
 4    1  0.2471347E+000  0.5588687E+02  0.7957747E-01  0.1415951E+00
         13   -1    0    0    0    0  0.00000000000E+00  0.00000000000E+00  0.99999944173E+02  0.99999999994E+02  0.10566000000E+00 0.  1.
         22   -1    0    0    0    0 -0.00000000000E+00 -0.00000000000E+00 -0.17490264574E+02  0.17490264574E+02  0.00000000000E+00 0.  1.
         13    1    1    2    0    0 -0.17828561588E+02  0.17478121962E+02  0.12535386824E+02  0.27937241139E+02  0.10566000000E+00 0. -1.
        996    1    1    2    0    0  0.17828561588E+02 -0.17478121962E+02  0.69974292776E+02  0.89553023428E+02  0.50000000000E+02 0.  0.
<mgrwt>
<rscale>  0 0.55886871E+02</rscale>
<asrwt>0</asrwt>
<pdfrwt beam="1">  1       13 0.10000000E+01 0.55886871E+02</pdfrwt>
<pdfrwt beam="2">  1       22 0.17490288E+00 0.55886871E+02</pdfrwt>
<totfact> 0.58242192E-01</totfact>
</mgrwt>
</event>
<event>
 4    1  0.2471347E+000  0.5123096E+02  0.7957747E-01  0.1438813E+00
         13   -1    0    0    0    0  0.00000000000E+00  0.00000000000E+00  0.99999944176E+02  0.99999999996E+02  0.10566000000E+00 0.  1.
         22   -1    0    0    0    0 -0.00000000000E+00 -0.00000000000E+00 -0.98665025508E+01  0.98665025508E+01  0.00000000000E+00 0.  1.
         13    1    1    2    0    0 -0.96944635189E+01 -0.55342854368E+01  0.21447654303E+02  0.24178998684E+02  0.10566000000E+00 0. -1.
        996    1    1    2    0    0  0.96944635189E+01  0.55342854368E+01  0.68685787322E+02  0.85687503863E+02  0.50000000000E+02 0.  0.
<mgrwt>
<rscale>  0 0.51230957E+02</rscale>
<asrwt>0</asrwt>
<pdfrwt beam="1">  1       13 0.10000000E+01 0.51230957E+02</pdfrwt>
<pdfrwt beam="2">  1       22 0.98665277E-01 0.51230957E+02</pdfrwt>
<totfact> 0.14347712E+00</totfact>
</mgrwt>
</event>
<event>
 4    1  0.2471347E+000  0.5211660E+02  0.7957747E-01  0.1434248E+00
         13   -1    0    0    0    0  0.00000000000E+00  0.00000000000E+00  0.99999944187E+02  0.10000000001E+03  0.10566000000E+00 0.  1.
         22   -1    0    0    0    0 -0.00000000000E+00 -0.00000000000E+00 -0.33289870505E+02  0.33289870505E+02  0.00000000000E+00 0. -1.
         13    1    1    2    0    0  0.22058720426E+01 -0.14535289455E+02 -0.24307217658E+02  0.28407613510E+02  0.10566000000E+00 0. -1.
        996    1    1    2    0    0 -0.22058720426E+01  0.14535289455E+02  0.91017291340E+02  0.10488225700E+03  0.50000000000E+02 0.  0.
<mgrwt>
<rscale>  0 0.52116605E+02</rscale>
<asrwt>0</asrwt>
<pdfrwt beam="1">  1       13 0.10000000E+01 0.52116605E+02</pdfrwt>
<pdfrwt beam="2">  1       22 0.33289889E+00 0.52116605E+02</pdfrwt>
<totfact> 0.17154805E-01</totfact>
</mgrwt>
</event>
<event>
 4    1  0.2471347E+000  0.5306362E+02  0.7957747E-01  0.1429484E+00
         13   -1    0    0    0    0  0.00000000000E+00  0.00000000000E+00  0.99999944174E+02  0.99999999994E+02  0.10566000000E+00 0.  1.
         22   -1    0    0    0    0 -0.00000000000E+00 -0.00000000000E+00 -0.13455048521E+02  0.13455048521E+02  0.00000000000E+00 0.  1.
         13    1    1    2    0    0  0.17350331415E+02  0.38358986006E+01  0.10226755532E+02  0.20502336721E+02  0.10566000000E+00 0. -1.
        996    1    1    2    0    0 -0.17350331415E+02 -0.38358986006E+01  0.76318140121E+02  0.92952711794E+02  0.50000000000E+02 0.  0.
<mgrwt>
<rscale>  0 0.53063623E+02</rscale>
<asrwt>0</asrwt>
<pdfrwt beam="1">  1       13 0.10000000E+01 0.53063623E+02</pdfrwt>
<pdfrwt beam="2">  1       22 0.13455073E+00 0.53063623E+02</pdfrwt>
<totfact> 0.90089365E-01</totfact>
</mgrwt>
</event>
<event>
 4    1  0.2471347E+000  0.5254000E+02  0.7957747E-01  0.1432104E+00
         13   -1    0    0    0    0  0.00000000000E+00  0.00000000000E+00  0.99999944171E+02  0.99999999991E+02  0.10566000000E+00 0. -1.
         22   -1    0    0    0    0 -0.00000000000E+00 -0.00000000000E+00 -0.13649679986E+02  0.13649679986E+02  0.00000000000E+00 0.  1.
         13    1    1    2    0    0  0.11274363066E+02  0.11547309444E+02  0.51625197092E+01  0.16944450175E+02  0.10566000000E+00 0.  1.
        996    1    1    2    0    0 -0.11274363066E+02 -0.11547309444E+02  0.81187744476E+02  0.96705229802E+02  0.50000000000E+02 0.  0.
<mgrwt>
<rscale>  0 0.52540000E+02</rscale>
<asrwt>0</asrwt>
<pdfrwt beam="1">  1       13 0.10000000E+01 0.52540000E+02</pdfrwt>
<pdfrwt beam="2">  1       22 0.13649704E+00 0.52540000E+02</pdfrwt>
<totfact> 0.87945572E-01</totfact>
</mgrwt>
</event>
<event>
 4    1  0.2471347E+000  0.5187410E+02  0.7957747E-01  0.1435488E+00
         13   -1    0    0    0    0  0.00000000000E+00  0.00000000000E+00  0.99999944184E+02  0.10000000000E+03  0.10566000000E+00 0. -1.
         22   -1    0    0    0    0 -0.00000000000E+00 -0.00000000000E+00 -0.16521860292E+02  0.16521860292E+02  0.00000000000E+00 0. -1.
         13    1    1    2    0    0 -0.88059375234E+01 -0.10647873312E+02 -0.43775949004E+01  0.14494697060E+02  0.10566000000E+00 0.  1.
        996    1    1    2    0    0  0.88059375234E+01  0.10647873312E+02  0.87855678793E+02  0.10202716324E+03  0.50000000000E+02 0.  0.
<mgrwt>
<rscale>  0 0.51874095E+02</rscale>
<asrwt>0</asrwt>
<pdfrwt beam="1">  1       13 0.10000000E+01 0.51874095E+02</pdfrwt>
<pdfrwt beam="2">  1       22 0.16521884E+00 0.51874095E+02</pdfrwt>
<totfact> 0.63880701E-01</totfact>
</mgrwt>
</event>
<event>
 4    1  0.2471347E+000  0.5377823E+02  0.7957747E-01  0.1425967E+00
         13   -1    0    0    0    0  0.00000000000E+00  0.00000000000E+00  0.99999944179E+02  0.99999999999E+02  0.10566000000E+00 0.  1.
         22   -1    0    0    0    0 -0.00000000000E+00 -0.00000000000E+00 -0.13692069946E+02  0.13692069946E+02  0.00000000000E+00 0.  1.
         13    1    1    2    0    0 -0.17568405103E+02  0.91350670128E+01  0.18046923064E+02  0.26791806645E+02  0.10566000000E+00 0. -1.
        996    1    1    2    0    0  0.17568405103E+02 -0.91350670128E+01  0.68260951169E+02  0.86900263300E+02  0.50000000000E+02 0.  0.
<mgrwt>
<rscale>  0 0.53778233E+02</rscale>
<asrwt>0</asrwt>
<pdfrwt beam="1">  1       13 0.10000000E+01 0.53778233E+02</pdfrwt>
<pdfrwt beam="2">  1       22 0.13692094E+00 0.53778233E+02</pdfrwt>
<totfact> 0.87733414E-01</totfact>
</mgrwt>
</event>
<event>
 4    1  0.2471347E+000  0.5415532E+02  0.7957747E-01  0.1424136E+00
         13   -1    0    0    0    0  0.00000000000E+00  0.00000000000E+00  0.99999944183E+02  0.10000000000E+03  0.10566000000E+00 0. -1.
         22   -1    0    0    0    0 -0.00000000000E+00 -0.00000000000E+00 -0.33968097590E+02  0.33968097590E+02  0.00000000000E+00 0.  1.
         13    1    1    2    0    0 -0.19937924841E+02 -0.59394820482E+01 -0.22211056655E+02  0.30432556510E+02  0.10566000000E+00 0.  1.
        996    1    1    2    0    0  0.19937924841E+02  0.59394820482E+01  0.88242903248E+02  0.10353554108E+03  0.50000000000E+02 0.  0.
<mgrwt>
<rscale>  0 0.54155316E+02</rscale>
<asrwt>0</asrwt>
<pdfrwt beam="1">  1       13 0.10000000E+01 0.54155316E+02</pdfrwt>
<pdfrwt beam="2">  1       22 0.33968116E+00 0.54155316E+02</pdfrwt>
<totfact> 0.16595125E-01</totfact>
</mgrwt>
</event>
<event>
 4    1  0.2471347E+000  0.5197728E+02  0.7957747E-01  0.1434959E+00
         13   -1    0    0    0    0  0.00000000000E+00  0.00000000000E+00  0.99999944178E+02  0.99999999998E+02  0.10566000000E+00 0.  1.
         22   -1    0    0    0    0 -0.00000000000E+00 -0.00000000000E+00 -0.13909190324E+02  0.13909190324E+02  0.00000000000E+00 0.  1.
         13    1    1    2    0    0 -0.10454472490E+02  0.96094628114E+01  0.10463769738E+01  0.14238814535E+02  0.10566000000E+00 0. -1.
        996    1    1    2    0    0  0.10454472490E+02 -0.96094628114E+01  0.85044376880E+02  0.99670375787E+02  0.50000000000E+02 0.  0.
<mgrwt>
<rscale>  0 0.51977281E+02</rscale>
<asrwt>0</asrwt>
<pdfrwt beam="1">  1       13 0.10000000E+01 0.51977281E+02</pdfrwt>
<pdfrwt beam="2">  1       22 0.13909214E+00 0.51977281E+02</pdfrwt>
<totfact> 0.85216411E-01</totfact>
</mgrwt>
</event>
<event>
 4    1  0.2471347E+000  0.5170558E+02  0.7957747E-01  0.1436353E+00
         13   -1    0    0    0    0  0.00000000000E+00  0.00000000000E+00  0.99999944176E+02  0.99999999997E+02  0.10566000000E+00 0.  1.
         22   -1    0    0    0    0 -0.00000000000E+00 -0.00000000000E+00 -0.11618080414E+02  0.11618080414E+02  0.00000000000E+00 0.  1.
         13    1    1    2    0    0  0.12414015575E+02  0.43998556365E+01  0.34556086045E+02  0.36981086505E+02  0.10566000000E+00 0. -1.
        996    1    1    2    0    0 -0.12414015575E+02 -0.43998556365E+01  0.53825777718E+02  0.74636993906E+02  0.50000000000E+02 0.  0.
<mgrwt>
<rscale>  0 0.51705575E+02</rscale>
<asrwt>0</asrwt>
<pdfrwt beam="1">  1       13 0.10000000E+01 0.51705575E+02</pdfrwt>
<pdfrwt beam="2">  1       22 0.11618105E+00 0.51705575E+02</pdfrwt>
<totfact> 0.11284399E+00</totfact>
</mgrwt>
</event>
<event>
 4    1  0.2471347E+000  0.5127565E+02  0.7957747E-01  0.1438580E+00
         13   -1    0    0    0    0  0.00000000000E+00  0.00000000000E+00  0.99999944173E+02  0.99999999993E+02  0.10566000000E+00 0.  1.
         22   -1    0    0    0    0 -0.00000000000E+00 -0.00000000000E+00 -0.10129943867E+02  0.10129943867E+02  0.00000000000E+00 0.  1.
         13    1    1    2    0    0  0.10836179806E+02 -0.34306783971E+01  0.95890548166E+01  0.14871230056E+02  0.10566000000E+00 0. -1.
        996    1    1    2    0    0 -0.10836179806E+02  0.34306783971E+01  0.80280945489E+02  0.95258713805E+02  0.50000000000E+02 0.  0.
<mgrwt>
<rscale>  0 0.51275651E+02</rscale>
<asrwt>0</asrwt>
<pdfrwt beam="1">  1       13 0.10000000E+01 0.51275651E+02</pdfrwt>
<pdfrwt beam="2">  1       22 0.10129969E+00 0.51275651E+02</pdfrwt>
<totfact> 0.13812096E+00</totfact>
</mgrwt>
</event>
<event>
 4    1  0.2471347E+000  0.5486248E+02  0.7957747E-01  0.1420750E+00
         13   -1    0    0    0    0  0.00000000000E+00  0.00000000000E+00  0.99999944179E+02  0.99999999999E+02  0.10566000000E+00 0.  1.
         22   -1    0    0    0    0 -0.00000000000E+00 -0.00000000000E+00 -0.37928904831E+02  0.37928904831E+02  0.00000000000E+00 0. -1.
         13    1    1    2    0    0  0.22562499852E+02  0.90837518175E+00 -0.25831953861E+02  0.34310239716E+02  0.10566000000E+00 0. -1.
        996    1    1    2    0    0 -0.22562499852E+02 -0.90837518175E+00  0.87902993208E+02  0.10361866511E+03  0.50000000000E+02 0.  0.
<mgrwt>
<rscale>  0 0.54862478E+02</rscale>
<asrwt>0</asrwt>
<pdfrwt beam="1">  1       13 0.10000000E+01 0.54862478E+02</pdfrwt>
<pdfrwt beam="2">  1       22 0.37928922E+00 0.54862478E+02</pdfrwt>
<totfact> 0.13674073E-01</totfact>
</mgrwt>
</event>
<event>
 4    1  0.2471347E+000  0.5253926E+02  0.7957747E-01  0.1432108E+00
         13   -1    0    0    0    0  0.00000000000E+00  0.00000000000E+00  0.99999944173E+02  0.99999999993E+02  0.10566000000E+00 0.  1.
         22   -1    0    0    0    0 -0.00000000000E+00 -0.00000000000E+00 -0.14691259882E+02  0.14691259882E+02  0.00000000000E+00 0. -1.
         13    1    1    2    0    0  0.69408373771E+01  0.14567036170E+02  0.20844864671E+01  0.16270525933E+02  0.10566000000E+00 0. -1.
        996    1    1    2    0    0 -0.69408373771E+01 -0.14567036170E+02  0.83224197824E+02  0.98420733942E+02  0.50000000000E+02 0.  0.
<mgrwt>
<rscale>  0 0.52539259E+02</rscale>
<asrwt>0</asrwt>
<pdfrwt beam="1">  1       13 0.10000000E+01 0.52539259E+02</pdfrwt>
<pdfrwt beam="2">  1       22 0.14691284E+00 0.52539259E+02</pdfrwt>
<totfact> 0.78020527E-01</totfact>
</mgrwt>
</event>
<event>
 4    1  0.2471347E+000  0.5109741E+02  0.7957747E-01  0.1439511E+00
         13   -1    0    0    0    0  0.00000000000E+00  0.00000000000E+00  0.99999944177E+02  0.99999999997E+02  0.10566000000E+00 0.  1.
         22   -1    0    0    0    0 -0.00000000000E+00 -0.00000000000E+00 -0.11315010658E+02  0.11315010658E+02  0.00000000000E+00 0.  1.
         13    1    1    2    0    0  0.18380925919E+01  0.10371431798E+02  0.20459647805E+01  0.10730438846E+02  0.10566000000E+00 0. -1.
        996    1    1    2    0    0 -0.18380925919E+01 -0.10371431798E+02  0.86638968738E+02  0.10058457181E+03  0.50000000000E+02 0.  0.
<mgrwt>
<rscale>  0 0.51097409E+02</rscale>
<asrwt>0</asrwt>
<pdfrwt beam="1">  1       13 0.10000000E+01 0.51097409E+02</pdfrwt>
<pdfrwt beam="2">  1       22 0.11315035E+00 0.51097409E+02</pdfrwt>
<totfact> 0.11726397E+00</totfact>
</mgrwt>
</event>
<event>
 4    1  0.2471347E+000  0.5192528E+02  0.7957747E-01  0.1435225E+00
         13   -1    0    0    0    0  0.00000000000E+00  0.00000000000E+00  0.99999944180E+02  0.10000000000E+03  0.10566000000E+00 0.  1.
         22   -1    0    0    0    0 -0.00000000000E+00 -0.00000000000E+00 -0.15713462428E+02  0.15713462428E+02  0.00000000000E+00 0. -1.
         13    1    1    2    0    0 -0.13563910264E+02 -0.35007228841E+01 -0.28339308615E+01  0.14292552275E+02  0.10566000000E+00 0. -1.
        996    1    1    2    0    0  0.13563910264E+02  0.35007228841E+01  0.87120412614E+02  0.10142091015E+03  0.50000000000E+02 0.  0.
<mgrwt>
<rscale>  0 0.51925280E+02</rscale>
<asrwt>0</asrwt>
<pdfrwt beam="1">  1       13 0.10000000E+01 0.51925280E+02</pdfrwt>
<pdfrwt beam="2">  1       22 0.15713486E+00 0.51925280E+02</pdfrwt>
<totfact> 0.69625061E-01</totfact>
</mgrwt>
</event>
<event>
 4    1  0.2471347E+000  0.5307367E+02  0.7957747E-01  0.1429435E+00
         13   -1    0    0    0    0  0.00000000000E+00  0.00000000000E+00  0.99999944182E+02  0.10000000000E+03  0.10566000000E+00 0.  1.
         22   -1    0    0    0    0 -0.00000000000E+00 -0.00000000000E+00 -0.21526319207E+02  0.21526319207E+02  0.00000000000E+00 0. -1.
         13    1    1    2    0    0 -0.10318095818E+02  0.14503494859E+02 -0.84322068962E+01  0.19695881336E+02  0.10566000000E+00 0. -1.
        996    1    1    2    0    0  0.10318095818E+02 -0.14503494859E+02  0.86905831871E+02  0.10183043787E+03  0.50000000000E+02 0.  0.
<mgrwt>
<rscale>  0 0.53073670E+02</rscale>
<asrwt>0</asrwt>
<pdfrwt beam="1">  1       13 0.10000000E+01 0.53073670E+02</pdfrwt>
<pdfrwt beam="2">  1       22 0.21526341E+00 0.53073670E+02</pdfrwt>
<totfact> 0.39504659E-01</totfact>
</mgrwt>
</event>
<event>
 4    1  0.2471347E+000  0.5336994E+02  0.7957747E-01  0.1427969E+00
         13   -1    0    0    0    0  0.00000000000E+00  0.00000000000E+00  0.99999944175E+02  0.99999999995E+02  0.10566000000E+00 0. -1.
         22   -1    0    0    0    0 -0.00000000000E+00 -0.00000000000E+00 -0.45971702883E+02  0.45971702883E+02  0.00000000000E+00 0.  1.
         13    1    1    2    0    0 -0.15301294417E+02  0.10687413100E+02 -0.36435696241E+02  0.40938020644E+02  0.10566000000E+00 0.  1.
        996    1    1    2    0    0  0.15301294417E+02 -0.10687413100E+02  0.90463937533E+02  0.10503368223E+03  0.50000000000E+02 0.  0.
<mgrwt>
<rscale>  0 0.53369939E+02</rscale>
<asrwt>0</asrwt>
<pdfrwt beam="1">  1       13 0.10000000E+01 0.53369939E+02</pdfrwt>
<pdfrwt beam="2">  1       22 0.45971718E+00 0.53369939E+02</pdfrwt>
<totfact> 0.91878738E-02</totfact>
</mgrwt>
</event>
<event>
 4    1  0.2471347E+000  0.5109876E+02  0.7957747E-01  0.1439504E+00
         13   -1    0    0    0    0  0.00000000000E+00  0.00000000000E+00  0.99999944182E+02  0.10000000000E+03  0.10566000000E+00 0. -1.
         22   -1    0    0    0    0 -0.00000000000E+00 -0.00000000000E+00 -0.11192986669E+02  0.11192986669E+02  0.00000000000E+00 0. -1.
         13    1    1    2    0    0 -0.45445361786E+01  0.95094765834E+01  0.36815016734E+02  0.38294119328E+02  0.10566000000E+00 0.  1.
        996    1    1    2    0    0  0.45445361786E+01 -0.95094765834E+01  0.51991940780E+02  0.72898867344E+02  0.50000000000E+02 0.  0.
<mgrwt>
<rscale>  0 0.51098757E+02</rscale>
<asrwt>0</asrwt>
<pdfrwt beam="1">  1       13 0.10000000E+01 0.51098757E+02</pdfrwt>
<pdfrwt beam="2">  1       22 0.11193011E+00 0.51098757E+02</pdfrwt>
<totfact> 0.11918391E+00</totfact>
</mgrwt>
</event>
<event>
 4    1  0.2471347E+000  0.5346263E+02  0.7957747E-01  0.1427512E+00
         13   -1    0    0    0    0  0.00000000000E+00  0.00000000000E+00  0.99999944178E+02  0.99999999998E+02  0.10566000000E+00 0. -1.
         22   -1    0    0    0    0 -0.00000000000E+00 -0.00000000000E+00 -0.13496420487E+02  0.13496420487E+02  0.00000000000E+00 0. -1.
         13    1    1    2    0    0  0.10515432442E+02 -0.15737819767E+02  0.14648366325E+02  0.23934057125E+02  0.10566000000E+00 0.  1.
        996    1    1    2    0    0 -0.10515432442E+02  0.15737819767E+02  0.71855157366E+02  0.89562363360E+02  0.50000000000E+02 0.  0.
<mgrwt>
<rscale>  0 0.53462635E+02</rscale>
<asrwt>0</asrwt>
<pdfrwt beam="1">  1       13 0.10000000E+01 0.53462635E+02</pdfrwt>
<pdfrwt beam="2">  1       22 0.13496445E+00 0.53462635E+02</pdfrwt>
<totfact> 0.89723006E-01</totfact>
</mgrwt>
</event>
<event>
 4    1  0.2471347E+000  0.5254208E+02  0.7957747E-01  0.1432093E+00
         13   -1    0    0    0    0  0.00000000000E+00  0.00000000000E+00  0.99999944193E+02  0.10000000001E+03  0.10566000000E+00 0. -1.
         22   -1    0    0    0    0 -0.00000000000E+00 -0.00000000000E+00 -0.68653400557E+02  0.68653400557E+02  0.00000000000E+00 0.  1.
         13    1    1    2    0    0 -0.14182254660E+01 -0.16082882532E+02 -0.60621424429E+02  0.62734669345E+02  0.10566000000E+00 0.  1.
        996    1    1    2    0    0  0.14182254660E+01  0.16082882532E+02  0.91967968066E+02  0.10591873122E+03  0.50000000000E+02 0.  0.
<mgrwt>
<rscale>  0 0.52542083E+02</rscale>
<asrwt>0</asrwt>
<pdfrwt beam="1">  1       13 0.10000000E+01 0.52542083E+02</pdfrwt>
<pdfrwt beam="2">  1       22 0.68653409E+00 0.52542083E+02</pdfrwt>
<totfact> 0.80956909E-02</totfact>
</mgrwt>
</event>
<event>
 4    1  0.2471347E+000  0.5133571E+02  0.7957747E-01  0.1438267E+00
         13   -1    0    0    0    0  0.00000000000E+00  0.00000000000E+00  0.99999944177E+02  0.99999999997E+02  0.10566000000E+00 0.  1.
         22   -1    0    0    0    0 -0.00000000000E+00 -0.00000000000E+00 -0.20494199573E+02  0.20494199573E+02  0.00000000000E+00 0. -1.
         13    1    1    2    0    0  0.63668198228E+01 -0.97375137263E+01 -0.11276358491E+02  0.16202561312E+02  0.10566000000E+00 0. -1.
        996    1    1    2    0    0 -0.63668198228E+01  0.97375137263E+01  0.90782103095E+02  0.10429163826E+03  0.50000000000E+02 0.  0.
<mgrwt>
<rscale>  0 0.51335714E+02</rscale>
<asrwt>0</asrwt>
<pdfrwt beam="1">  1       13 0.10000000E+01 0.51335714E+02</pdfrwt>
<pdfrwt beam="2">  1       22 0.20494222E+00 0.51335714E+02</pdfrwt>
<totfact> 0.43231406E-01</totfact>
</mgrwt>
</event>
<event>
 4    1  0.2471347E+000  0.5519058E+02  0.7957747E-01  0.1419200E+00
         13   -1    0    0    0    0  0.00000000000E+00  0.00000000000E+00  0.99999944186E+02  0.10000000001E+03  0.10566000000E+00 0.  1.
         22   -1    0    0    0    0 -0.00000000000E+00 -0.00000000000E+00 -0.15885119567E+02  0.15885119567E+02  0.00000000000E+00 0. -1.
         13    1    1    2    0    0  0.93681660043E+01  0.21406490936E+02  0.16499797387E+02  0.28605154542E+02  0.10566000000E+00 0. -1.
        996    1    1    2    0    0 -0.93681660043E+01 -0.21406490936E+02  0.67615027232E+02  0.87279965032E+02  0.50000000000E+02 0.  0.
<mgrwt>
<rscale>  0 0.55190582E+02</rscale>
<asrwt>0</asrwt>
<pdfrwt beam="1">  1       13 0.10000000E+01 0.55190582E+02</pdfrwt>
<pdfrwt beam="2">  1       22 0.15885143E+00 0.55190582E+02</pdfrwt>
<totfact> 0.68783034E-01</totfact>
</mgrwt>
</event>
<event>
 4    1  0.2471347E+000  0.5105539E+02  0.7957747E-01  0.1439731E+00
         13   -1    0    0    0    0  0.00000000000E+00  0.00000000000E+00  0.99999944180E+02  0.10000000000E+03  0.10566000000E+00 0.  1.
         22   -1    0    0    0    0 -0.00000000000E+00 -0.00000000000E+00 -0.21408136758E+02  0.21408136758E+02  0.00000000000E+00 0. -1.
         13    1    1    2    0    0 -0.62413142196E+01  0.82279481723E+01 -0.12966518163E+02  0.16576938548E+02  0.10566000000E+00 0. -1.
        996    1    1    2    0    0  0.62413142196E+01 -0.82279481723E+01  0.91558325584E+02  0.10483119821E+03  0.50000000000E+02 0.  0.
<mgrwt>
<rscale>  0 0.51055393E+02</rscale>
<asrwt>0</asrwt>
<pdfrwt beam="1">  1       13 0.10000000E+01 0.51055393E+02</pdfrwt>
<pdfrwt beam="2">  1       22 0.21408159E+00 0.51055393E+02</pdfrwt>
<totfact> 0.39783097E-01</totfact>
</mgrwt>
</event>
<event>
 4    1  0.2471347E+000  0.5139600E+02  0.7957747E-01  0.1437954E+00
         13   -1    0    0    0    0  0.00000000000E+00  0.00000000000E+00  0.99999944182E+02  0.10000000000E+03  0.10566000000E+00 0.  1.
         22   -1    0    0    0    0 -0.00000000000E+00 -0.00000000000E+00 -0.36591095742E+02  0.36591095742E+02  0.00000000000E+00 0. -1.
         13    1    1    2    0    0 -0.10838242668E+02 -0.49072810715E+01 -0.28724881529E+02  0.31091460154E+02  0.10566000000E+00 0. -1.
        996    1    1    2    0    0  0.10838242668E+02  0.49072810715E+01  0.92133729969E+02  0.10549963559E+03  0.50000000000E+02 0.  0.
<mgrwt>
<rscale>  0 0.51396001E+02</rscale>
<asrwt>0</asrwt>
<pdfrwt beam="1">  1       13 0.10000000E+01 0.51396001E+02</pdfrwt>
<pdfrwt beam="2">  1       22 0.36591113E+00 0.51396001E+02</pdfrwt>
<totfact> 0.14530402E-01</totfact>
</mgrwt>
</event>
<event>
 4    1  0.2471347E+000  0.5256047E+02  0.7957747E-01  0.1432001E+00
         13   -1    0    0    0    0  0.00000000000E+00  0.00000000000E+00  0.99999944181E+02  0.10000000000E+03  0.10566000000E+00 0. -1.
         22   -1    0    0    0    0 -0.00000000000E+00 -0.00000000000E+00 -0.16124713855E+02  0.16124713855E+02  0.00000000000E+00 0. -1.
         13    1    1    2    0    0 -0.96079863860E+01  0.13049493638E+02 -0.10619731934E+01  0.16240124313E+02  0.10566000000E+00 0.  1.
        996    1    1    2    0    0  0.96079863860E+01 -0.13049493638E+02  0.84937203519E+02  0.99884589543E+02  0.50000000000E+02 0.  0.
<mgrwt>
<rscale>  0 0.52560467E+02</rscale>
<asrwt>0</asrwt>
<pdfrwt beam="1">  1       13 0.10000000E+01 0.52560467E+02</pdfrwt>
<pdfrwt beam="2">  1       22 0.16124737E+00 0.52560467E+02</pdfrwt>
<totfact> 0.66706643E-01</totfact>
</mgrwt>
</event>
<event>
 4    1  0.2471347E+000  0.5190567E+02  0.7957747E-01  0.1435326E+00
         13   -1    0    0    0    0  0.00000000000E+00  0.00000000000E+00  0.99999944170E+02  0.99999999991E+02  0.10566000000E+00 0.  1.
         22   -1    0    0    0    0 -0.00000000000E+00 -0.00000000000E+00 -0.18580960544E+02  0.18580960544E+02  0.00000000000E+00 0. -1.
         13    1    1    2    0    0  0.11708733038E+02  0.75567574526E+01 -0.73462118685E+01  0.15753634673E+02  0.10566000000E+00 0. -1.
        996    1    1    2    0    0 -0.11708733038E+02 -0.75567574526E+01  0.88765195495E+02  0.10282732586E+03  0.50000000000E+02 0.  0.
<mgrwt>
<rscale>  0 0.51905674E+02</rscale>
<asrwt>0</asrwt>
<pdfrwt beam="1">  1       13 0.10000000E+01 0.51905674E+02</pdfrwt>
<pdfrwt beam="2">  1       22 0.18580983E+00 0.51905674E+02</pdfrwt>
<totfact> 0.51871239E-01</totfact>
</mgrwt>
</event>
<event>
 4    1  0.2471347E+000  0.5166322E+02  0.7957747E-01  0.1436572E+00
         13   -1    0    0    0    0  0.00000000000E+00  0.00000000000E+00  0.99999944184E+02  0.10000000000E+03  0.10566000000E+00 0.  1.
         22   -1    0    0    0    0 -0.00000000000E+00 -0.00000000000E+00 -0.33696372951E+02  0.33696372951E+02  0.00000000000E+00 0. -1.
         13    1    1    2    0    0 -0.56955431666E+00  0.12990901758E+02 -0.25346660586E+02  0.28487756800E+02  0.10566000000E+00 0. -1.
        996    1    1    2    0    0  0.56955431666E+00 -0.12990901758E+02  0.91650231819E+02  0.10520861615E+03  0.50000000000E+02 0.  0.
<mgrwt>
<rscale>  0 0.51663216E+02</rscale>
<asrwt>0</asrwt>
<pdfrwt beam="1">  1       13 0.10000000E+01 0.51663216E+02</pdfrwt>
<pdfrwt beam="2">  1       22 0.33696391E+00 0.51663216E+02</pdfrwt>
<totfact> 0.16784836E-01</totfact>
</mgrwt>
</event>
<event>
 4    1  0.2471347E+000  0.5289059E+02  0.7957747E-01  0.1430346E+00
         13   -1    0    0    0    0  0.00000000000E+00  0.00000000000E+00  0.99999944177E+02  0.99999999997E+02  0.10566000000E+00 0. -1.
         22   -1    0    0    0    0 -0.00000000000E+00 -0.00000000000E+00 -0.57755308436E+02  0.57755308436E+02  0.00000000000E+00 0.  1.
         13    1    1    2    0    0  0.17245512596E+02 -0.79469820169E-01 -0.49189796905E+02  0.52125438163E+02  0.10566000000E+00 0.  1.
        996    1    1    2    0    0 -0.17245512596E+02  0.79469820169E-01  0.91434432646E+02  0.10562987027E+03  0.50000000000E+02 0.  0.
<mgrwt>
<rscale>  0 0.52890585E+02</rscale>
<asrwt>0</asrwt>
<pdfrwt beam="1">  1       13 0.10000000E+01 0.52890585E+02</pdfrwt>
<pdfrwt beam="2">  1       22 0.57755320E+00 0.52890585E+02</pdfrwt>
<totfact> 0.57991160E-02</totfact>
</mgrwt>
</event>
<event>
 4    1  0.2471347E+000  0.5740725E+02  0.7957747E-01  0.1409046E+00
         13   -1    0    0    0    0  0.00000000000E+00  0.00000000000E+00  0.99999944169E+02  0.99999999989E+02  0.10566000000E+00 0. -1.
         22   -1    0    0    0    0 -0.00000000000E+00 -0.00000000000E+00 -0.19909976481E+02  0.19909976481E+02  0.00000000000E+00 0.  1.
         13    1    1    2    0    0 -0.10099153071E+02  0.26336273471E+02  0.11485653055E+02  0.30455271846E+02  0.10566000000E+00 0.  1.
        996    1    1    2    0    0  0.10099153071E+02 -0.26336273471E+02  0.68604314633E+02  0.89454704624E+02  0.50000000000E+02 0.  0.
<mgrwt>
<rscale>  0 0.57407249E+02</rscale>
<asrwt>0</asrwt>
<pdfrwt beam="1">  1       13 0.10000000E+01 0.57407249E+02</pdfrwt>
<pdfrwt beam="2">  1       22 0.19909999E+00 0.57407249E+02</pdfrwt>
<totfact> 0.46113696E-01</totfact>
</mgrwt>
</event>
<event>
 4    1  0.2471347E+000  0.5152919E+02  0.7957747E-01  0.1437264E+00
         13   -1    0    0    0    0  0.00000000000E+00  0.00000000000E+00  0.99999944178E+02  0.99999999998E+02  0.10566000000E+00 0.  1.
         22   -1    0    0    0    0 -0.00000000000E+00 -0.00000000000E+00 -0.10649357429E+02  0.10649357429E+02  0.00000000000E+00 0.  1.
         13    1    1    2    0    0 -0.91032475436E+01  0.85081194483E+01  0.97324099981E+01  0.15811014540E+02  0.10566000000E+00 0. -1.
        996    1    1    2    0    0  0.91032475436E+01 -0.85081194483E+01  0.79618176751E+02  0.94838342887E+02  0.50000000000E+02 0.  0.
<mgrwt>
<rscale>  0 0.51529188E+02</rscale>
<asrwt>0</asrwt>
<pdfrwt beam="1">  1       13 0.10000000E+01 0.51529188E+02</pdfrwt>
<pdfrwt beam="2">  1       22 0.10649382E+00 0.51529188E+02</pdfrwt>
<totfact> 0.12845403E+00</totfact>
</mgrwt>
</event>
<event>
 4    1  0.2471347E+000  0.6102600E+02  0.7957747E-01  0.1393576E+00
         13   -1    0    0    0    0  0.00000000000E+00  0.00000000000E+00  0.99999944180E+02  0.10000000000E+03  0.10566000000E+00 0.  1.
         22   -1    0    0    0    0 -0.00000000000E+00 -0.00000000000E+00 -0.24351128439E+02  0.24351128439E+02  0.00000000000E+00 0.  1.
         13    1    1    2    0    0 -0.19767857865E+02  0.28868753112E+02  0.14236794826E+02  0.37773940776E+02  0.10566000000E+00 0. -1.
        996    1    1    2    0    0  0.19767857865E+02 -0.28868753112E+02  0.61412020915E+02  0.86577187663E+02  0.50000000000E+02 0.  0.
<mgrwt>
<rscale>  0 0.61026004E+02</rscale>
<asrwt>0</asrwt>
<pdfrwt beam="1">  1       13 0.10000000E+01 0.61026004E+02</pdfrwt>
<pdfrwt beam="2">  1       22 0.24351150E+00 0.61026004E+02</pdfrwt>
<totfact> 0.31456357E-01</totfact>
</mgrwt>
</event>
<event>
 4    1  0.2471347E+000  0.5114531E+02  0.7957747E-01  0.1439260E+00
         13   -1    0    0    0    0  0.00000000000E+00  0.00000000000E+00  0.99999944183E+02  0.10000000000E+03  0.10566000000E+00 0.  1.
         22   -1    0    0    0    0 -0.00000000000E+00 -0.00000000000E+00 -0.10137026687E+02  0.10137026687E+02  0.00000000000E+00 0.  1.
         13    1    1    2    0    0  0.92610005286E+01  0.54841741998E+01  0.72635400482E+01  0.12985086658E+02  0.10566000000E+00 0. -1.
        996    1    1    2    0    0 -0.92610005286E+01 -0.54841741998E+01  0.82599377447E+02  0.97151940032E+02  0.50000000000E+02 0.  0.
<mgrwt>
<rscale>  0 0.51145306E+02</rscale>
<asrwt>0</asrwt>
<pdfrwt beam="1">  1       13 0.10000000E+01 0.51145306E+02</pdfrwt>
<pdfrwt beam="2">  1       22 0.10137052E+00 0.51145306E+02</pdfrwt>
<totfact> 0.13793718E+00</totfact>
</mgrwt>
</event>
<event>
 4    1  0.2471347E+000  0.5375274E+02  0.7957747E-01  0.1426091E+00
         13   -1    0    0    0    0  0.00000000000E+00  0.00000000000E+00  0.99999944183E+02  0.10000000000E+03  0.10566000000E+00 0.  1.
         22   -1    0    0    0    0 -0.00000000000E+00 -0.00000000000E+00 -0.31032029327E+02  0.31032029327E+02  0.00000000000E+00 0. -1.
         13    1    1    2    0    0 -0.16584264525E+02  0.10692041409E+02 -0.19353631547E+02  0.27639316153E+02  0.10566000000E+00 0. -1.
        996    1    1    2    0    0  0.16584264525E+02 -0.10692041409E+02  0.88321546402E+02  0.10339271318E+03  0.50000000000E+02 0.  0.
<mgrwt>
<rscale>  0 0.53752745E+02</rscale>
<asrwt>0</asrwt>
<pdfrwt beam="1">  1       13 0.10000000E+01 0.53752745E+02</pdfrwt>
<pdfrwt beam="2">  1       22 0.31032049E+00 0.53752745E+02</pdfrwt>
<totfact> 0.19491772E-01</totfact>
</mgrwt>
</event>
<event>
 4    1  0.2471347E+000  0.5180448E+02  0.7957747E-01  0.1435845E+00
         13   -1    0    0    0    0  0.00000000000E+00  0.00000000000E+00  0.99999944179E+02  0.10000000000E+03  0.10566000000E+00 0. -1.
         22   -1    0    0    0    0 -0.00000000000E+00 -0.00000000000E+00 -0.11594423281E+02  0.11594423281E+02  0.00000000000E+00 0.  1.
         13    1    1    2    0    0 -0.48345799919E+01  0.12662185872E+02  0.74062158518E+01  0.15445624365E+02  0.10566000000E+00 0.  1.
        996    1    1    2    0    0  0.48345799919E+01 -0.12662185872E+02  0.80999305047E+02  0.96148798915E+02  0.50000000000E+02 0.  0.
<mgrwt>
<rscale>  0 0.51804480E+02</rscale>
<asrwt>0</asrwt>
<pdfrwt beam="1">  1       13 0.10000000E+01 0.51804480E+02</pdfrwt>
<pdfrwt beam="2">  1       22 0.11594448E+00 0.51804480E+02</pdfrwt>
<totfact> 0.11321793E+00</totfact>
</mgrwt>
</event>
<event>
 4    1  0.2471347E+000  0.5191589E+02  0.7957747E-01  0.1435273E+00
         13   -1    0    0    0    0  0.00000000000E+00  0.00000000000E+00  0.99999944177E+02  0.99999999997E+02  0.10566000000E+00 0. -1.
         22   -1    0    0    0    0 -0.00000000000E+00 -0.00000000000E+00 -0.10999695592E+02  0.10999695592E+02  0.00000000000E+00 0. -1.
         13    1    1    2    0    0  0.85159712803E+01 -0.11078717252E+02  0.24461018416E+02  0.28171125799E+02  0.10566000000E+00 0.  1.
        996    1    1    2    0    0 -0.85159712803E+01  0.11078717252E+02  0.64539230169E+02  0.82828569791E+02  0.50000000000E+02 0.  0.
<mgrwt>
<rscale>  0 0.51915891E+02</rscale>
<asrwt>0</asrwt>
<pdfrwt beam="1">  1       13 0.10000000E+01 0.51915891E+02</pdfrwt>
<pdfrwt beam="2">  1       22 0.10999720E+00 0.51915891E+02</pdfrwt>
<totfact> 0.12255365E+00</totfact>
</mgrwt>
</event>
<event>
 4    1  0.2471347E+000  0.5249156E+02  0.7957747E-01  0.1432348E+00
         13   -1    0    0    0    0  0.00000000000E+00  0.00000000000E+00  0.99999944179E+02  0.99999999999E+02  0.10566000000E+00 0. -1.
         22   -1    0    0    0    0 -0.00000000000E+00 -0.00000000000E+00 -0.14895742059E+02  0.14895742059E+02  0.00000000000E+00 0.  1.
         13    1    1    2    0    0  0.14133471715E+02 -0.74571123132E+01  0.13311391936E+01  0.16035792539E+02  0.10566000000E+00 0.  1.
        996    1    1    2    0    0 -0.14133471715E+02  0.74571123132E+01  0.83773062926E+02  0.98859949519E+02  0.50000000000E+02 0.  0.
<mgrwt>
<rscale>  0 0.52491557E+02</rscale>
<asrwt>0</asrwt>
<pdfrwt beam="1">  1       13 0.10000000E+01 0.52491557E+02</pdfrwt>
<pdfrwt beam="2">  1       22 0.14895766E+00 0.52491557E+02</pdfrwt>
<totfact> 0.76247135E-01</totfact>
</mgrwt>
</event>
<event>
 4    1  0.2471347E+000  0.6875614E+02  0.7957747E-01  0.1364375E+00
         13   -1    0    0    0    0  0.00000000000E+00  0.00000000000E+00  0.99999944173E+02  0.99999999994E+02  0.10566000000E+00 0.  1.
         22   -1    0    0    0    0 -0.00000000000E+00 -0.00000000000E+00 -0.66720558902E+02  0.66720558902E+02  0.00000000000E+00 0. -1.
         13    1    1    2    0    0 -0.47195410301E+02 -0.21358732557E-01 -0.43127188960E+02  0.63932564482E+02  0.10566000000E+00 0. -1.
        996    1    1    2    0    0  0.47195410301E+02  0.21358732557E-01  0.76406574231E+02  0.10278799441E+03  0.50000000000E+02 0.  0.
<mgrwt>
<rscale>  0 0.68756143E+02</rscale>
<asrwt>0</asrwt>
<pdfrwt beam="1">  1       13 0.10000000E+01 0.68756143E+02</pdfrwt>
<pdfrwt beam="2">  1       22 0.66720568E+00 0.68756143E+02</pdfrwt>
<totfact> 0.86735064E-02</totfact>
</mgrwt>
</event>
<event>
 4    1  0.2471347E+000  0.5400890E+02  0.7957747E-01  0.1424845E+00
         13   -1    0    0    0    0  0.00000000000E+00  0.00000000000E+00  0.99999944183E+02  0.10000000000E+03  0.10566000000E+00 0.  1.
         22   -1    0    0    0    0 -0.00000000000E+00 -0.00000000000E+00 -0.13986987515E+02  0.13986987515E+02  0.00000000000E+00 0.  1.
         13    1    1    2    0    0  0.99402045753E+01 -0.17836868147E+02  0.28845645437E+02  0.35341815983E+02  0.10566000000E+00 0. -1.
        996    1    1    2    0    0 -0.99402045753E+01  0.17836868147E+02  0.57167311231E+02  0.78645171535E+02  0.50000000000E+02 0.  0.
<mgrwt>
<rscale>  0 0.54008902E+02</rscale>
<asrwt>0</asrwt>
<pdfrwt beam="1">  1       13 0.10000000E+01 0.54008902E+02</pdfrwt>
<pdfrwt beam="2">  1       22 0.13987012E+00 0.54008902E+02</pdfrwt>
<totfact> 0.84804973E-01</totfact>
</mgrwt>
</event>
<event>
 4    1  0.2471347E+000  0.5127696E+02  0.7957747E-01  0.1438573E+00
         13   -1    0    0    0    0  0.00000000000E+00  0.00000000000E+00  0.99999944178E+02  0.99999999998E+02  0.10566000000E+00 0.  1.
         22   -1    0    0    0    0 -0.00000000000E+00 -0.00000000000E+00 -0.16061022011E+02  0.16061022011E+02  0.00000000000E+00 0.  1.
         13    1    1    2    0    0  0.10834409727E+02  0.34556739106E+01 -0.57538778214E+01  0.12745367407E+02  0.10566000000E+00 0. -1.
        996    1    1    2    0    0 -0.10834409727E+02 -0.34556739106E+01  0.89692799988E+02  0.10331565460E+03  0.50000000000E+02 0.  0.
<mgrwt>
<rscale>  0 0.51276955E+02</rscale>
<asrwt>0</asrwt>
<pdfrwt beam="1">  1       13 0.10000000E+01 0.51276955E+02</pdfrwt>
<pdfrwt beam="2">  1       22 0.16061045E+00 0.51276955E+02</pdfrwt>
<totfact> 0.66989465E-01</totfact>
</mgrwt>
</event>
<event>
 4    1  0.2471347E+000  0.5371937E+02  0.7957747E-01  0.1426254E+00
         13   -1    0    0    0    0  0.00000000000E+00  0.00000000000E+00  0.99999944185E+02  0.10000000000E+03  0.10566000000E+00 0.  1.
         22   -1    0    0    0    0 -0.00000000000E+00 -0.00000000000E+00 -0.28906582812E+02  0.28906582812E+02  0.00000000000E+00 0. -1.
         13    1    1    2    0    0 -0.11688804544E+02  0.15784247594E+02 -0.16833711472E+02  0.25868042634E+02  0.10566000000E+00 0. -1.
        996    1    1    2    0    0  0.11688804544E+02 -0.15784247594E+02  0.87927072845E+02  0.10303854018E+03  0.50000000000E+02 0.  0.
<mgrwt>
<rscale>  0 0.53719369E+02</rscale>
<asrwt>0</asrwt>
<pdfrwt beam="1">  1       13 0.10000000E+01 0.53719369E+02</pdfrwt>
<pdfrwt beam="2">  1       22 0.28906603E+00 0.53719369E+02</pdfrwt>
<totfact> 0.22259737E-01</totfact>
</mgrwt>
</event>
<event>
 4    1  0.2471347E+000  0.5123457E+02  0.7957747E-01  0.1438794E+00
         13   -1    0    0    0    0  0.00000000000E+00  0.00000000000E+00  0.99999944181E+02  0.10000000000E+03  0.10566000000E+00 0. -1.
         22   -1    0    0    0    0 -0.00000000000E+00 -0.00000000000E+00 -0.12380240417E+02  0.12380240417E+02  0.00000000000E+00 0. -1.
         13    1    1    2    0    0  0.77241626764E+01  0.80819619006E+01  0.35355542206E+00  0.11185569395E+02  0.10566000000E+00 0.  1.
        996    1    1    2    0    0 -0.77241626764E+01 -0.80819619006E+01  0.87266148341E+02  0.10119467102E+03  0.50000000000E+02 0.  0.
<mgrwt>
<rscale>  0 0.51234566E+02</rscale>
<asrwt>0</asrwt>
<pdfrwt beam="1">  1       13 0.10000000E+01 0.51234566E+02</pdfrwt>
<pdfrwt beam="2">  1       22 0.12380265E+00 0.51234566E+02</pdfrwt>
<totfact> 0.10227750E+00</totfact>
</mgrwt>
</event>
<event>
 4    1  0.2471347E+000  0.5725197E+02  0.7957747E-01  0.1409740E+00
         13   -1    0    0    0    0  0.00000000000E+00  0.00000000000E+00  0.99999944176E+02  0.99999999996E+02  0.10566000000E+00 0.  1.
         22   -1    0    0    0    0 -0.00000000000E+00 -0.00000000000E+00 -0.19462092797E+02  0.19462092797E+02  0.00000000000E+00 0. -1.
         13    1    1    2    0    0  0.24141608361E+02 -0.13963178562E+02  0.12559338289E+02  0.30586528932E+02  0.10566000000E+00 0. -1.
        996    1    1    2    0    0 -0.24141608361E+02  0.13963178562E+02  0.67978513089E+02  0.88875563861E+02  0.50000000000E+02 0.  0.
<mgrwt>
<rscale>  0 0.57251966E+02</rscale>
<asrwt>0</asrwt>
<pdfrwt beam="1">  1       13 0.10000000E+01 0.57251966E+02</pdfrwt>
<pdfrwt beam="2">  1       22 0.19462115E+00 0.57251966E+02</pdfrwt>
<totfact> 0.48094234E-01</totfact>
</mgrwt>
</event>
<event>
 4    1  0.2471347E+000  0.5121550E+02  0.7957747E-01  0.1438894E+00
         13   -1    0    0    0    0  0.00000000000E+00  0.00000000000E+00  0.99999944179E+02  0.10000000000E+03  0.10566000000E+00 0.  1.
         22   -1    0    0    0    0 -0.00000000000E+00 -0.00000000000E+00 -0.33601188268E+02  0.33601188268E+02  0.00000000000E+00 0. -1.
         13    1    1    2    0    0  0.76399066843E+01 -0.80410762022E+01 -0.25827393024E+02  0.28108583655E+02  0.10566000000E+00 0. -1.
        996    1    1    2    0    0 -0.76399066843E+01  0.80410762022E+01  0.92226148935E+02  0.10549260461E+03  0.50000000000E+02 0.  0.
<mgrwt>
<rscale>  0 0.51215496E+02</rscale>
<asrwt>0</asrwt>
<pdfrwt beam="1">  1       13 0.10000000E+01 0.51215496E+02</pdfrwt>
<pdfrwt beam="2">  1       22 0.33601207E+00 0.51215496E+02</pdfrwt>
<totfact> 0.16859675E-01</totfact>
</mgrwt>
</event>
<event>
 4    1  0.2471347E+000  0.5189889E+02  0.7957747E-01  0.1435361E+00
         13   -1    0    0    0    0  0.00000000000E+00  0.00000000000E+00  0.99999944178E+02  0.99999999998E+02  0.10566000000E+00 0.  1.
         22   -1    0    0    0    0 -0.00000000000E+00 -0.00000000000E+00 -0.15209249106E+02  0.15209249106E+02  0.00000000000E+00 0.  1.
         13    1    1    2    0    0 -0.10413899653E+02  0.92219828381E+01  0.51978769917E+02  0.53807973011E+02  0.10566000000E+00 0. -1.
        996    1    1    2    0    0  0.10413899653E+02 -0.92219828381E+01  0.32811925155E+02  0.61401276093E+02  0.50000000000E+02 0.  0.
<mgrwt>
<rscale>  0 0.51898885E+02</rscale>
<asrwt>0</asrwt>
<pdfrwt beam="1">  1       13 0.10000000E+01 0.51898885E+02</pdfrwt>
<pdfrwt beam="2">  1       22 0.15209273E+00 0.51898885E+02</pdfrwt>
<totfact> 0.73555692E-01</totfact>
</mgrwt>
</event>
<event>
 4    1  0.2471347E+000  0.5281243E+02  0.7957747E-01  0.1430737E+00
         13   -1    0    0    0    0  0.00000000000E+00  0.00000000000E+00  0.99999944180E+02  0.10000000000E+03  0.10566000000E+00 0.  1.
         22   -1    0    0    0    0 -0.00000000000E+00 -0.00000000000E+00 -0.13893009162E+02  0.13893009162E+02  0.00000000000E+00 0.  1.
         13    1    1    2    0    0 -0.14302863145E+02  0.91968138790E+01  0.61781730122E+01  0.18092381421E+02  0.10566000000E+00 0. -1.
        996    1    1    2    0    0  0.14302863145E+02 -0.91968138790E+01  0.79928762006E+02  0.95800627741E+02  0.50000000000E+02 0.  0.
<mgrwt>
<rscale>  0 0.52812435E+02</rscale>
<asrwt>0</asrwt>
<pdfrwt beam="1">  1       13 0.10000000E+01 0.52812435E+02</pdfrwt>
<pdfrwt beam="2">  1       22 0.13893033E+00 0.52812435E+02</pdfrwt>
<totfact> 0.85526186E-01</totfact>
</mgrwt>
</event>
<event>
 4    1  0.2471347E+000  0.5221737E+02  0.7957747E-01  0.1433736E+00
         13   -1    0    0    0    0  0.00000000000E+00  0.00000000000E+00  0.99999944172E+02  0.99999999992E+02  0.10566000000E+00 0. -1.
         22   -1    0    0    0    0 -0.00000000000E+00 -0.00000000000E+00 -0.48472203002E+02  0.48472203002E+02  0.00000000000E+00 0.  1.
         13    1    1    2    0    0  0.14952234342E+02  0.17563203960E+01 -0.40197932410E+02  0.42924805267E+02  0.10566000000E+00 0.  1.
        996    1    1    2    0    0 -0.14952234342E+02 -0.17563203960E+01  0.91725673580E+02  0.10554739773E+03  0.50000000000E+02 0.  0.
<mgrwt>
<rscale>  0 0.52217372E+02</rscale>
<asrwt>0</asrwt>
<pdfrwt beam="1">  1       13 0.10000000E+01 0.52217372E+02</pdfrwt>
<pdfrwt beam="2">  1       22 0.48472217E+00 0.52217372E+02</pdfrwt>
<totfact> 0.80148806E-02</totfact>
</mgrwt>
</event>
<event>
 4    1  0.2471347E+000  0.5418414E+02  0.7957747E-01  0.1423997E+00
         13   -1    0    0    0    0  0.00000000000E+00  0.00000000000E+00  0.99999944175E+02  0.99999999995E+02  0.10566000000E+00 0. -1.
         22   -1    0    0    0    0 -0.00000000000E+00 -0.00000000000E+00 -0.20329626785E+02  0.20329626785E+02  0.00000000000E+00 0. -1.
         13    1    1    2    0    0  0.17063893841E+02 -0.12031001934E+02 -0.33959670496E+01  0.21153374123E+02  0.10566000000E+00 0.  1.
        996    1    1    2    0    0 -0.17063893841E+02  0.12031001934E+02  0.83066284439E+02  0.99176252657E+02  0.50000000000E+02 0.  0.
<mgrwt>
<rscale>  0 0.54184144E+02</rscale>
<asrwt>0</asrwt>
<pdfrwt beam="1">  1       13 0.10000000E+01 0.54184144E+02</pdfrwt>
<pdfrwt beam="2">  1       22 0.20329649E+00 0.54184144E+02</pdfrwt>
<totfact> 0.44110784E-01</totfact>
</mgrwt>
</event>
<event>
 4    1  0.2471347E+000  0.5435257E+02  0.7957747E-01  0.1423186E+00
         13   -1    0    0    0    0  0.00000000000E+00  0.00000000000E+00  0.99999944175E+02  0.99999999995E+02  0.10566000000E+00 0.  1.
         22   -1    0    0    0    0 -0.00000000000E+00 -0.00000000000E+00 -0.15391546115E+02  0.15391546115E+02  0.00000000000E+00 0. -1.
         13    1    1    2    0    0  0.18726189183E+02  0.10175027742E+02  0.11272427084E+02  0.24109751705E+02  0.10566000000E+00 0. -1.
        996    1    1    2    0    0 -0.18726189183E+02 -0.10175027742E+02  0.73335970976E+02  0.91281794406E+02  0.50000000000E+02 0.  0.
<mgrwt>
<rscale>  0 0.54352565E+02</rscale>
<asrwt>0</asrwt>
<pdfrwt beam="1">  1       13 0.10000000E+01 0.54352565E+02</pdfrwt>
<pdfrwt beam="2">  1       22 0.15391570E+00 0.54352565E+02</pdfrwt>
<totfact> 0.72449891E-01</totfact>
</mgrwt>
</event>
<event>
 4    1  0.2471347E+000  0.5603347E+02  0.7957747E-01  0.1415274E+00
         13   -1    0    0    0    0  0.00000000000E+00  0.00000000000E+00  0.99999944172E+02  0.99999999992E+02  0.10566000000E+00 0. -1.
         22   -1    0    0    0    0 -0.00000000000E+00 -0.00000000000E+00 -0.25860533647E+02  0.25860533647E+02  0.00000000000E+00 0.  1.
         13    1    1    2    0    0 -0.23143087127E+02  0.10205273527E+02 -0.79116214731E+01  0.26501981207E+02  0.10566000000E+00 0.  1.
        996    1    1    2    0    0  0.23143087127E+02 -0.10205273527E+02  0.82051031998E+02  0.99358552432E+02  0.50000000000E+02 0.  0.
<mgrwt>
<rscale>  0 0.56033473E+02</rscale>
<asrwt>0</asrwt>
<pdfrwt beam="1">  1       13 0.10000000E+01 0.56033473E+02</pdfrwt>
<pdfrwt beam="2">  1       22 0.25860554E+00 0.56033473E+02</pdfrwt>
<totfact> 0.27744063E-01</totfact>
</mgrwt>
</event>
<event>
 4    1  0.2471347E+000  0.5124722E+02  0.7957747E-01  0.1438728E+00
         13   -1    0    0    0    0  0.00000000000E+00  0.00000000000E+00  0.99999944177E+02  0.99999999997E+02  0.10566000000E+00 0.  1.
         22   -1    0    0    0    0 -0.00000000000E+00 -0.00000000000E+00 -0.15523774673E+02  0.15523774673E+02  0.00000000000E+00 0.  1.
         13    1    1    2    0    0  0.32021560927E+01  0.10771412582E+02 -0.50868889044E+01  0.12335507100E+02  0.10566000000E+00 0. -1.
        996    1    1    2    0    0 -0.32021560927E+01 -0.10771412582E+02  0.89563058408E+02  0.10318826757E+03  0.50000000000E+02 0.  0.
<mgrwt>
<rscale>  0 0.51247216E+02</rscale>
<asrwt>0</asrwt>
<pdfrwt beam="1">  1       13 0.10000000E+01 0.51247216E+02</pdfrwt>
<pdfrwt beam="2">  1       22 0.15523798E+00 0.51247216E+02</pdfrwt>
<totfact> 0.70973517E-01</totfact>
</mgrwt>
</event>
<event>
 4    1  0.2471347E+000  0.6715732E+02  0.7957747E-01  0.1370035E+00
         13   -1    0    0    0    0  0.00000000000E+00  0.00000000000E+00  0.99999944170E+02  0.99999999991E+02  0.10566000000E+00 0. -1.
         22   -1    0    0    0    0 -0.00000000000E+00 -0.00000000000E+00 -0.67560939514E+02  0.67560939514E+02  0.00000000000E+00 0.  1.
         13    1    1    2    0    0  0.10119290073E+02  0.43677290722E+02 -0.46044260476E+02  0.64266560848E+02  0.10566000000E+00 0.  1.
        996    1    1    2    0    0 -0.10119290073E+02 -0.43677290722E+02  0.78483265132E+02  0.10329437866E+03  0.50000000000E+02 0.  0.
<mgrwt>
<rscale>  0 0.67157321E+02</rscale>
<asrwt>0</asrwt>
<pdfrwt beam="1">  1       13 0.10000000E+01 0.67157321E+02</pdfrwt>
<pdfrwt beam="2">  1       22 0.67560949E+00 0.67157321E+02</pdfrwt>
<totfact> 0.84873240E-02</totfact>
</mgrwt>
</event>
<event>
 4    1  0.2471347E+000  0.5600486E+02  0.7957747E-01  0.1415406E+00
         13   -1    0    0    0    0  0.00000000000E+00  0.00000000000E+00  0.99999944174E+02  0.99999999994E+02  0.10566000000E+00 0.  1.
         22   -1    0    0    0    0 -0.00000000000E+00 -0.00000000000E+00 -0.16506734403E+02  0.16506734403E+02  0.00000000000E+00 0. -1.
         13    1    1    2    0    0  0.13542111112E+01 -0.25193470242E+02  0.24682905119E+02  0.35295917607E+02  0.10566000000E+00 0. -1.
        996    1    1    2    0    0 -0.13542111112E+01  0.25193470242E+02  0.58810304651E+02  0.81210816790E+02  0.50000000000E+02 0.  0.
<mgrwt>
<rscale>  0 0.56004864E+02</rscale>
<asrwt>0</asrwt>
<pdfrwt beam="1">  1       13 0.10000000E+01 0.56004864E+02</pdfrwt>
<pdfrwt beam="2">  1       22 0.16506758E+00 0.56004864E+02</pdfrwt>
<totfact> 0.64482755E-01</totfact>
</mgrwt>
</event>
<event>
 4    1  0.2471347E+000  0.7036187E+02  0.7957747E-01  0.1358867E+00
         13   -1    0    0    0    0  0.00000000000E+00  0.00000000000E+00  0.99999944178E+02  0.99999999998E+02  0.10566000000E+00 0.  1.
         22   -1    0    0    0    0 -0.00000000000E+00 -0.00000000000E+00 -0.44781719877E+02  0.44781719877E+02  0.00000000000E+00 0. -1.
         13    1    1    2    0    0 -0.34489961651E+01  0.49385196913E+02 -0.80525381247E+01  0.50156233739E+02  0.10566000000E+00 0. -1.
        996    1    1    2    0    0  0.34489961651E+01 -0.49385196913E+02  0.63270762425E+02  0.94625486136E+02  0.50000000000E+02 0.  0.
<mgrwt>
<rscale>  0 0.70361874E+02</rscale>
<asrwt>0</asrwt>
<pdfrwt beam="1">  1       13 0.10000000E+01 0.70361874E+02</pdfrwt>
<pdfrwt beam="2">  1       22 0.44781735E+00 0.70361874E+02</pdfrwt>
<totfact> 0.98645125E-02</totfact>
</mgrwt>
</event>
<event>
 4    1  0.2471347E+000  0.5401834E+02  0.7957747E-01  0.1424799E+00
         13   -1    0    0    0    0  0.00000000000E+00  0.00000000000E+00  0.99999944180E+02  0.10000000000E+03  0.10566000000E+00 0. -1.
         22   -1    0    0    0    0 -0.00000000000E+00 -0.00000000000E+00 -0.15122752935E+02  0.15122752935E+02  0.00000000000E+00 0.  1.
         13    1    1    2    0    0 -0.43156917483E+01  0.19983880600E+02  0.99070862800E+01  0.22718763208E+02  0.10566000000E+00 0.  1.
        996    1    1    2    0    0  0.43156917483E+01 -0.19983880600E+02  0.74970104964E+02  0.92403989727E+02  0.50000000000E+02 0.  0.
<mgrwt>
<rscale>  0 0.54018337E+02</rscale>
<asrwt>0</asrwt>
<pdfrwt beam="1">  1       13 0.10000000E+01 0.54018337E+02</pdfrwt>
<pdfrwt beam="2">  1       22 0.15122777E+00 0.54018337E+02</pdfrwt>
<totfact> 0.74575626E-01</totfact>
</mgrwt>
</event>
<event>
 4    1  0.2471347E+000  0.5810323E+02  0.7957747E-01  0.1405968E+00
         13   -1    0    0    0    0  0.00000000000E+00  0.00000000000E+00  0.99999944179E+02  0.10000000000E+03  0.10566000000E+00 0.  1.
         22   -1    0    0    0    0 -0.00000000000E+00 -0.00000000000E+00 -0.41331095750E+02  0.41331095750E+02  0.00000000000E+00 0. -1.
         13    1    1    2    0    0  0.22688795760E+02  0.19005365983E+02 -0.25491792447E+02  0.39061848847E+02  0.10566000000E+00 0. -1.
        996    1    1    2    0    0 -0.22688795760E+02 -0.19005365983E+02  0.84160640877E+02  0.10226924690E+03  0.50000000000E+02 0.  0.
<mgrwt>
<rscale>  0 0.58103230E+02</rscale>
<asrwt>0</asrwt>
<pdfrwt beam="1">  1       13 0.10000000E+01 0.58103230E+02</pdfrwt>
<pdfrwt beam="2">  1       22 0.41331112E+00 0.58103230E+02</pdfrwt>
<totfact> 0.11654618E-01</totfact>
</mgrwt>
</event>
<event>
 4    1  0.2471347E+000  0.5188684E+02  0.7957747E-01  0.1435422E+00
         13   -1    0    0    0    0  0.00000000000E+00  0.00000000000E+00  0.99999944184E+02  0.10000000000E+03  0.10566000000E+00 0. -1.
         22   -1    0    0    0    0 -0.00000000000E+00 -0.00000000000E+00 -0.50000498070E+02  0.50000498070E+02  0.00000000000E+00 0.  1.
         13    1    1    2    0    0  0.13181055476E+02 -0.43016683905E+01 -0.42081434483E+02  0.44306916690E+02  0.10566000000E+00 0.  1.
        996    1    1    2    0    0 -0.13181055476E+02  0.43016683905E+01  0.92080880596E+02  0.10569358138E+03  0.50000000000E+02 0.  0.
<mgrwt>
<rscale>  0 0.51886844E+02</rscale>
<asrwt>0</asrwt>
<pdfrwt beam="1">  1       13 0.10000000E+01 0.51886844E+02</pdfrwt>
<pdfrwt beam="2">  1       22 0.50000512E+00 0.51886844E+02</pdfrwt>
<totfact> 0.73607416E-02</totfact>
</mgrwt>
</event>
<event>
 4    1  0.2471347E+000  0.5179826E+02  0.7957747E-01  0.1435877E+00
         13   -1    0    0    0    0  0.00000000000E+00  0.00000000000E+00  0.99999944178E+02  0.99999999998E+02  0.10566000000E+00 0. -1.
         22   -1    0    0    0    0 -0.00000000000E+00 -0.00000000000E+00 -0.11748021121E+02  0.11748021121E+02  0.00000000000E+00 0. -1.
         13    1    1    2    0    0  0.12846256925E+02  0.42465274521E+01  0.66052325061E+01  0.15056545848E+02  0.10566000000E+00 0.  1.
        996    1    1    2    0    0 -0.12846256925E+02 -0.42465274521E+01  0.81646690550E+02  0.96691475272E+02  0.50000000000E+02 0.  0.
<mgrwt>
<rscale>  0 0.51798256E+02</rscale>
<asrwt>0</asrwt>
<pdfrwt beam="1">  1       13 0.10000000E+01 0.51798256E+02</pdfrwt>
<pdfrwt beam="2">  1       22 0.11748046E+00 0.51798256E+02</pdfrwt>
<totfact> 0.11098063E+00</totfact>
</mgrwt>
</event>
<event>
 4    1  0.2471347E+000  0.5220866E+02  0.7957747E-01  0.1433780E+00
         13   -1    0    0    0    0  0.00000000000E+00  0.00000000000E+00  0.99999944180E+02  0.10000000000E+03  0.10566000000E+00 0.  1.
         22   -1    0    0    0    0 -0.00000000000E+00 -0.00000000000E+00 -0.30358422221E+02  0.30358422221E+02  0.00000000000E+00 0. -1.
         13    1    1    2    0    0  0.14597410712E+02 -0.35580581088E+01 -0.20961042717E+02  0.25789933168E+02  0.10566000000E+00 0. -1.
        996    1    1    2    0    0 -0.14597410712E+02  0.35580581088E+01  0.90602564676E+02  0.10456848905E+03  0.50000000000E+02 0.  0.
<mgrwt>
<rscale>  0 0.52208660E+02</rscale>
<asrwt>0</asrwt>
<pdfrwt beam="1">  1       13 0.10000000E+01 0.52208660E+02</pdfrwt>
<pdfrwt beam="2">  1       22 0.30358442E+00 0.52208660E+02</pdfrwt>
<totfact> 0.20255915E-01</totfact>
</mgrwt>
</event>
<event>
 4    1  0.2471347E+000  0.6783172E+02  0.7957747E-01  0.1367626E+00
         13   -1    0    0    0    0  0.00000000000E+00  0.00000000000E+00  0.99999944177E+02  0.99999999998E+02  0.10566000000E+00 0.  1.
         22   -1    0    0    0    0 -0.00000000000E+00 -0.00000000000E+00 -0.42668297710E+02  0.42668297710E+02  0.00000000000E+00 0. -1.
         13    1    1    2    0    0  0.11485923451E+02  0.44375846652E+02 -0.10191569720E+02  0.46957656043E+02  0.10566000000E+00 0. -1.
        996    1    1    2    0    0 -0.11485923451E+02 -0.44375846652E+02  0.67523216188E+02  0.95710641665E+02  0.50000000000E+02 0.  0.
<mgrwt>
<rscale>  0 0.67831720E+02</rscale>
<asrwt>0</asrwt>
<pdfrwt beam="1">  1       13 0.10000000E+01 0.67831720E+02</pdfrwt>
<pdfrwt beam="2">  1       22 0.42668314E+00 0.67831720E+02</pdfrwt>
<totfact> 0.10974918E-01</totfact>
</mgrwt>
</event>
<event>
 4    1  0.2471347E+000  0.5974434E+02  0.7957747E-01  0.1398908E+00
         13   -1    0    0    0    0  0.00000000000E+00  0.00000000000E+00  0.99999944183E+02  0.10000000000E+03  0.10566000000E+00 0.  1.
         22   -1    0    0    0    0 -0.00000000000E+00 -0.00000000000E+00 -0.21587475004E+02  0.21587475004E+02  0.00000000000E+00 0. -1.
         13    1    1    2    0    0 -0.26215415446E+02 -0.19548367192E+02  0.21959226064E+02  0.39390423205E+02  0.10566000000E+00 0. -1.
        996    1    1    2    0    0  0.26215415446E+02  0.19548367192E+02  0.56453243114E+02  0.82197051802E+02  0.50000000000E+02 0.  0.
<mgrwt>
<rscale>  0 0.59744344E+02</rscale>
<asrwt>0</asrwt>
<pdfrwt beam="1">  1       13 0.10000000E+01 0.59744344E+02</pdfrwt>
<pdfrwt beam="2">  1       22 0.21587497E+00 0.59744344E+02</pdfrwt>
<totfact> 0.39707458E-01</totfact>
</mgrwt>
</event>
<event>
 4    1  0.2471347E+000  0.5133892E+02  0.7957747E-01  0.1438251E+00
         13   -1    0    0    0    0  0.00000000000E+00  0.00000000000E+00  0.99999944182E+02  0.10000000000E+03  0.10566000000E+00 0.  1.
         22   -1    0    0    0    0 -0.00000000000E+00 -0.00000000000E+00 -0.10577215819E+02  0.10577215819E+02  0.00000000000E+00 0.  1.
         13    1    1    2    0    0  0.36418945907E+01  0.11064402449E+02  0.29222010806E+02  0.31458249750E+02  0.10566000000E+00 0. -1.
        996    1    1    2    0    0 -0.36418945907E+01 -0.11064402449E+02  0.60200717557E+02  0.79118966071E+02  0.50000000000E+02 0.  0.
<mgrwt>
<rscale>  0 0.51338917E+02</rscale>
<asrwt>0</asrwt>
<pdfrwt beam="1">  1       13 0.10000000E+01 0.51338917E+02</pdfrwt>
<pdfrwt beam="2">  1       22 0.10577241E+00 0.51338917E+02</pdfrwt>
<totfact> 0.12968732E+00</totfact>
</mgrwt>
</event>
<event>
 4    1  0.2471347E+000  0.6633605E+02  0.7957747E-01  0.1373015E+00
         13   -1    0    0    0    0  0.00000000000E+00  0.00000000000E+00  0.99999944178E+02  0.99999999998E+02  0.10566000000E+00 0. -1.
         22   -1    0    0    0    0 -0.00000000000E+00 -0.00000000000E+00 -0.65752692383E+02  0.65752692383E+02  0.00000000000E+00 0.  1.
         13    1    1    2    0    0  0.39940496435E+02  0.17470788641E+02 -0.44832915667E+02  0.62533776493E+02  0.10566000000E+00 0.  1.
        996    1    1    2    0    0 -0.39940496435E+02 -0.17470788641E+02  0.79080167462E+02  0.10321891589E+03  0.50000000000E+02 0.  0.
<mgrwt>
<rscale>  0 0.66336051E+02</rscale>
<asrwt>0</asrwt>
<pdfrwt beam="1">  1       13 0.10000000E+01 0.66336051E+02</pdfrwt>
<pdfrwt beam="2">  1       22 0.65752702E+00 0.66336051E+02</pdfrwt>
<totfact> 0.87238612E-02</totfact>
</mgrwt>
</event>
<event>
 4    1  0.2471347E+000  0.5168410E+02  0.7957747E-01  0.1436464E+00
         13   -1    0    0    0    0  0.00000000000E+00  0.00000000000E+00  0.99999944178E+02  0.99999999998E+02  0.10566000000E+00 0. -1.
         22   -1    0    0    0    0 -0.00000000000E+00 -0.00000000000E+00 -0.15014039250E+02  0.15014039250E+02  0.00000000000E+00 0. -1.
         13    1    1    2    0    0 -0.85256295109E+01 -0.99277243563E+01 -0.25748529704E+01  0.13337432336E+02  0.10566000000E+00 0.  1.
        996    1    1    2    0    0  0.85256295109E+01  0.99277243563E+01  0.87560757899E+02  0.10167660691E+03  0.50000000000E+02 0.  0.
<mgrwt>
<rscale>  0 0.51684099E+02</rscale>
<asrwt>0</asrwt>
<pdfrwt beam="1">  1       13 0.10000000E+01 0.51684099E+02</pdfrwt>
<pdfrwt beam="2">  1       22 0.15014063E+00 0.51684099E+02</pdfrwt>
<totfact> 0.75126567E-01</totfact>
</mgrwt>
</event>
<event>
 4    1  0.2471347E+000  0.5423211E+02  0.7957747E-01  0.1423766E+00
         13   -1    0    0    0    0  0.00000000000E+00  0.00000000000E+00  0.99999944186E+02  0.10000000001E+03  0.10566000000E+00 0.  1.
         22   -1    0    0    0    0 -0.00000000000E+00 -0.00000000000E+00 -0.18739349020E+02  0.18739349020E+02  0.00000000000E+00 0.  1.
         13    1    1    2    0    0 -0.61027600675E+01  0.20096720046E+02 -0.48865754882E-01  0.21003223299E+02  0.10566000000E+00 0. -1.
        996    1    1    2    0    0  0.61027600675E+01 -0.20096720046E+02  0.81309460920E+02  0.97736125728E+02  0.50000000000E+02 0.  0.
<mgrwt>
<rscale>  0 0.54232111E+02</rscale>
<asrwt>0</asrwt>
<pdfrwt beam="1">  1       13 0.10000000E+01 0.54232111E+02</pdfrwt>
<pdfrwt beam="2">  1       22 0.18739372E+00 0.54232111E+02</pdfrwt>
<totfact> 0.51292870E-01</totfact>
</mgrwt>
</event>
<event>
 4    1  0.2471347E+000  0.5801955E+02  0.7957747E-01  0.1406336E+00
         13   -1    0    0    0    0  0.00000000000E+00  0.00000000000E+00  0.99999944180E+02  0.10000000000E+03  0.10566000000E+00 0. -1.
         22   -1    0    0    0    0 -0.00000000000E+00 -0.00000000000E+00 -0.51589166560E+02  0.51589166560E+02  0.00000000000E+00 0.  1.
         13    1    1    2    0    0 -0.25849840537E+02 -0.14073164357E+02 -0.37655123643E+02  0.47793176410E+02  0.10566000000E+00 0.  1.
        996    1    1    2    0    0  0.25849840537E+02  0.14073164357E+02  0.86065901264E+02  0.10379599015E+03  0.50000000000E+02 0.  0.
<mgrwt>
<rscale>  0 0.58019550E+02</rscale>
<asrwt>0</asrwt>
<pdfrwt beam="1">  1       13 0.10000000E+01 0.58019550E+02</pdfrwt>
<pdfrwt beam="2">  1       22 0.51589180E+00 0.58019550E+02</pdfrwt>
<totfact> 0.67825922E-02</totfact>
</mgrwt>
</event>
<event>
 4    1  0.2471347E+000  0.5186458E+02  0.7957747E-01  0.1435536E+00
         13   -1    0    0    0    0  0.00000000000E+00  0.00000000000E+00  0.99999944187E+02  0.10000000001E+03  0.10566000000E+00 0. -1.
         22   -1    0    0    0    0 -0.00000000000E+00 -0.00000000000E+00 -0.10817891030E+02  0.10817891030E+02  0.00000000000E+00 0. -1.
         13    1    1    2    0    0  0.13274974508E+02  0.37026776917E+01  0.15940901921E+02  0.21072690582E+02  0.10566000000E+00 0.  1.
        996    1    1    2    0    0 -0.13274974508E+02 -0.37026776917E+01  0.73241151237E+02  0.89745200455E+02  0.50000000000E+02 0.  0.
<mgrwt>
<rscale>  0 0.51864581E+02</rscale>
<asrwt>0</asrwt>
<pdfrwt beam="1">  1       13 0.10000000E+01 0.51864581E+02</pdfrwt>
<pdfrwt beam="2">  1       22 0.10817916E+00 0.51864581E+02</pdfrwt>
<totfact> 0.12560797E+00</totfact>
</mgrwt>
</event>
<event>
 4    1  0.2471347E+000  0.5554759E+02  0.7957747E-01  0.1417527E+00
         13   -1    0    0    0    0  0.00000000000E+00  0.00000000000E+00  0.99999944169E+02  0.99999999989E+02  0.10566000000E+00 0. -1.
         22   -1    0    0    0    0 -0.00000000000E+00 -0.00000000000E+00 -0.24678469621E+02  0.24678469621E+02  0.00000000000E+00 0.  1.
         13    1    1    2    0    0  0.15022448163E+02  0.18970007631E+02 -0.71611226496E+01  0.25235450857E+02  0.10566000000E+00 0.  1.
        996    1    1    2    0    0 -0.15022448163E+02 -0.18970007631E+02  0.82482597197E+02  0.99443018753E+02  0.50000000000E+02 0.  0.
<mgrwt>
<rscale>  0 0.55547593E+02</rscale>
<asrwt>0</asrwt>
<pdfrwt beam="1">  1       13 0.10000000E+01 0.55547593E+02</pdfrwt>
<pdfrwt beam="2">  1       22 0.24678491E+00 0.55547593E+02</pdfrwt>
<totfact> 0.30403866E-01</totfact>
</mgrwt>
</event>
<event>
 4    1  0.2471347E+000  0.5146084E+02  0.7957747E-01  0.1437618E+00
         13   -1    0    0    0    0  0.00000000000E+00  0.00000000000E+00  0.99999944189E+02  0.10000000001E+03  0.10566000000E+00 0.  1.
         22   -1    0    0    0    0 -0.00000000000E+00 -0.00000000000E+00 -0.38159313161E+02  0.38159313161E+02  0.00000000000E+00 0. -1.
         13    1    1    2    0    0  0.11222516597E+02  0.47194249867E+01 -0.30281959211E+02  0.32637801223E+02  0.10566000000E+00 0. -1.
        996    1    1    2    0    0 -0.11222516597E+02 -0.47194249867E+01  0.92122590240E+02  0.10552151195E+03  0.50000000000E+02 0.  0.
<mgrwt>
<rscale>  0 0.51460838E+02</rscale>
<asrwt>0</asrwt>
<pdfrwt beam="1">  1       13 0.10000000E+01 0.51460838E+02</pdfrwt>
<pdfrwt beam="2">  1       22 0.38159330E+00 0.51460838E+02</pdfrwt>
<totfact> 0.13486038E-01</totfact>
</mgrwt>
</event>
<event>
 4    1  0.2471347E+000  0.5274292E+02  0.7957747E-01  0.1431085E+00
         13   -1    0    0    0    0  0.00000000000E+00  0.00000000000E+00  0.99999944179E+02  0.10000000000E+03  0.10566000000E+00 0.  1.
         22   -1    0    0    0    0 -0.00000000000E+00 -0.00000000000E+00 -0.66897065036E+02  0.66897065036E+02  0.00000000000E+00 0. -1.
         13    1    1    2    0    0  0.13244781950E+02  0.10314620561E+02 -0.58682689579E+02  0.61036750130E+02  0.10566000000E+00 0. -1.
        996    1    1    2    0    0 -0.13244781950E+02 -0.10314620561E+02  0.91785568722E+02  0.10586031491E+03  0.50000000000E+02 0.  0.
<mgrwt>
<rscale>  0 0.52742920E+02</rscale>
<asrwt>0</asrwt>
<pdfrwt beam="1">  1       13 0.10000000E+01 0.52742920E+02</pdfrwt>
<pdfrwt beam="2">  1       22 0.66897074E+00 0.52742920E+02</pdfrwt>
<totfact> 0.86466766E-02</totfact>
</mgrwt>
</event>
<event>
 4    1  0.2471347E+000  0.5362935E+02  0.7957747E-01  0.1426694E+00
         13   -1    0    0    0    0  0.00000000000E+00  0.00000000000E+00  0.99999944177E+02  0.99999999997E+02  0.10566000000E+00 0.  1.
         22   -1    0    0    0    0 -0.00000000000E+00 -0.00000000000E+00 -0.15455138977E+02  0.15455138977E+02  0.00000000000E+00 0. -1.
         13    1    1    2    0    0 -0.85921358059E+01  0.17386260164E+02  0.59113951568E+01  0.20274678714E+02  0.10566000000E+00 0. -1.
        996    1    1    2    0    0  0.85921358059E+01 -0.17386260164E+02  0.78633410043E+02  0.95180460260E+02  0.50000000000E+02 0.  0.
<mgrwt>
<rscale>  0 0.53629347E+02</rscale>
<asrwt>0</asrwt>
<pdfrwt beam="1">  1       13 0.10000000E+01 0.53629347E+02</pdfrwt>
<pdfrwt beam="2">  1       22 0.15455163E+00 0.53629347E+02</pdfrwt>
<totfact> 0.71847344E-01</totfact>
</mgrwt>
</event>
<event>
 4    1  0.2471347E+000  0.5145305E+02  0.7957747E-01  0.1437658E+00
         13   -1    0    0    0    0  0.00000000000E+00  0.00000000000E+00  0.99999944183E+02  0.10000000000E+03  0.10566000000E+00 0. -1.
         22   -1    0    0    0    0 -0.00000000000E+00 -0.00000000000E+00 -0.11842102116E+02  0.11842102116E+02  0.00000000000E+00 0. -1.
         13    1    1    2    0    0 -0.92602954827E+01 -0.78525860644E+01  0.32642670922E+01  0.12573097630E+02  0.10566000000E+00 0.  1.
        996    1    1    2    0    0  0.92602954827E+01  0.78525860644E+01  0.84893574975E+02  0.99269004490E+02  0.50000000000E+02 0.  0.
<mgrwt>
<rscale>  0 0.51453048E+02</rscale>
<asrwt>0</asrwt>
<pdfrwt beam="1">  1       13 0.10000000E+01 0.51453048E+02</pdfrwt>
<pdfrwt beam="2">  1       22 0.11842127E+00 0.51453048E+02</pdfrwt>
<totfact> 0.10955684E+00</totfact>
</mgrwt>
</event>
<event>
 4    1  0.2471347E+000  0.5155250E+02  0.7957747E-01  0.1437143E+00
         13   -1    0    0    0    0  0.00000000000E+00  0.00000000000E+00  0.99999944172E+02  0.99999999992E+02  0.10566000000E+00 0. -1.
         22   -1    0    0    0    0 -0.00000000000E+00 -0.00000000000E+00 -0.12123635427E+02  0.12123635427E+02  0.00000000000E+00 0. -1.
         13    1    1    2    0    0 -0.12437591235E+02  0.17224656396E+01  0.31497415037E+01  0.12945756030E+02  0.10566000000E+00 0.  1.
        996    1    1    2    0    0  0.12437591235E+02 -0.17224656396E+01  0.84726567241E+02  0.99177879389E+02  0.50000000000E+02 0.  0.
<mgrwt>
<rscale>  0 0.51552503E+02</rscale>
<asrwt>0</asrwt>
<pdfrwt beam="1">  1       13 0.10000000E+01 0.51552503E+02</pdfrwt>
<pdfrwt beam="2">  1       22 0.12123660E+00 0.51552503E+02</pdfrwt>
<totfact> 0.10571056E+00</totfact>
</mgrwt>
</event>
<event>
 4    1  0.2471347E+000  0.5658539E+02  0.7957747E-01  0.1412747E+00
         13   -1    0    0    0    0  0.00000000000E+00  0.00000000000E+00  0.99999944178E+02  0.99999999998E+02  0.10566000000E+00 0.  1.
         22   -1    0    0    0    0 -0.00000000000E+00 -0.00000000000E+00 -0.42203272098E+02  0.42203272098E+02  0.00000000000E+00 0. -1.
         13    1    1    2    0    0  0.30557867153E+01 -0.26316696486E+02 -0.28561733759E+02  0.38957542860E+02  0.10566000000E+00 0. -1.
        996    1    1    2    0    0 -0.30557867153E+01  0.26316696486E+02  0.86358405839E+02  0.10324572924E+03  0.50000000000E+02 0.  0.
<mgrwt>
<rscale>  0 0.56585390E+02</rscale>
<asrwt>0</asrwt>
<pdfrwt beam="1">  1       13 0.10000000E+01 0.56585390E+02</pdfrwt>
<pdfrwt beam="2">  1       22 0.42203288E+00 0.56585390E+02</pdfrwt>
<totfact> 0.11158370E-01</totfact>
</mgrwt>
</event>
<event>
 4    1  0.2471347E+000  0.5192166E+02  0.7957747E-01  0.1435244E+00
         13   -1    0    0    0    0  0.00000000000E+00  0.00000000000E+00  0.99999944174E+02  0.99999999995E+02  0.10566000000E+00 0. -1.
         22   -1    0    0    0    0 -0.00000000000E+00 -0.00000000000E+00 -0.19497635837E+02  0.19497635837E+02  0.00000000000E+00 0.  1.
         13    1    1    2    0    0 -0.11285842889E+02 -0.82757973763E+01 -0.85600463090E+01  0.16405627960E+02  0.10566000000E+00 0.  1.
        996    1    1    2    0    0  0.11285842889E+02  0.82757973763E+01  0.89062354646E+02  0.10309200787E+03  0.50000000000E+02 0.  0.
<mgrwt>
<rscale>  0 0.51921663E+02</rscale>
<asrwt>0</asrwt>
<pdfrwt beam="1">  1       13 0.10000000E+01 0.51921663E+02</pdfrwt>
<pdfrwt beam="2">  1       22 0.19497658E+00 0.51921663E+02</pdfrwt>
<totfact> 0.47492775E-01</totfact>
</mgrwt>
</event>
<event>
 4    1  0.2471347E+000  0.5195961E+02  0.7957747E-01  0.1435050E+00
         13   -1    0    0    0    0  0.00000000000E+00  0.00000000000E+00  0.99999944175E+02  0.99999999996E+02  0.10566000000E+00 0.  1.
         22   -1    0    0    0    0 -0.00000000000E+00 -0.00000000000E+00 -0.12430646953E+02  0.12430646953E+02  0.00000000000E+00 0. -1.
         13    1    1    2    0    0 -0.13859229056E+02 -0.27790178362E+01  0.52388118816E+01  0.15075061662E+02  0.10566000000E+00 0. -1.
        996    1    1    2    0    0  0.13859229056E+02  0.27790178362E+01  0.82330485340E+02  0.97355585287E+02  0.50000000000E+02 0.  0.
<mgrwt>
<rscale>  0 0.51959611E+02</rscale>
<asrwt>0</asrwt>
<pdfrwt beam="1">  1       13 0.10000000E+01 0.51959611E+02</pdfrwt>
<pdfrwt beam="2">  1       22 0.12430671E+00 0.51959611E+02</pdfrwt>
<totfact> 0.10179974E+00</totfact>
</mgrwt>
</event>
<event>
 4    1  0.2471347E+000  0.5289034E+02  0.7957747E-01  0.1430347E+00
         13   -1    0    0    0    0  0.00000000000E+00  0.00000000000E+00  0.99999944182E+02  0.10000000000E+03  0.10566000000E+00 0. -1.
         22   -1    0    0    0    0 -0.00000000000E+00 -0.00000000000E+00 -0.22721387968E+02  0.22721387968E+02  0.00000000000E+00 0.  1.
         13    1    1    2    0    0 -0.16664226362E+02  0.44375273564E+01 -0.10535967312E+02  0.20209053924E+02  0.10566000000E+00 0.  1.
        996    1    1    2    0    0  0.16664226362E+02 -0.44375273564E+01  0.87814523527E+02  0.10251233405E+03  0.50000000000E+02 0.  0.
<mgrwt>
<rscale>  0 0.52890340E+02</rscale>
<asrwt>0</asrwt>
<pdfrwt beam="1">  1       13 0.10000000E+01 0.52890340E+02</pdfrwt>
<pdfrwt beam="2">  1       22 0.22721410E+00 0.52890340E+02</pdfrwt>
<totfact> 0.35589517E-01</totfact>
</mgrwt>
</event>
<event>
 4    1  0.2471347E+000  0.5321600E+02  0.7957747E-01  0.1428729E+00
         13   -1    0    0    0    0  0.00000000000E+00  0.00000000000E+00  0.99999944172E+02  0.99999999992E+02  0.10566000000E+00 0.  1.
         22   -1    0    0    0    0 -0.00000000000E+00 -0.00000000000E+00 -0.54944576713E+02  0.54944576713E+02  0.00000000000E+00 0. -1.
         13    1    1    2    0    0  0.18121083542E+02 -0.18891686701E+01 -0.46001134884E+02  0.49477855670E+02  0.10566000000E+00 0. -1.
        996    1    1    2    0    0 -0.18121083542E+02  0.18891686701E+01  0.91056502343E+02  0.10546672104E+03  0.50000000000E+02 0.  0.
<mgrwt>
<rscale>  0 0.53216000E+02</rscale>
<asrwt>0</asrwt>
<pdfrwt beam="1">  1       13 0.10000000E+01 0.53216000E+02</pdfrwt>
<pdfrwt beam="2">  1       22 0.54944589E+00 0.53216000E+02</pdfrwt>
<totfact> 0.59293900E-02</totfact>
</mgrwt>
</event>
<event>
 4    1  0.2471347E+000  0.5328558E+02  0.7957747E-01  0.1428385E+00
         13   -1    0    0    0    0  0.00000000000E+00  0.00000000000E+00  0.99999944180E+02  0.10000000000E+03  0.10566000000E+00 0. -1.
         22   -1    0    0    0    0 -0.00000000000E+00 -0.00000000000E+00 -0.12855824528E+02  0.12855824528E+02  0.00000000000E+00 0.  1.
         13    1    1    2    0    0  0.15929765779E+02 -0.92517925667E+01  0.21962462286E+02  0.28665554542E+02  0.10566000000E+00 0.  1.
        996    1    1    2    0    0 -0.15929765779E+02  0.92517925667E+01  0.65181657366E+02  0.84190269987E+02  0.50000000000E+02 0.  0.
<mgrwt>
<rscale>  0 0.53285581E+02</rscale>
<asrwt>0</asrwt>
<pdfrwt beam="1">  1       13 0.10000000E+01 0.53285581E+02</pdfrwt>
<pdfrwt beam="2">  1       22 0.12855849E+00 0.53285581E+02</pdfrwt>
<totfact> 0.96872660E-01</totfact>
</mgrwt>
</event>
<event>
 4    1  0.2471347E+000  0.5305282E+02  0.7957747E-01  0.1429538E+00
         13   -1    0    0    0    0  0.00000000000E+00  0.00000000000E+00  0.99999944179E+02  0.99999999999E+02  0.10566000000E+00 0.  1.
         22   -1    0    0    0    0 -0.00000000000E+00 -0.00000000000E+00 -0.21845513859E+02  0.21845513859E+02  0.00000000000E+00 0. -1.
         13    1    1    2    0    0  0.17205165485E+02  0.43108909174E+01 -0.89415214491E+01  0.19863621768E+02  0.10566000000E+00 0. -1.
        996    1    1    2    0    0 -0.17205165485E+02 -0.43108909174E+01  0.87095951769E+02  0.10198189209E+03  0.50000000000E+02 0.  0.
<mgrwt>
<rscale>  0 0.53052818E+02</rscale>
<asrwt>0</asrwt>
<pdfrwt beam="1">  1       13 0.10000000E+01 0.53052818E+02</pdfrwt>
<pdfrwt beam="2">  1       22 0.21845536E+00 0.53052818E+02</pdfrwt>
<totfact> 0.38404883E-01</totfact>
</mgrwt>
</event>
<event>
 4    1  0.2471347E+000  0.5108461E+02  0.7957747E-01  0.1439578E+00
         13   -1    0    0    0    0  0.00000000000E+00  0.00000000000E+00  0.99999944175E+02  0.99999999995E+02  0.10566000000E+00 0.  1.
         22   -1    0    0    0    0 -0.00000000000E+00 -0.00000000000E+00 -0.97794255763E+01  0.97794255763E+01  0.00000000000E+00 0.  1.
         13    1    1    2    0    0 -0.33540332693E+01 -0.99190470558E+01  0.88891885786E+01  0.13735569565E+02  0.10566000000E+00 0. -1.
        996    1    1    2    0    0  0.33540332693E+01  0.99190470558E+01  0.81331330020E+02  0.96043856006E+02  0.50000000000E+02 0.  0.
<mgrwt>
<rscale>  0 0.51084607E+02</rscale>
<asrwt>0</asrwt>
<pdfrwt beam="1">  1       13 0.10000000E+01 0.51084607E+02</pdfrwt>
<pdfrwt beam="2">  1       22 0.97794508E-01 0.51084607E+02</pdfrwt>
<totfact> 0.14526972E+00</totfact>
</mgrwt>
</event>
<event>
 4    1  0.2471347E+000  0.5174295E+02  0.7957747E-01  0.1436161E+00
         13   -1    0    0    0    0  0.00000000000E+00  0.00000000000E+00  0.99999944175E+02  0.99999999995E+02  0.10566000000E+00 0.  1.
         22   -1    0    0    0    0 -0.00000000000E+00 -0.00000000000E+00 -0.77643828701E+02  0.77643828701E+02  0.00000000000E+00 0. -1.
         13    1    1    2    0    0 -0.13246569491E+02  0.13643392816E+01 -0.70283150273E+02  0.71533666208E+02  0.10566000000E+00 0. -1.
        996    1    1    2    0    0  0.13246569491E+02 -0.13643392816E+01  0.92639265747E+02  0.10611016249E+03  0.50000000000E+02 0.  0.
<mgrwt>
<rscale>  0 0.51742951E+02</rscale>
<asrwt>0</asrwt>
<pdfrwt beam="1">  1       13 0.10000000E+01 0.51742951E+02</pdfrwt>
<pdfrwt beam="2">  1       22 0.77643835E+00 0.51742951E+02</pdfrwt>
<totfact> 0.38357070E-02</totfact>
</mgrwt>
</event>
<event>
 4    1  0.2471347E+000  0.5149885E+02  0.7957747E-01  0.1437421E+00
         13   -1    0    0    0    0  0.00000000000E+00  0.00000000000E+00  0.99999944177E+02  0.99999999997E+02  0.10566000000E+00 0.  1.
         22   -1    0    0    0    0 -0.00000000000E+00 -0.00000000000E+00 -0.16742921115E+02  0.16742921115E+02  0.00000000000E+00 0. -1.
         13    1    1    2    0    0  0.85759006736E+01 -0.88648517457E+01 -0.59832129906E+01  0.13709181980E+02  0.10566000000E+00 0. -1.
        996    1    1    2    0    0 -0.85759006736E+01  0.88648517457E+01  0.89240236052E+02  0.10303373913E+03  0.50000000000E+02 0.  0.
<mgrwt>
<rscale>  0 0.51498851E+02</rscale>
<asrwt>0</asrwt>
<pdfrwt beam="1">  1       13 0.10000000E+01 0.51498851E+02</pdfrwt>
<pdfrwt beam="2">  1       22 0.16742944E+00 0.51498851E+02</pdfrwt>
<totfact> 0.62377170E-01</totfact>
</mgrwt>
</event>
<event>
 4    1  0.2471347E+000  0.5126944E+02  0.7957747E-01  0.1438612E+00
         13   -1    0    0    0    0  0.00000000000E+00  0.00000000000E+00  0.99999944179E+02  0.99999999999E+02  0.10566000000E+00 0.  1.
         22   -1    0    0    0    0 -0.00000000000E+00 -0.00000000000E+00 -0.10241108026E+02  0.10241108026E+02  0.00000000000E+00 0.  1.
         13    1    1    2    0    0  0.10219759341E+02  0.49103447264E+01  0.26436481678E+02  0.28765494849E+02  0.10566000000E+00 0. -1.
        996    1    1    2    0    0 -0.10219759341E+02 -0.49103447264E+01  0.63322354475E+02  0.81475613177E+02  0.50000000000E+02 0.  0.
<mgrwt>
<rscale>  0 0.51269435E+02</rscale>
<asrwt>0</asrwt>
<pdfrwt beam="1">  1       13 0.10000000E+01 0.51269435E+02</pdfrwt>
<pdfrwt beam="2">  1       22 0.10241133E+00 0.51269435E+02</pdfrwt>
<totfact> 0.13594261E+00</totfact>
</mgrwt>
</event>
<event>
 4    1  0.2471347E+000  0.5180026E+02  0.7957747E-01  0.1435866E+00
         13   -1    0    0    0    0  0.00000000000E+00  0.00000000000E+00  0.99999944181E+02  0.10000000000E+03  0.10566000000E+00 0. -1.
         22   -1    0    0    0    0 -0.00000000000E+00 -0.00000000000E+00 -0.11020178074E+02  0.11020178074E+02  0.00000000000E+00 0. -1.
         13    1    1    2    0    0 -0.11655491396E+02 -0.68859499308E+01  0.11202538324E+02  0.17571989502E+02  0.10566000000E+00 0.  1.
        996    1    1    2    0    0  0.11655491396E+02  0.68859499308E+01  0.77777227783E+02  0.93448188574E+02  0.50000000000E+02 0.  0.
<mgrwt>
<rscale>  0 0.51800259E+02</rscale>
<asrwt>0</asrwt>
<pdfrwt beam="1">  1       13 0.10000000E+01 0.51800259E+02</pdfrwt>
<pdfrwt beam="2">  1       22 0.11020203E+00 0.51800259E+02</pdfrwt>
<totfact> 0.12218205E+00</totfact>
</mgrwt>
</event>
<event>
 4    1  0.2471347E+000  0.5301363E+02  0.7957747E-01  0.1429733E+00
         13   -1    0    0    0    0  0.00000000000E+00  0.00000000000E+00  0.99999944185E+02  0.10000000000E+03  0.10566000000E+00 0.  1.
         22   -1    0    0    0    0 -0.00000000000E+00 -0.00000000000E+00 -0.13401629099E+02  0.13401629099E+02  0.00000000000E+00 0. -1.
         13    1    1    2    0    0 -0.20572719364E+01  0.17498929082E+02  0.10038151813E+02  0.20278573488E+02  0.10566000000E+00 0. -1.
        996    1    1    2    0    0  0.20572719364E+01 -0.17498929082E+02  0.76560163273E+02  0.93123055616E+02  0.50000000000E+02 0.  0.
<mgrwt>
<rscale>  0 0.53013629E+02</rscale>
<asrwt>0</asrwt>
<pdfrwt beam="1">  1       13 0.10000000E+01 0.53013629E+02</pdfrwt>
<pdfrwt beam="2">  1       22 0.13401653E+00 0.53013629E+02</pdfrwt>
<totfact> 0.90653424E-01</totfact>
</mgrwt>
</event>
<event>
 4    1  0.2471347E+000  0.5314189E+02  0.7957747E-01  0.1429096E+00
         13   -1    0    0    0    0  0.00000000000E+00  0.00000000000E+00  0.99999944184E+02  0.10000000000E+03  0.10566000000E+00 0.  1.
         22   -1    0    0    0    0 -0.00000000000E+00 -0.00000000000E+00 -0.26777653848E+02  0.26777653848E+02  0.00000000000E+00 0. -1.
         13    1    1    2    0    0  0.13297026578E+02  0.12134636877E+02 -0.15235972311E+02  0.23584027312E+02  0.10566000000E+00 0. -1.
        996    1    1    2    0    0 -0.13297026578E+02 -0.12134636877E+02  0.88458262647E+02  0.10319362654E+03  0.50000000000E+02 0.  0.
<mgrwt>
<rscale>  0 0.53141889E+02</rscale>
<asrwt>0</asrwt>
<pdfrwt beam="1">  1       13 0.10000000E+01 0.53141889E+02</pdfrwt>
<pdfrwt beam="2">  1       22 0.26777674E+00 0.53141889E+02</pdfrwt>
<totfact> 0.25799055E-01</totfact>
</mgrwt>
</event>
<event>
 4    1  0.2471347E+000  0.5138765E+02  0.7957747E-01  0.1437998E+00
         13   -1    0    0    0    0  0.00000000000E+00  0.00000000000E+00  0.99999944180E+02  0.10000000000E+03  0.10566000000E+00 0.  1.
         22   -1    0    0    0    0 -0.00000000000E+00 -0.00000000000E+00 -0.15425108631E+02  0.15425108631E+02  0.00000000000E+00 0. -1.
         13    1    1    2    0    0  0.32485824677E+01  0.11407752801E+02 -0.44208189634E+01  0.12658788108E+02  0.10566000000E+00 0. -1.
        996    1    1    2    0    0 -0.32485824677E+01 -0.11407752801E+02  0.88995654512E+02  0.10276632052E+03  0.50000000000E+02 0.  0.
<mgrwt>
<rscale>  0 0.51387646E+02</rscale>
<asrwt>0</asrwt>
<pdfrwt beam="1">  1       13 0.10000000E+01 0.51387646E+02</pdfrwt>
<pdfrwt beam="2">  1       22 0.15425132E+00 0.51387646E+02</pdfrwt>
<totfact> 0.71760990E-01</totfact>
</mgrwt>
</event>
<event>
 4    1  0.2471347E+000  0.5378854E+02  0.7957747E-01  0.1425916E+00
         13   -1    0    0    0    0  0.00000000000E+00  0.00000000000E+00  0.99999944178E+02  0.99999999999E+02  0.10566000000E+00 0.  1.
         22   -1    0    0    0    0 -0.00000000000E+00 -0.00000000000E+00 -0.34904086080E+02  0.34904086080E+02  0.00000000000E+00 0. -1.
         13    1    1    2    0    0 -0.18653680693E+02  0.67266412679E+01 -0.23814446721E+02  0.30989458575E+02  0.10566000000E+00 0. -1.
        996    1    1    2    0    0  0.18653680693E+02 -0.67266412679E+01  0.88910304819E+02  0.10391462750E+03  0.50000000000E+02 0.  0.
<mgrwt>
<rscale>  0 0.53788544E+02</rscale>
<asrwt>0</asrwt>
<pdfrwt beam="1">  1       13 0.10000000E+01 0.53788544E+02</pdfrwt>
<pdfrwt beam="2">  1       22 0.34904104E+00 0.53788544E+02</pdfrwt>
<totfact> 0.15818652E-01</totfact>
</mgrwt>
</event>
<event>
 4    1  0.2471347E+000  0.6011074E+02  0.7957747E-01  0.1397368E+00
         13   -1    0    0    0    0  0.00000000000E+00  0.00000000000E+00  0.99999944176E+02  0.99999999997E+02  0.10566000000E+00 0.  1.
         22   -1    0    0    0    0 -0.00000000000E+00 -0.00000000000E+00 -0.27450832749E+02  0.27450832749E+02  0.00000000000E+00 0. -1.
         13    1    1    2    0    0 -0.28117095059E+02 -0.17964678760E+02  0.17155813972E+00  0.33366769603E+02  0.10566000000E+00 0. -1.
        996    1    1    2    0    0  0.28117095059E+02  0.17964678760E+02  0.72377553287E+02  0.94084063142E+02  0.50000000000E+02 0.  0.
<mgrwt>
<rscale>  0 0.60110737E+02</rscale>
<asrwt>0</asrwt>
<pdfrwt beam="1">  1       13 0.10000000E+01 0.60110737E+02</pdfrwt>
<pdfrwt beam="2">  1       22 0.27450853E+00 0.60110737E+02</pdfrwt>
<totfact> 0.24805233E-01</totfact>
</mgrwt>
</event>
<event>
 4    1  0.2471347E+000  0.5129384E+02  0.7957747E-01  0.1438485E+00
         13   -1    0    0    0    0  0.00000000000E+00  0.00000000000E+00  0.99999944179E+02  0.99999999999E+02  0.10566000000E+00 0.  1.
         22   -1    0    0    0    0 -0.00000000000E+00 -0.00000000000E+00 -0.17030721536E+02  0.17030721536E+02  0.00000000000E+00 0. -1.
         13    1    1    2    0    0 -0.21469362338E+01 -0.11244918009E+02 -0.70342652982E+01  0.13436873466E+02  0.10566000000E+00 0. -1.
        996    1    1    2    0    0  0.21469362338E+01  0.11244918009E+02  0.90003487941E+02  0.10359384807E+03  0.50000000000E+02 0.  0.
<mgrwt>
<rscale>  0 0.51293835E+02</rscale>
<asrwt>0</asrwt>
<pdfrwt beam="1">  1       13 0.10000000E+01 0.51293835E+02</pdfrwt>
<pdfrwt beam="2">  1       22 0.17030745E+00 0.51293835E+02</pdfrwt>
<totfact> 0.60522963E-01</totfact>
</mgrwt>
</event>
<event>
 4    1  0.2471347E+000  0.5210170E+02  0.7957747E-01  0.1434324E+00
         13   -1    0    0    0    0  0.00000000000E+00  0.00000000000E+00  0.99999944173E+02  0.99999999993E+02  0.10566000000E+00 0. -1.
         22   -1    0    0    0    0 -0.00000000000E+00 -0.00000000000E+00 -0.11230180245E+02  0.11230180245E+02  0.00000000000E+00 0. -1.
         13    1    1    2    0    0  0.62619454287E+01 -0.13242941504E+02  0.15531448352E+02  0.21350047124E+02  0.10566000000E+00 0.  1.
        996    1    1    2    0    0 -0.62619454287E+01  0.13242941504E+02  0.73238315576E+02  0.89880133114E+02  0.50000000000E+02 0.  0.
<mgrwt>
<rscale>  0 0.52101703E+02</rscale>
<asrwt>0</asrwt>
<pdfrwt beam="1">  1       13 0.10000000E+01 0.52101703E+02</pdfrwt>
<pdfrwt beam="2">  1       22 0.11230205E+00 0.52101703E+02</pdfrwt>
<totfact> 0.11886922E+00</totfact>
</mgrwt>
</event>
<event>
 4    1  0.2471347E+000  0.5171291E+02  0.7957747E-01  0.1436316E+00
         13   -1    0    0    0    0  0.00000000000E+00  0.00000000000E+00  0.99999944183E+02  0.10000000000E+03  0.10566000000E+00 0.  1.
         22   -1    0    0    0    0 -0.00000000000E+00 -0.00000000000E+00 -0.11688694351E+02  0.11688694351E+02  0.00000000000E+00 0.  1.
         13    1    1    2    0    0 -0.13195191163E+02 -0.33411301141E+00  0.60432538401E+01  0.14517464735E+02  0.10566000000E+00 0. -1.
        996    1    1    2    0    0  0.13195191163E+02  0.33411301141E+00  0.82267995991E+02  0.97171229619E+02  0.50000000000E+02 0.  0.
<mgrwt>
<rscale>  0 0.51712907E+02</rscale>
<asrwt>0</asrwt>
<pdfrwt beam="1">  1       13 0.10000000E+01 0.51712907E+02</pdfrwt>
<pdfrwt beam="2">  1       22 0.11688719E+00 0.51712907E+02</pdfrwt>
<totfact> 0.11181489E+00</totfact>
</mgrwt>
</event>
<event>
 4    1  0.2471347E+000  0.5341722E+02  0.7957747E-01  0.1427736E+00
         13   -1    0    0    0    0  0.00000000000E+00  0.00000000000E+00  0.99999944172E+02  0.99999999993E+02  0.10566000000E+00 0. -1.
         22   -1    0    0    0    0 -0.00000000000E+00 -0.00000000000E+00 -0.57217790146E+02  0.57217790146E+02  0.00000000000E+00 0.  1.
         13    1    1    2    0    0  0.90979804141E+01 -0.16450715489E+02 -0.48187269482E+02  0.51724495086E+02  0.10566000000E+00 0.  1.
        996    1    1    2    0    0 -0.90979804141E+01  0.16450715489E+02  0.90969423508E+02  0.10549329505E+03  0.50000000000E+02 0.  0.
<mgrwt>
<rscale>  0 0.53417219E+02</rscale>
<asrwt>0</asrwt>
<pdfrwt beam="1">  1       13 0.10000000E+01 0.53417219E+02</pdfrwt>
<pdfrwt beam="2">  1       22 0.57217802E+00 0.53417219E+02</pdfrwt>
<totfact> 0.57815611E-02</totfact>
</mgrwt>
</event>
<event>
 4    1  0.2471347E+000  0.7684130E+02  0.7957747E-01  0.1338262E+00
         13   -1    0    0    0    0  0.00000000000E+00  0.00000000000E+00  0.99999944184E+02  0.10000000000E+03  0.10566000000E+00 0.  1.
         22   -1    0    0    0    0 -0.00000000000E+00 -0.00000000000E+00 -0.45848742282E+02  0.45848742282E+02  0.00000000000E+00 0. -1.
         13    1    1    2    0    0  0.49032910447E+02  0.31628460053E+02  0.19147079739E+02  0.61410158922E+02  0.10566000000E+00 0. -1.
        996    1    1    2    0    0 -0.49032910447E+02 -0.31628460053E+02  0.35004122162E+02  0.84438583364E+02  0.50000000000E+02 0.  0.
<mgrwt>
<rscale>  0 0.76841303E+02</rscale>
<asrwt>0</asrwt>
<pdfrwt beam="1">  1       13 0.10000000E+01 0.76841303E+02</pdfrwt>
<pdfrwt beam="2">  1       22 0.45848757E+00 0.76841303E+02</pdfrwt>
<totfact> 0.93474269E-02</totfact>
</mgrwt>
</event>
<event>
 4    1  0.2471347E+000  0.5119888E+02  0.7957747E-01  0.1438980E+00
         13   -1    0    0    0    0  0.00000000000E+00  0.00000000000E+00  0.99999944179E+02  0.10000000000E+03  0.10566000000E+00 0.  1.
         22   -1    0    0    0    0 -0.00000000000E+00 -0.00000000000E+00 -0.13634924046E+02  0.13634924046E+02  0.00000000000E+00 0.  1.
         13    1    1    2    0    0  0.10430018702E+02  0.35411436540E+01 -0.22967267959E+01  0.11252160082E+02  0.10566000000E+00 0. -1.
        996    1    1    2    0    0 -0.10430018702E+02 -0.35411436540E+01  0.88661746929E+02  0.10238276396E+03  0.50000000000E+02 0.  0.
<mgrwt>
<rscale>  0 0.51198877E+02</rscale>
<asrwt>0</asrwt>
<pdfrwt beam="1">  1       13 0.10000000E+01 0.51198877E+02</pdfrwt>
<pdfrwt beam="2">  1       22 0.13634948E+00 0.51198877E+02</pdfrwt>
<totfact> 0.87846957E-01</totfact>
</mgrwt>
</event>
<event>
 4    1  0.2471347E+000  0.5109053E+02  0.7957747E-01  0.1439547E+00
         13   -1    0    0    0    0  0.00000000000E+00  0.00000000000E+00  0.99999944185E+02  0.10000000000E+03  0.10566000000E+00 0. -1.
         22   -1    0    0    0    0 -0.00000000000E+00 -0.00000000000E+00 -0.15816567026E+02  0.15816567026E+02  0.00000000000E+00 0. -1.
         13    1    1    2    0    0  0.58026988810E+01 -0.87505085076E+01 -0.60535146856E+01  0.12120186365E+02  0.10566000000E+00 0.  1.
        996    1    1    2    0    0 -0.58026988810E+01  0.87505085076E+01  0.90236891844E+02  0.10369638067E+03  0.50000000000E+02 0.  0.
<mgrwt>
<rscale>  0 0.51090534E+02</rscale>
<asrwt>0</asrwt>
<pdfrwt beam="1">  1       13 0.10000000E+01 0.51090534E+02</pdfrwt>
<pdfrwt beam="2">  1       22 0.15816591E+00 0.51090534E+02</pdfrwt>
<totfact> 0.68739662E-01</totfact>
</mgrwt>
</event>
<event>
 4    1  0.2471347E+000  0.6778200E+02  0.7957747E-01  0.1367802E+00
         13   -1    0    0    0    0  0.00000000000E+00  0.00000000000E+00  0.99999944186E+02  0.10000000001E+03  0.10566000000E+00 0.  1.
         22   -1    0    0    0    0 -0.00000000000E+00 -0.00000000000E+00 -0.32482286282E+02  0.32482286282E+02  0.00000000000E+00 0. -1.
         13    1    1    2    0    0  0.35400723087E+01  0.45627490778E+02  0.32966814250E+02  0.56402322935E+02  0.10566000000E+00 0. -1.
        996    1    1    2    0    0 -0.35400723087E+01 -0.45627490778E+02  0.34550843654E+02  0.76079963353E+02  0.50000000000E+02 0.  0.
<mgrwt>
<rscale>  0 0.67782004E+02</rscale>
<asrwt>0</asrwt>
<pdfrwt beam="1">  1       13 0.10000000E+01 0.67782004E+02</pdfrwt>
<pdfrwt beam="2">  1       22 0.32482305E+00 0.67782004E+02</pdfrwt>
<totfact> 0.18204893E-01</totfact>
</mgrwt>
</event>
<event>
 4    1  0.2471347E+000  0.5125087E+02  0.7957747E-01  0.1438709E+00
         13   -1    0    0    0    0  0.00000000000E+00  0.00000000000E+00  0.99999944180E+02  0.10000000000E+03  0.10566000000E+00 0. -1.
         22   -1    0    0    0    0 -0.00000000000E+00 -0.00000000000E+00 -0.14974545017E+02  0.14974545017E+02  0.00000000000E+00 0.  1.
         13    1    1    2    0    0  0.10492451506E+02 -0.40694618510E+01 -0.42531400230E+01  0.12031310089E+02  0.10566000000E+00 0.  1.
        996    1    1    2    0    0 -0.10492451506E+02  0.40694618510E+01  0.89278539185E+02  0.10294323493E+03  0.50000000000E+02 0.  0.
<mgrwt>
<rscale>  0 0.51250874E+02</rscale>
<asrwt>0</asrwt>
<pdfrwt beam="1">  1       13 0.10000000E+01 0.51250874E+02</pdfrwt>
<pdfrwt beam="2">  1       22 0.14974569E+00 0.51250874E+02</pdfrwt>
<totfact> 0.75389148E-01</totfact>
</mgrwt>
</event>
<event>
 4    1  0.2471347E+000  0.5178986E+02  0.7957747E-01  0.1435920E+00
         13   -1    0    0    0    0  0.00000000000E+00  0.00000000000E+00  0.99999944176E+02  0.99999999996E+02  0.10566000000E+00 0.  1.
         22   -1    0    0    0    0 -0.00000000000E+00 -0.00000000000E+00 -0.34237371606E+02  0.34237371606E+02  0.00000000000E+00 0. -1.
         13    1    1    2    0    0  0.64942371226E+01 -0.11832755452E+02 -0.25757364133E+02  0.29079927588E+02  0.10566000000E+00 0. -1.
        996    1    1    2    0    0 -0.64942371226E+01  0.11832755452E+02  0.91519936703E+02  0.10515744401E+03  0.50000000000E+02 0.  0.
<mgrwt>
<rscale>  0 0.51789856E+02</rscale>
<asrwt>0</asrwt>
<pdfrwt beam="1">  1       13 0.10000000E+01 0.51789856E+02</pdfrwt>
<pdfrwt beam="2">  1       22 0.34237390E+00 0.51789856E+02</pdfrwt>
<totfact> 0.16326157E-01</totfact>
</mgrwt>
</event>
<event>
 4    1  0.2471347E+000  0.5351424E+02  0.7957747E-01  0.1427259E+00
         13   -1    0    0    0    0  0.00000000000E+00  0.00000000000E+00  0.99999944177E+02  0.99999999997E+02  0.10566000000E+00 0. -1.
         22   -1    0    0    0    0 -0.00000000000E+00 -0.00000000000E+00 -0.15290807810E+02  0.15290807810E+02  0.00000000000E+00 0.  1.
         13    1    1    2    0    0  0.64506885867E+01 -0.17948889519E+02  0.57784863123E+01  0.19929277114E+02  0.10566000000E+00 0.  1.
        996    1    1    2    0    0 -0.64506885867E+01  0.17948889519E+02  0.78930650054E+02  0.95361530693E+02  0.50000000000E+02 0.  0.
<mgrwt>
<rscale>  0 0.53514241E+02</rscale>
<asrwt>0</asrwt>
<pdfrwt beam="1">  1       13 0.10000000E+01 0.53514241E+02</pdfrwt>
<pdfrwt beam="2">  1       22 0.15290831E+00 0.53514241E+02</pdfrwt>
<totfact> 0.73135030E-01</totfact>
</mgrwt>
</event>
<event>
 4    1  0.2471347E+000  0.5206596E+02  0.7957747E-01  0.1434507E+00
         13   -1    0    0    0    0  0.00000000000E+00  0.00000000000E+00  0.99999944183E+02  0.10000000000E+03  0.10566000000E+00 0. -1.
         22   -1    0    0    0    0 -0.00000000000E+00 -0.00000000000E+00 -0.12252475927E+02  0.12252475927E+02  0.00000000000E+00 0. -1.
         13    1    1    2    0    0  0.14501511727E+02 -0.75524796362E+00  0.68690844534E+01  0.16064237521E+02  0.10566000000E+00 0.  1.
        996    1    1    2    0    0 -0.14501511727E+02  0.75524796362E+00  0.80878383802E+02  0.96188238409E+02  0.50000000000E+02 0.  0.
<mgrwt>
<rscale>  0 0.52065960E+02</rscale>
<asrwt>0</asrwt>
<pdfrwt beam="1">  1       13 0.10000000E+01 0.52065960E+02</pdfrwt>
<pdfrwt beam="2">  1       22 0.12252500E+00 0.52065960E+02</pdfrwt>
<totfact> 0.10412291E+00</totfact>
</mgrwt>
</event>
<event>
 4    1  0.2471347E+000  0.5149917E+02  0.7957747E-01  0.1437419E+00
         13   -1    0    0    0    0  0.00000000000E+00  0.00000000000E+00  0.99999944179E+02  0.99999999999E+02  0.10566000000E+00 0.  1.
         22   -1    0    0    0    0 -0.00000000000E+00 -0.00000000000E+00 -0.18352490858E+02  0.18352490858E+02  0.00000000000E+00 0. -1.
         13    1    1    2    0    0  0.23597516791E+01  0.12107680201E+02 -0.81856008737E+01  0.14804714572E+02  0.10566000000E+00 0. -1.
        996    1    1    2    0    0 -0.23597516791E+01 -0.12107680201E+02  0.89833054195E+02  0.10354777629E+03  0.50000000000E+02 0.  0.
<mgrwt>
<rscale>  0 0.51499168E+02</rscale>
<asrwt>0</asrwt>
<pdfrwt beam="1">  1       13 0.10000000E+01 0.51499168E+02</pdfrwt>
<pdfrwt beam="2">  1       22 0.18352514E+00 0.51499168E+02</pdfrwt>
<totfact> 0.53005903E-01</totfact>
</mgrwt>
</event>
<event>
 4    1  0.2471347E+000  0.5500399E+02  0.7957747E-01  0.1420080E+00
         13   -1    0    0    0    0  0.00000000000E+00  0.00000000000E+00  0.99999944174E+02  0.99999999994E+02  0.10566000000E+00 0.  1.
         22   -1    0    0    0    0 -0.00000000000E+00 -0.00000000000E+00 -0.25204970053E+02  0.25204970053E+02  0.00000000000E+00 0. -1.
         13    1    1    2    0    0 -0.10428469557E+02  0.20412887549E+02 -0.92849149417E+01  0.24731756203E+02  0.10566000000E+00 0. -1.
        996    1    1    2    0    0  0.10428469557E+02 -0.20412887549E+02  0.84079889063E+02  0.10047321384E+03  0.50000000000E+02 0.  0.
<mgrwt>
<rscale>  0 0.55003990E+02</rscale>
<asrwt>0</asrwt>
<pdfrwt beam="1">  1       13 0.10000000E+01 0.55003990E+02</pdfrwt>
<pdfrwt beam="2">  1       22 0.25204991E+00 0.55003990E+02</pdfrwt>
<totfact> 0.29141751E-01</totfact>
</mgrwt>
</event>
<event>
 4    1  0.2471347E+000  0.5206956E+02  0.7957747E-01  0.1434488E+00
         13   -1    0    0    0    0  0.00000000000E+00  0.00000000000E+00  0.99999944176E+02  0.99999999996E+02  0.10566000000E+00 0.  1.
         22   -1    0    0    0    0 -0.00000000000E+00 -0.00000000000E+00 -0.15512601740E+02  0.15512601740E+02  0.00000000000E+00 0.  1.
         13    1    1    2    0    0  0.14016747653E+02 -0.38432097165E+01 -0.18879945679E+01  0.14656574061E+02  0.10566000000E+00 0. -1.
        996    1    1    2    0    0 -0.14016747653E+02  0.38432097165E+01  0.86375337004E+02  0.10085602767E+03  0.50000000000E+02 0.  0.
<mgrwt>
<rscale>  0 0.52069564E+02</rscale>
<asrwt>0</asrwt>
<pdfrwt beam="1">  1       13 0.10000000E+01 0.52069564E+02</pdfrwt>
<pdfrwt beam="2">  1       22 0.15512625E+00 0.52069564E+02</pdfrwt>
<totfact> 0.71178487E-01</totfact>
</mgrwt>
</event>
<event>
 4    1  0.2471347E+000  0.5490986E+02  0.7957747E-01  0.1420526E+00
         13   -1    0    0    0    0  0.00000000000E+00  0.00000000000E+00  0.99999944180E+02  0.10000000000E+03  0.10566000000E+00 0.  1.
         22   -1    0    0    0    0 -0.00000000000E+00 -0.00000000000E+00 -0.42374793910E+02  0.42374793910E+02  0.00000000000E+00 0. -1.
         13    1    1    2    0    0 -0.10855218743E+02 -0.19931307205E+02 -0.30817468315E+02  0.38272970857E+02  0.10566000000E+00 0. -1.
        996    1    1    2    0    0  0.10855218743E+02  0.19931307205E+02  0.88442618585E+02  0.10410182305E+03  0.50000000000E+02 0.  0.
<mgrwt>
<rscale>  0 0.54909861E+02</rscale>
<asrwt>0</asrwt>
<pdfrwt beam="1">  1       13 0.10000000E+01 0.54909861E+02</pdfrwt>
<pdfrwt beam="2">  1       22 0.42374810E+00 0.54909861E+02</pdfrwt>
<totfact> 0.11052793E-01</totfact>
</mgrwt>
</event>
<event>
 4    1  0.2471347E+000  0.5340693E+02  0.7957747E-01  0.1427786E+00
         13   -1    0    0    0    0  0.00000000000E+00  0.00000000000E+00  0.99999944179E+02  0.99999999999E+02  0.10566000000E+00 0. -1.
         22   -1    0    0    0    0 -0.00000000000E+00 -0.00000000000E+00 -0.17003298908E+02  0.17003298908E+02  0.00000000000E+00 0.  1.
         13    1    1    2    0    0 -0.16527506890E+02 -0.88961877193E+01  0.55971811487E+00  0.18778314310E+02  0.10566000000E+00 0.  1.
        996    1    1    2    0    0  0.16527506890E+02  0.88961877193E+01  0.82436927156E+02  0.98224984596E+02  0.50000000000E+02 0.  0.
<mgrwt>
<rscale>  0 0.53406934E+02</rscale>
<asrwt>0</asrwt>
<pdfrwt beam="1">  1       13 0.10000000E+01 0.53406934E+02</pdfrwt>
<pdfrwt beam="2">  1       22 0.17003322E+00 0.53406934E+02</pdfrwt>
<totfact> 0.60941335E-01</totfact>
</mgrwt>
</event>
<event>
 4    1  0.2471347E+000  0.5561587E+02  0.7957747E-01  0.1417209E+00
         13   -1    0    0    0    0  0.00000000000E+00  0.00000000000E+00  0.99999944177E+02  0.99999999997E+02  0.10566000000E+00 0.  1.
         22   -1    0    0    0    0 -0.00000000000E+00 -0.00000000000E+00 -0.24696585414E+02  0.24696585414E+02  0.00000000000E+00 0. -1.
         13    1    1    2    0    0  0.13158416429E+02  0.20493435723E+02 -0.70213273985E+01  0.25346302159E+02  0.10566000000E+00 0. -1.
        996    1    1    2    0    0 -0.13158416429E+02 -0.20493435723E+02  0.82324686161E+02  0.99350283252E+02  0.50000000000E+02 0.  0.
<mgrwt>
<rscale>  0 0.55615869E+02</rscale>
<asrwt>0</asrwt>
<pdfrwt beam="1">  1       13 0.10000000E+01 0.55615869E+02</pdfrwt>
<pdfrwt beam="2">  1       22 0.24696606E+00 0.55615869E+02</pdfrwt>
<totfact> 0.30363023E-01</totfact>
</mgrwt>
</event>
<event>
 4    1  0.2471347E+000  0.5408658E+02  0.7957747E-01  0.1424469E+00
         13   -1    0    0    0    0  0.00000000000E+00  0.00000000000E+00  0.99999944174E+02  0.99999999994E+02  0.10566000000E+00 0.  1.
         22   -1    0    0    0    0 -0.00000000000E+00 -0.00000000000E+00 -0.17000497410E+02  0.17000497410E+02  0.00000000000E+00 0. -1.
         13    1    1    2    0    0  0.19970225035E+02  0.51524778547E+01  0.36103573006E+01  0.20938093511E+02  0.10566000000E+00 0. -1.
        996    1    1    2    0    0 -0.19970225035E+02 -0.51524778547E+01  0.79389089463E+02  0.96062403894E+02  0.50000000000E+02 0.  0.
<mgrwt>
<rscale>  0 0.54086578E+02</rscale>
<asrwt>0</asrwt>
<pdfrwt beam="1">  1       13 0.10000000E+01 0.54086578E+02</pdfrwt>
<pdfrwt beam="2">  1       22 0.17000521E+00 0.54086578E+02</pdfrwt>
<totfact> 0.61036440E-01</totfact>
</mgrwt>
</event>
<event>
 4    1  0.2471347E+000  0.5174766E+02  0.7957747E-01  0.1436137E+00
         13   -1    0    0    0    0  0.00000000000E+00  0.00000000000E+00  0.99999944180E+02  0.10000000000E+03  0.10566000000E+00 0. -1.
         22   -1    0    0    0    0 -0.00000000000E+00 -0.00000000000E+00 -0.16125712372E+02  0.16125712372E+02  0.00000000000E+00 0.  1.
         13    1    1    2    0    0  0.90748396162E+01 -0.97707751227E+01 -0.41942105762E+01  0.13979389363E+02  0.10566000000E+00 0.  1.
        996    1    1    2    0    0 -0.90748396162E+01  0.97707751227E+01  0.88068442384E+02  0.10214632301E+03  0.50000000000E+02 0.  0.
<mgrwt>
<rscale>  0 0.51747664E+02</rscale>
<asrwt>0</asrwt>
<pdfrwt beam="1">  1       13 0.10000000E+01 0.51747664E+02</pdfrwt>
<pdfrwt beam="2">  1       22 0.16125736E+00 0.51747664E+02</pdfrwt>
<totfact> 0.66592477E-01</totfact>
</mgrwt>
</event>
<event>
 4    1  0.2471347E+000  0.5215791E+02  0.7957747E-01  0.1434038E+00
         13   -1    0    0    0    0  0.00000000000E+00  0.00000000000E+00  0.99999944182E+02  0.10000000000E+03  0.10566000000E+00 0.  1.
         22   -1    0    0    0    0 -0.00000000000E+00 -0.00000000000E+00 -0.13966184966E+02  0.13966184966E+02  0.00000000000E+00 0. -1.
         13    1    1    2    0    0 -0.14072655741E+02 -0.47336572156E+01  0.18893618881E+01  0.14967565019E+02  0.10566000000E+00 0. -1.
        996    1    1    2    0    0  0.14072655741E+02  0.47336572156E+01  0.84144397327E+02  0.98998619949E+02  0.50000000000E+02 0.  0.
<mgrwt>
<rscale>  0 0.52157906E+02</rscale>
<asrwt>0</asrwt>
<pdfrwt beam="1">  1       13 0.10000000E+01 0.52157906E+02</pdfrwt>
<pdfrwt beam="2">  1       22 0.13966209E+00 0.52157906E+02</pdfrwt>
<totfact> 0.84686657E-01</totfact>
</mgrwt>
</event>
<event>
 4    1  0.2471347E+000  0.5290596E+02  0.7957747E-01  0.1430269E+00
         13   -1    0    0    0    0  0.00000000000E+00  0.00000000000E+00  0.99999944176E+02  0.99999999997E+02  0.10566000000E+00 0. -1.
         22   -1    0    0    0    0 -0.00000000000E+00 -0.00000000000E+00 -0.15830200584E+02  0.15830200584E+02  0.00000000000E+00 0. -1.
         13    1    1    2    0    0 -0.96869778561E+01  0.14324916342E+02  0.10801834389E+01  0.17326821072E+02  0.10566000000E+00 0.  1.
        996    1    1    2    0    0  0.96869778561E+01 -0.14324916342E+02  0.83089560153E+02  0.98503379509E+02  0.50000000000E+02 0.  0.
<mgrwt>
<rscale>  0 0.52905962E+02</rscale>
<asrwt>0</asrwt>
<pdfrwt beam="1">  1       13 0.10000000E+01 0.52905962E+02</pdfrwt>
<pdfrwt beam="2">  1       22 0.15830224E+00 0.52905962E+02</pdfrwt>
<totfact> 0.68888433E-01</totfact>
</mgrwt>
</event>
<event>
 4    1  0.2471347E+000  0.5404932E+02  0.7957747E-01  0.1424649E+00
         13   -1    0    0    0    0  0.00000000000E+00  0.00000000000E+00  0.99999944181E+02  0.10000000000E+03  0.10566000000E+00 0.  1.
         22   -1    0    0    0    0 -0.00000000000E+00 -0.00000000000E+00 -0.14010003371E+02  0.14010003371E+02  0.00000000000E+00 0.  1.
         13    1    1    2    0    0  0.14302636879E+02 -0.14722888980E+02  0.28250617968E+02  0.34920444745E+02  0.10566000000E+00 0. -1.
        996    1    1    2    0    0 -0.14302636879E+02  0.14722888980E+02  0.57739322842E+02  0.79089558627E+02  0.50000000000E+02 0.  0.
<mgrwt>
<rscale>  0 0.54049319E+02</rscale>
<asrwt>0</asrwt>
<pdfrwt beam="1">  1       13 0.10000000E+01 0.54049319E+02</pdfrwt>
<pdfrwt beam="2">  1       22 0.14010027E+00 0.54049319E+02</pdfrwt>
<totfact> 0.84585969E-01</totfact>
</mgrwt>
</event>
<event>
 4    1  0.2471347E+000  0.5106586E+02  0.7957747E-01  0.1439676E+00
         13   -1    0    0    0    0  0.00000000000E+00  0.00000000000E+00  0.99999944178E+02  0.99999999999E+02  0.10566000000E+00 0. -1.
         22   -1    0    0    0    0 -0.00000000000E+00 -0.00000000000E+00 -0.98974375681E+01  0.98974375681E+01  0.00000000000E+00 0.  1.
         13    1    1    2    0    0 -0.65947454739E+01 -0.80144212307E+01  0.75796857032E+01  0.12852408915E+02  0.10566000000E+00 0.  1.
        996    1    1    2    0    0  0.65947454739E+01  0.80144212307E+01  0.82522820907E+02  0.97045028652E+02  0.50000000000E+02 0.  0.
<mgrwt>
<rscale>  0 0.51065856E+02</rscale>
<asrwt>0</asrwt>
<pdfrwt beam="1">  1       13 0.10000000E+01 0.51065856E+02</pdfrwt>
<pdfrwt beam="2">  1       22 0.98974627E-01 0.51065856E+02</pdfrwt>
<totfact> 0.14277253E+00</totfact>
</mgrwt>
</event>
<event>
 4    1  0.2471347E+000  0.5191227E+02  0.7957747E-01  0.1435292E+00
         13   -1    0    0    0    0  0.00000000000E+00  0.00000000000E+00  0.99999944178E+02  0.99999999998E+02  0.10566000000E+00 0.  1.
         22   -1    0    0    0    0 -0.00000000000E+00 -0.00000000000E+00 -0.11199920760E+02  0.11199920760E+02  0.00000000000E+00 0.  1.
         13    1    1    2    0    0 -0.12660486697E+02  0.58818593943E+01  0.27741123021E+02  0.31055841058E+02  0.10566000000E+00 0. -1.
        996    1    1    2    0    0  0.12660486697E+02 -0.58818593943E+01  0.61058900397E+02  0.80144079701E+02  0.50000000000E+02 0.  0.
<mgrwt>
<rscale>  0 0.51912274E+02</rscale>
<asrwt>0</asrwt>
<pdfrwt beam="1">  1       13 0.10000000E+01 0.51912274E+02</pdfrwt>
<pdfrwt beam="2">  1       22 0.11199946E+00 0.51912274E+02</pdfrwt>
<totfact> 0.11929835E+00</totfact>
</mgrwt>
</event>
<event>
 4    1  0.2471347E+000  0.5162816E+02  0.7957747E-01  0.1436752E+00
         13   -1    0    0    0    0  0.00000000000E+00  0.00000000000E+00  0.99999944181E+02  0.10000000000E+03  0.10566000000E+00 0.  1.
         22   -1    0    0    0    0 -0.00000000000E+00 -0.00000000000E+00 -0.13702102922E+02  0.13702102922E+02  0.00000000000E+00 0. -1.
         13    1    1    2    0    0 -0.89001431818E+01 -0.92873013941E+01 -0.31686488172E+00  0.12867714763E+02  0.10566000000E+00 0. -1.
        996    1    1    2    0    0  0.89001431818E+01  0.92873013941E+01  0.86614706140E+02  0.10083438816E+03  0.50000000000E+02 0.  0.
<mgrwt>
<rscale>  0 0.51628156E+02</rscale>
<asrwt>0</asrwt>
<pdfrwt beam="1">  1       13 0.10000000E+01 0.51628156E+02</pdfrwt>
<pdfrwt beam="2">  1       22 0.13702127E+00 0.51628156E+02</pdfrwt>
<totfact> 0.87237147E-01</totfact>
</mgrwt>
</event>
<event>
 4    1  0.2471347E+000  0.5185938E+02  0.7957747E-01  0.1435563E+00
         13   -1    0    0    0    0  0.00000000000E+00  0.00000000000E+00  0.99999944178E+02  0.99999999998E+02  0.10566000000E+00 0. -1.
         22   -1    0    0    0    0 -0.00000000000E+00 -0.00000000000E+00 -0.20485093685E+02  0.20485093685E+02  0.00000000000E+00 0.  1.
         13    1    1    2    0    0  0.13472259273E+02 -0.28095660691E+01 -0.10014585936E+02  0.17020532510E+02  0.10566000000E+00 0.  1.
        996    1    1    2    0    0 -0.13472259273E+02  0.28095660691E+01  0.89529436429E+02  0.10346456117E+03  0.50000000000E+02 0.  0.
<mgrwt>
<rscale>  0 0.51859381E+02</rscale>
<asrwt>0</asrwt>
<pdfrwt beam="1">  1       13 0.10000000E+01 0.51859381E+02</pdfrwt>
<pdfrwt beam="2">  1       22 0.20485116E+00 0.51859381E+02</pdfrwt>
<totfact> 0.43308073E-01</totfact>
</mgrwt>
</event>
<event>
 4    1  0.2471347E+000  0.5317991E+02  0.7957747E-01  0.1428908E+00
         13   -1    0    0    0    0  0.00000000000E+00  0.00000000000E+00  0.99999944177E+02  0.99999999997E+02  0.10566000000E+00 0.  1.
         22   -1    0    0    0    0 -0.00000000000E+00 -0.00000000000E+00 -0.15628340437E+02  0.15628340437E+02  0.00000000000E+00 0. -1.
         13    1    1    2    0    0  0.75506655100E+01  0.16464825981E+02  0.29120986399E+01  0.18346512659E+02  0.10566000000E+00 0. -1.
        996    1    1    2    0    0 -0.75506655100E+01 -0.16464825981E+02  0.81459505099E+02  0.97281827775E+02  0.50000000000E+02 0.  0.
<mgrwt>
<rscale>  0 0.53179912E+02</rscale>
<asrwt>0</asrwt>
<pdfrwt beam="1">  1       13 0.10000000E+01 0.53179912E+02</pdfrwt>
<pdfrwt beam="2">  1       22 0.15628364E+00 0.53179912E+02</pdfrwt>
<totfact> 0.70444474E-01</totfact>
</mgrwt>
</event>
<event>
 4    1  0.2471347E+000  0.8369383E+02  0.7957747E-01  0.1318884E+00
         13   -1    0    0    0    0  0.00000000000E+00  0.00000000000E+00  0.99999944179E+02  0.99999999999E+02  0.10566000000E+00 0.  1.
         22   -1    0    0    0    0 -0.00000000000E+00 -0.00000000000E+00 -0.57887332359E+02  0.57887332359E+02  0.00000000000E+00 0. -1.
         13    1    1    2    0    0  0.24771570861E+00  0.67116280609E+02  0.29238998963E+02  0.73209198263E+02  0.10566000000E+00 0. -1.
        996    1    1    2    0    0 -0.24771570861E+00 -0.67116280609E+02  0.12873612857E+02  0.84678134095E+02  0.50000000000E+02 0.  0.
<mgrwt>
<rscale>  0 0.83693826E+02</rscale>
<asrwt>0</asrwt>
<pdfrwt beam="1">  1       13 0.10000000E+01 0.83693826E+02</pdfrwt>
<pdfrwt beam="2">  1       22 0.57887344E+00 0.83693826E+02</pdfrwt>
<totfact> 0.58442496E-02</totfact>
</mgrwt>
</event>
<event>
 4    1  0.2471347E+000  0.6286058E+02  0.7957747E-01  0.1386205E+00
         13   -1    0    0    0    0  0.00000000000E+00  0.00000000000E+00  0.99999944175E+02  0.99999999995E+02  0.10566000000E+00 0.  1.
         22   -1    0    0    0    0 -0.00000000000E+00 -0.00000000000E+00 -0.29571668300E+02  0.29571668300E+02  0.00000000000E+00 0. -1.
         13    1    1    2    0    0 -0.10017282677E+02 -0.36757395996E+02  0.43105420839E+01  0.38341153475E+02  0.10566000000E+00 0. -1.
        996    1    1    2    0    0  0.10017282677E+02  0.36757395996E+02  0.66117733791E+02  0.91230514820E+02  0.50000000000E+02 0.  0.
<mgrwt>
<rscale>  0 0.62860577E+02</rscale>
<asrwt>0</asrwt>
<pdfrwt beam="1">  1       13 0.10000000E+01 0.62860577E+02</pdfrwt>
<pdfrwt beam="2">  1       22 0.29571688E+00 0.62860577E+02</pdfrwt>
<totfact> 0.21551493E-01</totfact>
</mgrwt>
</event>
<event>
 4    1  0.2471347E+000  0.5167743E+02  0.7957747E-01  0.1436498E+00
         13   -1    0    0    0    0  0.00000000000E+00  0.00000000000E+00  0.99999944182E+02  0.10000000000E+03  0.10566000000E+00 0.  1.
         22   -1    0    0    0    0 -0.00000000000E+00 -0.00000000000E+00 -0.13966824174E+02  0.13966824174E+02  0.00000000000E+00 0.  1.
         13    1    1    2    0    0  0.95428873643E+01 -0.89157240957E+01 -0.61926194421E+00  0.13074841674E+02  0.10566000000E+00 0. -1.
        996    1    1    2    0    0 -0.95428873643E+01  0.89157240957E+01  0.86652381953E+02  0.10089198250E+03  0.50000000000E+02 0.  0.
<mgrwt>
<rscale>  0 0.51677431E+02</rscale>
<asrwt>0</asrwt>
<pdfrwt beam="1">  1       13 0.10000000E+01 0.51677431E+02</pdfrwt>
<pdfrwt beam="2">  1       22 0.13966848E+00 0.51677431E+02</pdfrwt>
<totfact> 0.84594648E-01</totfact>
</mgrwt>
</event>
<event>
 4    1  0.2471347E+000  0.5302348E+02  0.7957747E-01  0.1429684E+00
         13   -1    0    0    0    0  0.00000000000E+00  0.00000000000E+00  0.99999944182E+02  0.10000000000E+03  0.10566000000E+00 0. -1.
         22   -1    0    0    0    0 -0.00000000000E+00 -0.00000000000E+00 -0.46236517397E+02  0.46236517397E+02  0.00000000000E+00 0.  1.
         13    1    1    2    0    0 -0.14662716034E+02  0.98231572064E+01 -0.37071367312E+02  0.41058337733E+02  0.10566000000E+00 0.  1.
        996    1    1    2    0    0  0.14662716034E+02 -0.98231572064E+01  0.90834794098E+02  0.10517817967E+03  0.50000000000E+02 0.  0.
<mgrwt>
<rscale>  0 0.53023482E+02</rscale>
<asrwt>0</asrwt>
<pdfrwt beam="1">  1       13 0.10000000E+01 0.53023482E+02</pdfrwt>
<pdfrwt beam="2">  1       22 0.46236532E+00 0.53023482E+02</pdfrwt>
<totfact> 0.90574338E-02</totfact>
</mgrwt>
</event>
<event>
 4    1  0.2471347E+000  0.5156345E+02  0.7957747E-01  0.1437087E+00
         13   -1    0    0    0    0  0.00000000000E+00  0.00000000000E+00  0.99999944177E+02  0.99999999997E+02  0.10566000000E+00 0. -1.
         22   -1    0    0    0    0 -0.00000000000E+00 -0.00000000000E+00 -0.11863573673E+02  0.11863573673E+02  0.00000000000E+00 0. -1.
         13    1    1    2    0    0  0.40829265267E+01  0.11921381287E+02  0.37635901430E+02  0.39689568672E+02  0.10566000000E+00 0.  1.
        996    1    1    2    0    0 -0.40829265267E+01 -0.11921381287E+02  0.50500469074E+02  0.72174004998E+02  0.50000000000E+02 0.  0.
<mgrwt>
<rscale>  0 0.51563452E+02</rscale>
<asrwt>0</asrwt>
<pdfrwt beam="1">  1       13 0.10000000E+01 0.51563452E+02</pdfrwt>
<pdfrwt beam="2">  1       22 0.11863598E+00 0.51563452E+02</pdfrwt>
<totfact> 0.10928195E+00</totfact>
</mgrwt>
</event>
<event>
 4    1  0.2471347E+000  0.5176621E+02  0.7957747E-01  0.1436041E+00
         13   -1    0    0    0    0  0.00000000000E+00  0.00000000000E+00  0.99999944183E+02  0.10000000000E+03  0.10566000000E+00 0. -1.
         22   -1    0    0    0    0 -0.00000000000E+00 -0.00000000000E+00 -0.26681234716E+02  0.26681234716E+02  0.00000000000E+00 0. -1.
         13    1    1    2    0    0  0.11321321635E+02  0.71810954725E+01 -0.17559991131E+02  0.22093096395E+02  0.10566000000E+00 0.  1.
        996    1    1    2    0    0 -0.11321321635E+02 -0.71810954725E+01  0.90878700598E+02  0.10458813832E+03  0.50000000000E+02 0.  0.
<mgrwt>
<rscale>  0 0.51766210E+02</rscale>
<asrwt>0</asrwt>
<pdfrwt beam="1">  1       13 0.10000000E+01 0.51766210E+02</pdfrwt>
<pdfrwt beam="2">  1       22 0.26681255E+00 0.51766210E+02</pdfrwt>
<totfact> 0.25929402E-01</totfact>
</mgrwt>
</event>
<event>
 4    1  0.2471347E+000  0.5262125E+02  0.7957747E-01  0.1431695E+00
         13   -1    0    0    0    0  0.00000000000E+00  0.00000000000E+00  0.99999944176E+02  0.99999999996E+02  0.10566000000E+00 0. -1.
         22   -1    0    0    0    0 -0.00000000000E+00 -0.00000000000E+00 -0.12835585434E+02  0.12835585434E+02  0.00000000000E+00 0.  1.
         13    1    1    2    0    0 -0.75688939953E+01 -0.14550184764E+02  0.92910404495E+01  0.18850215639E+02  0.10566000000E+00 0.  1.
        996    1    1    2    0    0  0.75688939953E+01  0.14550184764E+02  0.77873318292E+02  0.93985369791E+02  0.50000000000E+02 0.  0.
<mgrwt>
<rscale>  0 0.52621251E+02</rscale>
<asrwt>0</asrwt>
<pdfrwt beam="1">  1       13 0.10000000E+01 0.52621251E+02</pdfrwt>
<pdfrwt beam="2">  1       22 0.12835610E+00 0.52621251E+02</pdfrwt>
<totfact> 0.96974978E-01</totfact>
</mgrwt>
</event>
<event>
 4    1  0.2471347E+000  0.5374823E+02  0.7957747E-01  0.1426113E+00
         13   -1    0    0    0    0  0.00000000000E+00  0.00000000000E+00  0.99999944177E+02  0.99999999997E+02  0.10566000000E+00 0.  1.
         22   -1    0    0    0    0 -0.00000000000E+00 -0.00000000000E+00 -0.18338321235E+02  0.18338321235E+02  0.00000000000E+00 0.  1.
         13    1    1    2    0    0 -0.12392205989E+02  0.15339661092E+02 -0.99279201183E+00  0.19745094877E+02  0.10566000000E+00 0. -1.
        996    1    1    2    0    0  0.12392205989E+02 -0.15339661092E+02  0.82654414954E+02  0.98593226355E+02  0.50000000000E+02 0.  0.
<mgrwt>
<rscale>  0 0.53748228E+02</rscale>
<asrwt>0</asrwt>
<pdfrwt beam="1">  1       13 0.10000000E+01 0.53748228E+02</pdfrwt>
<pdfrwt beam="2">  1       22 0.18338344E+00 0.53748228E+02</pdfrwt>
<totfact> 0.53301088E-01</totfact>
</mgrwt>
</event>
<event>
 4    1  0.2471347E+000  0.5236863E+02  0.7957747E-01  0.1432969E+00
         13   -1    0    0    0    0  0.00000000000E+00  0.00000000000E+00  0.99999944176E+02  0.99999999996E+02  0.10566000000E+00 0. -1.
         22   -1    0    0    0    0 -0.00000000000E+00 -0.00000000000E+00 -0.14220228522E+02  0.14220228522E+02  0.00000000000E+00 0.  1.
         13    1    1    2    0    0  0.43522962043E+01 -0.14950946560E+02  0.23956261190E+01  0.15755109452E+02  0.10566000000E+00 0.  1.
        996    1    1    2    0    0 -0.43522962043E+01  0.14950946560E+02  0.83384089534E+02  0.98465119067E+02  0.50000000000E+02 0.  0.
<mgrwt>
<rscale>  0 0.52368629E+02</rscale>
<asrwt>0</asrwt>
<pdfrwt beam="1">  1       13 0.10000000E+01 0.52368629E+02</pdfrwt>
<pdfrwt beam="2">  1       22 0.14220252E+00 0.52368629E+02</pdfrwt>
<totfact> 0.82278090E-01</totfact>
</mgrwt>
</event>
<event>
 4    1  0.2471347E+000  0.5151156E+02  0.7957747E-01  0.1437355E+00
         13   -1    0    0    0    0  0.00000000000E+00  0.00000000000E+00  0.99999944176E+02  0.99999999996E+02  0.10566000000E+00 0. -1.
         22   -1    0    0    0    0 -0.00000000000E+00 -0.00000000000E+00 -0.10207766204E+02  0.10207766204E+02  0.00000000000E+00 0. -1.
         13    1    1    2    0    0 -0.58236447742E+01 -0.10932786085E+02  0.17499555888E+02  0.21440295482E+02  0.10566000000E+00 0.  1.
        996    1    1    2    0    0  0.58236447742E+01  0.10932786085E+02  0.72292622084E+02  0.88767470719E+02  0.50000000000E+02 0.  0.
<mgrwt>
<rscale>  0 0.51511558E+02</rscale>
<asrwt>0</asrwt>
<pdfrwt beam="1">  1       13 0.10000000E+01 0.51511558E+02</pdfrwt>
<pdfrwt beam="2">  1       22 0.10207791E+00 0.51511558E+02</pdfrwt>
<totfact> 0.13666952E+00</totfact>
</mgrwt>
</event>
<event>
 4    1  0.2471347E+000  0.5161337E+02  0.7957747E-01  0.1436829E+00
         13   -1    0    0    0    0  0.00000000000E+00  0.00000000000E+00  0.99999944178E+02  0.99999999998E+02  0.10566000000E+00 0. -1.
         22   -1    0    0    0    0 -0.00000000000E+00 -0.00000000000E+00 -0.11540025936E+02  0.11540025936E+02  0.00000000000E+00 0. -1.
         13    1    1    2    0    0 -0.74323382729E+01 -0.10425944253E+02  0.57250937686E+01  0.14025969787E+02  0.10566000000E+00 0.  1.
        996    1    1    2    0    0  0.74323382729E+01  0.10425944253E+02  0.82734824473E+02  0.97514056147E+02  0.50000000000E+02 0.  0.
<mgrwt>
<rscale>  0 0.51613370E+02</rscale>
<asrwt>0</asrwt>
<pdfrwt beam="1">  1       13 0.10000000E+01 0.51613370E+02</pdfrwt>
<pdfrwt beam="2">  1       22 0.11540051E+00 0.51613370E+02</pdfrwt>
<totfact> 0.11397567E+00</totfact>
</mgrwt>
</event>
<event>
 4    1  0.2471347E+000  0.5478446E+02  0.7957747E-01  0.1421121E+00
         13   -1    0    0    0    0  0.00000000000E+00  0.00000000000E+00  0.99999944174E+02  0.99999999994E+02  0.10566000000E+00 0. -1.
         22   -1    0    0    0    0 -0.00000000000E+00 -0.00000000000E+00 -0.35976550761E+02  0.35976550761E+02  0.00000000000E+00 0.  1.
         13    1    1    2    0    0  0.21018649985E+02  0.77170844513E+01 -0.23666524716E+02  0.32579941618E+02  0.10566000000E+00 0.  1.
        996    1    1    2    0    0 -0.21018649985E+02 -0.77170844513E+01  0.87689918129E+02  0.10339660914E+03  0.50000000000E+02 0.  0.
<mgrwt>
<rscale>  0 0.54784460E+02</rscale>
<asrwt>0</asrwt>
<pdfrwt beam="1">  1       13 0.10000000E+01 0.54784460E+02</pdfrwt>
<pdfrwt beam="2">  1       22 0.35976569E+00 0.54784460E+02</pdfrwt>
<totfact> 0.15017515E-01</totfact>
</mgrwt>
</event>
<event>
 4    1  0.2471347E+000  0.5264480E+02  0.7957747E-01  0.1431577E+00
         13   -1    0    0    0    0  0.00000000000E+00  0.00000000000E+00  0.99999944177E+02  0.99999999997E+02  0.10566000000E+00 0.  1.
         22   -1    0    0    0    0 -0.00000000000E+00 -0.00000000000E+00 -0.11948610080E+02  0.11948610080E+02  0.00000000000E+00 0.  1.
         13    1    1    2    0    0 -0.14987488874E+02 -0.68447549158E+01  0.20110720762E+02  0.25998610467E+02  0.10566000000E+00 0. -1.
        996    1    1    2    0    0  0.14987488874E+02  0.68447549158E+01  0.67940613335E+02  0.85949999610E+02  0.50000000000E+02 0.  0.
<mgrwt>
<rscale>  0 0.52644805E+02</rscale>
<asrwt>0</asrwt>
<pdfrwt beam="1">  1       13 0.10000000E+01 0.52644805E+02</pdfrwt>
<pdfrwt beam="2">  1       22 0.11948635E+00 0.52644805E+02</pdfrwt>
<totfact> 0.10835773E+00</totfact>
</mgrwt>
</event>
<event>
 4    1  0.2471347E+000  0.5258389E+02  0.7957747E-01  0.1431883E+00
         13   -1    0    0    0    0  0.00000000000E+00  0.00000000000E+00  0.99999944178E+02  0.99999999998E+02  0.10566000000E+00 0.  1.
         22   -1    0    0    0    0 -0.00000000000E+00 -0.00000000000E+00 -0.21611542876E+02  0.21611542876E+02  0.00000000000E+00 0. -1.
         13    1    1    2    0    0  0.14633299119E+02  0.71366919062E+01 -0.97511917152E+01  0.18977953482E+02  0.10566000000E+00 0. -1.
        996    1    1    2    0    0 -0.14633299119E+02 -0.71366919062E+01  0.88139593017E+02  0.10263358939E+03  0.50000000000E+02 0.  0.
<mgrwt>
<rscale>  0 0.52583893E+02</rscale>
<asrwt>0</asrwt>
<pdfrwt beam="1">  1       13 0.10000000E+01 0.52583893E+02</pdfrwt>
<pdfrwt beam="2">  1       22 0.21611565E+00 0.52583893E+02</pdfrwt>
<totfact> 0.39174681E-01</totfact>
</mgrwt>
</event>
<event>
 4    1  0.2471347E+000  0.6150003E+02  0.7957747E-01  0.1391642E+00
         13   -1    0    0    0    0  0.00000000000E+00  0.00000000000E+00  0.99999944180E+02  0.10000000000E+03  0.10566000000E+00 0.  1.
         22   -1    0    0    0    0 -0.00000000000E+00 -0.00000000000E+00 -0.26024053984E+02  0.26024053984E+02  0.00000000000E+00 0.  1.
         13    1    1    2    0    0  0.15229780976E+02 -0.32408445619E+02  0.97736242775E+01  0.37118573135E+02  0.10566000000E+00 0. -1.
        996    1    1    2    0    0 -0.15229780976E+02  0.32408445619E+02  0.64202265918E+02  0.88905480849E+02  0.50000000000E+02 0.  0.
<mgrwt>
<rscale>  0 0.61500029E+02</rscale>
<asrwt>0</asrwt>
<pdfrwt beam="1">  1       13 0.10000000E+01 0.61500029E+02</pdfrwt>
<pdfrwt beam="2">  1       22 0.26024075E+00 0.61500029E+02</pdfrwt>
<totfact> 0.27602153E-01</totfact>
</mgrwt>
</event>
<event>
 4    1  0.2471347E+000  0.5165064E+02  0.7957747E-01  0.1436636E+00
         13   -1    0    0    0    0  0.00000000000E+00  0.00000000000E+00  0.99999944185E+02  0.10000000000E+03  0.10566000000E+00 0. -1.
         22   -1    0    0    0    0 -0.00000000000E+00 -0.00000000000E+00 -0.34252578398E+02  0.34252578398E+02  0.00000000000E+00 0.  1.
         13    1    1    2    0    0 -0.70109605449E+01  0.10891992825E+02 -0.25953156895E+02  0.29006319869E+02  0.10566000000E+00 0.  1.
        996    1    1    2    0    0  0.70109605449E+01 -0.10891992825E+02  0.91700522682E+02  0.10524625853E+03  0.50000000000E+02 0.  0.
<mgrwt>
<rscale>  0 0.51650644E+02</rscale>
<asrwt>0</asrwt>
<pdfrwt beam="1">  1       13 0.10000000E+01 0.51650644E+02</pdfrwt>
<pdfrwt beam="2">  1       22 0.34252597E+00 0.51650644E+02</pdfrwt>
<totfact> 0.16311039E-01</totfact>
</mgrwt>
</event>
<event>
 4    1  0.2471347E+000  0.5127498E+02  0.7957747E-01  0.1438584E+00
         13   -1    0    0    0    0  0.00000000000E+00  0.00000000000E+00  0.99999944187E+02  0.10000000001E+03  0.10566000000E+00 0.  1.
         22   -1    0    0    0    0 -0.00000000000E+00 -0.00000000000E+00 -0.10542543181E+02  0.10542543181E+02  0.00000000000E+00 0.  1.
         13    1    1    2    0    0  0.11358251052E+02  0.33655907749E+00  0.29712940269E+02  0.31811839344E+02  0.10566000000E+00 0. -1.
        996    1    1    2    0    0 -0.11358251052E+02 -0.33655907749E+00  0.59744460737E+02  0.78730703844E+02  0.50000000000E+02 0.  0.
<mgrwt>
<rscale>  0 0.51274976E+02</rscale>
<asrwt>0</asrwt>
<pdfrwt beam="1">  1       13 0.10000000E+01 0.51274976E+02</pdfrwt>
<pdfrwt beam="2">  1       22 0.10542568E+00 0.51274976E+02</pdfrwt>
<totfact> 0.13029489E+00</totfact>
</mgrwt>
</event>
<event>
 4    1  0.2471347E+000  0.5257264E+02  0.7957747E-01  0.1431940E+00
         13   -1    0    0    0    0  0.00000000000E+00  0.00000000000E+00  0.99999944188E+02  0.10000000001E+03  0.10566000000E+00 0.  1.
         22   -1    0    0    0    0 -0.00000000000E+00 -0.00000000000E+00 -0.20053946939E+02  0.20053946939E+02  0.00000000000E+00 0. -1.
         13    1    1    2    0    0 -0.16181982353E+02 -0.14232698469E+01 -0.76006000467E+01  0.17934952886E+02  0.10566000000E+00 0. -1.
        996    1    1    2    0    0  0.16181982353E+02  0.14232698469E+01  0.87546597295E+02  0.10211899406E+03  0.50000000000E+02 0.  0.
<mgrwt>
<rscale>  0 0.52572638E+02</rscale>
<asrwt>0</asrwt>
<pdfrwt beam="1">  1       13 0.10000000E+01 0.52572638E+02</pdfrwt>
<pdfrwt beam="2">  1       22 0.20053969E+00 0.52572638E+02</pdfrwt>
<totfact> 0.45126731E-01</totfact>
</mgrwt>
</event>
<event>
 4    1  0.2471347E+000  0.5298461E+02  0.7957747E-01  0.1429877E+00
         13   -1    0    0    0    0  0.00000000000E+00  0.00000000000E+00  0.99999944177E+02  0.99999999997E+02  0.10566000000E+00 0. -1.
         22   -1    0    0    0    0 -0.00000000000E+00 -0.00000000000E+00 -0.18975218849E+02  0.18975218849E+02  0.00000000000E+00 0.  1.
         13    1    1    2    0    0 -0.14803465367E+02  0.93928680526E+01 -0.47418248199E+01  0.18162175635E+02  0.10566000000E+00 0.  1.
        996    1    1    2    0    0  0.14803465367E+02 -0.93928680526E+01  0.85766550148E+02  0.10081304321E+03  0.50000000000E+02 0.  0.
<mgrwt>
<rscale>  0 0.52984607E+02</rscale>
<asrwt>0</asrwt>
<pdfrwt beam="1">  1       13 0.10000000E+01 0.52984607E+02</pdfrwt>
<pdfrwt beam="2">  1       22 0.18975241E+00 0.52984607E+02</pdfrwt>
<totfact> 0.50022277E-01</totfact>
</mgrwt>
</event>
<event>
 4    1  0.2471347E+000  0.5805048E+02  0.7957747E-01  0.1406200E+00
         13   -1    0    0    0    0  0.00000000000E+00  0.00000000000E+00  0.99999944180E+02  0.10000000000E+03  0.10566000000E+00 0. -1.
         22   -1    0    0    0    0 -0.00000000000E+00 -0.00000000000E+00 -0.19252739826E+02  0.19252739826E+02  0.00000000000E+00 0.  1.
         13    1    1    2    0    0 -0.71543540806E+00  0.29484680157E+02  0.23351389599E+02  0.37618569510E+02  0.10566000000E+00 0.  1.
        996    1    1    2    0    0  0.71543540806E+00 -0.29484680157E+02  0.57395814754E+02  0.81634170315E+02  0.50000000000E+02 0.  0.
<mgrwt>
<rscale>  0 0.58050480E+02</rscale>
<asrwt>0</asrwt>
<pdfrwt beam="1">  1       13 0.10000000E+01 0.58050480E+02</pdfrwt>
<pdfrwt beam="2">  1       22 0.19252762E+00 0.58050480E+02</pdfrwt>
<totfact> 0.49129220E-01</totfact>
</mgrwt>
</event>
<event>
 4    1  0.2471347E+000  0.5113728E+02  0.7957747E-01  0.1439302E+00
         13   -1    0    0    0    0  0.00000000000E+00  0.00000000000E+00  0.99999944179E+02  0.10000000000E+03  0.10566000000E+00 0.  1.
         22   -1    0    0    0    0 -0.00000000000E+00 -0.00000000000E+00 -0.95918149751E+01  0.95918149751E+01  0.00000000000E+00 0. -1.
         13    1    1    2    0    0 -0.10655622850E+02 -0.12163865126E+01  0.13655912692E+02  0.17364245159E+02  0.10566000000E+00 0. -1.
        996    1    1    2    0    0  0.10655622850E+02  0.12163865126E+01  0.76752216512E+02  0.92227569815E+02  0.50000000000E+02 0.  0.
<mgrwt>
<rscale>  0 0.51137285E+02</rscale>
<asrwt>0</asrwt>
<pdfrwt beam="1">  1       13 0.10000000E+01 0.51137285E+02</pdfrwt>
<pdfrwt beam="2">  1       22 0.95918402E-01 0.51137285E+02</pdfrwt>
<totfact> 0.14938623E+00</totfact>
</mgrwt>
</event>
<event>
 4    1  0.2471347E+000  0.5219968E+02  0.7957747E-01  0.1433826E+00
         13   -1    0    0    0    0  0.00000000000E+00  0.00000000000E+00  0.99999944174E+02  0.99999999995E+02  0.10566000000E+00 0.  1.
         22   -1    0    0    0    0 -0.00000000000E+00 -0.00000000000E+00 -0.11755620679E+02  0.11755620679E+02  0.00000000000E+00 0.  1.
         13    1    1    2    0    0  0.14993441553E+02  0.53996562141E-01  0.30031636373E+02  0.33566598763E+02  0.10566000000E+00 0. -1.
        996    1    1    2    0    0 -0.14993441553E+02 -0.53996562141E-01  0.58212687123E+02  0.78189021910E+02  0.50000000000E+02 0.  0.
<mgrwt>
<rscale>  0 0.52199676E+02</rscale>
<asrwt>0</asrwt>
<pdfrwt beam="1">  1       13 0.10000000E+01 0.52199676E+02</pdfrwt>
<pdfrwt beam="2">  1       22 0.11755645E+00 0.52199676E+02</pdfrwt>
<totfact> 0.11097203E+00</totfact>
</mgrwt>
</event>
<event>
 4    1  0.2471347E+000  0.5397833E+02  0.7957747E-01  0.1424993E+00
         13   -1    0    0    0    0  0.00000000000E+00  0.00000000000E+00  0.99999944178E+02  0.99999999998E+02  0.10566000000E+00 0. -1.
         22   -1    0    0    0    0 -0.00000000000E+00 -0.00000000000E+00 -0.13926187307E+02  0.13926187307E+02  0.00000000000E+00 0. -1.
         13    1    1    2    0    0 -0.20135119043E+02 -0.28699576886E+01  0.19029989607E+02  0.27853390180E+02  0.10566000000E+00 0.  1.
        996    1    1    2    0    0  0.20135119043E+02  0.28699576886E+01  0.67043767264E+02  0.86072797125E+02  0.50000000000E+02 0.  0.
<mgrwt>
<rscale>  0 0.53978326E+02</rscale>
<asrwt>0</asrwt>
<pdfrwt beam="1">  1       13 0.10000000E+01 0.53978326E+02</pdfrwt>
<pdfrwt beam="2">  1       22 0.13926211E+00 0.53978326E+02</pdfrwt>
<totfact> 0.85400444E-01</totfact>
</mgrwt>
</event>
<event>
 4    1  0.2471347E+000  0.5432662E+02  0.7957747E-01  0.1423310E+00
         13   -1    0    0    0    0  0.00000000000E+00  0.00000000000E+00  0.99999944176E+02  0.99999999996E+02  0.10566000000E+00 0.  1.
         22   -1    0    0    0    0 -0.00000000000E+00 -0.00000000000E+00 -0.59646832010E+02  0.59646832010E+02  0.00000000000E+00 0. -1.
         13    1    1    2    0    0  0.18651223586E+02  0.10174138196E+02 -0.49939286321E+02  0.54270845872E+02  0.10566000000E+00 0. -1.
        996    1    1    2    0    0 -0.18651223586E+02 -0.10174138196E+02  0.90292398487E+02  0.10537598613E+03  0.50000000000E+02 0.  0.
<mgrwt>
<rscale>  0 0.54326616E+02</rscale>
<asrwt>0</asrwt>
<pdfrwt beam="1">  1       13 0.10000000E+01 0.54326616E+02</pdfrwt>
<pdfrwt beam="2">  1       22 0.59646843E+00 0.54326616E+02</pdfrwt>
<totfact> 0.62392004E-02</totfact>
</mgrwt>
</event>
<event>
 4    1  0.2471347E+000  0.5103251E+02  0.7957747E-01  0.1439851E+00
         13   -1    0    0    0    0  0.00000000000E+00  0.00000000000E+00  0.99999944170E+02  0.99999999991E+02  0.10566000000E+00 0. -1.
         22   -1    0    0    0    0 -0.00000000000E+00 -0.00000000000E+00 -0.54258392221E+02  0.54258392221E+02  0.00000000000E+00 0.  1.
         13    1    1    2    0    0 -0.86066171818E+01 -0.54993797959E+01 -0.47165180469E+02  0.48258496145E+02  0.10566000000E+00 0.  1.
        996    1    1    2    0    0  0.86066171818E+01  0.54993797959E+01  0.92906732419E+02  0.10599989607E+03  0.50000000000E+02 0.  0.
<mgrwt>
<rscale>  0 0.51032510E+02</rscale>
<asrwt>0</asrwt>
<pdfrwt beam="1">  1       13 0.10000000E+01 0.51032510E+02</pdfrwt>
<pdfrwt beam="2">  1       22 0.54258405E+00 0.51032510E+02</pdfrwt>
<totfact> 0.60128312E-02</totfact>
</mgrwt>
</event>
<event>
 4    1  0.2471347E+000  0.5204333E+02  0.7957747E-01  0.1434622E+00
         13   -1    0    0    0    0  0.00000000000E+00  0.00000000000E+00  0.99999944178E+02  0.99999999998E+02  0.10566000000E+00 0. -1.
         22   -1    0    0    0    0 -0.00000000000E+00 -0.00000000000E+00 -0.11251630332E+02  0.11251630332E+02  0.00000000000E+00 0. -1.
         13    1    1    2    0    0 -0.62500981355E+01  0.13017101682E+02  0.13560892003E+02  0.19809533535E+02  0.10566000000E+00 0.  1.
        996    1    1    2    0    0  0.62500981355E+01 -0.13017101682E+02  0.75187421843E+02  0.91442096795E+02  0.50000000000E+02 0.  0.
<mgrwt>
<rscale>  0 0.52043334E+02</rscale>
<asrwt>0</asrwt>
<pdfrwt beam="1">  1       13 0.10000000E+01 0.52043334E+02</pdfrwt>
<pdfrwt beam="2">  1       22 0.11251655E+00 0.52043334E+02</pdfrwt>
<totfact> 0.11851412E+00</totfact>
</mgrwt>
</event>
<event>
 4    1  0.2471347E+000  0.5270131E+02  0.7957747E-01  0.1431293E+00
         13   -1    0    0    0    0  0.00000000000E+00  0.00000000000E+00  0.99999944176E+02  0.99999999997E+02  0.10566000000E+00 0. -1.
         22   -1    0    0    0    0 -0.00000000000E+00 -0.00000000000E+00 -0.12136726948E+02  0.12136726948E+02  0.00000000000E+00 0. -1.
         13    1    1    2    0    0  0.85138717185E+01  0.14315813278E+02  0.25886442967E+02  0.30782261369E+02  0.10566000000E+00 0.  1.
        996    1    1    2    0    0 -0.85138717185E+01 -0.14315813278E+02  0.61976774261E+02  0.81354465576E+02  0.50000000000E+02 0.  0.
<mgrwt>
<rscale>  0 0.52701314E+02</rscale>
<asrwt>0</asrwt>
<pdfrwt beam="1">  1       13 0.10000000E+01 0.52701314E+02</pdfrwt>
<pdfrwt beam="2">  1       22 0.12136751E+00 0.52701314E+02</pdfrwt>
<totfact> 0.10580477E+00</totfact>
</mgrwt>
</event>
<event>
 4    1  0.2471347E+000  0.5108387E+02  0.7957747E-01  0.1439582E+00
         13   -1    0    0    0    0  0.00000000000E+00  0.00000000000E+00  0.99999944179E+02  0.99999999999E+02  0.10566000000E+00 0. -1.
         22   -1    0    0    0    0 -0.00000000000E+00 -0.00000000000E+00 -0.33806008791E+02  0.33806008791E+02  0.00000000000E+00 0.  1.
         13    1    1    2    0    0 -0.64187854415E+01 -0.82680637267E+01 -0.26209279902E+02  0.28222317434E+02  0.10566000000E+00 0.  1.
        996    1    1    2    0    0  0.64187854415E+01  0.82680637267E+01  0.92403215291E+02  0.10558369136E+03  0.50000000000E+02 0.  0.
<mgrwt>
<rscale>  0 0.51083869E+02</rscale>
<asrwt>0</asrwt>
<pdfrwt beam="1">  1       13 0.10000000E+01 0.51083869E+02</pdfrwt>
<pdfrwt beam="2">  1       22 0.33806027E+00 0.51083869E+02</pdfrwt>
<totfact> 0.16678901E-01</totfact>
</mgrwt>
</event>
<event>
 4    1  0.2471347E+000  0.5277843E+02  0.7957747E-01  0.1430907E+00
         13   -1    0    0    0    0  0.00000000000E+00  0.00000000000E+00  0.99999944178E+02  0.99999999999E+02  0.10566000000E+00 0.  1.
         22   -1    0    0    0    0 -0.00000000000E+00 -0.00000000000E+00 -0.12333036644E+02  0.12333036644E+02  0.00000000000E+00 0.  1.
         13    1    1    2    0    0 -0.15481401590E+02 -0.67741602256E+01  0.27702852780E+02  0.32450304438E+02  0.10566000000E+00 0. -1.
        996    1    1    2    0    0  0.15481401590E+02  0.67741602256E+01  0.59964054754E+02  0.79882732205E+02  0.50000000000E+02 0.  0.
<mgrwt>
<rscale>  0 0.52778433E+02</rscale>
<asrwt>0</asrwt>
<pdfrwt beam="1">  1       13 0.10000000E+01 0.52778433E+02</pdfrwt>
<pdfrwt beam="2">  1       22 0.12333061E+00 0.52778433E+02</pdfrwt>
<totfact> 0.10323535E+00</totfact>
</mgrwt>
</event>
<event>
 4    1  0.2471347E+000  0.5209787E+02  0.7957747E-01  0.1434344E+00
         13   -1    0    0    0    0  0.00000000000E+00  0.00000000000E+00  0.99999944177E+02  0.99999999997E+02  0.10566000000E+00 0. -1.
         22   -1    0    0    0    0 -0.00000000000E+00 -0.00000000000E+00 -0.11809759184E+02  0.11809759184E+02  0.00000000000E+00 0. -1.
         13    1    1    2    0    0  0.63058100150E+01  0.13206992151E+02  0.95418788426E+01  0.17471304974E+02  0.10566000000E+00 0.  1.
        996    1    1    2    0    0 -0.63058100150E+01 -0.13206992151E+02  0.78648306151E+02  0.94338454206E+02  0.50000000000E+02 0.  0.
<mgrwt>
<rscale>  0 0.52097868E+02</rscale>
<asrwt>0</asrwt>
<pdfrwt beam="1">  1       13 0.10000000E+01 0.52097868E+02</pdfrwt>
<pdfrwt beam="2">  1       22 0.11809784E+00 0.52097868E+02</pdfrwt>
<totfact> 0.11017424E+00</totfact>
</mgrwt>
</event>
<event>
 4    1  0.2471347E+000  0.5198481E+02  0.7957747E-01  0.1434921E+00
         13   -1    0    0    0    0  0.00000000000E+00  0.00000000000E+00  0.99999944179E+02  0.99999999999E+02  0.10566000000E+00 0.  1.
         22   -1    0    0    0    0 -0.00000000000E+00 -0.00000000000E+00 -0.11842366995E+02  0.11842366995E+02  0.00000000000E+00 0. -1.
         13    1    1    2    0    0 -0.14224674116E+02 -0.28094152138E+00  0.80550620869E+01  0.16349785047E+02  0.10566000000E+00 0. -1.
        996    1    1    2    0    0  0.14224674116E+02  0.28094152138E+00  0.80102515098E+02  0.95492581946E+02  0.50000000000E+02 0.  0.
<mgrwt>
<rscale>  0 0.51984808E+02</rscale>
<asrwt>0</asrwt>
<pdfrwt beam="1">  1       13 0.10000000E+01 0.51984808E+02</pdfrwt>
<pdfrwt beam="2">  1       22 0.11842392E+00 0.51984808E+02</pdfrwt>
<totfact> 0.10968479E+00</totfact>
</mgrwt>
</event>
<event>
 4    1  0.2471347E+000  0.5189823E+02  0.7957747E-01  0.1435364E+00
         13   -1    0    0    0    0  0.00000000000E+00  0.00000000000E+00  0.99999944175E+02  0.99999999995E+02  0.10566000000E+00 0. -1.
         22   -1    0    0    0    0 -0.00000000000E+00 -0.00000000000E+00 -0.11178945851E+02  0.11178945851E+02  0.00000000000E+00 0. -1.
         13    1    1    2    0    0  0.11058421691E+02 -0.84343017224E+01  0.27707883073E+02  0.31002646407E+02  0.10566000000E+00 0.  1.
        996    1    1    2    0    0 -0.11058421691E+02  0.84343017224E+01  0.61113115251E+02  0.80176299438E+02  0.50000000000E+02 0.  0.
<mgrwt>
<rscale>  0 0.51898229E+02</rscale>
<asrwt>0</asrwt>
<pdfrwt beam="1">  1       13 0.10000000E+01 0.51898229E+02</pdfrwt>
<pdfrwt beam="2">  1       22 0.11178971E+00 0.51898229E+02</pdfrwt>
<totfact> 0.11962941E+00</totfact>
</mgrwt>
</event>
<event>
 4    1  0.2471347E+000  0.5363972E+02  0.7957747E-01  0.1426643E+00
         13   -1    0    0    0    0  0.00000000000E+00  0.00000000000E+00  0.99999944177E+02  0.99999999997E+02  0.10566000000E+00 0. -1.
         22   -1    0    0    0    0 -0.00000000000E+00 -0.00000000000E+00 -0.38060019674E+02  0.38060019674E+02  0.00000000000E+00 0.  1.
         13    1    1    2    0    0  0.11011081003E+02 -0.15999242595E+02 -0.27560484753E+02  0.33716630204E+02  0.10566000000E+00 0.  1.
        996    1    1    2    0    0 -0.11011081003E+02  0.15999242595E+02  0.89500409256E+02  0.10434338947E+03  0.50000000000E+02 0.  0.
<mgrwt>
<rscale>  0 0.53639721E+02</rscale>
<asrwt>0</asrwt>
<pdfrwt beam="1">  1       13 0.10000000E+01 0.53639721E+02</pdfrwt>
<pdfrwt beam="2">  1       22 0.38060037E+00 0.53639721E+02</pdfrwt>
<totfact> 0.13575213E-01</totfact>
</mgrwt>
</event>
<event>
 4    1  0.2471347E+000  0.5160333E+02  0.7957747E-01  0.1436881E+00
         13   -1    0    0    0    0  0.00000000000E+00  0.00000000000E+00  0.99999944178E+02  0.99999999998E+02  0.10566000000E+00 0.  1.
         22   -1    0    0    0    0 -0.00000000000E+00 -0.00000000000E+00 -0.17308712545E+02  0.17308712545E+02  0.00000000000E+00 0. -1.
         13    1    1    2    0    0 -0.12304798556E+02  0.33905318113E+01 -0.64556565940E+01  0.14303511441E+02  0.10566000000E+00 0. -1.
        996    1    1    2    0    0  0.12304798556E+02 -0.33905318113E+01  0.89146888227E+02  0.10300520110E+03  0.50000000000E+02 0.  0.
<mgrwt>
<rscale>  0 0.51603331E+02</rscale>
<asrwt>0</asrwt>
<pdfrwt beam="1">  1       13 0.10000000E+01 0.51603331E+02</pdfrwt>
<pdfrwt beam="2">  1       22 0.17308736E+00 0.51603331E+02</pdfrwt>
<totfact> 0.58859325E-01</totfact>
</mgrwt>
</event>
<event>
 4    1  0.2471347E+000  0.5162783E+02  0.7957747E-01  0.1436754E+00
         13   -1    0    0    0    0  0.00000000000E+00  0.00000000000E+00  0.99999944177E+02  0.99999999997E+02  0.10566000000E+00 0.  1.
         22   -1    0    0    0    0 -0.00000000000E+00 -0.00000000000E+00 -0.10397539021E+02  0.10397539021E+02  0.00000000000E+00 0.  1.
         13    1    1    2    0    0 -0.67765667531E+01 -0.10932114683E+02  0.17770879047E+02  0.21937372098E+02  0.10566000000E+00 0. -1.
        996    1    1    2    0    0  0.67765667531E+01  0.10932114683E+02  0.71831526109E+02  0.88460166920E+02  0.50000000000E+02 0.  0.
<mgrwt>
<rscale>  0 0.51627832E+02</rscale>
<asrwt>0</asrwt>
<pdfrwt beam="1">  1       13 0.10000000E+01 0.51627832E+02</pdfrwt>
<pdfrwt beam="2">  1       22 0.10397564E+00 0.51627832E+02</pdfrwt>
<totfact> 0.13307991E+00</totfact>
</mgrwt>
</event>
<event>
 4    1  0.2471347E+000  0.5114689E+02  0.7957747E-01  0.1439252E+00
         13   -1    0    0    0    0  0.00000000000E+00  0.00000000000E+00  0.99999944180E+02  0.10000000000E+03  0.10566000000E+00 0.  1.
         22   -1    0    0    0    0 -0.00000000000E+00 -0.00000000000E+00 -0.11952430392E+02  0.11952430392E+02  0.00000000000E+00 0. -1.
         13    1    1    2    0    0 -0.70635634358E+01  0.81308131447E+01  0.77784532772E+00  0.10799085989E+02  0.10566000000E+00 0. -1.
        996    1    1    2    0    0  0.70635634358E+01 -0.81308131447E+01  0.87269668460E+02  0.10115334440E+03  0.50000000000E+02 0.  0.
<mgrwt>
<rscale>  0 0.51146887E+02</rscale>
<asrwt>0</asrwt>
<pdfrwt beam="1">  1       13 0.10000000E+01 0.51146887E+02</pdfrwt>
<pdfrwt beam="2">  1       22 0.11952455E+00 0.51146887E+02</pdfrwt>
<totfact> 0.10794144E+00</totfact>
</mgrwt>
</event>
<event>
 4    1  0.2471347E+000  0.5290974E+02  0.7957747E-01  0.1430251E+00
         13   -1    0    0    0    0  0.00000000000E+00  0.00000000000E+00  0.99999944172E+02  0.99999999992E+02  0.10566000000E+00 0.  1.
         22   -1    0    0    0    0 -0.00000000000E+00 -0.00000000000E+00 -0.12643432552E+02  0.12643432552E+02  0.00000000000E+00 0.  1.
         13    1    1    2    0    0  0.89189257509E+01  0.14828790264E+02  0.14351319234E+02  0.22481365284E+02  0.10566000000E+00 0. -1.
        996    1    1    2    0    0 -0.89189257509E+01 -0.14828790264E+02  0.73005192386E+02  0.90162067260E+02  0.50000000000E+02 0.  0.
<mgrwt>
<rscale>  0 0.52909737E+02</rscale>
<asrwt>0</asrwt>
<pdfrwt beam="1">  1       13 0.10000000E+01 0.52909737E+02</pdfrwt>
<pdfrwt beam="2">  1       22 0.12643457E+00 0.52909737E+02</pdfrwt>
<totfact> 0.99352496E-01</totfact>
</mgrwt>
</event>
<event>
 4    1  0.2471347E+000  0.5222134E+02  0.7957747E-01  0.1433716E+00
         13   -1    0    0    0    0  0.00000000000E+00  0.00000000000E+00  0.99999944177E+02  0.99999999997E+02  0.10566000000E+00 0. -1.
         22   -1    0    0    0    0 -0.00000000000E+00 -0.00000000000E+00 -0.11900099460E+02  0.11900099460E+02  0.00000000000E+00 0. -1.
         13    1    1    2    0    0 -0.14741541163E+02  0.31233436036E+01  0.10505719407E+02  0.18369801725E+02  0.10566000000E+00 0.  1.
        996    1    1    2    0    0  0.14741541163E+02 -0.31233436036E+01  0.77594125310E+02  0.93530297732E+02  0.50000000000E+02 0.  0.
<mgrwt>
<rscale>  0 0.52221340E+02</rscale>
<asrwt>0</asrwt>
<pdfrwt beam="1">  1       13 0.10000000E+01 0.52221340E+02</pdfrwt>
<pdfrwt beam="2">  1       22 0.11900124E+00 0.52221340E+02</pdfrwt>
<totfact> 0.10893133E+00</totfact>
</mgrwt>
</event>
<event>
 4    1  0.2471347E+000  0.6953735E+02  0.7957747E-01  0.1361673E+00
         13   -1    0    0    0    0  0.00000000000E+00  0.00000000000E+00  0.99999944183E+02  0.10000000000E+03  0.10566000000E+00 0.  1.
         22   -1    0    0    0    0 -0.00000000000E+00 -0.00000000000E+00 -0.39302861651E+02  0.39302861651E+02  0.00000000000E+00 0.  1.
         13    1    1    2    0    0 -0.43915148014E+02 -0.20171840204E+02  0.48938890437E+02  0.68778408847E+02  0.10566000000E+00 0. -1.
        996    1    1    2    0    0  0.43915148014E+02  0.20171840204E+02  0.11758192095E+02  0.70524452806E+02  0.50000000000E+02 0.  0.
<mgrwt>
<rscale>  0 0.69537352E+02</rscale>
<asrwt>0</asrwt>
<pdfrwt beam="1">  1       13 0.10000000E+01 0.69537352E+02</pdfrwt>
<pdfrwt beam="2">  1       22 0.39302879E+00 0.69537352E+02</pdfrwt>
<totfact> 0.12941167E-01</totfact>
</mgrwt>
</event>
<event>
 4    1  0.2471347E+000  0.5129772E+02  0.7957747E-01  0.1438465E+00
         13   -1    0    0    0    0  0.00000000000E+00  0.00000000000E+00  0.99999944179E+02  0.99999999999E+02  0.10566000000E+00 0.  1.
         22   -1    0    0    0    0 -0.00000000000E+00 -0.00000000000E+00 -0.12933058747E+02  0.12933058747E+02  0.00000000000E+00 0. -1.
         13    1    1    2    0    0  0.56448729943E+01  0.99795720981E+01 -0.46706015059E+00  0.11475441586E+02  0.10566000000E+00 0. -1.
        996    1    1    2    0    0 -0.56448729943E+01 -0.99795720981E+01  0.87533945583E+02  0.10145761716E+03  0.50000000000E+02 0.  0.
<mgrwt>
<rscale>  0 0.51297724E+02</rscale>
<asrwt>0</asrwt>
<pdfrwt beam="1">  1       13 0.10000000E+01 0.51297724E+02</pdfrwt>
<pdfrwt beam="2">  1       22 0.12933083E+00 0.51297724E+02</pdfrwt>
<totfact> 0.95554225E-01</totfact>
</mgrwt>
</event>
<event>
 4    1  0.2471347E+000  0.5211930E+02  0.7957747E-01  0.1434235E+00
         13   -1    0    0    0    0  0.00000000000E+00  0.00000000000E+00  0.99999944174E+02  0.99999999994E+02  0.10566000000E+00 0. -1.
         22   -1    0    0    0    0 -0.00000000000E+00 -0.00000000000E+00 -0.14256362295E+02  0.14256362295E+02  0.00000000000E+00 0.  1.
         13    1    1    2    0    0  0.14571169634E+02 -0.20255115231E+01  0.97122752237E+00  0.14743680964E+02  0.10566000000E+00 0.  1.
        996    1    1    2    0    0 -0.14571169634E+02  0.20255115231E+01  0.84772354357E+02  0.99512681325E+02  0.50000000000E+02 0.  0.
<mgrwt>
<rscale>  0 0.52119302E+02</rscale>
<asrwt>0</asrwt>
<pdfrwt beam="1">  1       13 0.10000000E+01 0.52119302E+02</pdfrwt>
<pdfrwt beam="2">  1       22 0.14256386E+00 0.52119302E+02</pdfrwt>
<totfact> 0.81895698E-01</totfact>
</mgrwt>
</event>
<event>
 4    1  0.2471347E+000  0.5182261E+02  0.7957747E-01  0.1435752E+00
         13   -1    0    0    0    0  0.00000000000E+00  0.00000000000E+00  0.99999944181E+02  0.10000000000E+03  0.10566000000E+00 0.  1.
         22   -1    0    0    0    0 -0.00000000000E+00 -0.00000000000E+00 -0.11415712508E+02  0.11415712508E+02  0.00000000000E+00 0.  1.
         13    1    1    2    0    0 -0.57146820233E+00 -0.13610903495E+02  0.86002382728E+01  0.16110820346E+02  0.10566000000E+00 0. -1.
        996    1    1    2    0    0  0.57146820233E+00  0.13610903495E+02  0.79983993400E+02  0.95304892162E+02  0.50000000000E+02 0.  0.
<mgrwt>
<rscale>  0 0.51822613E+02</rscale>
<asrwt>0</asrwt>
<pdfrwt beam="1">  1       13 0.10000000E+01 0.51822613E+02</pdfrwt>
<pdfrwt beam="2">  1       22 0.11415737E+00 0.51822613E+02</pdfrwt>
<totfact> 0.11590704E+00</totfact>
</mgrwt>
</event>
<event>
 4    1  0.2471347E+000  0.5172835E+02  0.7957747E-01  0.1436236E+00
         13   -1    0    0    0    0  0.00000000000E+00  0.00000000000E+00  0.99999944179E+02  0.99999999999E+02  0.10566000000E+00 0. -1.
         22   -1    0    0    0    0 -0.00000000000E+00 -0.00000000000E+00 -0.48821051887E+02  0.48821051887E+02  0.00000000000E+00 0.  1.
         13    1    1    2    0    0  0.10769500137E+02 -0.77356088937E+01 -0.41015761912E+02  0.43105981806E+02  0.10566000000E+00 0.  1.
        996    1    1    2    0    0 -0.10769500137E+02  0.77356088937E+01  0.92194654204E+02  0.10571507008E+03  0.50000000000E+02 0.  0.
<mgrwt>
<rscale>  0 0.51728346E+02</rscale>
<asrwt>0</asrwt>
<pdfrwt beam="1">  1       13 0.10000000E+01 0.51728346E+02</pdfrwt>
<pdfrwt beam="2">  1       22 0.48821066E+00 0.51728346E+02</pdfrwt>
<totfact> 0.78588706E-02</totfact>
</mgrwt>
</event>
<event>
 4    1  0.2471347E+000  0.5397991E+02  0.7957747E-01  0.1424985E+00
         13   -1    0    0    0    0  0.00000000000E+00  0.00000000000E+00  0.99999944183E+02  0.10000000000E+03  0.10566000000E+00 0. -1.
         22   -1    0    0    0    0 -0.00000000000E+00 -0.00000000000E+00 -0.24650690802E+02  0.24650690802E+02  0.00000000000E+00 0.  1.
         13    1    1    2    0    0  0.83275486962E+01  0.18560235872E+02 -0.10765587420E+02  0.23016069592E+02  0.10566000000E+00 0.  1.
        996    1    1    2    0    0 -0.83275486962E+01 -0.18560235872E+02  0.86114840801E+02  0.10163462121E+03  0.50000000000E+02 0.  0.
<mgrwt>
<rscale>  0 0.53979908E+02</rscale>
<asrwt>0</asrwt>
<pdfrwt beam="1">  1       13 0.10000000E+01 0.53979908E+02</pdfrwt>
<pdfrwt beam="2">  1       22 0.24650712E+00 0.53979908E+02</pdfrwt>
<totfact> 0.30399767E-01</totfact>
</mgrwt>
</event>
<event>
 4    1  0.2471347E+000  0.6933951E+02  0.7957747E-01  0.1362354E+00
         13   -1    0    0    0    0  0.00000000000E+00  0.00000000000E+00  0.99999944184E+02  0.10000000000E+03  0.10566000000E+00 0.  1.
         22   -1    0    0    0    0 -0.00000000000E+00 -0.00000000000E+00 -0.53368824436E+02  0.53368824436E+02  0.00000000000E+00 0. -1.
         13    1    1    2    0    0 -0.42066058438E+02 -0.23203762971E+02 -0.24589656727E+02  0.53968789782E+02  0.10566000000E+00 0. -1.
        996    1    1    2    0    0  0.42066058438E+02  0.23203762971E+02  0.71220776475E+02  0.99400034659E+02  0.50000000000E+02 0.  0.
<mgrwt>
<rscale>  0 0.69339512E+02</rscale>
<asrwt>0</asrwt>
<pdfrwt beam="1">  1       13 0.10000000E+01 0.69339512E+02</pdfrwt>
<pdfrwt beam="2">  1       22 0.53368837E+00 0.69339512E+02</pdfrwt>
<totfact> 0.62452635E-02</totfact>
</mgrwt>
</event>
<event>
 4    1  0.2471347E+000  0.5162720E+02  0.7957747E-01  0.1436757E+00
         13   -1    0    0    0    0  0.00000000000E+00  0.00000000000E+00  0.99999944174E+02  0.99999999994E+02  0.10566000000E+00 0.  1.
         22   -1    0    0    0    0 -0.00000000000E+00 -0.00000000000E+00 -0.12856291967E+02  0.12856291967E+02  0.00000000000E+00 0.  1.
         13    1    1    2    0    0 -0.61507873038E+01  0.11293153326E+02  0.43154737897E+02  0.45030101749E+02  0.10566000000E+00 0. -1.
        996    1    1    2    0    0  0.61507873038E+01 -0.11293153326E+02  0.43988914310E+02  0.67826190212E+02  0.50000000000E+02 0.  0.
<mgrwt>
<rscale>  0 0.51627197E+02</rscale>
<asrwt>0</asrwt>
<pdfrwt beam="1">  1       13 0.10000000E+01 0.51627197E+02</pdfrwt>
<pdfrwt beam="2">  1       22 0.12856316E+00 0.51627197E+02</pdfrwt>
<totfact> 0.96521567E-01</totfact>
</mgrwt>
</event>
<event>
 4    1  0.2471347E+000  0.5300613E+02  0.7957747E-01  0.1429770E+00
         13   -1    0    0    0    0  0.00000000000E+00  0.00000000000E+00  0.99999944178E+02  0.99999999998E+02  0.10566000000E+00 0. -1.
         22   -1    0    0    0    0 -0.00000000000E+00 -0.00000000000E+00 -0.12483464404E+02  0.12483464404E+02  0.00000000000E+00 0.  1.
         13    1    1    2    0    0 -0.17159491869E+02 -0.38988900984E+01  0.19834063611E+02  0.26515104159E+02  0.10566000000E+00 0.  1.
        996    1    1    2    0    0  0.17159491869E+02  0.38988900984E+01  0.67682416163E+02  0.85968360243E+02  0.50000000000E+02 0.  0.
<mgrwt>
<rscale>  0 0.53006127E+02</rscale>
<asrwt>0</asrwt>
<pdfrwt beam="1">  1       13 0.10000000E+01 0.53006127E+02</pdfrwt>
<pdfrwt beam="2">  1       22 0.12483489E+00 0.53006127E+02</pdfrwt>
<totfact> 0.10136308E+00</totfact>
</mgrwt>
</event>
<event>
 4    1  0.2471347E+000  0.5214232E+02  0.7957747E-01  0.1434117E+00
         13   -1    0    0    0    0  0.00000000000E+00  0.00000000000E+00  0.99999944175E+02  0.99999999995E+02  0.10566000000E+00 0. -1.
         22   -1    0    0    0    0 -0.00000000000E+00 -0.00000000000E+00 -0.12648801611E+02  0.12648801611E+02  0.00000000000E+00 0. -1.
         13    1    1    2    0    0  0.11317386790E+01  0.14749251357E+02  0.38313292732E+02  0.41069950231E+02  0.10566000000E+00 0.  1.
        996    1    1    2    0    0 -0.11317386790E+01 -0.14749251357E+02  0.49037849832E+02  0.71578851375E+02  0.50000000000E+02 0.  0.
<mgrwt>
<rscale>  0 0.52142317E+02</rscale>
<asrwt>0</asrwt>
<pdfrwt beam="1">  1       13 0.10000000E+01 0.52142317E+02</pdfrwt>
<pdfrwt beam="2">  1       22 0.12648826E+00 0.52142317E+02</pdfrwt>
<totfact> 0.99121798E-01</totfact>
</mgrwt>
</event>
<event>
 4    1  0.2471347E+000  0.5682258E+02  0.7957747E-01  0.1411671E+00
         13   -1    0    0    0    0  0.00000000000E+00  0.00000000000E+00  0.99999944175E+02  0.99999999996E+02  0.10566000000E+00 0.  1.
         22   -1    0    0    0    0 -0.00000000000E+00 -0.00000000000E+00 -0.17731931325E+02  0.17731931325E+02  0.00000000000E+00 0.  1.
         13    1    1    2    0    0  0.20846842207E+02 -0.17152703970E+02  0.21280118474E+02  0.34375291850E+02  0.10566000000E+00 0. -1.
        996    1    1    2    0    0 -0.20846842207E+02  0.17152703970E+02  0.60987894376E+02  0.83356639471E+02  0.50000000000E+02 0.  0.
<mgrwt>
<rscale>  0 0.56822584E+02</rscale>
<asrwt>0</asrwt>
<pdfrwt beam="1">  1       13 0.10000000E+01 0.56822584E+02</pdfrwt>
<pdfrwt beam="2">  1       22 0.17731954E+00 0.56822584E+02</pdfrwt>
<totfact> 0.56929068E-01</totfact>
</mgrwt>
</event>
<event>
 4    1  0.2471347E+000  0.5259051E+02  0.7957747E-01  0.1431850E+00
         13   -1    0    0    0    0  0.00000000000E+00  0.00000000000E+00  0.99999944179E+02  0.99999999999E+02  0.10566000000E+00 0. -1.
         22   -1    0    0    0    0 -0.00000000000E+00 -0.00000000000E+00 -0.13172032313E+02  0.13172032313E+02  0.00000000000E+00 0.  1.
         13    1    1    2    0    0 -0.13862531966E+01  0.16243154355E+02  0.73806614475E+01  0.17895448828E+02  0.10566000000E+00 0.  1.
        996    1    1    2    0    0  0.13862531966E+01 -0.16243154355E+02  0.79447250418E+02  0.95276583484E+02  0.50000000000E+02 0.  0.
<mgrwt>
<rscale>  0 0.52590510E+02</rscale>
<asrwt>0</asrwt>
<pdfrwt beam="1">  1       13 0.10000000E+01 0.52590510E+02</pdfrwt>
<pdfrwt beam="2">  1       22 0.13172057E+00 0.52590510E+02</pdfrwt>
<totfact> 0.93093601E-01</totfact>
</mgrwt>
</event>
<event>
 4    1  0.2471347E+000  0.5119604E+02  0.7957747E-01  0.1438995E+00
         13   -1    0    0    0    0  0.00000000000E+00  0.00000000000E+00  0.99999944177E+02  0.99999999997E+02  0.10566000000E+00 0. -1.
         22   -1    0    0    0    0 -0.00000000000E+00 -0.00000000000E+00 -0.10149439592E+02  0.10149439592E+02  0.00000000000E+00 0. -1.
         13    1    1    2    0    0  0.94058034310E+01 -0.57066306550E+01  0.26534002135E+02  0.28724540117E+02  0.10566000000E+00 0.  1.
        996    1    1    2    0    0 -0.94058034310E+01  0.57066306550E+01  0.63316502450E+02  0.81424899473E+02  0.50000000000E+02 0.  0.
<mgrwt>
<rscale>  0 0.51196043E+02</rscale>
<asrwt>0</asrwt>
<pdfrwt beam="1">  1       13 0.10000000E+01 0.51196043E+02</pdfrwt>
<pdfrwt beam="2">  1       22 0.10149465E+00 0.51196043E+02</pdfrwt>
<totfact> 0.13770899E+00</totfact>
</mgrwt>
</event>
<event>
 4    1  0.2471347E+000  0.5109524E+02  0.7957747E-01  0.1439522E+00
         13   -1    0    0    0    0  0.00000000000E+00  0.00000000000E+00  0.99999944186E+02  0.10000000001E+03  0.10566000000E+00 0.  1.
         22   -1    0    0    0    0 -0.00000000000E+00 -0.00000000000E+00 -0.12451438794E+02  0.12451438794E+02  0.00000000000E+00 0. -1.
         13    1    1    2    0    0  0.48897776752E+01  0.93173919819E+01 -0.62671269251E+00  0.10541710103E+02  0.10566000000E+00 0. -1.
        996    1    1    2    0    0 -0.48897776752E+01 -0.93173919819E+01  0.88175218084E+02  0.10190972870E+03  0.50000000000E+02 0.  0.
<mgrwt>
<rscale>  0 0.51095242E+02</rscale>
<asrwt>0</asrwt>
<pdfrwt beam="1">  1       13 0.10000000E+01 0.51095242E+02</pdfrwt>
<pdfrwt beam="2">  1       22 0.12451463E+00 0.51095242E+02</pdfrwt>
<totfact> 0.10134123E+00</totfact>
</mgrwt>
</event>
<event>
 4    1  0.2471347E+000  0.5113876E+02  0.7957747E-01  0.1439294E+00
         13   -1    0    0    0    0  0.00000000000E+00  0.00000000000E+00  0.99999944186E+02  0.10000000001E+03  0.10566000000E+00 0. -1.
         22   -1    0    0    0    0 -0.00000000000E+00 -0.00000000000E+00 -0.22156218922E+02  0.22156218922E+02  0.00000000000E+00 0.  1.
         13    1    1    2    0    0  0.49058847656E+01 -0.95449192658E+01 -0.13636034523E+02  0.17352976421E+02  0.10566000000E+00 0.  1.
        996    1    1    2    0    0 -0.49058847656E+01  0.95449192658E+01  0.91479759788E+02  0.10480324251E+03  0.50000000000E+02 0.  0.
<mgrwt>
<rscale>  0 0.51138764E+02</rscale>
<asrwt>0</asrwt>
<pdfrwt beam="1">  1       13 0.10000000E+01 0.51138764E+02</pdfrwt>
<pdfrwt beam="2">  1       22 0.22156241E+00 0.51138764E+02</pdfrwt>
<totfact> 0.37254507E-01</totfact>
</mgrwt>
</event>
<event>
 4    1  0.2471347E+000  0.5281110E+02  0.7957747E-01  0.1430743E+00
         13   -1    0    0    0    0  0.00000000000E+00  0.00000000000E+00  0.99999944177E+02  0.99999999997E+02  0.10566000000E+00 0. -1.
         22   -1    0    0    0    0 -0.00000000000E+00 -0.00000000000E+00 -0.25025247883E+02  0.25025247883E+02  0.00000000000E+00 0.  1.
         13    1    1    2    0    0  0.28965283736E+01 -0.16751789091E+02 -0.13687833320E+02  0.21826137070E+02  0.10566000000E+00 0.  1.
        996    1    1    2    0    0 -0.28965283736E+01  0.16751789091E+02  0.88662529614E+02  0.10319911081E+03  0.50000000000E+02 0.  0.
<mgrwt>
<rscale>  0 0.52811100E+02</rscale>
<asrwt>0</asrwt>
<pdfrwt beam="1">  1       13 0.10000000E+01 0.52811100E+02</pdfrwt>
<pdfrwt beam="2">  1       22 0.25025269E+00 0.52811100E+02</pdfrwt>
<totfact> 0.29457995E-01</totfact>
</mgrwt>
</event>
<event>
 4    1  0.2471347E+000  0.5270176E+02  0.7957747E-01  0.1431291E+00
         13   -1    0    0    0    0  0.00000000000E+00  0.00000000000E+00  0.99999944179E+02  0.10000000000E+03  0.10566000000E+00 0.  1.
         22   -1    0    0    0    0 -0.00000000000E+00 -0.00000000000E+00 -0.20828105379E+02  0.20828105379E+02  0.00000000000E+00 0. -1.
         13    1    1    2    0    0  0.54923490793E+01  0.15726064565E+02 -0.83731775763E+01  0.18643933916E+02  0.10566000000E+00 0. -1.
        996    1    1    2    0    0 -0.54923490793E+01 -0.15726064565E+02  0.87545016377E+02  0.10218417146E+03  0.50000000000E+02 0.  0.
<mgrwt>
<rscale>  0 0.52701755E+02</rscale>
<asrwt>0</asrwt>
<pdfrwt beam="1">  1       13 0.10000000E+01 0.52701755E+02</pdfrwt>
<pdfrwt beam="2">  1       22 0.20828127E+00 0.52701755E+02</pdfrwt>
<totfact> 0.42034641E-01</totfact>
</mgrwt>
</event>
<event>
 4    1  0.2471347E+000  0.5147926E+02  0.7957747E-01  0.1437522E+00
         13   -1    0    0    0    0  0.00000000000E+00  0.00000000000E+00  0.99999944177E+02  0.99999999997E+02  0.10566000000E+00 0.  1.
         22   -1    0    0    0    0 -0.00000000000E+00 -0.00000000000E+00 -0.45833092222E+02  0.45833092222E+02  0.00000000000E+00 0. -1.
         13    1    1    2    0    0 -0.10883755197E+02 -0.56265527983E+01 -0.38184884313E+02  0.40102503384E+02  0.10566000000E+00 0. -1.
        996    1    1    2    0    0  0.10883755197E+02  0.56265527983E+01  0.92351736268E+02  0.10573058883E+03  0.50000000000E+02 0.  0.
<mgrwt>
<rscale>  0 0.51479260E+02</rscale>
<asrwt>0</asrwt>
<pdfrwt beam="1">  1       13 0.10000000E+01 0.51479260E+02</pdfrwt>
<pdfrwt beam="2">  1       22 0.45833107E+00 0.51479260E+02</pdfrwt>
<totfact> 0.92458659E-02</totfact>
</mgrwt>
</event>
<event>
 4    1  0.2471347E+000  0.6824199E+02  0.7957747E-01  0.1366175E+00
         13   -1    0    0    0    0  0.00000000000E+00  0.00000000000E+00  0.99999944189E+02  0.10000000001E+03  0.10566000000E+00 0. -1.
         22   -1    0    0    0    0 -0.00000000000E+00 -0.00000000000E+00 -0.34606160820E+02  0.34606160820E+02  0.00000000000E+00 0.  1.
         13    1    1    2    0    0  0.44756586176E+02 -0.12402280673E+02  0.12028175204E+02  0.47975584778E+02  0.10566000000E+00 0.  1.
        996    1    1    2    0    0 -0.44756586176E+02  0.12402280673E+02  0.53365608165E+02  0.86630576051E+02  0.50000000000E+02 0.  0.
<mgrwt>
<rscale>  0 0.68241985E+02</rscale>
<asrwt>0</asrwt>
<pdfrwt beam="1">  1       13 0.10000000E+01 0.68241985E+02</pdfrwt>
<pdfrwt beam="2">  1       22 0.34606179E+00 0.68241985E+02</pdfrwt>
<totfact> 0.16267709E-01</totfact>
</mgrwt>
</event>
<event>
 4    1  0.2471347E+000  0.5106224E+02  0.7957747E-01  0.1439695E+00
         13   -1    0    0    0    0  0.00000000000E+00  0.00000000000E+00  0.99999944180E+02  0.10000000000E+03  0.10566000000E+00 0. -1.
         22   -1    0    0    0    0 -0.00000000000E+00 -0.00000000000E+00 -0.14200551685E+02  0.14200551685E+02  0.00000000000E+00 0.  1.
         13    1    1    2    0    0  0.98896453357E+01  0.30898113742E+01 -0.38296560092E+01  0.11046694002E+02  0.10566000000E+00 0.  1.
        996    1    1    2    0    0 -0.98896453357E+01 -0.30898113742E+01  0.89629048504E+02  0.10315385768E+03  0.50000000000E+02 0.  0.
<mgrwt>
<rscale>  0 0.51062237E+02</rscale>
<asrwt>0</asrwt>
<pdfrwt beam="1">  1       13 0.10000000E+01 0.51062237E+02</pdfrwt>
<pdfrwt beam="2">  1       22 0.14200576E+00 0.51062237E+02</pdfrwt>
<totfact> 0.82237872E-01</totfact>
</mgrwt>
</event>
<event>
 4    1  0.2471347E+000  0.5495924E+02  0.7957747E-01  0.1420292E+00
         13   -1    0    0    0    0  0.00000000000E+00  0.00000000000E+00  0.99999944183E+02  0.10000000000E+03  0.10566000000E+00 0.  1.
         22   -1    0    0    0    0 -0.00000000000E+00 -0.00000000000E+00 -0.65745626402E+02  0.65745626402E+02  0.00000000000E+00 0. -1.
         13    1    1    2    0    0 -0.18182952106E+02 -0.13780373400E+02 -0.55778260452E+02  0.60263952255E+02  0.10566000000E+00 0. -1.
        996    1    1    2    0    0  0.18182952106E+02  0.13780373400E+02  0.90032578233E+02  0.10548167415E+03  0.50000000000E+02 0.  0.
<mgrwt>
<rscale>  0 0.54959243E+02</rscale>
<asrwt>0</asrwt>
<pdfrwt beam="1">  1       13 0.10000000E+01 0.54959243E+02</pdfrwt>
<pdfrwt beam="2">  1       22 0.65745636E+00 0.54959243E+02</pdfrwt>
<totfact> 0.87229932E-02</totfact>
</mgrwt>
</event>
<event>
 4    1  0.2471347E+000  0.5109773E+02  0.7957747E-01  0.1439509E+00
         13   -1    0    0    0    0  0.00000000000E+00  0.00000000000E+00  0.99999944179E+02  0.10000000000E+03  0.10566000000E+00 0. -1.
         22   -1    0    0    0    0 -0.00000000000E+00 -0.00000000000E+00 -0.17570682360E+02  0.17570682360E+02  0.00000000000E+00 0.  1.
         13    1    1    2    0    0 -0.55323629290E+01 -0.89650059335E+01 -0.83201972225E+01  0.13424426126E+02  0.10566000000E+00 0.  1.
        996    1    1    2    0    0  0.55323629290E+01  0.89650059335E+01  0.90749459042E+02  0.10414625623E+03  0.50000000000E+02 0.  0.
<mgrwt>
<rscale>  0 0.51097734E+02</rscale>
<asrwt>0</asrwt>
<pdfrwt beam="1">  1       13 0.10000000E+01 0.51097734E+02</pdfrwt>
<pdfrwt beam="2">  1       22 0.17570705E+00 0.51097734E+02</pdfrwt>
<totfact> 0.57258917E-01</totfact>
</mgrwt>
</event>
<event>
 4    1  0.2471347E+000  0.5276296E+02  0.7957747E-01  0.1430984E+00
         13   -1    0    0    0    0  0.00000000000E+00  0.00000000000E+00  0.99999944173E+02  0.99999999993E+02  0.10566000000E+00 0. -1.
         22   -1    0    0    0    0 -0.00000000000E+00 -0.00000000000E+00 -0.12118821594E+02  0.12118821594E+02  0.00000000000E+00 0. -1.
         13    1    1    2    0    0  0.16595040220E+02 -0.29213766160E+01  0.20435082985E+02  0.26486479227E+02  0.10566000000E+00 0.  1.
        996    1    1    2    0    0 -0.16595040220E+02  0.29213766160E+01  0.67446039593E+02  0.85632342360E+02  0.50000000000E+02 0.  0.
<mgrwt>
<rscale>  0 0.52762959E+02</rscale>
<asrwt>0</asrwt>
<pdfrwt beam="1">  1       13 0.10000000E+01 0.52762959E+02</pdfrwt>
<pdfrwt beam="2">  1       22 0.12118846E+00 0.52762959E+02</pdfrwt>
<totfact> 0.10605962E+00</totfact>
</mgrwt>
</event>
<event>
 4    1  0.2471347E+000  0.5182371E+02  0.7957747E-01  0.1435746E+00
         13   -1    0    0    0    0  0.00000000000E+00  0.00000000000E+00  0.99999944182E+02  0.10000000000E+03  0.10566000000E+00 0. -1.
         22   -1    0    0    0    0 -0.00000000000E+00 -0.00000000000E+00 -0.21280514664E+02  0.21280514664E+02  0.00000000000E+00 0.  1.
         13    1    1    2    0    0  0.11343183206E+02  0.75517609566E+01 -0.11104461858E+02  0.17578883240E+02  0.10566000000E+00 0.  1.
        996    1    1    2    0    0 -0.11343183206E+02 -0.75517609566E+01  0.89823891375E+02  0.10370163143E+03  0.50000000000E+02 0.  0.
<mgrwt>
<rscale>  0 0.51823710E+02</rscale>
<asrwt>0</asrwt>
<pdfrwt beam="1">  1       13 0.10000000E+01 0.51823710E+02</pdfrwt>
<pdfrwt beam="2">  1       22 0.21280537E+00 0.51823710E+02</pdfrwt>
<totfact> 0.40293177E-01</totfact>
</mgrwt>
</event>
<event>
 4    1  0.2471347E+000  0.5179428E+02  0.7957747E-01  0.1435897E+00
         13   -1    0    0    0    0  0.00000000000E+00  0.00000000000E+00  0.99999944181E+02  0.10000000000E+03  0.10566000000E+00 0.  1.
         22   -1    0    0    0    0 -0.00000000000E+00 -0.00000000000E+00 -0.10675043329E+02  0.10675043329E+02  0.00000000000E+00 0.  1.
         13    1    1    2    0    0 -0.13512267270E+02 -0.25711099028E+00  0.20003073170E+02  0.24140869353E+02  0.10566000000E+00 0. -1.
        996    1    1    2    0    0  0.13512267270E+02  0.25711099028E+00  0.69321827682E+02  0.86534173978E+02  0.50000000000E+02 0.  0.
<mgrwt>
<rscale>  0 0.51794280E+02</rscale>
<asrwt>0</asrwt>
<pdfrwt beam="1">  1       13 0.10000000E+01 0.51794280E+02</pdfrwt>
<pdfrwt beam="2">  1       22 0.10675068E+00 0.51794280E+02</pdfrwt>
<totfact> 0.12807852E+00</totfact>
</mgrwt>
</event>
<event>
 4    1  0.2471347E+000  0.5155090E+02  0.7957747E-01  0.1437152E+00
         13   -1    0    0    0    0  0.00000000000E+00  0.00000000000E+00  0.99999944171E+02  0.99999999991E+02  0.10566000000E+00 0.  1.
         22   -1    0    0    0    0 -0.00000000000E+00 -0.00000000000E+00 -0.11139967336E+02  0.11139967336E+02  0.00000000000E+00 0.  1.
         13    1    1    2    0    0 -0.11917196203E+02  0.39338834884E+01  0.69168759040E+01  0.14330015386E+02  0.10566000000E+00 0. -1.
        996    1    1    2    0    0  0.11917196203E+02 -0.39338834884E+01  0.81943100931E+02  0.96809951941E+02  0.50000000000E+02 0.  0.
<mgrwt>
<rscale>  0 0.51550897E+02</rscale>
<asrwt>0</asrwt>
<pdfrwt beam="1">  1       13 0.10000000E+01 0.51550897E+02</pdfrwt>
<pdfrwt beam="2">  1       22 0.11139992E+00 0.51550897E+02</pdfrwt>
<totfact> 0.12015891E+00</totfact>
</mgrwt>
</event>
<event>
 4    1  0.2471347E+000  0.5650957E+02  0.7957747E-01  0.1413092E+00
         13   -1    0    0    0    0  0.00000000000E+00  0.00000000000E+00  0.99999944175E+02  0.99999999996E+02  0.10566000000E+00 0. -1.
         22   -1    0    0    0    0 -0.00000000000E+00 -0.00000000000E+00 -0.19853806017E+02  0.19853806017E+02  0.00000000000E+00 0. -1.
         13    1    1    2    0    0 -0.24281868696E+02  0.10184406318E+02  0.48241274918E+02  0.54959649282E+02  0.10566000000E+00 0.  1.
        996    1    1    2    0    0  0.24281868696E+02 -0.10184406318E+02  0.31904863240E+02  0.64894156731E+02  0.50000000000E+02 0.  0.
<mgrwt>
<rscale>  0 0.56509568E+02</rscale>
<asrwt>0</asrwt>
<pdfrwt beam="1">  1       13 0.10000000E+01 0.56509568E+02</pdfrwt>
<pdfrwt beam="2">  1       22 0.19853828E+00 0.56509568E+02</pdfrwt>
<totfact> 0.46289579E-01</totfact>
</mgrwt>
</event>
<event>
 4    1  0.2471347E+000  0.5691265E+02  0.7957747E-01  0.1411264E+00
         13   -1    0    0    0    0  0.00000000000E+00  0.00000000000E+00  0.99999944180E+02  0.10000000000E+03  0.10566000000E+00 0. -1.
         22   -1    0    0    0    0 -0.00000000000E+00 -0.00000000000E+00 -0.21975766577E+02  0.21975766577E+02  0.00000000000E+00 0.  1.
         13    1    1    2    0    0  0.14973701277E+02 -0.22690035329E+02  0.23476122843E+01  0.27286844461E+02  0.10566000000E+00 0.  1.
        996    1    1    2    0    0 -0.14973701277E+02  0.22690035329E+02  0.75676565318E+02  0.94688922116E+02  0.50000000000E+02 0.  0.
<mgrwt>
<rscale>  0 0.56912647E+02</rscale>
<asrwt>0</asrwt>
<pdfrwt beam="1">  1       13 0.10000000E+01 0.56912647E+02</pdfrwt>
<pdfrwt beam="2">  1       22 0.21975788E+00 0.56912647E+02</pdfrwt>
<totfact> 0.38205098E-01</totfact>
</mgrwt>
</event>
<event>
 4    1  0.2471347E+000  0.6058867E+02  0.7957747E-01  0.1395378E+00
         13   -1    0    0    0    0  0.00000000000E+00  0.00000000000E+00  0.99999944177E+02  0.99999999998E+02  0.10566000000E+00 0. -1.
         22   -1    0    0    0    0 -0.00000000000E+00 -0.00000000000E+00 -0.29220623289E+02  0.29220623289E+02  0.00000000000E+00 0.  1.
         13    1    1    2    0    0  0.74643693793E+01 -0.33395663798E+02 -0.22931295224E+01  0.34296600091E+02  0.10566000000E+00 0.  1.
        996    1    1    2    0    0 -0.74643693793E+01  0.33395663798E+02  0.73072450411E+02  0.94924023196E+02  0.50000000000E+02 0.  0.
<mgrwt>
<rscale>  0 0.60588672E+02</rscale>
<asrwt>0</asrwt>
<pdfrwt beam="1">  1       13 0.10000000E+01 0.60588672E+02</pdfrwt>
<pdfrwt beam="2">  1       22 0.29220643E+00 0.60588672E+02</pdfrwt>
<totfact> 0.21991332E-01</totfact>
</mgrwt>
</event>
<event>
 4    1  0.2471347E+000  0.5511482E+02  0.7957747E-01  0.1419557E+00
         13   -1    0    0    0    0  0.00000000000E+00  0.00000000000E+00  0.99999944175E+02  0.99999999995E+02  0.10566000000E+00 0.  1.
         22   -1    0    0    0    0 -0.00000000000E+00 -0.00000000000E+00 -0.68601452353E+02  0.68601452353E+02  0.00000000000E+00 0. -1.
         13    1    1    2    0    0  0.23159907141E+02 -0.11233353830E+01 -0.58626342056E+02  0.63045240328E+02  0.10566000000E+00 0. -1.
        996    1    1    2    0    0 -0.23159907141E+02  0.11233353830E+01  0.90024833878E+02  0.10555621202E+03  0.50000000000E+02 0.  0.
<mgrwt>
<rscale>  0 0.55114818E+02</rscale>
<asrwt>0</asrwt>
<pdfrwt beam="1">  1       13 0.10000000E+01 0.55114818E+02</pdfrwt>
<pdfrwt beam="2">  1       22 0.68601461E+00 0.55114818E+02</pdfrwt>
<totfact> 0.81170985E-02</totfact>
</mgrwt>
</event>
<event>
 4    1  0.2471347E+000  0.5323627E+02  0.7957747E-01  0.1428629E+00
         13   -1    0    0    0    0  0.00000000000E+00  0.00000000000E+00  0.99999944182E+02  0.10000000000E+03  0.10566000000E+00 0.  1.
         22   -1    0    0    0    0 -0.00000000000E+00 -0.00000000000E+00 -0.13405467161E+02  0.13405467161E+02  0.00000000000E+00 0.  1.
         13    1    1    2    0    0  0.15014200970E+01  0.18216643425E+02  0.12400152375E+02  0.22087899468E+02  0.10566000000E+00 0. -1.
        996    1    1    2    0    0 -0.15014200970E+01 -0.18216643425E+02  0.74194324646E+02  0.91317567694E+02  0.50000000000E+02 0.  0.
<mgrwt>
<rscale>  0 0.53236269E+02</rscale>
<asrwt>0</asrwt>
<pdfrwt beam="1">  1       13 0.10000000E+01 0.53236269E+02</pdfrwt>
<pdfrwt beam="2">  1       22 0.13405491E+00 0.53236269E+02</pdfrwt>
<totfact> 0.90654225E-01</totfact>
</mgrwt>
</event>
<event>
 4    1  0.2471347E+000  0.5127234E+02  0.7957747E-01  0.1438597E+00
         13   -1    0    0    0    0  0.00000000000E+00  0.00000000000E+00  0.99999944177E+02  0.99999999997E+02  0.10566000000E+00 0.  1.
         22   -1    0    0    0    0 -0.00000000000E+00 -0.00000000000E+00 -0.13152065580E+02  0.13152065580E+02  0.00000000000E+00 0. -1.
         13    1    1    2    0    0  0.78679744238E+01 -0.81821460381E+01 -0.10424815269E+01  0.11399581882E+02  0.10566000000E+00 0. -1.
        996    1    1    2    0    0 -0.78679744238E+01  0.81821460381E+01  0.87890360124E+02  0.10175248369E+03  0.50000000000E+02 0.  0.
<mgrwt>
<rscale>  0 0.51272337E+02</rscale>
<asrwt>0</asrwt>
<pdfrwt beam="1">  1       13 0.10000000E+01 0.51272337E+02</pdfrwt>
<pdfrwt beam="2">  1       22 0.13152090E+00 0.51272337E+02</pdfrwt>
<totfact> 0.93052286E-01</totfact>
</mgrwt>
</event>
<event>
 4    1  0.2471347E+000  0.5178342E+02  0.7957747E-01  0.1435953E+00
         13   -1    0    0    0    0  0.00000000000E+00  0.00000000000E+00  0.99999944172E+02  0.99999999992E+02  0.10566000000E+00 0. -1.
         22   -1    0    0    0    0 -0.00000000000E+00 -0.00000000000E+00 -0.11175335343E+02  0.11175335343E+02  0.00000000000E+00 0.  1.
         13    1    1    2    0    0 -0.56487447091E+01  0.12231698532E+02  0.96602737331E+01  0.16578745984E+02  0.10566000000E+00 0.  1.
        996    1    1    2    0    0  0.56487447091E+01 -0.12231698532E+02  0.79164335095E+02  0.94596589351E+02  0.50000000000E+02 0.  0.
<mgrwt>
<rscale>  0 0.51783422E+02</rscale>
<asrwt>0</asrwt>
<pdfrwt beam="1">  1       13 0.10000000E+01 0.51783422E+02</pdfrwt>
<pdfrwt beam="2">  1       22 0.11175360E+00 0.51783422E+02</pdfrwt>
<totfact> 0.11965552E+00</totfact>
</mgrwt>
</event>
<event>
 4    1  0.2471347E+000  0.7798488E+02  0.7957747E-01  0.1334869E+00
         13   -1    0    0    0    0  0.00000000000E+00  0.00000000000E+00  0.99999944177E+02  0.99999999997E+02  0.10566000000E+00 0.  1.
         22   -1    0    0    0    0 -0.00000000000E+00 -0.00000000000E+00 -0.47557363990E+02  0.47557363990E+02  0.00000000000E+00 0. -1.
         13    1    1    2    0    0 -0.55069326606E+02 -0.23430972176E+02  0.20105395209E+02  0.63133820338E+02  0.10566000000E+00 0. -1.
        996    1    1    2    0    0  0.55069326606E+02  0.23430972176E+02  0.32337184978E+02  0.84423543649E+02  0.50000000000E+02 0.  0.
<mgrwt>
<rscale>  0 0.77984878E+02</rscale>
<asrwt>0</asrwt>
<pdfrwt beam="1">  1       13 0.10000000E+01 0.77984878E+02</pdfrwt>
<pdfrwt beam="2">  1       22 0.47557379E+00 0.77984878E+02</pdfrwt>
<totfact> 0.85195802E-02</totfact>
</mgrwt>
</event>
<event>
 4    1  0.2471347E+000  0.5289357E+02  0.7957747E-01  0.1430331E+00
         13   -1    0    0    0    0  0.00000000000E+00  0.00000000000E+00  0.99999944177E+02  0.99999999997E+02  0.10566000000E+00 0.  1.
         22   -1    0    0    0    0 -0.00000000000E+00 -0.00000000000E+00 -0.12867781966E+02  0.12867781966E+02  0.00000000000E+00 0.  1.
         13    1    1    2    0    0  0.13949273019E+02  0.10156135864E+02  0.12136322869E+02  0.21095753370E+02  0.10566000000E+00 0. -1.
        996    1    1    2    0    0 -0.13949273019E+02 -0.10156135864E+02  0.74995839342E+02  0.91772028593E+02  0.50000000000E+02 0.  0.
<mgrwt>
<rscale>  0 0.52893566E+02</rscale>
<asrwt>0</asrwt>
<pdfrwt beam="1">  1       13 0.10000000E+01 0.52893566E+02</pdfrwt>
<pdfrwt beam="2">  1       22 0.12867806E+00 0.52893566E+02</pdfrwt>
<totfact> 0.96650746E-01</totfact>
</mgrwt>
</event>
<event>
 4    1  0.2471347E+000  0.5116464E+02  0.7957747E-01  0.1439159E+00
         13   -1    0    0    0    0  0.00000000000E+00  0.00000000000E+00  0.99999944185E+02  0.10000000001E+03  0.10566000000E+00 0. -1.
         22   -1    0    0    0    0 -0.00000000000E+00 -0.00000000000E+00 -0.99072197717E+01  0.99072197717E+01  0.00000000000E+00 0. -1.
         13    1    1    2    0    0 -0.10221897791E+02 -0.36514721168E+01  0.93929870058E+01  0.14354783593E+02  0.10566000000E+00 0.  1.
        996    1    1    2    0    0  0.10221897791E+02  0.36514721168E+01  0.80699737408E+02  0.95552436184E+02  0.50000000000E+02 0.  0.
<mgrwt>
<rscale>  0 0.51164641E+02</rscale>
<asrwt>0</asrwt>
<pdfrwt beam="1">  1       13 0.10000000E+01 0.51164641E+02</pdfrwt>
<pdfrwt beam="2">  1       22 0.99072449E-01 0.51164641E+02</pdfrwt>
<totfact> 0.14260347E+00</totfact>
</mgrwt>
</event>
<event>
 4    1  0.2471347E+000  0.5145961E+02  0.7957747E-01  0.1437624E+00
         13   -1    0    0    0    0  0.00000000000E+00  0.00000000000E+00  0.99999944180E+02  0.10000000000E+03  0.10566000000E+00 0.  1.
         22   -1    0    0    0    0 -0.00000000000E+00 -0.00000000000E+00 -0.16293493263E+02  0.16293493263E+02  0.00000000000E+00 0. -1.
         13    1    1    2    0    0 -0.95910955993E+01 -0.74901183710E+01 -0.54637990223E+01  0.13339986949E+02  0.10566000000E+00 0. -1.
        996    1    1    2    0    0  0.95910955993E+01  0.74901183710E+01  0.89170249940E+02  0.10295350631E+03  0.50000000000E+02 0.  0.
<mgrwt>
<rscale>  0 0.51459605E+02</rscale>
<asrwt>0</asrwt>
<pdfrwt beam="1">  1       13 0.10000000E+01 0.51459605E+02</pdfrwt>
<pdfrwt beam="2">  1       22 0.16293517E+00 0.51459605E+02</pdfrwt>
<totfact> 0.65381004E-01</totfact>
</mgrwt>
</event>
<event>
 4    1  0.2471347E+000  0.5298343E+02  0.7957747E-01  0.1429883E+00
         13   -1    0    0    0    0  0.00000000000E+00  0.00000000000E+00  0.99999944170E+02  0.99999999990E+02  0.10566000000E+00 0.  1.
         22   -1    0    0    0    0 -0.00000000000E+00 -0.00000000000E+00 -0.22199274809E+02  0.22199274809E+02  0.00000000000E+00 0.  1.
         13    1    1    2    0    0  0.17361212084E+02 -0.24149580452E+01 -0.96057223656E+01  0.19988115809E+02  0.10566000000E+00 0. -1.
        996    1    1    2    0    0 -0.17361212084E+02  0.24149580452E+01  0.87406391727E+02  0.10221115899E+03  0.50000000000E+02 0.  0.
<mgrwt>
<rscale>  0 0.52983429E+02</rscale>
<asrwt>0</asrwt>
<pdfrwt beam="1">  1       13 0.10000000E+01 0.52983429E+02</pdfrwt>
<pdfrwt beam="2">  1       22 0.22199297E+00 0.52983429E+02</pdfrwt>
<totfact> 0.37231714E-01</totfact>
</mgrwt>
</event>
<event>
 4    1  0.2471347E+000  0.5320275E+02  0.7957747E-01  0.1428795E+00
         13   -1    0    0    0    0  0.00000000000E+00  0.00000000000E+00  0.99999944175E+02  0.99999999996E+02  0.10566000000E+00 0.  1.
         22   -1    0    0    0    0 -0.00000000000E+00 -0.00000000000E+00 -0.14610083415E+02  0.14610083415E+02  0.00000000000E+00 0. -1.
         13    1    1    2    0    0  0.17027138367E+02  0.63724956437E+01  0.62019391099E+01  0.19209564141E+02  0.10566000000E+00 0. -1.
        996    1    1    2    0    0 -0.17027138367E+02 -0.63724956437E+01  0.79187921650E+02  0.95400519270E+02  0.50000000000E+02 0.  0.
<mgrwt>
<rscale>  0 0.53202746E+02</rscale>
<asrwt>0</asrwt>
<pdfrwt beam="1">  1       13 0.10000000E+01 0.53202746E+02</pdfrwt>
<pdfrwt beam="2">  1       22 0.14610107E+00 0.53202746E+02</pdfrwt>
<totfact> 0.78843186E-01</totfact>
</mgrwt>
</event>
<event>
 4    1  0.2471347E+000  0.5411394E+02  0.7957747E-01  0.1424336E+00
         13   -1    0    0    0    0  0.00000000000E+00  0.00000000000E+00  0.99999944175E+02  0.99999999995E+02  0.10566000000E+00 0.  1.
         22   -1    0    0    0    0 -0.00000000000E+00 -0.00000000000E+00 -0.14764247907E+02  0.14764247907E+02  0.00000000000E+00 0. -1.
         13    1    1    2    0    0 -0.17338785573E+02  0.11299790924E+02  0.12754246357E+02  0.24310506458E+02  0.10566000000E+00 0. -1.
        996    1    1    2    0    0  0.17338785573E+02 -0.11299790924E+02  0.72481449910E+02  0.90453741444E+02  0.50000000000E+02 0.  0.
<mgrwt>
<rscale>  0 0.54113942E+02</rscale>
<asrwt>0</asrwt>
<pdfrwt beam="1">  1       13 0.10000000E+01 0.54113942E+02</pdfrwt>
<pdfrwt beam="2">  1       22 0.14764272E+00 0.54113942E+02</pdfrwt>
<totfact> 0.77628106E-01</totfact>
</mgrwt>
</event>
<event>
 4    1  0.2471347E+000  0.5216209E+02  0.7957747E-01  0.1434017E+00
         13   -1    0    0    0    0  0.00000000000E+00  0.00000000000E+00  0.99999944175E+02  0.99999999996E+02  0.10566000000E+00 0. -1.
         22   -1    0    0    0    0 -0.00000000000E+00 -0.00000000000E+00 -0.14579846428E+02  0.14579846428E+02  0.00000000000E+00 0.  1.
         13    1    1    2    0    0  0.62979630921E+01  0.13461775681E+02  0.44156597035E+00  0.14869091705E+02  0.10566000000E+00 0.  1.
        996    1    1    2    0    0 -0.62979630921E+01 -0.13461775681E+02  0.84978531777E+02  0.99710754719E+02  0.50000000000E+02 0.  0.
<mgrwt>
<rscale>  0 0.52162091E+02</rscale>
<asrwt>0</asrwt>
<pdfrwt beam="1">  1       13 0.10000000E+01 0.52162091E+02</pdfrwt>
<pdfrwt beam="2">  1       22 0.14579870E+00 0.52162091E+02</pdfrwt>
<totfact> 0.78945156E-01</totfact>
</mgrwt>
</event>
<event>
 4    1  0.2471347E+000  0.5173918E+02  0.7957747E-01  0.1436180E+00
         13   -1    0    0    0    0  0.00000000000E+00  0.00000000000E+00  0.99999944181E+02  0.10000000000E+03  0.10566000000E+00 0.  1.
         22   -1    0    0    0    0 -0.00000000000E+00 -0.00000000000E+00 -0.11536883889E+02  0.11536883889E+02  0.00000000000E+00 0.  1.
         13    1    1    2    0    0  0.10742066381E+02  0.78453964392E+01  0.69990535710E+01  0.15031305677E+02  0.10566000000E+00 0. -1.
        996    1    1    2    0    0 -0.10742066381E+02 -0.78453964392E+01  0.81464006721E+02  0.96505578214E+02  0.50000000000E+02 0.  0.
<mgrwt>
<rscale>  0 0.51739175E+02</rscale>
<asrwt>0</asrwt>
<pdfrwt beam="1">  1       13 0.10000000E+01 0.51739175E+02</pdfrwt>
<pdfrwt beam="2">  1       22 0.11536909E+00 0.51739175E+02</pdfrwt>
<totfact> 0.11405529E+00</totfact>
</mgrwt>
</event>
<event>
 4    1  0.2471347E+000  0.5265510E+02  0.7957747E-01  0.1431525E+00
         13   -1    0    0    0    0  0.00000000000E+00  0.00000000000E+00  0.99999944178E+02  0.99999999998E+02  0.10566000000E+00 0. -1.
         22   -1    0    0    0    0 -0.00000000000E+00 -0.00000000000E+00 -0.12313014986E+02  0.12313014986E+02  0.00000000000E+00 0. -1.
         13    1    1    2    0    0 -0.90695950761E+01 -0.13794988585E+02  0.29746292660E+02  0.34020763601E+02  0.10566000000E+00 0.  1.
        996    1    1    2    0    0  0.90695950761E+01  0.13794988585E+02  0.57940636531E+02  0.78292251383E+02  0.50000000000E+02 0.  0.
<mgrwt>
<rscale>  0 0.52655097E+02</rscale>
<asrwt>0</asrwt>
<pdfrwt beam="1">  1       13 0.10000000E+01 0.52655097E+02</pdfrwt>
<pdfrwt beam="2">  1       22 0.12313039E+00 0.52655097E+02</pdfrwt>
<totfact> 0.10346725E+00</totfact>
</mgrwt>
</event>
<event>
 4    1  0.2471347E+000  0.5167677E+02  0.7957747E-01  0.1436502E+00
         13   -1    0    0    0    0  0.00000000000E+00  0.00000000000E+00  0.99999944185E+02  0.10000000001E+03  0.10566000000E+00 0. -1.
         22   -1    0    0    0    0 -0.00000000000E+00 -0.00000000000E+00 -0.23984317104E+02  0.23984317104E+02  0.00000000000E+00 0. -1.
         13    1    1    2    0    0 -0.11779787581E+02 -0.56324990886E+01 -0.14650656020E+02  0.19625017893E+02  0.10566000000E+00 0.  1.
        996    1    1    2    0    0  0.11779787581E+02  0.56324990886E+01  0.90666283102E+02  0.10435929922E+03  0.50000000000E+02 0.  0.
<mgrwt>
<rscale>  0 0.51676769E+02</rscale>
<asrwt>0</asrwt>
<pdfrwt beam="1">  1       13 0.10000000E+01 0.51676769E+02</pdfrwt>
<pdfrwt beam="2">  1       22 0.23984338E+00 0.51676769E+02</pdfrwt>
<totfact> 0.31963731E-01</totfact>
</mgrwt>
</event>
<event>
 4    1  0.2471347E+000  0.5424355E+02  0.7957747E-01  0.1423710E+00
         13   -1    0    0    0    0  0.00000000000E+00  0.00000000000E+00  0.99999944180E+02  0.10000000000E+03  0.10566000000E+00 0.  1.
         22   -1    0    0    0    0 -0.00000000000E+00 -0.00000000000E+00 -0.14905064321E+02  0.14905064321E+02  0.00000000000E+00 0.  1.
         13    1    1    2    0    0  0.22562511467E+00 -0.21031204107E+02  0.13159021138E+02  0.24809946679E+02  0.10566000000E+00 0. -1.
        996    1    1    2    0    0 -0.22562511467E+00  0.21031204107E+02  0.71935858721E+02  0.90095117641E+02  0.50000000000E+02 0.  0.
<mgrwt>
<rscale>  0 0.54243548E+02</rscale>
<asrwt>0</asrwt>
<pdfrwt beam="1">  1       13 0.10000000E+01 0.54243548E+02</pdfrwt>
<pdfrwt beam="2">  1       22 0.14905088E+00 0.54243548E+02</pdfrwt>
<totfact> 0.76434242E-01</totfact>
</mgrwt>
</event>
<event>
 4    1  0.2471347E+000  0.5118024E+02  0.7957747E-01  0.1439078E+00
         13   -1    0    0    0    0  0.00000000000E+00  0.00000000000E+00  0.99999944184E+02  0.10000000000E+03  0.10566000000E+00 0.  1.
         22   -1    0    0    0    0 -0.00000000000E+00 -0.00000000000E+00 -0.97725470004E+01  0.97725470004E+01  0.00000000000E+00 0.  1.
         13    1    1    2    0    0  0.12947937670E+01  0.10850838888E+02  0.11438415612E+02  0.15819788596E+02  0.10566000000E+00 0. -1.
        996    1    1    2    0    0 -0.12947937670E+01 -0.10850838888E+02  0.78788981571E+02  0.93952758408E+02  0.50000000000E+02 0.  0.
<mgrwt>
<rscale>  0 0.51180242E+02</rscale>
<asrwt>0</asrwt>
<pdfrwt beam="1">  1       13 0.10000000E+01 0.51180242E+02</pdfrwt>
<pdfrwt beam="2">  1       22 0.97725722E-01 0.51180242E+02</pdfrwt>
<totfact> 0.14545112E+00</totfact>
</mgrwt>
</event>
<event>
 4    1  0.2471347E+000  0.5145952E+02  0.7957747E-01  0.1437625E+00
         13   -1    0    0    0    0  0.00000000000E+00  0.00000000000E+00  0.99999944180E+02  0.10000000000E+03  0.10566000000E+00 0. -1.
         22   -1    0    0    0    0 -0.00000000000E+00 -0.00000000000E+00 -0.14797889890E+02  0.14797889890E+02  0.00000000000E+00 0.  1.
         13    1    1    2    0    0 -0.11167893074E+02 -0.48332347501E+01 -0.31336982758E+01  0.12566352803E+02  0.10566000000E+00 0.  1.
        996    1    1    2    0    0  0.11167893074E+02  0.48332347501E+01  0.88335752565E+02  0.10223153709E+03  0.50000000000E+02 0.  0.
<mgrwt>
<rscale>  0 0.51459518E+02</rscale>
<asrwt>0</asrwt>
<pdfrwt beam="1">  1       13 0.10000000E+01 0.51459518E+02</pdfrwt>
<pdfrwt beam="2">  1       22 0.14797914E+00 0.51459518E+02</pdfrwt>
<totfact> 0.76921842E-01</totfact>
</mgrwt>
</event>
<event>
 4    1  0.2471347E+000  0.5131522E+02  0.7957747E-01  0.1438374E+00
         13   -1    0    0    0    0  0.00000000000E+00  0.00000000000E+00  0.99999944176E+02  0.99999999996E+02  0.10566000000E+00 0.  1.
         22   -1    0    0    0    0 -0.00000000000E+00 -0.00000000000E+00 -0.14211597513E+02  0.14211597513E+02  0.00000000000E+00 0.  1.
         13    1    1    2    0    0  0.46301028088E+01 -0.10574193275E+02 -0.27594910080E+01  0.11869177314E+02  0.10566000000E+00 0. -1.
        996    1    1    2    0    0 -0.46301028088E+01  0.10574193275E+02  0.88547837671E+02  0.10234242020E+03  0.50000000000E+02 0.  0.
<mgrwt>
<rscale>  0 0.51315216E+02</rscale>
<asrwt>0</asrwt>
<pdfrwt beam="1">  1       13 0.10000000E+01 0.51315216E+02</pdfrwt>
<pdfrwt beam="2">  1       22 0.14211621E+00 0.51315216E+02</pdfrwt>
<totfact> 0.82177921E-01</totfact>
</mgrwt>
</event>
<event>
 4    1  0.2471347E+000  0.5158528E+02  0.7957747E-01  0.1436974E+00
         13   -1    0    0    0    0  0.00000000000E+00  0.00000000000E+00  0.99999944179E+02  0.99999999999E+02  0.10566000000E+00 0.  1.
         22   -1    0    0    0    0 -0.00000000000E+00 -0.00000000000E+00 -0.22312796186E+02  0.22312796186E+02  0.00000000000E+00 0. -1.
         13    1    1    2    0    0  0.23346226420E+01 -0.12473603505E+02 -0.12882056829E+02  0.18083135775E+02  0.10566000000E+00 0. -1.
        996    1    1    2    0    0 -0.23346226420E+01  0.12473603505E+02  0.90569204821E+02  0.10422966041E+03  0.50000000000E+02 0.  0.
<mgrwt>
<rscale>  0 0.51585281E+02</rscale>
<asrwt>0</asrwt>
<pdfrwt beam="1">  1       13 0.10000000E+01 0.51585281E+02</pdfrwt>
<pdfrwt beam="2">  1       22 0.22312818E+00 0.51585281E+02</pdfrwt>
<totfact> 0.36780466E-01</totfact>
</mgrwt>
</event>
<event>
 4    1  0.2471347E+000  0.5297945E+02  0.7957747E-01  0.1429903E+00
         13   -1    0    0    0    0  0.00000000000E+00  0.00000000000E+00  0.99999944176E+02  0.99999999996E+02  0.10566000000E+00 0.  1.
         22   -1    0    0    0    0 -0.00000000000E+00 -0.00000000000E+00 -0.14412608287E+02  0.14412608287E+02  0.00000000000E+00 0.  1.
         13    1    1    2    0    0  0.67127745300E+01  0.16179026336E+02  0.54481891071E+01  0.18344376894E+02  0.10566000000E+00 0. -1.
        996    1    1    2    0    0 -0.67127745300E+01 -0.16179026336E+02  0.80139146782E+02  0.96068231388E+02  0.50000000000E+02 0.  0.
<mgrwt>
<rscale>  0 0.52979451E+02</rscale>
<asrwt>0</asrwt>
<pdfrwt beam="1">  1       13 0.10000000E+01 0.52979451E+02</pdfrwt>
<pdfrwt beam="2">  1       22 0.14412632E+00 0.52979451E+02</pdfrwt>
<totfact> 0.80590849E-01</totfact>
</mgrwt>
</event>
<event>
 4    1  0.2471347E+000  0.5127708E+02  0.7957747E-01  0.1438573E+00
         13   -1    0    0    0    0  0.00000000000E+00  0.00000000000E+00  0.99999944178E+02  0.99999999998E+02  0.10566000000E+00 0. -1.
         22   -1    0    0    0    0 -0.00000000000E+00 -0.00000000000E+00 -0.14925187205E+02  0.14925187205E+02  0.00000000000E+00 0.  1.
         13    1    1    2    0    0 -0.88102726131E+01  0.71915229590E+01 -0.40744551793E+01  0.12081028724E+02  0.10566000000E+00 0.  1.
        996    1    1    2    0    0  0.88102726131E+01 -0.71915229590E+01  0.89149212152E+02  0.10284415848E+03  0.50000000000E+02 0.  0.
<mgrwt>
<rscale>  0 0.51277080E+02</rscale>
<asrwt>0</asrwt>
<pdfrwt beam="1">  1       13 0.10000000E+01 0.51277080E+02</pdfrwt>
<pdfrwt beam="2">  1       22 0.14925211E+00 0.51277080E+02</pdfrwt>
<totfact> 0.75808141E-01</totfact>
</mgrwt>
</event>
<event>
 4    1  0.2471347E+000  0.5106440E+02  0.7957747E-01  0.1439684E+00
         13   -1    0    0    0    0  0.00000000000E+00  0.00000000000E+00  0.99999944178E+02  0.99999999998E+02  0.10566000000E+00 0.  1.
         22   -1    0    0    0    0 -0.00000000000E+00 -0.00000000000E+00 -0.12654657290E+02  0.12654657290E+02  0.00000000000E+00 0. -1.
         13    1    1    2    0    0 -0.78364409968E+01 -0.67943321138E+01 -0.11984979890E+01  0.10441279511E+02  0.10566000000E+00 0. -1.
        996    1    1    2    0    0  0.78364409968E+01  0.67943321138E+01  0.88543784877E+02  0.10221337778E+03  0.50000000000E+02 0.  0.
<mgrwt>
<rscale>  0 0.51064398E+02</rscale>
<asrwt>0</asrwt>
<pdfrwt beam="1">  1       13 0.10000000E+01 0.51064398E+02</pdfrwt>
<pdfrwt beam="2">  1       22 0.12654682E+00 0.51064398E+02</pdfrwt>
<totfact> 0.98814941E-01</totfact>
</mgrwt>
</event>
<event>
 4    1  0.2471347E+000  0.5367438E+02  0.7957747E-01  0.1426474E+00
         13   -1    0    0    0    0  0.00000000000E+00  0.00000000000E+00  0.99999944177E+02  0.99999999997E+02  0.10566000000E+00 0. -1.
         22   -1    0    0    0    0 -0.00000000000E+00 -0.00000000000E+00 -0.18588302006E+02  0.18588302006E+02  0.00000000000E+00 0.  1.
         13    1    1    2    0    0  0.52929635689E+00 -0.19510483472E+02 -0.17642847497E+01  0.19597524962E+02  0.10566000000E+00 0.  1.
        996    1    1    2    0    0 -0.52929635689E+00  0.19510483472E+02  0.83175926921E+02  0.98990777041E+02  0.50000000000E+02 0.  0.
<mgrwt>
<rscale>  0 0.53674380E+02</rscale>
<asrwt>0</asrwt>
<pdfrwt beam="1">  1       13 0.10000000E+01 0.53674380E+02</pdfrwt>
<pdfrwt beam="2">  1       22 0.18588325E+00 0.53674380E+02</pdfrwt>
<totfact> 0.52002219E-01</totfact>
</mgrwt>
</event>
<event>
 4    1  0.2471347E+000  0.5146893E+02  0.7957747E-01  0.1437576E+00
         13   -1    0    0    0    0  0.00000000000E+00  0.00000000000E+00  0.99999944182E+02  0.10000000000E+03  0.10566000000E+00 0.  1.
         22   -1    0    0    0    0 -0.00000000000E+00 -0.00000000000E+00 -0.13446753082E+02  0.13446753082E+02  0.00000000000E+00 0.  1.
         13    1    1    2    0    0 -0.73496236095E+01  0.97485075674E+01 -0.60735233790E+00  0.12224173096E+02  0.10566000000E+00 0. -1.
        996    1    1    2    0    0  0.73496236095E+01 -0.97485075674E+01  0.87160543437E+02  0.10122257999E+03  0.50000000000E+02 0.  0.
<mgrwt>
<rscale>  0 0.51468926E+02</rscale>
<asrwt>0</asrwt>
<pdfrwt beam="1">  1       13 0.10000000E+01 0.51468926E+02</pdfrwt>
<pdfrwt beam="2">  1       22 0.13446777E+00 0.51468926E+02</pdfrwt>
<totfact> 0.89873011E-01</totfact>
</mgrwt>
</event>
<event>
 4    1  0.2471347E+000  0.5455190E+02  0.7957747E-01  0.1422230E+00
         13   -1    0    0    0    0  0.00000000000E+00  0.00000000000E+00  0.99999944178E+02  0.99999999998E+02  0.10566000000E+00 0.  1.
         22   -1    0    0    0    0 -0.00000000000E+00 -0.00000000000E+00 -0.24077739369E+02  0.24077739369E+02  0.00000000000E+00 0. -1.
         13    1    1    2    0    0  0.21815299413E+02 -0.44651797997E-01 -0.86252055370E+01  0.23458785494E+02  0.10566000000E+00 0. -1.
        996    1    1    2    0    0 -0.21815299413E+02  0.44651797997E-01  0.84547410347E+02  0.10061895387E+03  0.50000000000E+02 0.  0.
<mgrwt>
<rscale>  0 0.54551895E+02</rscale>
<asrwt>0</asrwt>
<pdfrwt beam="1">  1       13 0.10000000E+01 0.54551895E+02</pdfrwt>
<pdfrwt beam="2">  1       22 0.24077761E+00 0.54551895E+02</pdfrwt>
<totfact> 0.31865384E-01</totfact>
</mgrwt>
</event>
<event>
 4    1  0.2471347E+000  0.5380866E+02  0.7957747E-01  0.1425818E+00
         13   -1    0    0    0    0  0.00000000000E+00  0.00000000000E+00  0.99999944187E+02  0.10000000001E+03  0.10566000000E+00 0. -1.
         22   -1    0    0    0    0 -0.00000000000E+00 -0.00000000000E+00 -0.67545675997E+02  0.67545675997E+02  0.00000000000E+00 0.  1.
         13    1    1    2    0    0  0.17570615847E+02  0.93083406762E+01 -0.58544082445E+02  0.61828735235E+02  0.10566000000E+00 0.  1.
        996    1    1    2    0    0 -0.17570615847E+02 -0.93083406762E+01  0.90998350635E+02  0.10571694077E+03  0.50000000000E+02 0.  0.
<mgrwt>
<rscale>  0 0.53808659E+02</rscale>
<asrwt>0</asrwt>
<pdfrwt beam="1">  1       13 0.10000000E+01 0.53808659E+02</pdfrwt>
<pdfrwt beam="2">  1       22 0.67545685E+00 0.53808659E+02</pdfrwt>
<totfact> 0.84923441E-02</totfact>
</mgrwt>
</event>
<event>
 4    1  0.2471347E+000  0.5148778E+02  0.7957747E-01  0.1437478E+00
         13   -1    0    0    0    0  0.00000000000E+00  0.00000000000E+00  0.99999944181E+02  0.10000000000E+03  0.10566000000E+00 0. -1.
         22   -1    0    0    0    0 -0.00000000000E+00 -0.00000000000E+00 -0.16806670982E+02  0.16806670982E+02  0.00000000000E+00 0.  1.
         13    1    1    2    0    0 -0.10626063185E+02  0.61707717808E+01 -0.61102606360E+01  0.13723632619E+02  0.10566000000E+00 0.  1.
        996    1    1    2    0    0  0.10626063185E+02 -0.61707717808E+01  0.89303533835E+02  0.10308303837E+03  0.50000000000E+02 0.  0.
<mgrwt>
<rscale>  0 0.51487781E+02</rscale>
<asrwt>0</asrwt>
<pdfrwt beam="1">  1       13 0.10000000E+01 0.51487781E+02</pdfrwt>
<pdfrwt beam="2">  1       22 0.16806694E+00 0.51487781E+02</pdfrwt>
<totfact> 0.61964161E-01</totfact>
</mgrwt>
</event>
<event>
 4    1  0.2471347E+000  0.5185626E+02  0.7957747E-01  0.1435579E+00
         13   -1    0    0    0    0  0.00000000000E+00  0.00000000000E+00  0.99999944175E+02  0.99999999996E+02  0.10566000000E+00 0.  1.
         22   -1    0    0    0    0 -0.00000000000E+00 -0.00000000000E+00 -0.21030304168E+02  0.21030304168E+02  0.00000000000E+00 0. -1.
         13    1    1    2    0    0  0.11907903504E+02 -0.68755429220E+01 -0.10715292360E+02  0.17432725281E+02  0.10566000000E+00 0. -1.
        996    1    1    2    0    0 -0.11907903504E+02  0.68755429220E+01  0.89684932368E+02  0.10359757888E+03  0.50000000000E+02 0.  0.
<mgrwt>
<rscale>  0 0.51856256E+02</rscale>
<asrwt>0</asrwt>
<pdfrwt beam="1">  1       13 0.10000000E+01 0.51856256E+02</pdfrwt>
<pdfrwt beam="2">  1       22 0.21030326E+00 0.51856256E+02</pdfrwt>
<totfact> 0.41211457E-01</totfact>
</mgrwt>
</event>
<event>
 4    1  0.2471347E+000  0.5733945E+02  0.7957747E-01  0.1409349E+00
         13   -1    0    0    0    0  0.00000000000E+00  0.00000000000E+00  0.99999944179E+02  0.10000000000E+03  0.10566000000E+00 0. -1.
         22   -1    0    0    0    0 -0.00000000000E+00 -0.00000000000E+00 -0.25841341576E+02  0.25841341576E+02  0.00000000000E+00 0.  1.
         13    1    1    2    0    0  0.26238328804E+02 -0.99681026802E+01 -0.45776386190E+01  0.28439038465E+02  0.10566000000E+00 0.  1.
        996    1    1    2    0    0 -0.26238328804E+02  0.99681026802E+01  0.78736241222E+02  0.97402303111E+02  0.50000000000E+02 0.  0.
<mgrwt>
<rscale>  0 0.57339454E+02</rscale>
<asrwt>0</asrwt>
<pdfrwt beam="1">  1       13 0.10000000E+01 0.57339454E+02</pdfrwt>
<pdfrwt beam="2">  1       22 0.25841362E+00 0.57339454E+02</pdfrwt>
<totfact> 0.27835378E-01</totfact>
</mgrwt>
</event>
<event>
 4    1  0.2471347E+000  0.5434761E+02  0.7957747E-01  0.1423210E+00
         13   -1    0    0    0    0  0.00000000000E+00  0.00000000000E+00  0.99999944178E+02  0.99999999998E+02  0.10566000000E+00 0.  1.
         22   -1    0    0    0    0 -0.00000000000E+00 -0.00000000000E+00 -0.32180843927E+02  0.32180843927E+02  0.00000000000E+00 0. -1.
         13    1    1    2    0    0  0.11253314759E+02  0.18083840958E+02 -0.19796124409E+02  0.29078516167E+02  0.10566000000E+00 0. -1.
        996    1    1    2    0    0 -0.11253314759E+02 -0.18083840958E+02  0.87615224660E+02  0.10310232776E+03  0.50000000000E+02 0.  0.
<mgrwt>
<rscale>  0 0.54347607E+02</rscale>
<asrwt>0</asrwt>
<pdfrwt beam="1">  1       13 0.10000000E+01 0.54347607E+02</pdfrwt>
<pdfrwt beam="2">  1       22 0.32180863E+00 0.54347607E+02</pdfrwt>
<totfact> 0.18263619E-01</totfact>
</mgrwt>
</event>
<event>
 4    1  0.2471347E+000  0.5741350E+02  0.7957747E-01  0.1409018E+00
         13   -1    0    0    0    0  0.00000000000E+00  0.00000000000E+00  0.99999944189E+02  0.10000000001E+03  0.10566000000E+00 0. -1.
         22   -1    0    0    0    0 -0.00000000000E+00 -0.00000000000E+00 -0.85041711187E+02  0.85041711187E+02  0.00000000000E+00 0.  1.
         13    1    1    2    0    0  0.27634104460E+02 -0.57154384496E+01 -0.73981413030E+02  0.79180620128E+02  0.10566000000E+00 0.  1.
        996    1    1    2    0    0 -0.27634104460E+02  0.57154384496E+01  0.88939646032E+02  0.10586109107E+03  0.50000000000E+02 0.  0.
<mgrwt>
<rscale>  0 0.57413500E+02</rscale>
<asrwt>0</asrwt>
<pdfrwt beam="1">  1       13 0.10000000E+01 0.57413500E+02</pdfrwt>
<pdfrwt beam="2">  1       22 0.85041715E+00 0.57413500E+02</pdfrwt>
<totfact> 0.18909199E-02</totfact>
</mgrwt>
</event>
<event>
 4    1  0.2471347E+000  0.5244468E+02  0.7957747E-01  0.1432585E+00
         13   -1    0    0    0    0  0.00000000000E+00  0.00000000000E+00  0.99999944174E+02  0.99999999994E+02  0.10566000000E+00 0. -1.
         22   -1    0    0    0    0 -0.00000000000E+00 -0.00000000000E+00 -0.16918733333E+02  0.16918733333E+02  0.00000000000E+00 0. -1.
         13    1    1    2    0    0 -0.77913561940E+01  0.13774598288E+02 -0.30117142152E+01  0.16109822342E+02  0.10566000000E+00 0.  1.
        996    1    1    2    0    0  0.77913561940E+01 -0.13774598288E+02  0.86092925056E+02  0.10080891099E+03  0.50000000000E+02 0.  0.
<mgrwt>
<rscale>  0 0.52444683E+02</rscale>
<asrwt>0</asrwt>
<pdfrwt beam="1">  1       13 0.10000000E+01 0.52444683E+02</pdfrwt>
<pdfrwt beam="2">  1       22 0.16918757E+00 0.52444683E+02</pdfrwt>
<totfact> 0.61363323E-01</totfact>
</mgrwt>
</event>
<event>
 4    1  0.2471347E+000  0.6325350E+02  0.7957747E-01  0.1384664E+00
         13   -1    0    0    0    0  0.00000000000E+00  0.00000000000E+00  0.99999944169E+02  0.99999999989E+02  0.10566000000E+00 0.  1.
         22   -1    0    0    0    0 -0.00000000000E+00 -0.00000000000E+00 -0.38368753192E+02  0.38368753192E+02  0.00000000000E+00 0.  1.
         13    1    1    2    0    0  0.38526132411E+02  0.40917467992E+01 -0.12695768075E+02  0.40770074337E+02  0.10566000000E+00 0. -1.
        996    1    1    2    0    0 -0.38526132411E+02 -0.40917467992E+01  0.74326959052E+02  0.97598678845E+02  0.50000000000E+02 0.  0.
<mgrwt>
<rscale>  0 0.63253500E+02</rscale>
<asrwt>0</asrwt>
<pdfrwt beam="1">  1       13 0.10000000E+01 0.63253500E+02</pdfrwt>
<pdfrwt beam="2">  1       22 0.38368770E+00 0.63253500E+02</pdfrwt>
<totfact> 0.13476987E-01</totfact>
</mgrwt>
</event>
<event>
 4    1  0.2471347E+000  0.8457605E+02  0.7957747E-01  0.1316545E+00
         13   -1    0    0    0    0  0.00000000000E+00  0.00000000000E+00  0.99999944184E+02  0.10000000000E+03  0.10566000000E+00 0.  1.
         22   -1    0    0    0    0 -0.00000000000E+00 -0.00000000000E+00 -0.65625417864E+02  0.65625417864E+02  0.00000000000E+00 0. -1.
         13    1    1    2    0    0 -0.47953941408E+02  0.48513166298E+02 -0.11859721483E+02  0.69237070695E+02  0.10566000000E+00 0. -1.
        996    1    1    2    0    0  0.47953941408E+02 -0.48513166298E+02  0.46234247803E+02  0.96388347173E+02  0.50000000000E+02 0.  0.
<mgrwt>
<rscale>  0 0.84576047E+02</rscale>
<asrwt>0</asrwt>
<pdfrwt beam="1">  1       13 0.10000000E+01 0.84576047E+02</pdfrwt>
<pdfrwt beam="2">  1       22 0.65625427E+00 0.84576047E+02</pdfrwt>
<totfact> 0.87186411E-02</totfact>
</mgrwt>
</event>
<event>
 4    1  0.2471347E+000  0.5257427E+02  0.7957747E-01  0.1431931E+00
         13   -1    0    0    0    0  0.00000000000E+00  0.00000000000E+00  0.99999944180E+02  0.10000000000E+03  0.10566000000E+00 0. -1.
         22   -1    0    0    0    0 -0.00000000000E+00 -0.00000000000E+00 -0.12800331452E+02  0.12800331452E+02  0.00000000000E+00 0.  1.
         13    1    1    2    0    0  0.11062326651E+02 -0.11902885388E+02  0.90152869457E+01  0.18583334314E+02  0.10566000000E+00 0.  1.
        996    1    1    2    0    0 -0.11062326651E+02  0.11902885388E+02  0.78184325783E+02  0.94216997138E+02  0.50000000000E+02 0.  0.
<mgrwt>
<rscale>  0 0.52574269E+02</rscale>
<asrwt>0</asrwt>
<pdfrwt beam="1">  1       13 0.10000000E+01 0.52574269E+02</pdfrwt>
<pdfrwt beam="2">  1       22 0.12800356E+00 0.52574269E+02</pdfrwt>
<totfact> 0.97384251E-01</totfact>
</mgrwt>
</event>
<event>
 4    1  0.2471347E+000  0.5475072E+02  0.7957747E-01  0.1421281E+00
         13   -1    0    0    0    0  0.00000000000E+00  0.00000000000E+00  0.99999944181E+02  0.10000000000E+03  0.10566000000E+00 0.  1.
         22   -1    0    0    0    0 -0.00000000000E+00 -0.00000000000E+00 -0.15131495724E+02  0.15131495724E+02  0.00000000000E+00 0.  1.
         13    1    1    2    0    0 -0.22026862911E+02  0.35297386507E+01  0.32104674276E+02  0.39094283713E+02  0.10566000000E+00 0. -1.
        996    1    1    2    0    0  0.22026862911E+02 -0.35297386507E+01  0.52763774182E+02  0.76037212012E+02  0.50000000000E+02 0.  0.
<mgrwt>
<rscale>  0 0.54750724E+02</rscale>
<asrwt>0</asrwt>
<pdfrwt beam="1">  1       13 0.10000000E+01 0.54750724E+02</pdfrwt>
<pdfrwt beam="2">  1       22 0.15131519E+00 0.54750724E+02</pdfrwt>
<totfact> 0.74609441E-01</totfact>
</mgrwt>
</event>
<event>
 4    1  0.2471347E+000  0.7089658E+02  0.7957747E-01  0.1357070E+00
         13   -1    0    0    0    0  0.00000000000E+00  0.00000000000E+00  0.99999944176E+02  0.99999999996E+02  0.10566000000E+00 0. -1.
         22   -1    0    0    0    0 -0.00000000000E+00 -0.00000000000E+00 -0.39429935934E+02  0.39429935934E+02  0.00000000000E+00 0. -1.
         13    1    1    2    0    0 -0.48622703190E+02  0.12734120330E+02  0.73864108720E+01  0.50802512887E+02  0.10566000000E+00 0.  1.
        996    1    1    2    0    0  0.48622703190E+02 -0.12734120330E+02  0.53183597370E+02  0.88627423043E+02  0.50000000000E+02 0.  0.
<mgrwt>
<rscale>  0 0.70896580E+02</rscale>
<asrwt>0</asrwt>
<pdfrwt beam="1">  1       13 0.10000000E+01 0.70896580E+02</pdfrwt>
<pdfrwt beam="2">  1       22 0.39429953E+00 0.70896580E+02</pdfrwt>
<totfact> 0.12872952E-01</totfact>
</mgrwt>
</event>
<event>
 4    1  0.2471347E+000  0.5334695E+02  0.7957747E-01  0.1428082E+00
         13   -1    0    0    0    0  0.00000000000E+00  0.00000000000E+00  0.99999944179E+02  0.99999999999E+02  0.10566000000E+00 0.  1.
         22   -1    0    0    0    0 -0.00000000000E+00 -0.00000000000E+00 -0.20605224380E+02  0.20605224380E+02  0.00000000000E+00 0. -1.
         13    1    1    2    0    0  0.15666604772E+02  0.10022709267E+02 -0.63218750906E+01  0.19643687913E+02  0.10566000000E+00 0. -1.
        996    1    1    2    0    0 -0.15666604772E+02 -0.10022709267E+02  0.85716594889E+02  0.10096153647E+03  0.50000000000E+02 0.  0.
<mgrwt>
<rscale>  0 0.53346951E+02</rscale>
<asrwt>0</asrwt>
<pdfrwt beam="1">  1       13 0.10000000E+01 0.53346951E+02</pdfrwt>
<pdfrwt beam="2">  1       22 0.20605247E+00 0.53346951E+02</pdfrwt>
<totfact> 0.42945428E-01</totfact>
</mgrwt>
</event>
<event>
 4    1  0.2471347E+000  0.5160268E+02  0.7957747E-01  0.1436884E+00
         13   -1    0    0    0    0  0.00000000000E+00  0.00000000000E+00  0.99999944183E+02  0.10000000000E+03  0.10566000000E+00 0. -1.
         22   -1    0    0    0    0 -0.00000000000E+00 -0.00000000000E+00 -0.25262963937E+02  0.25262963937E+02  0.00000000000E+00 0.  1.
         13    1    1    2    0    0 -0.10504218333E+02  0.72455313621E+01 -0.16249816838E+02  0.20661656246E+02  0.10566000000E+00 0.  1.
        996    1    1    2    0    0  0.10504218333E+02 -0.72455313621E+01  0.90986797085E+02  0.10460130769E+03  0.50000000000E+02 0.  0.
<mgrwt>
<rscale>  0 0.51602678E+02</rscale>
<asrwt>0</asrwt>
<pdfrwt beam="1">  1       13 0.10000000E+01 0.51602678E+02</pdfrwt>
<pdfrwt beam="2">  1       22 0.25262985E+00 0.51602678E+02</pdfrwt>
<totfact> 0.28860647E-01</totfact>
</mgrwt>
</event>
<event>
 4    1  0.2471347E+000  0.6097085E+02  0.7957747E-01  0.1393802E+00
         13   -1    0    0    0    0  0.00000000000E+00  0.00000000000E+00  0.99999944180E+02  0.10000000000E+03  0.10566000000E+00 0. -1.
         22   -1    0    0    0    0 -0.00000000000E+00 -0.00000000000E+00 -0.41196488782E+02  0.41196488782E+02  0.00000000000E+00 0. -1.
         13    1    1    2    0    0 -0.27074985688E+02 -0.22008858008E+02 -0.21032873870E+02  0.40741104896E+02  0.10566000000E+00 0.  1.
        996    1    1    2    0    0  0.27074985688E+02  0.22008858008E+02  0.79836329268E+02  0.10045538389E+03  0.50000000000E+02 0.  0.
<mgrwt>
<rscale>  0 0.60970851E+02</rscale>
<asrwt>0</asrwt>
<pdfrwt beam="1">  1       13 0.10000000E+01 0.60970851E+02</pdfrwt>
<pdfrwt beam="2">  1       22 0.41196505E+00 0.60970851E+02</pdfrwt>
<totfact> 0.11752344E-01</totfact>
</mgrwt>
</event>
<event>
 4    1  0.2471347E+000  0.5435370E+02  0.7957747E-01  0.1423180E+00
         13   -1    0    0    0    0  0.00000000000E+00  0.00000000000E+00  0.99999944175E+02  0.99999999995E+02  0.10566000000E+00 0.  1.
         22   -1    0    0    0    0 -0.00000000000E+00 -0.00000000000E+00 -0.36938199236E+02  0.36938199236E+02  0.00000000000E+00 0. -1.
         13    1    1    2    0    0  0.19085363103E+02 -0.94906969883E+01 -0.25371392463E+02  0.33136733901E+02  0.10566000000E+00 0. -1.
        996    1    1    2    0    0 -0.19085363103E+02  0.94906969883E+01  0.88433137402E+02  0.10380146533E+03  0.50000000000E+02 0.  0.
<mgrwt>
<rscale>  0 0.54353697E+02</rscale>
<asrwt>0</asrwt>
<pdfrwt beam="1">  1       13 0.10000000E+01 0.54353697E+02</pdfrwt>
<pdfrwt beam="2">  1       22 0.36938217E+00 0.54353697E+02</pdfrwt>
<totfact> 0.14329552E-01</totfact>
</mgrwt>
</event>
<event>
 4    1  0.2471347E+000  0.5148752E+02  0.7957747E-01  0.1437480E+00
         13   -1    0    0    0    0  0.00000000000E+00  0.00000000000E+00  0.99999944184E+02  0.10000000000E+03  0.10566000000E+00 0. -1.
         22   -1    0    0    0    0 -0.00000000000E+00 -0.00000000000E+00 -0.40573005317E+02  0.40573005317E+02  0.00000000000E+00 0.  1.
         13    1    1    2    0    0  0.10979365687E+02 -0.55152325464E+01 -0.32756592871E+02  0.34985279782E+02  0.10566000000E+00 0.  1.
        996    1    1    2    0    0 -0.10979365687E+02  0.55152325464E+01  0.92183531737E+02  0.10558772554E+03  0.50000000000E+02 0.  0.
<mgrwt>
<rscale>  0 0.51487516E+02</rscale>
<asrwt>0</asrwt>
<pdfrwt beam="1">  1       13 0.10000000E+01 0.51487516E+02</pdfrwt>
<pdfrwt beam="2">  1       22 0.40573022E+00 0.51487516E+02</pdfrwt>
<totfact> 0.12030370E-01</totfact>
</mgrwt>
</event>
<event>
 4    1  0.2471347E+000  0.5567323E+02  0.7957747E-01  0.1416942E+00
         13   -1    0    0    0    0  0.00000000000E+00  0.00000000000E+00  0.99999944185E+02  0.10000000001E+03  0.10566000000E+00 0.  1.
         22   -1    0    0    0    0 -0.00000000000E+00 -0.00000000000E+00 -0.23163787006E+02  0.23163787006E+02  0.00000000000E+00 0. -1.
         13    1    1    2    0    0  0.44820388025E+01 -0.24071149650E+02 -0.42034153097E+01  0.24843284437E+02  0.10566000000E+00 0. -1.
        996    1    1    2    0    0 -0.44820388025E+01  0.24071149650E+02  0.81039572488E+02  0.98320502574E+02  0.50000000000E+02 0.  0.
<mgrwt>
<rscale>  0 0.55673233E+02</rscale>
<asrwt>0</asrwt>
<pdfrwt beam="1">  1       13 0.10000000E+01 0.55673233E+02</pdfrwt>
<pdfrwt beam="2">  1       22 0.23163808E+00 0.55673233E+02</pdfrwt>
<totfact> 0.34431367E-01</totfact>
</mgrwt>
</event>
<event>
 4    1  0.2471347E+000  0.5831465E+02  0.7957747E-01  0.1405044E+00
         13   -1    0    0    0    0  0.00000000000E+00  0.00000000000E+00  0.99999944169E+02  0.99999999989E+02  0.10566000000E+00 0.  1.
         22   -1    0    0    0    0 -0.00000000000E+00 -0.00000000000E+00 -0.20847974939E+02  0.20847974939E+02  0.00000000000E+00 0.  1.
         13    1    1    2    0    0 -0.30002361346E+02  0.67560386051E+00  0.42302319623E+02  0.51866130918E+02  0.10566000000E+00 0. -1.
        996    1    1    2    0    0  0.30002361346E+02 -0.67560386051E+00  0.36849649607E+02  0.68981844010E+02  0.50000000000E+02 0.  0.
<mgrwt>
<rscale>  0 0.58314648E+02</rscale>
<asrwt>0</asrwt>
<pdfrwt beam="1">  1       13 0.10000000E+01 0.58314648E+02</pdfrwt>
<pdfrwt beam="2">  1       22 0.20847997E+00 0.58314648E+02</pdfrwt>
<totfact> 0.42346663E-01</totfact>
</mgrwt>
</event>
<event>
 4    1  0.2471347E+000  0.5214780E+02  0.7957747E-01  0.1434090E+00
         13   -1    0    0    0    0  0.00000000000E+00  0.00000000000E+00  0.99999944184E+02  0.10000000000E+03  0.10566000000E+00 0. -1.
         22   -1    0    0    0    0 -0.00000000000E+00 -0.00000000000E+00 -0.26868346725E+02  0.26868346725E+02  0.00000000000E+00 0.  1.
         13    1    1    2    0    0 -0.14734830840E+02  0.15092290723E+01 -0.17117431235E+02  0.22636488871E+02  0.10566000000E+00 0.  1.
        996    1    1    2    0    0  0.14734830840E+02 -0.15092290723E+01  0.90249028695E+02  0.10423185786E+03  0.50000000000E+02 0.  0.
<mgrwt>
<rscale>  0 0.52147800E+02</rscale>
<asrwt>0</asrwt>
<pdfrwt beam="1">  1       13 0.10000000E+01 0.52147800E+02</pdfrwt>
<pdfrwt beam="2">  1       22 0.26868367E+00 0.52147800E+02</pdfrwt>
<totfact> 0.25591504E-01</totfact>
</mgrwt>
</event>
<event>
 4    1  0.2471347E+000  0.5286660E+02  0.7957747E-01  0.1430466E+00
         13   -1    0    0    0    0  0.00000000000E+00  0.00000000000E+00  0.99999944170E+02  0.99999999990E+02  0.10566000000E+00 0.  1.
         22   -1    0    0    0    0 -0.00000000000E+00 -0.00000000000E+00 -0.27591813504E+02  0.27591813504E+02  0.00000000000E+00 0. -1.
         13    1    1    2    0    0  0.13639926350E+01  0.17117731729E+02 -0.16717747134E+02  0.23966047832E+02  0.10566000000E+00 0. -1.
        996    1    1    2    0    0 -0.13639926350E+01 -0.17117731729E+02  0.89125877799E+02  0.10362576566E+03  0.50000000000E+02 0.  0.
<mgrwt>
<rscale>  0 0.52866598E+02</rscale>
<asrwt>0</asrwt>
<pdfrwt beam="1">  1       13 0.10000000E+01 0.52866598E+02</pdfrwt>
<pdfrwt beam="2">  1       22 0.27591834E+00 0.52866598E+02</pdfrwt>
<totfact> 0.24323396E-01</totfact>
</mgrwt>
</event>
<event>
 4    1  0.2471347E+000  0.7783557E+02  0.7957747E-01  0.1335308E+00
         13   -1    0    0    0    0  0.00000000000E+00  0.00000000000E+00  0.99999944185E+02  0.10000000000E+03  0.10566000000E+00 0.  1.
         22   -1    0    0    0    0 -0.00000000000E+00 -0.00000000000E+00 -0.66255829013E+02  0.66255829013E+02  0.00000000000E+00 0. -1.
         13    1    1    2    0    0 -0.39824966212E+02  0.44411119546E+02 -0.28954868860E+02  0.66308152348E+02  0.10566000000E+00 0. -1.
        996    1    1    2    0    0  0.39824966212E+02 -0.44411119546E+02  0.62698984032E+02  0.99947676670E+02  0.50000000000E+02 0.  0.
<mgrwt>
<rscale>  0 0.77835567E+02</rscale>
<asrwt>0</asrwt>
<pdfrwt beam="1">  1       13 0.10000000E+01 0.77835567E+02</pdfrwt>
<pdfrwt beam="2">  1       22 0.66255838E+00 0.77835567E+02</pdfrwt>
<totfact> 0.87189187E-02</totfact>
</mgrwt>
</event>
<event>
 4    1  0.2471347E+000  0.5131533E+02  0.7957747E-01  0.1438373E+00
         13   -1    0    0    0    0  0.00000000000E+00  0.00000000000E+00  0.99999944170E+02  0.99999999990E+02  0.10566000000E+00 0. -1.
         22   -1    0    0    0    0 -0.00000000000E+00 -0.00000000000E+00 -0.18571420409E+02  0.18571420409E+02  0.00000000000E+00 0.  1.
         13    1    1    2    0    0 -0.11302306654E+02  0.23497282101E+01 -0.89726110786E+01  0.14621295153E+02  0.10566000000E+00 0.  1.
        996    1    1    2    0    0  0.11302306654E+02 -0.23497282101E+01  0.90401134840E+02  0.10395012525E+03  0.50000000000E+02 0.  0.
<mgrwt>
<rscale>  0 0.51315333E+02</rscale>
<asrwt>0</asrwt>
<pdfrwt beam="1">  1       13 0.10000000E+01 0.51315333E+02</pdfrwt>
<pdfrwt beam="2">  1       22 0.18571443E+00 0.51315333E+02</pdfrwt>
<totfact> 0.51862151E-01</totfact>
</mgrwt>
</event>
<event>
 4    1  0.2471347E+000  0.5643298E+02  0.7957747E-01  0.1413441E+00
         13   -1    0    0    0    0  0.00000000000E+00  0.00000000000E+00  0.99999944182E+02  0.10000000000E+03  0.10566000000E+00 0. -1.
         22   -1    0    0    0    0 -0.00000000000E+00 -0.00000000000E+00 -0.27215596227E+02  0.27215596227E+02  0.00000000000E+00 0.  1.
         13    1    1    2    0    0  0.15493948395E+02  0.21085998854E+02 -0.91560690672E+01  0.27722311399E+02  0.10566000000E+00 0.  1.
        996    1    1    2    0    0 -0.15493948395E+02 -0.21085998854E+02  0.81940417022E+02  0.99493284830E+02  0.50000000000E+02 0.  0.
<mgrwt>
<rscale>  0 0.56432985E+02</rscale>
<asrwt>0</asrwt>
<pdfrwt beam="1">  1       13 0.10000000E+01 0.56432985E+02</pdfrwt>
<pdfrwt beam="2">  1       22 0.27215617E+00 0.56432985E+02</pdfrwt>
<totfact> 0.25107198E-01</totfact>
</mgrwt>
</event>
<event>
 4    1  0.2471347E+000  0.6207504E+02  0.7957747E-01  0.1389324E+00
         13   -1    0    0    0    0  0.00000000000E+00  0.00000000000E+00  0.99999944176E+02  0.99999999996E+02  0.10566000000E+00 0. -1.
         22   -1    0    0    0    0 -0.00000000000E+00 -0.00000000000E+00 -0.39988592520E+02  0.39988592520E+02  0.00000000000E+00 0.  1.
         13    1    1    2    0    0 -0.25898207018E+02  0.26126491416E+02 -0.17455827114E+02  0.40718886830E+02  0.10566000000E+00 0.  1.
        996    1    1    2    0    0  0.25898207018E+02 -0.26126491416E+02  0.77467178769E+02  0.99269705686E+02  0.50000000000E+02 0.  0.
<mgrwt>
<rscale>  0 0.62075041E+02</rscale>
<asrwt>0</asrwt>
<pdfrwt beam="1">  1       13 0.10000000E+01 0.62075041E+02</pdfrwt>
<pdfrwt beam="2">  1       22 0.39988609E+00 0.62075041E+02</pdfrwt>
<totfact> 0.12464178E-01</totfact>
</mgrwt>
</event>
<event>
 4    1  0.2471347E+000  0.5426147E+02  0.7957747E-01  0.1423624E+00
         13   -1    0    0    0    0  0.00000000000E+00  0.00000000000E+00  0.99999944176E+02  0.99999999996E+02  0.10566000000E+00 0.  1.
         22   -1    0    0    0    0 -0.00000000000E+00 -0.00000000000E+00 -0.23748308940E+02  0.23748308940E+02  0.00000000000E+00 0. -1.
         13    1    1    2    0    0 -0.20228617869E+02  0.59253649691E+01 -0.88160958810E+01  0.22848230600E+02  0.10566000000E+00 0. -1.
        996    1    1    2    0    0  0.20228617869E+02 -0.59253649691E+01  0.85067731117E+02  0.10090007834E+03  0.50000000000E+02 0.  0.
<mgrwt>
<rscale>  0 0.54261468E+02</rscale>
<asrwt>0</asrwt>
<pdfrwt beam="1">  1       13 0.10000000E+01 0.54261468E+02</pdfrwt>
<pdfrwt beam="2">  1       22 0.23748330E+00 0.54261468E+02</pdfrwt>
<totfact> 0.32723021E-01</totfact>
</mgrwt>
</event>
<event>
 4    1  0.2471347E+000  0.5105368E+02  0.7957747E-01  0.1439740E+00
         13   -1    0    0    0    0  0.00000000000E+00  0.00000000000E+00  0.99999944176E+02  0.99999999996E+02  0.10566000000E+00 0. -1.
         22   -1    0    0    0    0 -0.00000000000E+00 -0.00000000000E+00 -0.12624137160E+02  0.12624137160E+02  0.00000000000E+00 0.  1.
         13    1    1    2    0    0 -0.34546798307E+01  0.97233266683E+01 -0.11994722841E+01  0.10388830157E+02  0.10566000000E+00 0.  1.
        996    1    1    2    0    0  0.34546798307E+01 -0.97233266683E+01  0.88575279300E+02  0.10223530700E+03  0.50000000000E+02 0.  0.
<mgrwt>
<rscale>  0 0.51053677E+02</rscale>
<asrwt>0</asrwt>
<pdfrwt beam="1">  1       13 0.10000000E+01 0.51053677E+02</pdfrwt>
<pdfrwt beam="2">  1       22 0.12624162E+00 0.51053677E+02</pdfrwt>
<totfact> 0.99185222E-01</totfact>
</mgrwt>
</event>
<event>
 4    1  0.2471347E+000  0.5207130E+02  0.7957747E-01  0.1434479E+00
         13   -1    0    0    0    0  0.00000000000E+00  0.00000000000E+00  0.99999944180E+02  0.10000000000E+03  0.10566000000E+00 0.  1.
         22   -1    0    0    0    0 -0.00000000000E+00 -0.00000000000E+00 -0.14840779442E+02  0.14840779442E+02  0.00000000000E+00 0.  1.
         13    1    1    2    0    0  0.43570828331E+01  0.13872133127E+02 -0.55303178754E+00  0.14551194332E+02  0.10566000000E+00 0. -1.
        996    1    1    2    0    0 -0.43570828331E+01 -0.13872133127E+02  0.85712196525E+02  0.10028958511E+03  0.50000000000E+02 0.  0.
<mgrwt>
<rscale>  0 0.52071300E+02</rscale>
<asrwt>0</asrwt>
<pdfrwt beam="1">  1       13 0.10000000E+01 0.52071300E+02</pdfrwt>
<pdfrwt beam="2">  1       22 0.14840803E+00 0.52071300E+02</pdfrwt>
<totfact> 0.76650572E-01</totfact>
</mgrwt>
</event>
<event>
 4    1  0.2471347E+000  0.5225185E+02  0.7957747E-01  0.1433561E+00
         13   -1    0    0    0    0  0.00000000000E+00  0.00000000000E+00  0.99999944178E+02  0.99999999998E+02  0.10566000000E+00 0. -1.
         22   -1    0    0    0    0 -0.00000000000E+00 -0.00000000000E+00 -0.18402581132E+02  0.18402581132E+02  0.00000000000E+00 0. -1.
         13    1    1    2    0    0  0.10521788166E+02 -0.10933782055E+02 -0.60708892721E+01  0.16343881938E+02  0.10566000000E+00 0.  1.
        996    1    1    2    0    0 -0.10521788166E+02  0.10933782055E+02  0.87668252318E+02  0.10205869919E+03  0.50000000000E+02 0.  0.
<mgrwt>
<rscale>  0 0.52251848E+02</rscale>
<asrwt>0</asrwt>
<pdfrwt beam="1">  1       13 0.10000000E+01 0.52251848E+02</pdfrwt>
<pdfrwt beam="2">  1       22 0.18402604E+00 0.52251848E+02</pdfrwt>
<totfact> 0.52819928E-01</totfact>
</mgrwt>
</event>
<event>
 4    1  0.2471347E+000  0.5270435E+02  0.7957747E-01  0.1431278E+00
         13   -1    0    0    0    0  0.00000000000E+00  0.00000000000E+00  0.99999944178E+02  0.99999999999E+02  0.10566000000E+00 0. -1.
         22   -1    0    0    0    0 -0.00000000000E+00 -0.00000000000E+00 -0.13148842324E+02  0.13148842324E+02  0.00000000000E+00 0. -1.
         13    1    1    2    0    0  0.12095158929E+02  0.11465392424E+02  0.84672242755E+01  0.18693665877E+02  0.10566000000E+00 0.  1.
        996    1    1    2    0    0 -0.12095158929E+02 -0.11465392424E+02  0.78383877579E+02  0.94455176445E+02  0.50000000000E+02 0.  0.
<mgrwt>
<rscale>  0 0.52704346E+02</rscale>
<asrwt>0</asrwt>
<pdfrwt beam="1">  1       13 0.10000000E+01 0.52704346E+02</pdfrwt>
<pdfrwt beam="2">  1       22 0.13148867E+00 0.52704346E+02</pdfrwt>
<totfact> 0.93376258E-01</totfact>
</mgrwt>
</event>
<event>
 4    1  0.2471347E+000  0.5136059E+02  0.7957747E-01  0.1438138E+00
         13   -1    0    0    0    0  0.00000000000E+00  0.00000000000E+00  0.99999944181E+02  0.10000000000E+03  0.10566000000E+00 0. -1.
         22   -1    0    0    0    0 -0.00000000000E+00 -0.00000000000E+00 -0.15989260364E+02  0.15989260364E+02  0.00000000000E+00 0.  1.
         13    1    1    2    0    0 -0.57960688460E+01 -0.10213486279E+02 -0.53616862534E+01  0.12910017799E+02  0.10566000000E+00 0.  1.
        996    1    1    2    0    0  0.57960688460E+01  0.10213486279E+02  0.89372370070E+02  0.10307924257E+03  0.50000000000E+02 0.  0.
<mgrwt>
<rscale>  0 0.51360585E+02</rscale>
<asrwt>0</asrwt>
<pdfrwt beam="1">  1       13 0.10000000E+01 0.51360585E+02</pdfrwt>
<pdfrwt beam="2">  1       22 0.15989284E+00 0.51360585E+02</pdfrwt>
<totfact> 0.67515806E-01</totfact>
</mgrwt>
</event>
<event>
 4    1  0.2471347E+000  0.5321854E+02  0.7957747E-01  0.1428716E+00
         13   -1    0    0    0    0  0.00000000000E+00  0.00000000000E+00  0.99999944181E+02  0.10000000000E+03  0.10566000000E+00 0.  1.
         22   -1    0    0    0    0 -0.00000000000E+00 -0.00000000000E+00 -0.13092692930E+02  0.13092692930E+02  0.00000000000E+00 0.  1.
         13    1    1    2    0    0  0.14816765759E+02  0.10614900298E+02  0.30587083724E+02  0.35606088112E+02  0.10566000000E+00 0. -1.
        996    1    1    2    0    0 -0.14816765759E+02 -0.10614900298E+02  0.56320167527E+02  0.77486604818E+02  0.50000000000E+02 0.  0.
<mgrwt>
<rscale>  0 0.53218537E+02</rscale>
<asrwt>0</asrwt>
<pdfrwt beam="1">  1       13 0.10000000E+01 0.53218537E+02</pdfrwt>
<pdfrwt beam="2">  1       22 0.13092717E+00 0.53218537E+02</pdfrwt>
<totfact> 0.94112713E-01</totfact>
</mgrwt>
</event>
<event>
 4    1  0.2471347E+000  0.5170294E+02  0.7957747E-01  0.1436367E+00
         13   -1    0    0    0    0  0.00000000000E+00  0.00000000000E+00  0.99999944192E+02  0.10000000001E+03  0.10566000000E+00 0.  1.
         22   -1    0    0    0    0 -0.00000000000E+00 -0.00000000000E+00 -0.18705379159E+02  0.18705379159E+02  0.00000000000E+00 0. -1.
         13    1    1    2    0    0  0.63864457967E+01 -0.11506829205E+02 -0.80872443716E+01  0.15446957429E+02  0.10566000000E+00 0. -1.
        996    1    1    2    0    0 -0.63864457967E+01  0.11506829205E+02  0.89381809405E+02  0.10325842174E+03  0.50000000000E+02 0.  0.
<mgrwt>
<rscale>  0 0.51702938E+02</rscale>
<asrwt>0</asrwt>
<pdfrwt beam="1">  1       13 0.10000000E+01 0.51702938E+02</pdfrwt>
<pdfrwt beam="2">  1       22 0.18705402E+00 0.51702938E+02</pdfrwt>
<totfact> 0.51226507E-01</totfact>
</mgrwt>
</event>
<event>
 4    1  0.2471347E+000  0.5223107E+02  0.7957747E-01  0.1433666E+00
         13   -1    0    0    0    0  0.00000000000E+00  0.00000000000E+00  0.99999944181E+02  0.10000000000E+03  0.10566000000E+00 0.  1.
         22   -1    0    0    0    0 -0.00000000000E+00 -0.00000000000E+00 -0.13009422956E+02  0.13009422956E+02  0.00000000000E+00 0.  1.
         13    1    1    2    0    0  0.14273179562E+02  0.49357146996E+01  0.52169810529E+01  0.15978516506E+02  0.10566000000E+00 0. -1.
        996    1    1    2    0    0 -0.14273179562E+02 -0.49357146996E+01  0.81773540173E+02  0.97030906451E+02  0.50000000000E+02 0.  0.
<mgrwt>
<rscale>  0 0.52231072E+02</rscale>
<asrwt>0</asrwt>
<pdfrwt beam="1">  1       13 0.10000000E+01 0.52231072E+02</pdfrwt>
<pdfrwt beam="2">  1       22 0.13009447E+00 0.52231072E+02</pdfrwt>
<totfact> 0.94865491E-01</totfact>
</mgrwt>
</event>
<event>
 4    1  0.2471347E+000  0.5178136E+02  0.7957747E-01  0.1435964E+00
         13   -1    0    0    0    0  0.00000000000E+00  0.00000000000E+00  0.99999944179E+02  0.99999999999E+02  0.10566000000E+00 0. -1.
         22   -1    0    0    0    0 -0.00000000000E+00 -0.00000000000E+00 -0.11643875881E+02  0.11643875881E+02  0.00000000000E+00 0. -1.
         13    1    1    2    0    0 -0.10737101052E+02 -0.81254993669E+01  0.34009299646E+02  0.36578035833E+02  0.10566000000E+00 0.  1.
        996    1    1    2    0    0  0.10737101052E+02  0.81254993669E+01  0.54346768652E+02  0.75065840046E+02  0.50000000000E+02 0.  0.
<mgrwt>
<rscale>  0 0.51781358E+02</rscale>
<asrwt>0</asrwt>
<pdfrwt beam="1">  1       13 0.10000000E+01 0.51781358E+02</pdfrwt>
<pdfrwt beam="2">  1       22 0.11643901E+00 0.51781358E+02</pdfrwt>
<totfact> 0.11248516E+00</totfact>
</mgrwt>
</event>
<event>
 4    1  0.2471347E+000  0.5124611E+02  0.7957747E-01  0.1438734E+00
         13   -1    0    0    0    0  0.00000000000E+00  0.00000000000E+00  0.99999944170E+02  0.99999999990E+02  0.10566000000E+00 0. -1.
         22   -1    0    0    0    0 -0.00000000000E+00 -0.00000000000E+00 -0.18571340813E+02  0.18571340813E+02  0.00000000000E+00 0.  1.
         13    1    1    2    0    0  0.90938130726E+01 -0.65928870476E+01 -0.91587310267E+01  0.14493347228E+02  0.10566000000E+00 0.  1.
        996    1    1    2    0    0 -0.90938130726E+01  0.65928870476E+01  0.90587334384E+02  0.10407799357E+03  0.50000000000E+02 0.  0.
<mgrwt>
<rscale>  0 0.51246108E+02</rscale>
<asrwt>0</asrwt>
<pdfrwt beam="1">  1       13 0.10000000E+01 0.51246108E+02</pdfrwt>
<pdfrwt beam="2">  1       22 0.18571364E+00 0.51246108E+02</pdfrwt>
<totfact> 0.51855775E-01</totfact>
</mgrwt>
</event>
<event>
 4    1  0.2471347E+000  0.5331583E+02  0.7957747E-01  0.1428236E+00
         13   -1    0    0    0    0  0.00000000000E+00  0.00000000000E+00  0.99999944173E+02  0.99999999993E+02  0.10566000000E+00 0. -1.
         22   -1    0    0    0    0 -0.00000000000E+00 -0.00000000000E+00 -0.19964136599E+02  0.19964136599E+02  0.00000000000E+00 0.  1.
         13    1    1    2    0    0  0.10678250562E+02  0.15117948044E+02 -0.53792352744E+01  0.19274976635E+02  0.10566000000E+00 0.  1.
        996    1    1    2    0    0 -0.10678250562E+02 -0.15117948044E+02  0.85415042848E+02  0.10068915996E+03  0.50000000000E+02 0.  0.
<mgrwt>
<rscale>  0 0.53315827E+02</rscale>
<asrwt>0</asrwt>
<pdfrwt beam="1">  1       13 0.10000000E+01 0.53315827E+02</pdfrwt>
<pdfrwt beam="2">  1       22 0.19964159E+00 0.53315827E+02</pdfrwt>
<totfact> 0.45565996E-01</totfact>
</mgrwt>
</event>
<event>
 4    1  0.2471347E+000  0.5115515E+02  0.7957747E-01  0.1439209E+00
         13   -1    0    0    0    0  0.00000000000E+00  0.00000000000E+00  0.99999944173E+02  0.99999999993E+02  0.10566000000E+00 0.  1.
         22   -1    0    0    0    0 -0.00000000000E+00 -0.00000000000E+00 -0.18373064342E+02  0.18373064342E+02  0.00000000000E+00 0. -1.
         13    1    1    2    0    0  0.91225362380E+01  0.57990141783E+01 -0.91579141666E+01  0.14167843476E+02  0.10566000000E+00 0. -1.
        996    1    1    2    0    0 -0.91225362380E+01 -0.57990141783E+01  0.90784793998E+02  0.10420522086E+03  0.50000000000E+02 0.  0.
<mgrwt>
<rscale>  0 0.51155149E+02</rscale>
<asrwt>0</asrwt>
<pdfrwt beam="1">  1       13 0.10000000E+01 0.51155149E+02</pdfrwt>
<pdfrwt beam="2">  1       22 0.18373087E+00 0.51155149E+02</pdfrwt>
<totfact> 0.52864232E-01</totfact>
</mgrwt>
</event>
<event>
 4    1  0.2471347E+000  0.7124701E+02  0.7957747E-01  0.1355903E+00
         13   -1    0    0    0    0  0.00000000000E+00  0.00000000000E+00  0.99999944179E+02  0.10000000000E+03  0.10566000000E+00 0.  1.
         22   -1    0    0    0    0 -0.00000000000E+00 -0.00000000000E+00 -0.44085217329E+02  0.44085217329E+02  0.00000000000E+00 0. -1.
         13    1    1    2    0    0 -0.48675848212E+02  0.14380473846E+02 -0.41122234969E+01  0.50922075501E+02  0.10566000000E+00 0. -1.
        996    1    1    2    0    0  0.48675848212E+02 -0.14380473846E+02  0.60026950347E+02  0.93163141828E+02  0.50000000000E+02 0.  0.
<mgrwt>
<rscale>  0 0.71247009E+02</rscale>
<asrwt>0</asrwt>
<pdfrwt beam="1">  1       13 0.10000000E+01 0.71247009E+02</pdfrwt>
<pdfrwt beam="2">  1       22 0.44085233E+00 0.71247009E+02</pdfrwt>
<totfact> 0.10231299E-01</totfact>
</mgrwt>
</event>
<event>
 4    1  0.2471347E+000  0.5776682E+02  0.7957747E-01  0.1407450E+00
         13   -1    0    0    0    0  0.00000000000E+00  0.00000000000E+00  0.99999944168E+02  0.99999999988E+02  0.10566000000E+00 0. -1.
         22   -1    0    0    0    0 -0.00000000000E+00 -0.00000000000E+00 -0.36089811012E+02  0.36089811012E+02  0.00000000000E+00 0.  1.
         13    1    1    2    0    0 -0.27039338145E+02  0.10289769747E+02 -0.19311331133E+02  0.34784247051E+02  0.10566000000E+00 0.  1.
        996    1    1    2    0    0  0.27039338145E+02 -0.10289769747E+02  0.83221464289E+02  0.10130556395E+03  0.50000000000E+02 0.  0.
<mgrwt>
<rscale>  0 0.57766817E+02</rscale>
<asrwt>0</asrwt>
<pdfrwt beam="1">  1       13 0.10000000E+01 0.57766817E+02</pdfrwt>
<pdfrwt beam="2">  1       22 0.36089829E+00 0.57766817E+02</pdfrwt>
<totfact> 0.14975051E-01</totfact>
</mgrwt>
</event>
<event>
 4    1  0.2471347E+000  0.5155974E+02  0.7957747E-01  0.1437106E+00
         13   -1    0    0    0    0  0.00000000000E+00  0.00000000000E+00  0.99999944175E+02  0.99999999995E+02  0.10566000000E+00 0.  1.
         22   -1    0    0    0    0 -0.00000000000E+00 -0.00000000000E+00 -0.23759104528E+02  0.23759104528E+02  0.00000000000E+00 0. -1.
         13    1    1    2    0    0  0.11189001739E+02 -0.57630517171E+01 -0.14618179884E+02  0.19290123695E+02  0.10566000000E+00 0. -1.
        996    1    1    2    0    0 -0.11189001739E+02  0.57630517171E+01  0.90859019531E+02  0.10446898083E+03  0.50000000000E+02 0.  0.
<mgrwt>
<rscale>  0 0.51559737E+02</rscale>
<asrwt>0</asrwt>
<pdfrwt beam="1">  1       13 0.10000000E+01 0.51559737E+02</pdfrwt>
<pdfrwt beam="2">  1       22 0.23759126E+00 0.51559737E+02</pdfrwt>
<totfact> 0.32553106E-01</totfact>
</mgrwt>
</event>
<event>
 4    1  0.2471347E+000  0.5374298E+02  0.7957747E-01  0.1426139E+00
         13   -1    0    0    0    0  0.00000000000E+00  0.00000000000E+00  0.99999944177E+02  0.99999999997E+02  0.10566000000E+00 0.  1.
         22   -1    0    0    0    0 -0.00000000000E+00 -0.00000000000E+00 -0.17327842770E+02  0.17327842770E+02  0.00000000000E+00 0. -1.
         13    1    1    2    0    0  0.10459646213E+02 -0.16700397054E+02  0.12203607921E+01  0.19743553509E+02  0.10566000000E+00 0. -1.
        996    1    1    2    0    0 -0.10459646213E+02  0.16700397054E+02  0.81451740616E+02  0.97584289258E+02  0.50000000000E+02 0.  0.
<mgrwt>
<rscale>  0 0.53742976E+02</rscale>
<asrwt>0</asrwt>
<pdfrwt beam="1">  1       13 0.10000000E+01 0.53742976E+02</pdfrwt>
<pdfrwt beam="2">  1       22 0.17327866E+00 0.53742976E+02</pdfrwt>
<totfact> 0.58983391E-01</totfact>
</mgrwt>
</event>
<event>
 4    1  0.2471347E+000  0.5552232E+02  0.7957747E-01  0.1417645E+00
         13   -1    0    0    0    0  0.00000000000E+00  0.00000000000E+00  0.99999944169E+02  0.99999999990E+02  0.10566000000E+00 0. -1.
         22   -1    0    0    0    0 -0.00000000000E+00 -0.00000000000E+00 -0.22022426883E+02  0.22022426883E+02  0.00000000000E+00 0. -1.
         13    1    1    2    0    0 -0.22956598955E+02  0.74647767036E+01 -0.24798484606E+01  0.24267038123E+02  0.10566000000E+00 0.  1.
        996    1    1    2    0    0  0.22956598955E+02 -0.74647767036E+01  0.80457365747E+02  0.97755388750E+02  0.50000000000E+02 0.  0.
<mgrwt>
<rscale>  0 0.55522323E+02</rscale>
<asrwt>0</asrwt>
<pdfrwt beam="1">  1       13 0.10000000E+01 0.55522323E+02</pdfrwt>
<pdfrwt beam="2">  1       22 0.22022449E+00 0.55522323E+02</pdfrwt>
<totfact> 0.37966448E-01</totfact>
</mgrwt>
</event>
<event>
 4    1  0.2471347E+000  0.5419799E+02  0.7957747E-01  0.1423930E+00
         13   -1    0    0    0    0  0.00000000000E+00  0.00000000000E+00  0.99999944169E+02  0.99999999990E+02  0.10566000000E+00 0. -1.
         22   -1    0    0    0    0 -0.00000000000E+00 -0.00000000000E+00 -0.55890035753E+02  0.55890035753E+02  0.00000000000E+00 0.  1.
         13    1    1    2    0    0 -0.13799242955E+02 -0.15716315285E+02 -0.46116105546E+02  0.50637219780E+02  0.10566000000E+00 0.  1.
        996    1    1    2    0    0  0.13799242955E+02  0.15716315285E+02  0.90226013963E+02  0.10525281596E+03  0.50000000000E+02 0.  0.
<mgrwt>
<rscale>  0 0.54197986E+02</rscale>
<asrwt>0</asrwt>
<pdfrwt beam="1">  1       13 0.10000000E+01 0.54197986E+02</pdfrwt>
<pdfrwt beam="2">  1       22 0.55890048E+00 0.54197986E+02</pdfrwt>
<totfact> 0.58596693E-02</totfact>
</mgrwt>
</event>
<event>
 4    1  0.2471347E+000  0.5276736E+02  0.7957747E-01  0.1430962E+00
         13   -1    0    0    0    0  0.00000000000E+00  0.00000000000E+00  0.99999944176E+02  0.99999999996E+02  0.10566000000E+00 0. -1.
         22   -1    0    0    0    0 -0.00000000000E+00 -0.00000000000E+00 -0.12703156704E+02  0.12703156704E+02  0.00000000000E+00 0. -1.
         13    1    1    2    0    0  0.14658119888E+02  0.83387242748E+01  0.32591212850E+02  0.36695955094E+02  0.10566000000E+00 0.  1.
        996    1    1    2    0    0 -0.14658119888E+02 -0.83387242748E+01  0.54705574622E+02  0.76007201605E+02  0.50000000000E+02 0.  0.
<mgrwt>
<rscale>  0 0.52767365E+02</rscale>
<asrwt>0</asrwt>
<pdfrwt beam="1">  1       13 0.10000000E+01 0.52767365E+02</pdfrwt>
<pdfrwt beam="2">  1       22 0.12703181E+00 0.52767365E+02</pdfrwt>
<totfact> 0.98593713E-01</totfact>
</mgrwt>
</event>
<event>
 4    1  0.2471347E+000  0.5125444E+02  0.7957747E-01  0.1438691E+00
         13   -1    0    0    0    0  0.00000000000E+00  0.00000000000E+00  0.99999944185E+02  0.10000000000E+03  0.10566000000E+00 0. -1.
         22   -1    0    0    0    0 -0.00000000000E+00 -0.00000000000E+00 -0.11123603522E+02  0.11123603522E+02  0.00000000000E+00 0.  1.
         13    1    1    2    0    0 -0.73748272175E+01  0.85222753153E+01  0.39756888921E+01  0.11951339642E+02  0.10566000000E+00 0.  1.
        996    1    1    2    0    0  0.73748272175E+01 -0.85222753153E+01  0.84900651770E+02  0.99172263885E+02  0.50000000000E+02 0.  0.
<mgrwt>
<rscale>  0 0.51254436E+02</rscale>
<asrwt>0</asrwt>
<pdfrwt beam="1">  1       13 0.10000000E+01 0.51254436E+02</pdfrwt>
<pdfrwt beam="2">  1       22 0.11123628E+00 0.51254436E+02</pdfrwt>
<totfact> 0.12033979E+00</totfact>
</mgrwt>
</event>
<event>
 4    1  0.2471347E+000  0.5176423E+02  0.7957747E-01  0.1436052E+00
         13   -1    0    0    0    0  0.00000000000E+00  0.00000000000E+00  0.99999944181E+02  0.10000000000E+03  0.10566000000E+00 0. -1.
         22   -1    0    0    0    0 -0.00000000000E+00 -0.00000000000E+00 -0.10826885210E+02  0.10826885210E+02  0.00000000000E+00 0. -1.
         13    1    1    2    0    0  0.13393401577E+02  0.38984855331E+00  0.25135638491E+02  0.28484147768E+02  0.10566000000E+00 0.  1.
        996    1    1    2    0    0 -0.13393401577E+02 -0.38984855331E+00  0.64037420480E+02  0.82342737442E+02  0.50000000000E+02 0.  0.
<mgrwt>
<rscale>  0 0.51764227E+02</rscale>
<asrwt>0</asrwt>
<pdfrwt beam="1">  1       13 0.10000000E+01 0.51764227E+02</pdfrwt>
<pdfrwt beam="2">  1       22 0.10826910E+00 0.51764227E+02</pdfrwt>
<totfact> 0.12542411E+00</totfact>
</mgrwt>
</event>
<event>
 4    1  0.2471347E+000  0.5280883E+02  0.7957747E-01  0.1430755E+00
         13   -1    0    0    0    0  0.00000000000E+00  0.00000000000E+00  0.99999944179E+02  0.99999999999E+02  0.10566000000E+00 0. -1.
         22   -1    0    0    0    0 -0.00000000000E+00 -0.00000000000E+00 -0.29005775952E+02  0.29005775952E+02  0.00000000000E+00 0.  1.
         13    1    1    2    0    0 -0.16986597753E+02  0.47746006995E+00 -0.18482516846E+02  0.25107510119E+02  0.10566000000E+00 0.  1.
        996    1    1    2    0    0  0.16986597753E+02 -0.47746006995E+00  0.89476685073E+02  0.10389826583E+03  0.50000000000E+02 0.  0.
<mgrwt>
<rscale>  0 0.52808829E+02</rscale>
<asrwt>0</asrwt>
<pdfrwt beam="1">  1       13 0.10000000E+01 0.52808829E+02</pdfrwt>
<pdfrwt beam="2">  1       22 0.29005796E+00 0.52808829E+02</pdfrwt>
<totfact> 0.22087712E-01</totfact>
</mgrwt>
</event>
<event>
 4    1  0.2471347E+000  0.8855974E+02  0.7957747E-01  0.1306377E+00
         13   -1    0    0    0    0  0.00000000000E+00  0.00000000000E+00  0.99999944178E+02  0.99999999998E+02  0.10566000000E+00 0. -1.
         22   -1    0    0    0    0 -0.00000000000E+00 -0.00000000000E+00 -0.65977972055E+02  0.65977972055E+02  0.00000000000E+00 0.  1.
         13    1    1    2    0    0  0.48874935292E+02 -0.54351341036E+02  0.72151754612E+01  0.73449965917E+02  0.10566000000E+00 0.  1.
        996    1    1    2    0    0 -0.48874935292E+02  0.54351341036E+02  0.26806796661E+02  0.92528006136E+02  0.50000000000E+02 0.  0.
<mgrwt>
<rscale>  0 0.88559740E+02</rscale>
<asrwt>0</asrwt>
<pdfrwt beam="1">  1       13 0.10000000E+01 0.88559740E+02</pdfrwt>
<pdfrwt beam="2">  1       22 0.65977982E+00 0.88559740E+02</pdfrwt>
<totfact> 0.87279531E-02</totfact>
</mgrwt>
</event>
<event>
 4    1  0.2471347E+000  0.5130423E+02  0.7957747E-01  0.1438431E+00
         13   -1    0    0    0    0  0.00000000000E+00  0.00000000000E+00  0.99999944182E+02  0.10000000000E+03  0.10566000000E+00 0.  1.
         22   -1    0    0    0    0 -0.00000000000E+00 -0.00000000000E+00 -0.10366764918E+02  0.10366764918E+02  0.00000000000E+00 0.  1.
         13    1    1    2    0    0 -0.31602778903E+00 -0.11490179416E+02  0.82010355780E+01  0.14120631897E+02  0.10566000000E+00 0. -1.
        996    1    1    2    0    0  0.31602778903E+00  0.11490179416E+02  0.81432143686E+02  0.96246133023E+02  0.50000000000E+02 0.  0.
<mgrwt>
<rscale>  0 0.51304231E+02</rscale>
<asrwt>0</asrwt>
<pdfrwt beam="1">  1       13 0.10000000E+01 0.51304231E+02</pdfrwt>
<pdfrwt beam="2">  1       22 0.10366790E+00 0.51304231E+02</pdfrwt>
<totfact> 0.13355507E+00</totfact>
</mgrwt>
</event>
<event>
 4    1  0.2471347E+000  0.5769702E+02  0.7957747E-01  0.1407758E+00
         13   -1    0    0    0    0  0.00000000000E+00  0.00000000000E+00  0.99999944178E+02  0.99999999998E+02  0.10566000000E+00 0.  1.
         22   -1    0    0    0    0 -0.00000000000E+00 -0.00000000000E+00 -0.25063258307E+02  0.25063258307E+02  0.00000000000E+00 0. -1.
         13    1    1    2    0    0 -0.44273867821E+01 -0.28448981478E+02 -0.20398742370E+01  0.28863793095E+02  0.10566000000E+00 0. -1.
        996    1    1    2    0    0  0.44273867821E+01  0.28448981478E+02  0.76976560107E+02  0.96199465211E+02  0.50000000000E+02 0.  0.
<mgrwt>
<rscale>  0 0.57697022E+02</rscale>
<asrwt>0</asrwt>
<pdfrwt beam="1">  1       13 0.10000000E+01 0.57697022E+02</pdfrwt>
<pdfrwt beam="2">  1       22 0.25063279E+00 0.57697022E+02</pdfrwt>
<totfact> 0.29581722E-01</totfact>
</mgrwt>
</event>
<event>
 4    1  0.2471347E+000  0.6341031E+02  0.7957747E-01  0.1384053E+00
         13   -1    0    0    0    0  0.00000000000E+00  0.00000000000E+00  0.99999944188E+02  0.10000000001E+03  0.10566000000E+00 0.  1.
         22   -1    0    0    0    0 -0.00000000000E+00 -0.00000000000E+00 -0.86395576297E+02  0.86395576297E+02  0.00000000000E+00 0. -1.
         13    1    1    2    0    0 -0.35525038811E+02 -0.16088463071E+02 -0.70797422680E+02  0.80827923694E+02  0.10566000000E+00 0. -1.
        996    1    1    2    0    0  0.35525038811E+02  0.16088463071E+02  0.84401790570E+02  0.10556765261E+03  0.50000000000E+02 0.  0.
<mgrwt>
<rscale>  0 0.63410307E+02</rscale>
<asrwt>0</asrwt>
<pdfrwt beam="1">  1       13 0.10000000E+01 0.63410307E+02</pdfrwt>
<pdfrwt beam="2">  1       22 0.86395580E+00 0.63410307E+02</pdfrwt>
<totfact> 0.16310879E-02</totfact>
</mgrwt>
</event>
<event>
 4    1  0.2471347E+000  0.5450903E+02  0.7957747E-01  0.1422435E+00
         13   -1    0    0    0    0  0.00000000000E+00  0.00000000000E+00  0.99999944180E+02  0.10000000000E+03  0.10566000000E+00 0.  1.
         22   -1    0    0    0    0 -0.00000000000E+00 -0.00000000000E+00 -0.18887151427E+02  0.18887151427E+02  0.00000000000E+00 0.  1.
         13    1    1    2    0    0 -0.21322643722E+02  0.40718162165E+01  0.67347556144E+00  0.21718645353E+02  0.10566000000E+00 0. -1.
        996    1    1    2    0    0  0.21322643722E+02 -0.40718162165E+01  0.80439317191E+02  0.97168506075E+02  0.50000000000E+02 0.  0.
<mgrwt>
<rscale>  0 0.54509034E+02</rscale>
<asrwt>0</asrwt>
<pdfrwt beam="1">  1       13 0.10000000E+01 0.54509034E+02</pdfrwt>
<pdfrwt beam="2">  1       22 0.18887174E+00 0.54509034E+02</pdfrwt>
<totfact> 0.50586988E-01</totfact>
</mgrwt>
</event>
<event>
 4    1  0.2471347E+000  0.7240316E+02  0.7957747E-01  0.1352107E+00
         13   -1    0    0    0    0  0.00000000000E+00  0.00000000000E+00  0.99999944175E+02  0.99999999995E+02  0.10566000000E+00 0. -1.
         22   -1    0    0    0    0 -0.00000000000E+00 -0.00000000000E+00 -0.71577398539E+02  0.71577398539E+02  0.00000000000E+00 0.  1.
         13    1    1    2    0    0  0.99370657390E+00 -0.52356761878E+02 -0.44570454171E+02  0.68765940087E+02  0.10566000000E+00 0.  1.
        996    1    1    2    0    0 -0.99370657390E+00  0.52356761878E+02  0.72992999807E+02  0.10281145845E+03  0.50000000000E+02 0.  0.
<mgrwt>
<rscale>  0 0.72403163E+02</rscale>
<asrwt>0</asrwt>
<pdfrwt beam="1">  1       13 0.10000000E+01 0.72403163E+02</pdfrwt>
<pdfrwt beam="2">  1       22 0.71577407E+00 0.72403163E+02</pdfrwt>
<totfact> 0.66296110E-02</totfact>
</mgrwt>
</event>
<event>
 4    1  0.2471347E+000  0.6053990E+02  0.7957747E-01  0.1395580E+00
         13   -1    0    0    0    0  0.00000000000E+00  0.00000000000E+00  0.99999944176E+02  0.99999999996E+02  0.10566000000E+00 0. -1.
         22   -1    0    0    0    0 -0.00000000000E+00 -0.00000000000E+00 -0.22747194005E+02  0.22747194005E+02  0.00000000000E+00 0. -1.
         13    1    1    2    0    0  0.34120070539E+02 -0.94871973242E+00  0.20807356363E+02  0.39975449035E+02  0.10566000000E+00 0.  1.
        996    1    1    2    0    0 -0.34120070539E+02  0.94871973242E+00  0.56445393807E+02  0.82771744966E+02  0.50000000000E+02 0.  0.
<mgrwt>
<rscale>  0 0.60539898E+02</rscale>
<asrwt>0</asrwt>
<pdfrwt beam="1">  1       13 0.10000000E+01 0.60539898E+02</pdfrwt>
<pdfrwt beam="2">  1       22 0.22747216E+00 0.60539898E+02</pdfrwt>
<totfact> 0.35928032E-01</totfact>
</mgrwt>
</event>
<event>
 4    1  0.2471347E+000  0.5700277E+02  0.7957747E-01  0.1410858E+00
         13   -1    0    0    0    0  0.00000000000E+00  0.00000000000E+00  0.99999944180E+02  0.10000000000E+03  0.10566000000E+00 0.  1.
         22   -1    0    0    0    0 -0.00000000000E+00 -0.00000000000E+00 -0.22291744683E+02  0.22291744683E+02  0.00000000000E+00 0. -1.
         13    1    1    2    0    0 -0.23502479663E+02  0.14033840114E+02  0.18948401705E+01  0.27439329474E+02  0.10566000000E+00 0. -1.
        996    1    1    2    0    0  0.23502479663E+02 -0.14033840114E+02  0.75813359326E+02  0.94852415209E+02  0.50000000000E+02 0.  0.
<mgrwt>
<rscale>  0 0.57002765E+02</rscale>
<asrwt>0</asrwt>
<pdfrwt beam="1">  1       13 0.10000000E+01 0.57002765E+02</pdfrwt>
<pdfrwt beam="2">  1       22 0.22291766E+00 0.57002765E+02</pdfrwt>
<totfact> 0.37171800E-01</totfact>
</mgrwt>
</event>
<event>
 4    1  0.2471347E+000  0.5103676E+02  0.7957747E-01  0.1439828E+00
         13   -1    0    0    0    0  0.00000000000E+00  0.00000000000E+00  0.99999944178E+02  0.99999999998E+02  0.10566000000E+00 0.  1.
         22   -1    0    0    0    0 -0.00000000000E+00 -0.00000000000E+00 -0.12283751252E+02  0.12283751252E+02  0.00000000000E+00 0. -1.
         13    1    1    2    0    0  0.10069402599E+02 -0.18325517673E+01 -0.63065172197E+00  0.10254755009E+02  0.10566000000E+00 0. -1.
        996    1    1    2    0    0 -0.10069402599E+02  0.18325517673E+01  0.88346844648E+02  0.10202899624E+03  0.50000000000E+02 0.  0.
<mgrwt>
<rscale>  0 0.51036762E+02</rscale>
<asrwt>0</asrwt>
<pdfrwt beam="1">  1       13 0.10000000E+01 0.51036762E+02</pdfrwt>
<pdfrwt beam="2">  1       22 0.12283776E+00 0.51036762E+02</pdfrwt>
<totfact> 0.10347573E+00</totfact>
</mgrwt>
</event>
<event>
 4    1  0.2471347E+000  0.5107610E+02  0.7957747E-01  0.1439622E+00
         13   -1    0    0    0    0  0.00000000000E+00  0.00000000000E+00  0.99999944176E+02  0.99999999997E+02  0.10566000000E+00 0.  1.
         22   -1    0    0    0    0 -0.00000000000E+00 -0.00000000000E+00 -0.11701353843E+02  0.11701353843E+02  0.00000000000E+00 0.  1.
         13    1    1    2    0    0 -0.10304932773E+02  0.16051060576E+01  0.89484122114E+00  0.10468042308E+02  0.10566000000E+00 0. -1.
        996    1    1    2    0    0  0.10304932773E+02 -0.16051060576E+01  0.87403749112E+02  0.10123331153E+03  0.50000000000E+02 0.  0.
<mgrwt>
<rscale>  0 0.51076100E+02</rscale>
<asrwt>0</asrwt>
<pdfrwt beam="1">  1       13 0.10000000E+01 0.51076100E+02</pdfrwt>
<pdfrwt beam="2">  1       22 0.11701378E+00 0.51076100E+02</pdfrwt>
<totfact> 0.11146923E+00</totfact>
</mgrwt>
</event>
<event>
 4    1  0.2471347E+000  0.5640912E+02  0.7957747E-01  0.1413550E+00
         13   -1    0    0    0    0  0.00000000000E+00  0.00000000000E+00  0.99999944176E+02  0.99999999996E+02  0.10566000000E+00 0.  1.
         22   -1    0    0    0    0 -0.00000000000E+00 -0.00000000000E+00 -0.20486217679E+02  0.20486217679E+02  0.00000000000E+00 0.  1.
         13    1    1    2    0    0 -0.22850710689E+02  0.12642521947E+02  0.50960274631E+02  0.57262108717E+02  0.10566000000E+00 0. -1.
        996    1    1    2    0    0  0.22850710689E+02 -0.12642521947E+02  0.28553451866E+02  0.63224108959E+02  0.50000000000E+02 0.  0.
<mgrwt>
<rscale>  0 0.56409116E+02</rscale>
<asrwt>0</asrwt>
<pdfrwt beam="1">  1       13 0.10000000E+01 0.56409116E+02</pdfrwt>
<pdfrwt beam="2">  1       22 0.20486240E+00 0.56409116E+02</pdfrwt>
<totfact> 0.43639734E-01</totfact>
</mgrwt>
</event>
<event>
 4    1  0.2471347E+000  0.5154137E+02  0.7957747E-01  0.1437201E+00
         13   -1    0    0    0    0  0.00000000000E+00  0.00000000000E+00  0.99999944182E+02  0.10000000000E+03  0.10566000000E+00 0.  1.
         22   -1    0    0    0    0 -0.00000000000E+00 -0.00000000000E+00 -0.11082721735E+02  0.11082721735E+02  0.00000000000E+00 0.  1.
         13    1    1    2    0    0  0.79087174060E+01  0.96935605330E+01  0.71023597151E+01  0.14386368700E+02  0.10566000000E+00 0. -1.
        996    1    1    2    0    0 -0.79087174060E+01 -0.96935605330E+01  0.81814862732E+02  0.96696353037E+02  0.50000000000E+02 0.  0.
<mgrwt>
<rscale>  0 0.51541371E+02</rscale>
<asrwt>0</asrwt>
<pdfrwt beam="1">  1       13 0.10000000E+01 0.51541371E+02</pdfrwt>
<pdfrwt beam="2">  1       22 0.11082747E+00 0.51541371E+02</pdfrwt>
<totfact> 0.12108348E+00</totfact>
</mgrwt>
</event>
<event>
 4    1  0.2471347E+000  0.5327673E+02  0.7957747E-01  0.1428429E+00
         13   -1    0    0    0    0  0.00000000000E+00  0.00000000000E+00  0.99999944180E+02  0.10000000000E+03  0.10566000000E+00 0. -1.
         22   -1    0    0    0    0 -0.00000000000E+00 -0.00000000000E+00 -0.44027701351E+02  0.44027701351E+02  0.00000000000E+00 0.  1.
         13    1    1    2    0    0  0.14443865455E+02  0.11392320967E+02 -0.34463281262E+02  0.39065830923E+02  0.10566000000E+00 0.  1.
        996    1    1    2    0    0 -0.14443865455E+02 -0.11392320967E+02  0.90435524090E+02  0.10496187043E+03  0.50000000000E+02 0.  0.
<mgrwt>
<rscale>  0 0.53276733E+02</rscale>
<asrwt>0</asrwt>
<pdfrwt beam="1">  1       13 0.10000000E+01 0.53276733E+02</pdfrwt>
<pdfrwt beam="2">  1       22 0.44027717E+00 0.53276733E+02</pdfrwt>
<totfact> 0.10165242E-01</totfact>
</mgrwt>
</event>
<event>
 4    1  0.2471347E+000  0.5274880E+02  0.7957747E-01  0.1431055E+00
         13   -1    0    0    0    0  0.00000000000E+00  0.00000000000E+00  0.99999944193E+02  0.10000000001E+03  0.10566000000E+00 0. -1.
         22   -1    0    0    0    0 -0.00000000000E+00 -0.00000000000E+00 -0.70442856837E+02  0.70442856837E+02  0.00000000000E+00 0.  1.
         13    1    1    2    0    0  0.13489226133E+00 -0.16805272620E+02 -0.62294859348E+02  0.64522058623E+02  0.10566000000E+00 0.  1.
        996    1    1    2    0    0 -0.13489226133E+00  0.16805272620E+02  0.91851946704E+02  0.10592079823E+03  0.50000000000E+02 0.  0.
<mgrwt>
<rscale>  0 0.52748795E+02</rscale>
<asrwt>0</asrwt>
<pdfrwt beam="1">  1       13 0.10000000E+01 0.52748795E+02</pdfrwt>
<pdfrwt beam="2">  1       22 0.70442865E+00 0.52748795E+02</pdfrwt>
<totfact> 0.72354787E-02</totfact>
</mgrwt>
</event>
<event>
 4    1  0.2471347E+000  0.5243962E+02  0.7957747E-01  0.1432610E+00
         13   -1    0    0    0    0  0.00000000000E+00  0.00000000000E+00  0.99999944175E+02  0.99999999995E+02  0.10566000000E+00 0. -1.
         22   -1    0    0    0    0 -0.00000000000E+00 -0.00000000000E+00 -0.11712644221E+02  0.11712644221E+02  0.00000000000E+00 0. -1.
         13    1    1    2    0    0  0.31307736970E+01  0.15495549247E+02  0.16993598171E+02  0.23210069652E+02  0.10566000000E+00 0.  1.
        996    1    1    2    0    0 -0.31307736970E+01 -0.15495549247E+02  0.71293701783E+02  0.88502574564E+02  0.50000000000E+02 0.  0.
<mgrwt>
<rscale>  0 0.52439620E+02</rscale>
<asrwt>0</asrwt>
<pdfrwt beam="1">  1       13 0.10000000E+01 0.52439620E+02</pdfrwt>
<pdfrwt beam="2">  1       22 0.11712669E+00 0.52439620E+02</pdfrwt>
<totfact> 0.11165097E+00</totfact>
</mgrwt>
</event>
<event>
 4    1  0.2471347E+000  0.5644456E+02  0.7957747E-01  0.1413388E+00
         13   -1    0    0    0    0  0.00000000000E+00  0.00000000000E+00  0.99999944179E+02  0.10000000000E+03  0.10566000000E+00 0. -1.
         22   -1    0    0    0    0 -0.00000000000E+00 -0.00000000000E+00 -0.17166943415E+02  0.17166943415E+02  0.00000000000E+00 0. -1.
         13    1    1    2    0    0  0.19558403083E+02  0.17420037872E+02  0.22278090113E+02  0.34384783172E+02  0.10566000000E+00 0.  1.
        996    1    1    2    0    0 -0.19558403083E+02 -0.17420037872E+02  0.60554910651E+02  0.82782160243E+02  0.50000000000E+02 0.  0.
<mgrwt>
<rscale>  0 0.56444564E+02</rscale>
<asrwt>0</asrwt>
<pdfrwt beam="1">  1       13 0.10000000E+01 0.56444564E+02</pdfrwt>
<pdfrwt beam="2">  1       22 0.17166967E+00 0.56444564E+02</pdfrwt>
<totfact> 0.60256220E-01</totfact>
</mgrwt>
</event>
<event>
 4    1  0.2471347E+000  0.5442506E+02  0.7957747E-01  0.1422838E+00
         13   -1    0    0    0    0  0.00000000000E+00  0.00000000000E+00  0.99999944181E+02  0.10000000000E+03  0.10566000000E+00 0. -1.
         22   -1    0    0    0    0 -0.00000000000E+00 -0.00000000000E+00 -0.15058021265E+02  0.15058021265E+02  0.00000000000E+00 0. -1.
         13    1    1    2    0    0  0.21330251682E+02 -0.26659486585E+01  0.14037594991E+02  0.25673958718E+02  0.10566000000E+00 0.  1.
        996    1    1    2    0    0 -0.21330251682E+02  0.26659486585E+01  0.70904327925E+02  0.89384062548E+02  0.50000000000E+02 0.  0.
<mgrwt>
<rscale>  0 0.54425058E+02</rscale>
<asrwt>0</asrwt>
<pdfrwt beam="1">  1       13 0.10000000E+01 0.54425058E+02</pdfrwt>
<pdfrwt beam="2">  1       22 0.15058045E+00 0.54425058E+02</pdfrwt>
<totfact> 0.75171580E-01</totfact>
</mgrwt>
</event>
<event>
 4    1  0.2471347E+000  0.8581617E+02  0.7957747E-01  0.1313312E+00
         13   -1    0    0    0    0  0.00000000000E+00  0.00000000000E+00  0.99999944175E+02  0.99999999995E+02  0.10566000000E+00 0. -1.
         22   -1    0    0    0    0 -0.00000000000E+00 -0.00000000000E+00 -0.64248305034E+02  0.64248305034E+02  0.00000000000E+00 0.  1.
         13    1    1    2    0    0 -0.50286278822E+02  0.48329129630E+02 -0.36032353513E+01  0.69838449851E+02  0.10566000000E+00 0.  1.
        996    1    1    2    0    0  0.50286278822E+02 -0.48329129630E+02  0.39354874491E+02  0.94409855178E+02  0.50000000000E+02 0.  0.
<mgrwt>
<rscale>  0 0.85816168E+02</rscale>
<asrwt>0</asrwt>
<pdfrwt beam="1">  1       13 0.10000000E+01 0.85816168E+02</pdfrwt>
<pdfrwt beam="2">  1       22 0.64248315E+00 0.85816168E+02</pdfrwt>
<totfact> 0.84319903E-02</totfact>
</mgrwt>
</event>
<event>
 4    1  0.2471347E+000  0.5229866E+02  0.7957747E-01  0.1433323E+00
         13   -1    0    0    0    0  0.00000000000E+00  0.00000000000E+00  0.99999944183E+02  0.10000000000E+03  0.10566000000E+00 0.  1.
         22   -1    0    0    0    0 -0.00000000000E+00 -0.00000000000E+00 -0.11592288658E+02  0.11592288658E+02  0.00000000000E+00 0.  1.
         13    1    1    2    0    0 -0.15276004128E+02  0.13393195486E+01  0.14925946529E+02  0.21399652399E+02  0.10566000000E+00 0. -1.
        996    1    1    2    0    0  0.15276004128E+02 -0.13393195486E+01  0.73481708996E+02  0.90192636262E+02  0.50000000000E+02 0.  0.
<mgrwt>
<rscale>  0 0.52298662E+02</rscale>
<asrwt>0</asrwt>
<pdfrwt beam="1">  1       13 0.10000000E+01 0.52298662E+02</pdfrwt>
<pdfrwt beam="2">  1       22 0.11592313E+00 0.52298662E+02</pdfrwt>
<totfact> 0.11337621E+00</totfact>
</mgrwt>
</event>
<event>
 4    1  0.2471347E+000  0.5162919E+02  0.7957747E-01  0.1436747E+00
         13   -1    0    0    0    0  0.00000000000E+00  0.00000000000E+00  0.99999944182E+02  0.10000000000E+03  0.10566000000E+00 0.  1.
         22   -1    0    0    0    0 -0.00000000000E+00 -0.00000000000E+00 -0.23911409712E+02  0.23911409712E+02  0.00000000000E+00 0. -1.
         13    1    1    2    0    0  0.41320107370E+01  0.12186037375E+02 -0.14658628234E+02  0.19505372731E+02  0.10566000000E+00 0. -1.
        996    1    1    2    0    0 -0.41320107370E+01 -0.12186037375E+02  0.90747162704E+02  0.10440603698E+03  0.50000000000E+02 0.  0.
<mgrwt>
<rscale>  0 0.51629188E+02</rscale>
<asrwt>0</asrwt>
<pdfrwt beam="1">  1       13 0.10000000E+01 0.51629188E+02</pdfrwt>
<pdfrwt beam="2">  1       22 0.23911431E+00 0.51629188E+02</pdfrwt>
<totfact> 0.32152332E-01</totfact>
</mgrwt>
</event>
<event>
 4    1  0.2471347E+000  0.5189675E+02  0.7957747E-01  0.1435371E+00
         13   -1    0    0    0    0  0.00000000000E+00  0.00000000000E+00  0.99999944184E+02  0.10000000000E+03  0.10566000000E+00 0.  1.
         22   -1    0    0    0    0 -0.00000000000E+00 -0.00000000000E+00 -0.10945914183E+02  0.10945914183E+02  0.00000000000E+00 0. -1.
         13    1    1    2    0    0 -0.13891592579E+02 -0.54431500278E+00  0.23898215721E+02  0.27647938475E+02  0.10566000000E+00 0. -1.
        996    1    1    2    0    0  0.13891592579E+02  0.54431500278E+00  0.65155814281E+02  0.83297975712E+02  0.50000000000E+02 0.  0.
<mgrwt>
<rscale>  0 0.51896750E+02</rscale>
<asrwt>0</asrwt>
<pdfrwt beam="1">  1       13 0.10000000E+01 0.51896750E+02</pdfrwt>
<pdfrwt beam="2">  1       22 0.10945939E+00 0.51896750E+02</pdfrwt>
<totfact> 0.12344452E+00</totfact>
</mgrwt>
</event>
<event>
 4    1  0.2471347E+000  0.5339062E+02  0.7957747E-01  0.1427867E+00
         13   -1    0    0    0    0  0.00000000000E+00  0.00000000000E+00  0.99999944182E+02  0.10000000000E+03  0.10566000000E+00 0.  1.
         22   -1    0    0    0    0 -0.00000000000E+00 -0.00000000000E+00 -0.59205519341E+02  0.59205519341E+02  0.00000000000E+00 0. -1.
         13    1    1    2    0    0  0.11314741709E+01  0.18688974445E+02 -0.50270050160E+02  0.53643705192E+02  0.10566000000E+00 0. -1.
        996    1    1    2    0    0 -0.11314741709E+01 -0.18688974445E+02  0.91064475001E+02  0.10556181415E+03  0.50000000000E+02 0.  0.
<mgrwt>
<rscale>  0 0.53390617E+02</rscale>
<asrwt>0</asrwt>
<pdfrwt beam="1">  1       13 0.10000000E+01 0.53390617E+02</pdfrwt>
<pdfrwt beam="2">  1       22 0.59205531E+00 0.53390617E+02</pdfrwt>
<totfact> 0.61006019E-02</totfact>
</mgrwt>
</event>
<event>
 4    1  0.2471347E+000  0.5155005E+02  0.7957747E-01  0.1437156E+00
         13   -1    0    0    0    0  0.00000000000E+00  0.00000000000E+00  0.99999944178E+02  0.99999999998E+02  0.10566000000E+00 0.  1.
         22   -1    0    0    0    0 -0.00000000000E+00 -0.00000000000E+00 -0.16537491062E+02  0.16537491062E+02  0.00000000000E+00 0. -1.
         13    1    1    2    0    0 -0.99272600242E+01 -0.76718348594E+01 -0.55152865099E+01  0.13705367234E+02  0.10566000000E+00 0. -1.
        996    1    1    2    0    0  0.99272600242E+01  0.76718348594E+01  0.88977739626E+02  0.10283212383E+03  0.50000000000E+02 0.  0.
<mgrwt>
<rscale>  0 0.51550049E+02</rscale>
<asrwt>0</asrwt>
<pdfrwt beam="1">  1       13 0.10000000E+01 0.51550049E+02</pdfrwt>
<pdfrwt beam="2">  1       22 0.16537514E+00 0.51550049E+02</pdfrwt>
<totfact> 0.63735407E-01</totfact>
</mgrwt>
</event>
<event>
 4    1  0.2471347E+000  0.5585776E+02  0.7957747E-01  0.1416085E+00
         13   -1    0    0    0    0  0.00000000000E+00  0.00000000000E+00  0.99999944180E+02  0.10000000000E+03  0.10566000000E+00 0. -1.
         22   -1    0    0    0    0 -0.00000000000E+00 -0.00000000000E+00 -0.34465024984E+02  0.34465024984E+02  0.00000000000E+00 0.  1.
         13    1    1    2    0    0  0.57824493223E+01 -0.24220916772E+02 -0.20250809866E+02  0.32096666396E+02  0.10566000000E+00 0.  1.
        996    1    1    2    0    0 -0.57824493223E+01  0.24220916772E+02  0.85785729062E+02  0.10236835859E+03  0.50000000000E+02 0.  0.
<mgrwt>
<rscale>  0 0.55857762E+02</rscale>
<asrwt>0</asrwt>
<pdfrwt beam="1">  1       13 0.10000000E+01 0.55857762E+02</pdfrwt>
<pdfrwt beam="2">  1       22 0.34465043E+00 0.55857762E+02</pdfrwt>
<totfact> 0.16206222E-01</totfact>
</mgrwt>
</event>
<event>
 4    1  0.2471347E+000  0.5158706E+02  0.7957747E-01  0.1436965E+00
         13   -1    0    0    0    0  0.00000000000E+00  0.00000000000E+00  0.99999944179E+02  0.99999999999E+02  0.10566000000E+00 0.  1.
         22   -1    0    0    0    0 -0.00000000000E+00 -0.00000000000E+00 -0.10384861351E+02  0.10384861351E+02  0.00000000000E+00 0. -1.
         13    1    1    2    0    0 -0.75198685146E+01  0.10231160156E+02  0.14681786495E+02  0.19411107112E+02  0.10566000000E+00 0. -1.
        996    1    1    2    0    0  0.75198685146E+01 -0.10231160156E+02  0.74933296334E+02  0.90973754238E+02  0.50000000000E+02 0.  0.
<mgrwt>
<rscale>  0 0.51587063E+02</rscale>
<asrwt>0</asrwt>
<pdfrwt beam="1">  1       13 0.10000000E+01 0.51587063E+02</pdfrwt>
<pdfrwt beam="2">  1       22 0.10384886E+00 0.51587063E+02</pdfrwt>
<totfact> 0.13330481E+00</totfact>
</mgrwt>
</event>
<event>
 4    1  0.2471347E+000  0.5527691E+02  0.7957747E-01  0.1418794E+00
         13   -1    0    0    0    0  0.00000000000E+00  0.00000000000E+00  0.99999944171E+02  0.99999999991E+02  0.10566000000E+00 0. -1.
         22   -1    0    0    0    0 -0.00000000000E+00 -0.00000000000E+00 -0.30331144007E+02  0.30331144007E+02  0.00000000000E+00 0.  1.
         13    1    1    2    0    0 -0.58113633568E+01  0.22842179533E+02 -0.15920870724E+02  0.28443319049E+02  0.10566000000E+00 0.  1.
        996    1    1    2    0    0  0.58113633568E+01 -0.22842179533E+02  0.85589670888E+02  0.10188782495E+03  0.50000000000E+02 0.  0.
<mgrwt>
<rscale>  0 0.55276913E+02</rscale>
<asrwt>0</asrwt>
<pdfrwt beam="1">  1       13 0.10000000E+01 0.55276913E+02</pdfrwt>
<pdfrwt beam="2">  1       22 0.30331163E+00 0.55276913E+02</pdfrwt>
<totfact> 0.20368038E-01</totfact>
</mgrwt>
</event>
<event>
 4    1  0.2471347E+000  0.5330241E+02  0.7957747E-01  0.1428302E+00
         13   -1    0    0    0    0  0.00000000000E+00  0.00000000000E+00  0.99999944180E+02  0.10000000000E+03  0.10566000000E+00 0.  1.
         22   -1    0    0    0    0 -0.00000000000E+00 -0.00000000000E+00 -0.43507003603E+02  0.43507003603E+02  0.00000000000E+00 0. -1.
         13    1    1    2    0    0 -0.18459135143E+02 -0.63827285432E+00 -0.33879011691E+02  0.38586858639E+02  0.10566000000E+00 0. -1.
        996    1    1    2    0    0  0.18459135143E+02  0.63827285432E+00  0.90371952268E+02  0.10492014496E+03  0.50000000000E+02 0.  0.
<mgrwt>
<rscale>  0 0.53302411E+02</rscale>
<asrwt>0</asrwt>
<pdfrwt beam="1">  1       13 0.10000000E+01 0.53302411E+02</pdfrwt>
<pdfrwt beam="2">  1       22 0.43507019E+00 0.53302411E+02</pdfrwt>
<totfact> 0.10436878E-01</totfact>
</mgrwt>
</event>
<event>
 4    1  0.2471347E+000  0.6116402E+02  0.7957747E-01  0.1393011E+00
         13   -1    0    0    0    0  0.00000000000E+00  0.00000000000E+00  0.99999944178E+02  0.99999999998E+02  0.10566000000E+00 0.  1.
         22   -1    0    0    0    0 -0.00000000000E+00 -0.00000000000E+00 -0.37626725759E+02  0.37626725759E+02  0.00000000000E+00 0.  1.
         13    1    1    2    0    0 -0.34052364992E+02  0.90262623424E+01 -0.15598705300E+02  0.38527493359E+02  0.10566000000E+00 0. -1.
        996    1    1    2    0    0  0.34052364992E+02 -0.90262623424E+01  0.77971923719E+02  0.99099232398E+02  0.50000000000E+02 0.  0.
<mgrwt>
<rscale>  0 0.61164017E+02</rscale>
<asrwt>0</asrwt>
<pdfrwt beam="1">  1       13 0.10000000E+01 0.61164017E+02</pdfrwt>
<pdfrwt beam="2">  1       22 0.37626743E+00 0.61164017E+02</pdfrwt>
<totfact> 0.13942515E-01</totfact>
</mgrwt>
</event>
<event>
 4    1  0.2471347E+000  0.5109624E+02  0.7957747E-01  0.1439517E+00
         13   -1    0    0    0    0  0.00000000000E+00  0.00000000000E+00  0.99999944178E+02  0.99999999999E+02  0.10566000000E+00 0. -1.
         22   -1    0    0    0    0 -0.00000000000E+00 -0.00000000000E+00 -0.11413050246E+02  0.11413050246E+02  0.00000000000E+00 0. -1.
         13    1    1    2    0    0 -0.44979768695E+00 -0.10517765811E+02  0.17698401994E+01  0.10675636467E+02  0.10566000000E+00 0.  1.
        996    1    1    2    0    0  0.44979768695E+00  0.10517765811E+02  0.86817053733E+02  0.10073741378E+03  0.50000000000E+02 0.  0.
<mgrwt>
<rscale>  0 0.51096240E+02</rscale>
<asrwt>0</asrwt>
<pdfrwt beam="1">  1       13 0.10000000E+01 0.51096240E+02</pdfrwt>
<pdfrwt beam="2">  1       22 0.11413075E+00 0.51096240E+02</pdfrwt>
<totfact> 0.11575391E+00</totfact>
</mgrwt>
</event>
<event>
 4    1  0.2471347E+000  0.5714961E+02  0.7957747E-01  0.1410198E+00
         13   -1    0    0    0    0  0.00000000000E+00  0.00000000000E+00  0.99999944177E+02  0.99999999997E+02  0.10566000000E+00 0. -1.
         22   -1    0    0    0    0 -0.00000000000E+00 -0.00000000000E+00 -0.19432247266E+02  0.19432247266E+02  0.00000000000E+00 0.  1.
         13    1    1    2    0    0  0.40937609087E+01 -0.27373688652E+02  0.11991589709E+02  0.30164334844E+02  0.10566000000E+00 0.  1.
        996    1    1    2    0    0 -0.40937609087E+01  0.27373688652E+02  0.68576107201E+02  0.89267912419E+02  0.50000000000E+02 0.  0.
<mgrwt>
<rscale>  0 0.57149608E+02</rscale>
<asrwt>0</asrwt>
<pdfrwt beam="1">  1       13 0.10000000E+01 0.57149608E+02</pdfrwt>
<pdfrwt beam="2">  1       22 0.19432270E+00 0.57149608E+02</pdfrwt>
<totfact> 0.48222954E-01</totfact>
</mgrwt>
</event>
<event>
 4    1  0.2471347E+000  0.5220698E+02  0.7957747E-01  0.1433789E+00
         13   -1    0    0    0    0  0.00000000000E+00  0.00000000000E+00  0.99999944180E+02  0.10000000000E+03  0.10566000000E+00 0.  1.
         22   -1    0    0    0    0 -0.00000000000E+00 -0.00000000000E+00 -0.20746955880E+02  0.20746955880E+02  0.00000000000E+00 0.  1.
         13    1    1    2    0    0  0.14715193311E+02  0.30052250857E+01 -0.95043963962E+01  0.17773941793E+02  0.10566000000E+00 0. -1.
        996    1    1    2    0    0 -0.14715193311E+02 -0.30052250857E+01  0.88757384696E+02  0.10297301409E+03  0.50000000000E+02 0.  0.
<mgrwt>
<rscale>  0 0.52206976E+02</rscale>
<asrwt>0</asrwt>
<pdfrwt beam="1">  1       13 0.10000000E+01 0.52206976E+02</pdfrwt>
<pdfrwt beam="2">  1       22 0.20746978E+00 0.52206976E+02</pdfrwt>
<totfact> 0.42309471E-01</totfact>
</mgrwt>
</event>
<event>
 4    1  0.2471347E+000  0.5192214E+02  0.7957747E-01  0.1435241E+00
         13   -1    0    0    0    0  0.00000000000E+00  0.00000000000E+00  0.99999944178E+02  0.99999999998E+02  0.10566000000E+00 0. -1.
         22   -1    0    0    0    0 -0.00000000000E+00 -0.00000000000E+00 -0.30301748065E+02  0.30301748065E+02  0.00000000000E+00 0.  1.
         13    1    1    2    0    0 -0.11272248159E+02 -0.82973010354E+01 -0.21326474240E+02  0.25509575665E+02  0.10566000000E+00 0.  1.
        996    1    1    2    0    0  0.11272248159E+02  0.82973010354E+01  0.91024670353E+02  0.10479217240E+03  0.50000000000E+02 0.  0.
<mgrwt>
<rscale>  0 0.51922142E+02</rscale>
<asrwt>0</asrwt>
<pdfrwt beam="1">  1       13 0.10000000E+01 0.51922142E+02</pdfrwt>
<pdfrwt beam="2">  1       22 0.30301768E+00 0.51922142E+02</pdfrwt>
<totfact> 0.20318609E-01</totfact>
</mgrwt>
</event>
<event>
 4    1  0.2471347E+000  0.5540205E+02  0.7957747E-01  0.1418207E+00
         13   -1    0    0    0    0  0.00000000000E+00  0.00000000000E+00  0.99999944176E+02  0.99999999997E+02  0.10566000000E+00 0. -1.
         22   -1    0    0    0    0 -0.00000000000E+00 -0.00000000000E+00 -0.58558841068E+02  0.58558841068E+02  0.00000000000E+00 0.  1.
         13    1    1    2    0    0 -0.23750590595E+02  0.23015165312E+01 -0.47853857984E+02  0.53473268275E+02  0.10566000000E+00 0.  1.
        996    1    1    2    0    0  0.23750590595E+02 -0.23015165312E+01  0.89294961093E+02  0.10508557279E+03  0.50000000000E+02 0.  0.
<mgrwt>
<rscale>  0 0.55402053E+02</rscale>
<asrwt>0</asrwt>
<pdfrwt beam="1">  1       13 0.10000000E+01 0.55402053E+02</pdfrwt>
<pdfrwt beam="2">  1       22 0.58558853E+00 0.55402053E+02</pdfrwt>
<totfact> 0.59369333E-02</totfact>
</mgrwt>
</event>
<event>
 4    1  0.2471347E+000  0.5154522E+02  0.7957747E-01  0.1437181E+00
         13   -1    0    0    0    0  0.00000000000E+00  0.00000000000E+00  0.99999944180E+02  0.10000000000E+03  0.10566000000E+00 0.  1.
         22   -1    0    0    0    0 -0.00000000000E+00 -0.00000000000E+00 -0.13526903861E+02  0.13526903861E+02  0.00000000000E+00 0.  1.
         13    1    1    2    0    0 -0.97576463874E+01  0.78548300923E+01 -0.37717832489E+00  0.12532495614E+02  0.10566000000E+00 0. -1.
        996    1    1    2    0    0  0.97576463874E+01 -0.78548300923E+01  0.86850218643E+02  0.10099440825E+03  0.50000000000E+02 0.  0.
<mgrwt>
<rscale>  0 0.51545223E+02</rscale>
<asrwt>0</asrwt>
<pdfrwt beam="1">  1       13 0.10000000E+01 0.51545223E+02</pdfrwt>
<pdfrwt beam="2">  1       22 0.13526928E+00 0.51545223E+02</pdfrwt>
<totfact> 0.89038940E-01</totfact>
</mgrwt>
</event>
<event>
 4    1  0.2471347E+000  0.6540177E+02  0.7957747E-01  0.1376467E+00
         13   -1    0    0    0    0  0.00000000000E+00  0.00000000000E+00  0.99999944179E+02  0.10000000000E+03  0.10566000000E+00 0.  1.
         22   -1    0    0    0    0 -0.00000000000E+00 -0.00000000000E+00 -0.42562938290E+02  0.42562938290E+02  0.00000000000E+00 0. -1.
         13    1    1    2    0    0 -0.42062549004E+02  0.28518343089E+01 -0.15204761422E+02  0.44817261424E+02  0.10566000000E+00 0. -1.
        996    1    1    2    0    0  0.42062549004E+02 -0.28518343089E+01  0.72641767312E+02  0.97745676865E+02  0.50000000000E+02 0.  0.
<mgrwt>
<rscale>  0 0.65401766E+02</rscale>
<asrwt>0</asrwt>
<pdfrwt beam="1">  1       13 0.10000000E+01 0.65401766E+02</pdfrwt>
<pdfrwt beam="2">  1       22 0.42562954E+00 0.65401766E+02</pdfrwt>
<totfact> 0.11018536E-01</totfact>
</mgrwt>
</event>
<event>
 4    1  0.2471347E+000  0.5115754E+02  0.7957747E-01  0.1439196E+00
         13   -1    0    0    0    0  0.00000000000E+00  0.00000000000E+00  0.99999944178E+02  0.99999999998E+02  0.10566000000E+00 0.  1.
         22   -1    0    0    0    0 -0.00000000000E+00 -0.00000000000E+00 -0.13348427094E+02  0.13348427094E+02  0.00000000000E+00 0. -1.
         13    1    1    2    0    0  0.10293132459E+02  0.33384669990E+01 -0.19908467412E+01  0.11003116491E+02  0.10566000000E+00 0. -1.
        996    1    1    2    0    0 -0.10293132459E+02 -0.33384669990E+01  0.88642363825E+02  0.10234531060E+03  0.50000000000E+02 0.  0.
<mgrwt>
<rscale>  0 0.51157540E+02</rscale>
<asrwt>0</asrwt>
<pdfrwt beam="1">  1       13 0.10000000E+01 0.51157540E+02</pdfrwt>
<pdfrwt beam="2">  1       22 0.13348451E+00 0.51157540E+02</pdfrwt>
<totfact> 0.90868123E-01</totfact>
</mgrwt>
</event>
<event>
 4    1  0.2471347E+000  0.5393832E+02  0.7957747E-01  0.1425187E+00
         13   -1    0    0    0    0  0.00000000000E+00  0.00000000000E+00  0.99999944174E+02  0.99999999994E+02  0.10566000000E+00 0. -1.
         22   -1    0    0    0    0 -0.00000000000E+00 -0.00000000000E+00 -0.14940477538E+02  0.14940477538E+02  0.00000000000E+00 0.  1.
         13    1    1    2    0    0 -0.18902821088E+01  0.20143715296E+02  0.10159006975E+02  0.22639766322E+02  0.10566000000E+00 0.  1.
        996    1    1    2    0    0  0.18902821088E+01 -0.20143715296E+02  0.74900459661E+02  0.92300711210E+02  0.50000000000E+02 0.  0.
<mgrwt>
<rscale>  0 0.53938321E+02</rscale>
<asrwt>0</asrwt>
<pdfrwt beam="1">  1       13 0.10000000E+01 0.53938321E+02</pdfrwt>
<pdfrwt beam="2">  1       22 0.14940501E+00 0.53938321E+02</pdfrwt>
<totfact> 0.76087555E-01</totfact>
</mgrwt>
</event>
<event>
 4    1  0.2471347E+000  0.5449919E+02  0.7957747E-01  0.1422482E+00
         13   -1    0    0    0    0  0.00000000000E+00  0.00000000000E+00  0.99999944180E+02  0.10000000000E+03  0.10566000000E+00 0.  1.
         22   -1    0    0    0    0 -0.00000000000E+00 -0.00000000000E+00 -0.37076333976E+02  0.37076333976E+02  0.00000000000E+00 0. -1.
         13    1    1    2    0    0 -0.15418750890E+02 -0.15245451263E+02 -0.25334974444E+02  0.33347170155E+02  0.10566000000E+00 0. -1.
        996    1    1    2    0    0  0.15418750890E+02  0.15245451263E+02  0.88258584648E+02  0.10372916382E+03  0.50000000000E+02 0.  0.
<mgrwt>
<rscale>  0 0.54499190E+02</rscale>
<asrwt>0</asrwt>
<pdfrwt beam="1">  1       13 0.10000000E+01 0.54499190E+02</pdfrwt>
<pdfrwt beam="2">  1       22 0.37076352E+00 0.54499190E+02</pdfrwt>
<totfact> 0.14236862E-01</totfact>
</mgrwt>
</event>
<event>
 4    1  0.2471347E+000  0.6544710E+02  0.7957747E-01  0.1376298E+00
         13   -1    0    0    0    0  0.00000000000E+00  0.00000000000E+00  0.99999944179E+02  0.99999999999E+02  0.10566000000E+00 0. -1.
         22   -1    0    0    0    0 -0.00000000000E+00 -0.00000000000E+00 -0.29227723343E+02  0.29227723343E+02  0.00000000000E+00 0.  1.
         13    1    1    2    0    0 -0.37378816715E+02  0.19650612564E+02  0.22075772488E+02  0.47651583480E+02  0.10566000000E+00 0.  1.
        996    1    1    2    0    0  0.37378816715E+02 -0.19650612564E+02  0.48696448347E+02  0.81576139862E+02  0.50000000000E+02 0.  0.
<mgrwt>
<rscale>  0 0.65447097E+02</rscale>
<asrwt>0</asrwt>
<pdfrwt beam="1">  1       13 0.10000000E+01 0.65447097E+02</pdfrwt>
<pdfrwt beam="2">  1       22 0.29227743E+00 0.65447097E+02</pdfrwt>
<totfact> 0.22099899E-01</totfact>
</mgrwt>
</event>
<event>
 4    1  0.2471347E+000  0.5259340E+02  0.7957747E-01  0.1431835E+00
         13   -1    0    0    0    0  0.00000000000E+00  0.00000000000E+00  0.99999944186E+02  0.10000000001E+03  0.10566000000E+00 0. -1.
         22   -1    0    0    0    0 -0.00000000000E+00 -0.00000000000E+00 -0.42301310949E+02  0.42301310949E+02  0.00000000000E+00 0.  1.
         13    1    1    2    0    0  0.15877194638E+02 -0.37390153765E+01 -0.33366282885E+02  0.37140080010E+02  0.10566000000E+00 0.  1.
        996    1    1    2    0    0 -0.15877194638E+02  0.37390153765E+01  0.91064916122E+02  0.10516123094E+03  0.50000000000E+02 0.  0.
<mgrwt>
<rscale>  0 0.52593398E+02</rscale>
<asrwt>0</asrwt>
<pdfrwt beam="1">  1       13 0.10000000E+01 0.52593398E+02</pdfrwt>
<pdfrwt beam="2">  1       22 0.42301327E+00 0.52593398E+02</pdfrwt>
<totfact> 0.11075627E-01</totfact>
</mgrwt>
</event>
<event>
 4    1  0.2471347E+000  0.5150259E+02  0.7957747E-01  0.1437402E+00
         13   -1    0    0    0    0  0.00000000000E+00  0.00000000000E+00  0.99999944178E+02  0.99999999998E+02  0.10566000000E+00 0.  1.
         22   -1    0    0    0    0 -0.00000000000E+00 -0.00000000000E+00 -0.10828365668E+02  0.10828365668E+02  0.00000000000E+00 0.  1.
         13    1    1    2    0    0  0.12153934089E+02  0.21904762037E+01  0.80615168833E+01  0.14748407315E+02  0.10566000000E+00 0. -1.
        996    1    1    2    0    0 -0.12153934089E+02 -0.21904762037E+01  0.81110061626E+02  0.96079958352E+02  0.50000000000E+02 0.  0.
<mgrwt>
<rscale>  0 0.51502585E+02</rscale>
<asrwt>0</asrwt>
<pdfrwt beam="1">  1       13 0.10000000E+01 0.51502585E+02</pdfrwt>
<pdfrwt beam="2">  1       22 0.10828391E+00 0.51502585E+02</pdfrwt>
<totfact> 0.12532194E+00</totfact>
</mgrwt>
</event>
<event>
 4    1  0.2471347E+000  0.5249133E+02  0.7957747E-01  0.1432349E+00
         13   -1    0    0    0    0  0.00000000000E+00  0.00000000000E+00  0.99999944178E+02  0.99999999999E+02  0.10566000000E+00 0. -1.
         22   -1    0    0    0    0 -0.00000000000E+00 -0.00000000000E+00 -0.19985732058E+02  0.19985732058E+02  0.00000000000E+00 0. -1.
         13    1    1    2    0    0  0.15599085989E+02  0.34653616758E+01 -0.77206127723E+01  0.17747091053E+02  0.10566000000E+00 0.  1.
        996    1    1    2    0    0 -0.15599085989E+02 -0.34653616758E+01  0.87734824893E+02  0.10223864100E+03  0.50000000000E+02 0.  0.
<mgrwt>
<rscale>  0 0.52491335E+02</rscale>
<asrwt>0</asrwt>
<pdfrwt beam="1">  1       13 0.10000000E+01 0.52491335E+02</pdfrwt>
<pdfrwt beam="2">  1       22 0.19985754E+00 0.52491335E+02</pdfrwt>
<totfact> 0.45408096E-01</totfact>
</mgrwt>
</event>
<event>
 4    1  0.2471347E+000  0.5282453E+02  0.7957747E-01  0.1430676E+00
         13   -1    0    0    0    0  0.00000000000E+00  0.00000000000E+00  0.99999944177E+02  0.99999999998E+02  0.10566000000E+00 0.  1.
         22   -1    0    0    0    0 -0.00000000000E+00 -0.00000000000E+00 -0.16860869304E+02  0.16860869304E+02  0.00000000000E+00 0.  1.
         13    1    1    2    0    0 -0.15103789877E+02 -0.78934368927E+01 -0.14806184095E+01  0.17106554578E+02  0.10566000000E+00 0. -1.
        996    1    1    2    0    0  0.15103789877E+02  0.78934368927E+01  0.84619693283E+02  0.99754314724E+02  0.50000000000E+02 0.  0.
<mgrwt>
<rscale>  0 0.52824529E+02</rscale>
<asrwt>0</asrwt>
<pdfrwt beam="1">  1       13 0.10000000E+01 0.52824529E+02</pdfrwt>
<pdfrwt beam="2">  1       22 0.16860893E+00 0.52824529E+02</pdfrwt>
<totfact> 0.61776929E-01</totfact>
</mgrwt>
</event>
<event>
 4    1  0.2471347E+000  0.5313809E+02  0.7957747E-01  0.1429115E+00
         13   -1    0    0    0    0  0.00000000000E+00  0.00000000000E+00  0.99999944172E+02  0.99999999992E+02  0.10566000000E+00 0.  1.
         22   -1    0    0    0    0 -0.00000000000E+00 -0.00000000000E+00 -0.66250146668E+02  0.66250146668E+02  0.00000000000E+00 0. -1.
         13    1    1    2    0    0 -0.95019609992E+01 -0.15276437185E+02 -0.57723711289E+02  0.60462342039E+02  0.10566000000E+00 0. -1.
        996    1    1    2    0    0  0.95019609992E+01  0.15276437185E+02  0.91473508792E+02  0.10578780462E+03  0.50000000000E+02 0.  0.
<mgrwt>
<rscale>  0 0.53138092E+02</rscale>
<asrwt>0</asrwt>
<pdfrwt beam="1">  1       13 0.10000000E+01 0.53138092E+02</pdfrwt>
<pdfrwt beam="2">  1       22 0.66250156E+00 0.53138092E+02</pdfrwt>
<totfact> 0.87187631E-02</totfact>
</mgrwt>
</event>
<event>
 4    1  0.2471347E+000  0.5440518E+02  0.7957747E-01  0.1422933E+00
         13   -1    0    0    0    0  0.00000000000E+00  0.00000000000E+00  0.99999944178E+02  0.99999999998E+02  0.10566000000E+00 0. -1.
         22   -1    0    0    0    0 -0.00000000000E+00 -0.00000000000E+00 -0.14558133595E+02  0.14558133595E+02  0.00000000000E+00 0. -1.
         13    1    1    2    0    0  0.19268542743E+02 -0.94152262117E+01  0.30038350562E+02  0.36908493502E+02  0.10566000000E+00 0.  1.
        996    1    1    2    0    0 -0.19268542743E+02  0.94152262117E+01  0.55403460020E+02  0.77649640091E+02  0.50000000000E+02 0.  0.
<mgrwt>
<rscale>  0 0.54405176E+02</rscale>
<asrwt>0</asrwt>
<pdfrwt beam="1">  1       13 0.10000000E+01 0.54405176E+02</pdfrwt>
<pdfrwt beam="2">  1       22 0.14558157E+00 0.54405176E+02</pdfrwt>
<totfact> 0.79497591E-01</totfact>
</mgrwt>
</event>
<event>
 4    1  0.2471347E+000  0.5239224E+02  0.7957747E-01  0.1432850E+00
         13   -1    0    0    0    0  0.00000000000E+00  0.00000000000E+00  0.99999944183E+02  0.10000000000E+03  0.10566000000E+00 0.  1.
         22   -1    0    0    0    0 -0.00000000000E+00 -0.00000000000E+00 -0.19775198637E+02  0.19775198637E+02  0.00000000000E+00 0.  1.
         13    1    1    2    0    0  0.15245405486E+02  0.35389982442E+01 -0.76858367120E+01  0.17436460277E+02  0.10566000000E+00 0. -1.
        996    1    1    2    0    0 -0.15245405486E+02 -0.35389982442E+01  0.87910582258E+02  0.10233873836E+03  0.50000000000E+02 0.  0.
<mgrwt>
<rscale>  0 0.52392241E+02</rscale>
<asrwt>0</asrwt>
<pdfrwt beam="1">  1       13 0.10000000E+01 0.52392241E+02</pdfrwt>
<pdfrwt beam="2">  1       22 0.19775221E+00 0.52392241E+02</pdfrwt>
<totfact> 0.46304101E-01</totfact>
</mgrwt>
</event>
<event>
 4    1  0.2471347E+000  0.5203749E+02  0.7957747E-01  0.1434652E+00
         13   -1    0    0    0    0  0.00000000000E+00  0.00000000000E+00  0.99999944171E+02  0.99999999992E+02  0.10566000000E+00 0.  1.
         22   -1    0    0    0    0 -0.00000000000E+00 -0.00000000000E+00 -0.11849908448E+02  0.11849908448E+02  0.00000000000E+00 0.  1.
         13    1    1    2    0    0  0.91935244676E+01  0.11107622717E+02  0.85924966388E+01  0.16785182069E+02  0.10566000000E+00 0. -1.
        996    1    1    2    0    0 -0.91935244676E+01 -0.11107622717E+02  0.79557539085E+02  0.95064726370E+02  0.50000000000E+02 0.  0.
<mgrwt>
<rscale>  0 0.52037488E+02</rscale>
<asrwt>0</asrwt>
<pdfrwt beam="1">  1       13 0.10000000E+01 0.52037488E+02</pdfrwt>
<pdfrwt beam="2">  1       22 0.11849933E+00 0.52037488E+02</pdfrwt>
<totfact> 0.10959131E+00</totfact>
</mgrwt>
</event>
<event>
 4    1  0.2471347E+000  0.5345896E+02  0.7957747E-01  0.1427530E+00
         13   -1    0    0    0    0  0.00000000000E+00  0.00000000000E+00  0.99999944172E+02  0.99999999992E+02  0.10566000000E+00 0. -1.
         22   -1    0    0    0    0 -0.00000000000E+00 -0.00000000000E+00 -0.13784629444E+02  0.13784629444E+02  0.00000000000E+00 0. -1.
         13    1    1    2    0    0 -0.17167784362E+02  0.79452943640E+01  0.12305015625E+02  0.22567345790E+02  0.10566000000E+00 0.  1.
        996    1    1    2    0    0  0.17167784362E+02 -0.79452943640E+01  0.73910299103E+02  0.91217283647E+02  0.50000000000E+02 0.  0.
<mgrwt>
<rscale>  0 0.53458961E+02</rscale>
<asrwt>0</asrwt>
<pdfrwt beam="1">  1       13 0.10000000E+01 0.53458961E+02</pdfrwt>
<pdfrwt beam="2">  1       22 0.13784654E+00 0.53458961E+02</pdfrwt>
<totfact> 0.86729986E-01</totfact>
</mgrwt>
</event>
<event>
 4    1  0.2471347E+000  0.5114084E+02  0.7957747E-01  0.1439284E+00
         13   -1    0    0    0    0  0.00000000000E+00  0.00000000000E+00  0.99999944182E+02  0.10000000000E+03  0.10566000000E+00 0. -1.
         22   -1    0    0    0    0 -0.00000000000E+00 -0.00000000000E+00 -0.23864210523E+02  0.23864210523E+02  0.00000000000E+00 0.  1.
         13    1    1    2    0    0 -0.41098084343E+01 -0.99244529646E+01 -0.15538451053E+02  0.18890206912E+02  0.10566000000E+00 0.  1.
        996    1    1    2    0    0  0.41098084343E+01  0.99244529646E+01  0.91674184712E+02  0.10497400361E+03  0.50000000000E+02 0.  0.
<mgrwt>
<rscale>  0 0.51140838E+02</rscale>
<asrwt>0</asrwt>
<pdfrwt beam="1">  1       13 0.10000000E+01 0.51140838E+02</pdfrwt>
<pdfrwt beam="2">  1       22 0.23864232E+00 0.51140838E+02</pdfrwt>
<totfact> 0.32251038E-01</totfact>
</mgrwt>
</event>
<event>
 4    1  0.2471347E+000  0.5110951E+02  0.7957747E-01  0.1439447E+00
         13   -1    0    0    0    0  0.00000000000E+00  0.00000000000E+00  0.99999944174E+02  0.99999999995E+02  0.10566000000E+00 0.  1.
         22   -1    0    0    0    0 -0.00000000000E+00 -0.00000000000E+00 -0.13476436735E+02  0.13476436735E+02  0.00000000000E+00 0.  1.
         13    1    1    2    0    0 -0.46556279559E+00  0.10581365663E+02 -0.24466427970E+01  0.10871029069E+02  0.10566000000E+00 0. -1.
        996    1    1    2    0    0  0.46556279559E+00 -0.10581365663E+02  0.88970150237E+02  0.10260540766E+03  0.50000000000E+02 0.  0.
<mgrwt>
<rscale>  0 0.51109510E+02</rscale>
<asrwt>0</asrwt>
<pdfrwt beam="1">  1       13 0.10000000E+01 0.51109510E+02</pdfrwt>
<pdfrwt beam="2">  1       22 0.13476461E+00 0.51109510E+02</pdfrwt>
<totfact> 0.89487714E-01</totfact>
</mgrwt>
</event>
<event>
 4    1  0.2471347E+000  0.5114470E+02  0.7957747E-01  0.1439263E+00
         13   -1    0    0    0    0  0.00000000000E+00  0.00000000000E+00  0.99999944184E+02  0.10000000000E+03  0.10566000000E+00 0.  1.
         22   -1    0    0    0    0 -0.00000000000E+00 -0.00000000000E+00 -0.96042427457E+01  0.96042427457E+01  0.00000000000E+00 0.  1.
         13    1    1    2    0    0  0.51354013554E+01 -0.94555792298E+01  0.13725067916E+02  0.17440440905E+02  0.10566000000E+00 0. -1.
        996    1    1    2    0    0 -0.51354013554E+01  0.94555792298E+01  0.76670633523E+02  0.92163801844E+02  0.50000000000E+02 0.  0.
<mgrwt>
<rscale>  0 0.51144700E+02</rscale>
<asrwt>0</asrwt>
<pdfrwt beam="1">  1       13 0.10000000E+01 0.51144700E+02</pdfrwt>
<pdfrwt beam="2">  1       22 0.96042680E-01 0.51144700E+02</pdfrwt>
<totfact> 0.14911214E+00</totfact>
</mgrwt>
</event>
<event>
 4    1  0.2471347E+000  0.5232800E+02  0.7957747E-01  0.1433175E+00
         13   -1    0    0    0    0  0.00000000000E+00  0.00000000000E+00  0.99999944178E+02  0.99999999999E+02  0.10566000000E+00 0. -1.
         22   -1    0    0    0    0 -0.00000000000E+00 -0.00000000000E+00 -0.13359715392E+02  0.13359715392E+02  0.00000000000E+00 0. -1.
         13    1    1    2    0    0  0.30619170981E+01 -0.15127604874E+02  0.46969359125E+01  0.16133571723E+02  0.10566000000E+00 0.  1.
        996    1    1    2    0    0 -0.30619170981E+01  0.15127604874E+02  0.81943292873E+02  0.97226143668E+02  0.50000000000E+02 0.  0.
<mgrwt>
<rscale>  0 0.52328002E+02</rscale>
<asrwt>0</asrwt>
<pdfrwt beam="1">  1       13 0.10000000E+01 0.52328002E+02</pdfrwt>
<pdfrwt beam="2">  1       22 0.13359740E+00 0.52328002E+02</pdfrwt>
<totfact> 0.90975061E-01</totfact>
</mgrwt>
</event>
<event>
 4    1  0.2471347E+000  0.5394152E+02  0.7957747E-01  0.1425172E+00
         13   -1    0    0    0    0  0.00000000000E+00  0.00000000000E+00  0.99999944177E+02  0.99999999998E+02  0.10566000000E+00 0. -1.
         22   -1    0    0    0    0 -0.00000000000E+00 -0.00000000000E+00 -0.33177769313E+02  0.33177769313E+02  0.00000000000E+00 0.  1.
         13    1    1    2    0    0  0.99548672872E+01  0.17623503045E+02 -0.21599517407E+02  0.29601310081E+02  0.10566000000E+00 0.  1.
        996    1    1    2    0    0 -0.99548672872E+01 -0.17623503045E+02  0.88421692271E+02  0.10357645923E+03  0.50000000000E+02 0.  0.
<mgrwt>
<rscale>  0 0.53941517E+02</rscale>
<asrwt>0</asrwt>
<pdfrwt beam="1">  1       13 0.10000000E+01 0.53941517E+02</pdfrwt>
<pdfrwt beam="2">  1       22 0.33177788E+00 0.53941517E+02</pdfrwt>
<totfact> 0.17292148E-01</totfact>
</mgrwt>
</event>
<event>
 4    1  0.2471347E+000  0.5128750E+02  0.7957747E-01  0.1438518E+00
         13   -1    0    0    0    0  0.00000000000E+00  0.00000000000E+00  0.99999944174E+02  0.99999999995E+02  0.10566000000E+00 0. -1.
         22   -1    0    0    0    0 -0.00000000000E+00 -0.00000000000E+00 -0.25349199020E+02  0.25349199020E+02  0.00000000000E+00 0.  1.
         13    1    1    2    0    0  0.10267218774E+02 -0.49992296244E+01 -0.16908570855E+02  0.20403896946E+02  0.10566000000E+00 0.  1.
        996    1    1    2    0    0 -0.10267218774E+02  0.49992296244E+01  0.91559316010E+02  0.10494530207E+03  0.50000000000E+02 0.  0.
<mgrwt>
<rscale>  0 0.51287504E+02</rscale>
<asrwt>0</asrwt>
<pdfrwt beam="1">  1       13 0.10000000E+01 0.51287504E+02</pdfrwt>
<pdfrwt beam="2">  1       22 0.25349220E+00 0.51287504E+02</pdfrwt>
<totfact> 0.28653608E-01</totfact>
</mgrwt>
</event>
<event>
 4    1  0.2471347E+000  0.5200702E+02  0.7957747E-01  0.1434807E+00
         13   -1    0    0    0    0  0.00000000000E+00  0.00000000000E+00  0.99999944177E+02  0.99999999998E+02  0.10566000000E+00 0.  1.
         22   -1    0    0    0    0 -0.00000000000E+00 -0.00000000000E+00 -0.16988740175E+02  0.16988740175E+02  0.00000000000E+00 0. -1.
         13    1    1    2    0    0  0.14292728810E+02  0.66970762542E+00 -0.46635296791E+01  0.15049593956E+02  0.10566000000E+00 0. -1.
        996    1    1    2    0    0 -0.14292728810E+02 -0.66970762542E+00  0.87674733682E+02  0.10193914622E+03  0.50000000000E+02 0.  0.
<mgrwt>
<rscale>  0 0.52007025E+02</rscale>
<asrwt>0</asrwt>
<pdfrwt beam="1">  1       13 0.10000000E+01 0.52007025E+02</pdfrwt>
<pdfrwt beam="2">  1       22 0.16988763E+00 0.52007025E+02</pdfrwt>
<totfact> 0.60869900E-01</totfact>
</mgrwt>
</event>
<event>
 4    1  0.2471347E+000  0.5124268E+02  0.7957747E-01  0.1438752E+00
         13   -1    0    0    0    0  0.00000000000E+00  0.00000000000E+00  0.99999944181E+02  0.10000000000E+03  0.10566000000E+00 0.  1.
         22   -1    0    0    0    0 -0.00000000000E+00 -0.00000000000E+00 -0.10080886106E+02  0.10080886106E+02  0.00000000000E+00 0.  1.
         13    1    1    2    0    0  0.11119270132E+02  0.14744584798E+01  0.24791351639E+02  0.27210925677E+02  0.10566000000E+00 0. -1.
        996    1    1    2    0    0 -0.11119270132E+02 -0.14744584798E+01  0.65127706436E+02  0.82869960430E+02  0.50000000000E+02 0.  0.
<mgrwt>
<rscale>  0 0.51242679E+02</rscale>
<asrwt>0</asrwt>
<pdfrwt beam="1">  1       13 0.10000000E+01 0.51242679E+02</pdfrwt>
<pdfrwt beam="2">  1       22 0.10080911E+00 0.51242679E+02</pdfrwt>
<totfact> 0.13908694E+00</totfact>
</mgrwt>
</event>
<event>
 4    1  0.2471347E+000  0.5752856E+02  0.7957747E-01  0.1408506E+00
         13   -1    0    0    0    0  0.00000000000E+00  0.00000000000E+00  0.99999944176E+02  0.99999999996E+02  0.10566000000E+00 0.  1.
         22   -1    0    0    0    0 -0.00000000000E+00 -0.00000000000E+00 -0.33389264534E+02  0.33389264534E+02  0.00000000000E+00 0. -1.
         13    1    1    2    0    0  0.28319662817E+02  0.27443415337E+01 -0.16059852070E+02  0.32672078677E+02  0.10566000000E+00 0. -1.
        996    1    1    2    0    0 -0.28319662817E+02 -0.27443415337E+01  0.82670531713E+02  0.10071718585E+03  0.50000000000E+02 0.  0.
<mgrwt>
<rscale>  0 0.57528556E+02</rscale>
<asrwt>0</asrwt>
<pdfrwt beam="1">  1       13 0.10000000E+01 0.57528556E+02</pdfrwt>
<pdfrwt beam="2">  1       22 0.33389283E+00 0.57528556E+02</pdfrwt>
<totfact> 0.17164088E-01</totfact>
</mgrwt>
</event>
<event>
 4    1  0.2471347E+000  0.6251895E+02  0.7957747E-01  0.1387555E+00
         13   -1    0    0    0    0  0.00000000000E+00  0.00000000000E+00  0.99999944178E+02  0.99999999998E+02  0.10566000000E+00 0. -1.
         22   -1    0    0    0    0 -0.00000000000E+00 -0.00000000000E+00 -0.66435724168E+02  0.66435724168E+02  0.00000000000E+00 0.  1.
         13    1    1    2    0    0 -0.25998975281E+02 -0.27067917283E+02 -0.49721024787E+02  0.62296150215E+02  0.10566000000E+00 0.  1.
        996    1    1    2    0    0  0.25998975281E+02  0.27067917283E+02  0.83285244797E+02  0.10413957395E+03  0.50000000000E+02 0.  0.
<mgrwt>
<rscale>  0 0.62518948E+02</rscale>
<asrwt>0</asrwt>
<pdfrwt beam="1">  1       13 0.10000000E+01 0.62518948E+02</pdfrwt>
<pdfrwt beam="2">  1       22 0.66435734E+00 0.62518948E+02</pdfrwt>
<totfact> 0.87057215E-02</totfact>
</mgrwt>
</event>
<event>
 4    1  0.2471347E+000  0.5183412E+02  0.7957747E-01  0.1435693E+00
         13   -1    0    0    0    0  0.00000000000E+00  0.00000000000E+00  0.99999944176E+02  0.99999999996E+02  0.10566000000E+00 0.  1.
         22   -1    0    0    0    0 -0.00000000000E+00 -0.00000000000E+00 -0.19044922697E+02  0.19044922697E+02  0.00000000000E+00 0. -1.
         13    1    1    2    0    0  0.92523912257E+01 -0.10058269487E+02 -0.81845237940E+01  0.15930258072E+02  0.10566000000E+00 0. -1.
        996    1    1    2    0    0 -0.92523912257E+01  0.10058269487E+02  0.89139545273E+02  0.10311466462E+03  0.50000000000E+02 0.  0.
<mgrwt>
<rscale>  0 0.51834115E+02</rscale>
<asrwt>0</asrwt>
<pdfrwt beam="1">  1       13 0.10000000E+01 0.51834115E+02</pdfrwt>
<pdfrwt beam="2">  1       22 0.19044945E+00 0.51834115E+02</pdfrwt>
<totfact> 0.49583177E-01</totfact>
</mgrwt>
</event>
<event>
 4    1  0.2471347E+000  0.5129872E+02  0.7957747E-01  0.1438460E+00
         13   -1    0    0    0    0  0.00000000000E+00  0.00000000000E+00  0.99999944181E+02  0.10000000000E+03  0.10566000000E+00 0.  1.
         22   -1    0    0    0    0 -0.00000000000E+00 -0.00000000000E+00 -0.13054527941E+02  0.13054527941E+02  0.00000000000E+00 0.  1.
         13    1    1    2    0    0 -0.10226514705E+02 -0.51939645419E+01 -0.70917429643E+00  0.11492300157E+02  0.10566000000E+00 0. -1.
        996    1    1    2    0    0  0.10226514705E+02  0.51939645419E+01  0.87654590537E+02  0.10156222779E+03  0.50000000000E+02 0.  0.
<mgrwt>
<rscale>  0 0.51298722E+02</rscale>
<asrwt>0</asrwt>
<pdfrwt beam="1">  1       13 0.10000000E+01 0.51298722E+02</pdfrwt>
<pdfrwt beam="2">  1       22 0.13054552E+00 0.51298722E+02</pdfrwt>
<totfact> 0.94158183E-01</totfact>
</mgrwt>
</event>
<event>
 4    1  0.2471347E+000  0.5127099E+02  0.7957747E-01  0.1438604E+00
         13   -1    0    0    0    0  0.00000000000E+00  0.00000000000E+00  0.99999944181E+02  0.10000000000E+03  0.10566000000E+00 0.  1.
         22   -1    0    0    0    0 -0.00000000000E+00 -0.00000000000E+00 -0.19151021603E+02  0.19151021603E+02  0.00000000000E+00 0. -1.
         13    1    1    2    0    0  0.11318611876E+02  0.77665169890E+00 -0.98098385771E+01  0.14998608589E+02  0.10566000000E+00 0. -1.
        996    1    1    2    0    0 -0.11318611876E+02 -0.77665169890E+00  0.90658761156E+02  0.10415241302E+03  0.50000000000E+02 0.  0.
<mgrwt>
<rscale>  0 0.51270988E+02</rscale>
<asrwt>0</asrwt>
<pdfrwt beam="1">  1       13 0.10000000E+01 0.51270988E+02</pdfrwt>
<pdfrwt beam="2">  1       22 0.19151044E+00 0.51270988E+02</pdfrwt>
<totfact> 0.49029365E-01</totfact>
</mgrwt>
</event>
<event>
 4    1  0.2471347E+000  0.5116288E+02  0.7957747E-01  0.1439168E+00
         13   -1    0    0    0    0  0.00000000000E+00  0.00000000000E+00  0.99999944178E+02  0.99999999999E+02  0.10566000000E+00 0.  1.
         22   -1    0    0    0    0 -0.00000000000E+00 -0.00000000000E+00 -0.96178173258E+01  0.96178173258E+01  0.00000000000E+00 0.  1.
         13    1    1    2    0    0 -0.77610589130E+01 -0.75767238590E+01  0.16760424044E+02  0.19964061662E+02  0.10566000000E+00 0. -1.
        996    1    1    2    0    0  0.77610589130E+01  0.75767238590E+01  0.73621702809E+02  0.89653755663E+02  0.50000000000E+02 0.  0.
<mgrwt>
<rscale>  0 0.51162885E+02</rscale>
<asrwt>0</asrwt>
<pdfrwt beam="1">  1       13 0.10000000E+01 0.51162885E+02</pdfrwt>
<pdfrwt beam="2">  1       22 0.96178426E-01 0.51162885E+02</pdfrwt>
<totfact> 0.14881734E+00</totfact>
</mgrwt>
</event>
<event>
 4    1  0.2471347E+000  0.5127806E+02  0.7957747E-01  0.1438567E+00
         13   -1    0    0    0    0  0.00000000000E+00  0.00000000000E+00  0.99999944179E+02  0.99999999999E+02  0.10566000000E+00 0. -1.
         22   -1    0    0    0    0 -0.00000000000E+00 -0.00000000000E+00 -0.10453190362E+02  0.10453190362E+02  0.00000000000E+00 0. -1.
         13    1    1    2    0    0 -0.17979562175E+01  0.11234171877E+02  0.72594588803E+01  0.13496302145E+02  0.10566000000E+00 0.  1.
        996    1    1    2    0    0  0.17979562175E+01 -0.11234171877E+02  0.82287294937E+02  0.96956888215E+02  0.50000000000E+02 0.  0.
<mgrwt>
<rscale>  0 0.51278058E+02</rscale>
<asrwt>0</asrwt>
<pdfrwt beam="1">  1       13 0.10000000E+01 0.51278058E+02</pdfrwt>
<pdfrwt beam="2">  1       22 0.10453215E+00 0.51278058E+02</pdfrwt>
<totfact> 0.13193340E+00</totfact>
</mgrwt>
</event>
<event>
 4    1  0.2471347E+000  0.5113741E+02  0.7957747E-01  0.1439301E+00
         13   -1    0    0    0    0  0.00000000000E+00  0.00000000000E+00  0.99999944182E+02  0.10000000000E+03  0.10566000000E+00 0. -1.
         22   -1    0    0    0    0 -0.00000000000E+00 -0.00000000000E+00 -0.15413387247E+02  0.15413387247E+02  0.00000000000E+00 0.  1.
         13    1    1    2    0    0 -0.98074249959E+01 -0.43415362274E+01 -0.53263664580E+01  0.11975636332E+02  0.10566000000E+00 0.  1.
        996    1    1    2    0    0  0.98074249959E+01  0.43415362274E+01  0.89912923393E+02  0.10343775092E+03  0.50000000000E+02 0.  0.
<mgrwt>
<rscale>  0 0.51137408E+02</rscale>
<asrwt>0</asrwt>
<pdfrwt beam="1">  1       13 0.10000000E+01 0.51137408E+02</pdfrwt>
<pdfrwt beam="2">  1       22 0.15413411E+00 0.51137408E+02</pdfrwt>
<totfact> 0.71815997E-01</totfact>
</mgrwt>
</event>
<event>
 4    1  0.2471347E+000  0.5153556E+02  0.7957747E-01  0.1437231E+00
         13   -1    0    0    0    0  0.00000000000E+00  0.00000000000E+00  0.99999944176E+02  0.99999999996E+02  0.10566000000E+00 0. -1.
         22   -1    0    0    0    0 -0.00000000000E+00 -0.00000000000E+00 -0.10253248494E+02  0.10253248494E+02  0.00000000000E+00 0. -1.
         13    1    1    2    0    0 -0.16427914701E+01 -0.12378008954E+02  0.16458605124E+02  0.20659397768E+02  0.10566000000E+00 0.  1.
        996    1    1    2    0    0  0.16427914701E+01  0.12378008954E+02  0.73288090558E+02  0.89593850722E+02  0.50000000000E+02 0.  0.
<mgrwt>
<rscale>  0 0.51535559E+02</rscale>
<asrwt>0</asrwt>
<pdfrwt beam="1">  1       13 0.10000000E+01 0.51535559E+02</pdfrwt>
<pdfrwt beam="2">  1       22 0.10253274E+00 0.51535559E+02</pdfrwt>
<totfact> 0.13579482E+00</totfact>
</mgrwt>
</event>
<event>
 4    1  0.2471347E+000  0.5243316E+02  0.7957747E-01  0.1432643E+00
         13   -1    0    0    0    0  0.00000000000E+00  0.00000000000E+00  0.99999944181E+02  0.10000000000E+03  0.10566000000E+00 0. -1.
         22   -1    0    0    0    0 -0.00000000000E+00 -0.00000000000E+00 -0.13414409421E+02  0.13414409421E+02  0.00000000000E+00 0.  1.
         13    1    1    2    0    0  0.14146145718E+01  0.15723712794E+02  0.52397289689E+01  0.16634368101E+02  0.10566000000E+00 0.  1.
        996    1    1    2    0    0 -0.14146145718E+01 -0.15723712794E+02  0.81345805791E+02  0.96780041322E+02  0.50000000000E+02 0.  0.
<mgrwt>
<rscale>  0 0.52433160E+02</rscale>
<asrwt>0</asrwt>
<pdfrwt beam="1">  1       13 0.10000000E+01 0.52433160E+02</pdfrwt>
<pdfrwt beam="2">  1       22 0.13414434E+00 0.52433160E+02</pdfrwt>
<totfact> 0.90405117E-01</totfact>
</mgrwt>
</event>
<event>
 4    1  0.2471347E+000  0.5132433E+02  0.7957747E-01  0.1438327E+00
         13   -1    0    0    0    0  0.00000000000E+00  0.00000000000E+00  0.99999944186E+02  0.10000000001E+03  0.10566000000E+00 0. -1.
         22   -1    0    0    0    0 -0.00000000000E+00 -0.00000000000E+00 -0.98937523159E+01  0.98937523159E+01  0.00000000000E+00 0. -1.
         13    1    1    2    0    0  0.85238680885E+01  0.78441640957E+01  0.16621257874E+02  0.20259926330E+02  0.10566000000E+00 0.  1.
        996    1    1    2    0    0 -0.85238680885E+01 -0.78441640957E+01  0.73484933996E+02  0.89633825992E+02  0.50000000000E+02 0.  0.
<mgrwt>
<rscale>  0 0.51324334E+02</rscale>
<asrwt>0</asrwt>
<pdfrwt beam="1">  1       13 0.10000000E+01 0.51324334E+02</pdfrwt>
<pdfrwt beam="2">  1       22 0.98937775E-01 0.51324334E+02</pdfrwt>
<totfact> 0.14293963E+00</totfact>
</mgrwt>
</event>
<event>
 4    1  0.2471347E+000  0.5110584E+02  0.7957747E-01  0.1439467E+00
         13   -1    0    0    0    0  0.00000000000E+00  0.00000000000E+00  0.99999944171E+02  0.99999999992E+02  0.10566000000E+00 0. -1.
         22   -1    0    0    0    0 -0.00000000000E+00 -0.00000000000E+00 -0.35037806405E+02  0.35037806405E+02  0.00000000000E+00 0.  1.
         13    1    1    2    0    0 -0.96310890445E+01  0.43645371192E+01 -0.27460695289E+02  0.29426314928E+02  0.10566000000E+00 0.  1.
        996    1    1    2    0    0  0.96310890445E+01 -0.43645371192E+01  0.92422833055E+02  0.10561149147E+03  0.50000000000E+02 0.  0.
<mgrwt>
<rscale>  0 0.51105842E+02</rscale>
<asrwt>0</asrwt>
<pdfrwt beam="1">  1       13 0.10000000E+01 0.51105842E+02</pdfrwt>
<pdfrwt beam="2">  1       22 0.35037825E+00 0.51105842E+02</pdfrwt>
<totfact> 0.15670142E-01</totfact>
</mgrwt>
</event>
<event>
 4    1  0.2471347E+000  0.5125854E+02  0.7957747E-01  0.1438669E+00
         13   -1    0    0    0    0  0.00000000000E+00  0.00000000000E+00  0.99999944184E+02  0.10000000000E+03  0.10566000000E+00 0.  1.
         22   -1    0    0    0    0 -0.00000000000E+00 -0.00000000000E+00 -0.97887598620E+01  0.97887598620E+01  0.00000000000E+00 0.  1.
         13    1    1    2    0    0 -0.16235248336E+01  0.11171507163E+02  0.17527786290E+02  0.20848809592E+02  0.10566000000E+00 0. -1.
        996    1    1    2    0    0  0.16235248336E+01 -0.11171507163E+02  0.72683398033E+02  0.88939950274E+02  0.50000000000E+02 0.  0.
<mgrwt>
<rscale>  0 0.51258545E+02</rscale>
<asrwt>0</asrwt>
<pdfrwt beam="1">  1       13 0.10000000E+01 0.51258545E+02</pdfrwt>
<pdfrwt beam="2">  1       22 0.97887850E-01 0.51258545E+02</pdfrwt>
<totfact> 0.14513232E+00</totfact>
</mgrwt>
</event>
<event>
 4    1  0.2471347E+000  0.6143542E+02  0.7957747E-01  0.1391905E+00
         13   -1    0    0    0    0  0.00000000000E+00  0.00000000000E+00  0.99999944181E+02  0.10000000000E+03  0.10566000000E+00 0. -1.
         22   -1    0    0    0    0 -0.00000000000E+00 -0.00000000000E+00 -0.29649851611E+02  0.29649851611E+02  0.00000000000E+00 0.  1.
         13    1    1    2    0    0  0.34443017031E+02  0.93802592008E+01 -0.72263282312E+00  0.35704958299E+02  0.10566000000E+00 0.  1.
        996    1    1    2    0    0 -0.34443017031E+02 -0.93802592008E+01  0.71072725394E+02  0.93944893314E+02  0.50000000000E+02 0.  0.
<mgrwt>
<rscale>  0 0.61435419E+02</rscale>
<asrwt>0</asrwt>
<pdfrwt beam="1">  1       13 0.10000000E+01 0.61435419E+02</pdfrwt>
<pdfrwt beam="2">  1       22 0.29649871E+00 0.61435419E+02</pdfrwt>
<totfact> 0.21409862E-01</totfact>
</mgrwt>
</event>
<event>
 4    1  0.2471347E+000  0.5744800E+02  0.7957747E-01  0.1408864E+00
         13   -1    0    0    0    0  0.00000000000E+00  0.00000000000E+00  0.99999944173E+02  0.99999999993E+02  0.10566000000E+00 0. -1.
         22   -1    0    0    0    0 -0.00000000000E+00 -0.00000000000E+00 -0.70505347962E+02  0.70505347962E+02  0.00000000000E+00 0.  1.
         13    1    1    2    0    0 -0.12059609916E+02 -0.25589819526E+02 -0.58751451661E+02  0.65207494132E+02  0.10566000000E+00 0.  1.
        996    1    1    2    0    0  0.12059609916E+02  0.25589819526E+02  0.88246047872E+02  0.10529785382E+03  0.50000000000E+02 0.  0.
<mgrwt>
<rscale>  0 0.57448003E+02</rscale>
<asrwt>0</asrwt>
<pdfrwt beam="1">  1       13 0.10000000E+01 0.57448003E+02</pdfrwt>
<pdfrwt beam="2">  1       22 0.70505356E+00 0.57448003E+02</pdfrwt>
<totfact> 0.72019750E-02</totfact>
</mgrwt>
</event>
<event>
 4    1  0.2471347E+000  0.5214414E+02  0.7957747E-01  0.1434108E+00
         13   -1    0    0    0    0  0.00000000000E+00  0.00000000000E+00  0.99999944189E+02  0.10000000001E+03  0.10566000000E+00 0. -1.
         22   -1    0    0    0    0 -0.00000000000E+00 -0.00000000000E+00 -0.11252866752E+02  0.11252866752E+02  0.00000000000E+00 0. -1.
         13    1    1    2    0    0  0.61475499496E+01  0.13461771264E+02  0.22786489050E+02  0.27170699351E+02  0.10566000000E+00 0.  1.
        996    1    1    2    0    0 -0.61475499496E+01 -0.13461771264E+02  0.65960588388E+02  0.84082167410E+02  0.50000000000E+02 0.  0.
<mgrwt>
<rscale>  0 0.52144143E+02</rscale>
<asrwt>0</asrwt>
<pdfrwt beam="1">  1       13 0.10000000E+01 0.52144143E+02</pdfrwt>
<pdfrwt beam="2">  1       22 0.11252892E+00 0.52144143E+02</pdfrwt>
<totfact> 0.11852194E+00</totfact>
</mgrwt>
</event>
<event>
 4    1  0.2471347E+000  0.5459083E+02  0.7957747E-01  0.1422044E+00
         13   -1    0    0    0    0  0.00000000000E+00  0.00000000000E+00  0.99999944177E+02  0.99999999997E+02  0.10566000000E+00 0.  1.
         22   -1    0    0    0    0 -0.00000000000E+00 -0.00000000000E+00 -0.34521461980E+02  0.34521461980E+02  0.00000000000E+00 0. -1.
         13    1    1    2    0    0 -0.21181645795E+02 -0.56122212847E+01 -0.22228131662E+02  0.31213140623E+02  0.10566000000E+00 0. -1.
        996    1    1    2    0    0  0.21181645795E+02  0.56122212847E+01  0.87706613859E+02  0.10330832135E+03  0.50000000000E+02 0.  0.
<mgrwt>
<rscale>  0 0.54590834E+02</rscale>
<asrwt>0</asrwt>
<pdfrwt beam="1">  1       13 0.10000000E+01 0.54590834E+02</pdfrwt>
<pdfrwt beam="2">  1       22 0.34521480E+00 0.54590834E+02</pdfrwt>
<totfact> 0.16139389E-01</totfact>
</mgrwt>
</event>
<event>
 4    1  0.2471347E+000  0.5296939E+02  0.7957747E-01  0.1429953E+00
         13   -1    0    0    0    0  0.00000000000E+00  0.00000000000E+00  0.99999944179E+02  0.99999999999E+02  0.10566000000E+00 0.  1.
         22   -1    0    0    0    0 -0.00000000000E+00 -0.00000000000E+00 -0.36873502347E+02  0.36873502347E+02  0.00000000000E+00 0. -1.
         13    1    1    2    0    0  0.14488846897E+02  0.97892544900E+01 -0.27097579550E+02  0.32249746811E+02  0.10566000000E+00 0. -1.
        996    1    1    2    0    0 -0.14488846897E+02 -0.97892544900E+01  0.90224021382E+02  0.10462375553E+03  0.50000000000E+02 0.  0.
<mgrwt>
<rscale>  0 0.52969389E+02</rscale>
<asrwt>0</asrwt>
<pdfrwt beam="1">  1       13 0.10000000E+01 0.52969389E+02</pdfrwt>
<pdfrwt beam="2">  1       22 0.36873520E+00 0.52969389E+02</pdfrwt>
<totfact> 0.14356042E-01</totfact>
</mgrwt>
</event>
<event>
 4    1  0.2471347E+000  0.5173311E+02  0.7957747E-01  0.1436212E+00
         13   -1    0    0    0    0  0.00000000000E+00  0.00000000000E+00  0.99999944173E+02  0.99999999993E+02  0.10566000000E+00 0. -1.
         22   -1    0    0    0    0 -0.00000000000E+00 -0.00000000000E+00 -0.14931674548E+02  0.14931674548E+02  0.00000000000E+00 0.  1.
         13    1    1    2    0    0 -0.52082412153E+01 -0.12214273552E+02 -0.22215607349E+01  0.13463311298E+02  0.10566000000E+00 0.  1.
        996    1    1    2    0    0  0.52082412153E+01  0.12214273552E+02  0.87289830360E+02  0.10146836324E+03  0.50000000000E+02 0.  0.
<mgrwt>
<rscale>  0 0.51733106E+02</rscale>
<asrwt>0</asrwt>
<pdfrwt beam="1">  1       13 0.10000000E+01 0.51733106E+02</pdfrwt>
<pdfrwt beam="2">  1       22 0.14931698E+00 0.51733106E+02</pdfrwt>
<totfact> 0.75824883E-01</totfact>
</mgrwt>
</event>
<event>
 4    1  0.2471347E+000  0.7752285E+02  0.7957747E-01  0.1336232E+00
         13   -1    0    0    0    0  0.00000000000E+00  0.00000000000E+00  0.99999944178E+02  0.99999999998E+02  0.10566000000E+00 0.  1.
         22   -1    0    0    0    0 -0.00000000000E+00 -0.00000000000E+00 -0.81295662769E+02  0.81295662769E+02  0.00000000000E+00 0. -1.
         13    1    1    2    0    0  0.55440606134E+02  0.20883767700E+02 -0.50142599090E+02  0.77614972586E+02  0.10566000000E+00 0. -1.
        996    1    1    2    0    0 -0.55440606134E+02 -0.20883767700E+02  0.68846880500E+02  0.10368069018E+03  0.50000000000E+02 0.  0.
<mgrwt>
<rscale>  0 0.77522852E+02</rscale>
<asrwt>0</asrwt>
<pdfrwt beam="1">  1       13 0.10000000E+01 0.77522852E+02</pdfrwt>
<pdfrwt beam="2">  1       22 0.81295668E+00 0.77522852E+02</pdfrwt>
<totfact> 0.27351358E-02</totfact>
</mgrwt>
</event>
<event>
 4    1  0.2471347E+000  0.5146258E+02  0.7957747E-01  0.1437609E+00
         13   -1    0    0    0    0  0.00000000000E+00  0.00000000000E+00  0.99999944176E+02  0.99999999996E+02  0.10566000000E+00 0.  1.
         22   -1    0    0    0    0 -0.00000000000E+00 -0.00000000000E+00 -0.16658698620E+02  0.16658698620E+02  0.00000000000E+00 0. -1.
         13    1    1    2    0    0 -0.10138262390E+02 -0.67537483815E+01 -0.59815360464E+01  0.13571566564E+02  0.10566000000E+00 0. -1.
        996    1    1    2    0    0  0.10138262390E+02  0.67537483815E+01  0.89322781602E+02  0.10308713205E+03  0.50000000000E+02 0.  0.
<mgrwt>
<rscale>  0 0.51462583E+02</rscale>
<asrwt>0</asrwt>
<pdfrwt beam="1">  1       13 0.10000000E+01 0.51462583E+02</pdfrwt>
<pdfrwt beam="2">  1       22 0.16658722E+00 0.51462583E+02</pdfrwt>
<totfact> 0.62922170E-01</totfact>
</mgrwt>
</event>
<event>
 4    1  0.2471347E+000  0.5130828E+02  0.7957747E-01  0.1438410E+00
         13   -1    0    0    0    0  0.00000000000E+00  0.00000000000E+00  0.99999944176E+02  0.99999999996E+02  0.10566000000E+00 0.  1.
         22   -1    0    0    0    0 -0.00000000000E+00 -0.00000000000E+00 -0.12425086691E+02  0.12425086691E+02  0.00000000000E+00 0. -1.
         13    1    1    2    0    0 -0.64364334148E+00  0.11494587566E+02  0.70518900610E+00  0.11534655419E+02  0.10566000000E+00 0. -1.
        996    1    1    2    0    0  0.64364334148E+00 -0.11494587566E+02  0.86869668479E+02  0.10089043127E+03  0.50000000000E+02 0.  0.
<mgrwt>
<rscale>  0 0.51308282E+02</rscale>
<asrwt>0</asrwt>
<pdfrwt beam="1">  1       13 0.10000000E+01 0.51308282E+02</pdfrwt>
<pdfrwt beam="2">  1       22 0.12425111E+00 0.51308282E+02</pdfrwt>
<totfact> 0.10172314E+00</totfact>
</mgrwt>
</event>
<event>
 4    1  0.2471347E+000  0.5707766E+02  0.7957747E-01  0.1410521E+00
         13   -1    0    0    0    0  0.00000000000E+00  0.00000000000E+00  0.99999944183E+02  0.10000000000E+03  0.10566000000E+00 0.  1.
         22   -1    0    0    0    0 -0.00000000000E+00 -0.00000000000E+00 -0.18536197573E+02  0.18536197573E+02  0.00000000000E+00 0. -1.
         13    1    1    2    0    0  0.24740655470E+01  0.27417837047E+02  0.16651322356E+02  0.32173537090E+02  0.10566000000E+00 0. -1.
        996    1    1    2    0    0 -0.24740655470E+01 -0.27417837047E+02  0.64812424254E+02  0.86362660486E+02  0.50000000000E+02 0.  0.
<mgrwt>
<rscale>  0 0.57077656E+02</rscale>
<asrwt>0</asrwt>
<pdfrwt beam="1">  1       13 0.10000000E+01 0.57077656E+02</pdfrwt>
<pdfrwt beam="2">  1       22 0.18536220E+00 0.57077656E+02</pdfrwt>
<totfact> 0.52578497E-01</totfact>
</mgrwt>
</event>
<event>
 4    1  0.2471347E+000  0.5119114E+02  0.7957747E-01  0.1439021E+00
         13   -1    0    0    0    0  0.00000000000E+00  0.00000000000E+00  0.99999944177E+02  0.99999999997E+02  0.10566000000E+00 0. -1.
         22   -1    0    0    0    0 -0.00000000000E+00 -0.00000000000E+00 -0.11387791360E+02  0.11387791360E+02  0.00000000000E+00 0. -1.
         13    1    1    2    0    0 -0.53423556088E+01 -0.95912424903E+01  0.25812325476E+01  0.11278591289E+02  0.10566000000E+00 0.  1.
        996    1    1    2    0    0  0.53423556088E+01  0.95912424903E+01  0.86030920269E+02  0.10010920007E+03  0.50000000000E+02 0.  0.
<mgrwt>
<rscale>  0 0.51191139E+02</rscale>
<asrwt>0</asrwt>
<pdfrwt beam="1">  1       13 0.10000000E+01 0.51191139E+02</pdfrwt>
<pdfrwt beam="2">  1       22 0.11387816E+00 0.51191139E+02</pdfrwt>
<totfact> 0.11616574E+00</totfact>
</mgrwt>
</event>
<event>
 4    1  0.2471347E+000  0.5114402E+02  0.7957747E-01  0.1439267E+00
         13   -1    0    0    0    0  0.00000000000E+00  0.00000000000E+00  0.99999944169E+02  0.99999999989E+02  0.10566000000E+00 0. -1.
         22   -1    0    0    0    0 -0.00000000000E+00 -0.00000000000E+00 -0.10141567917E+02  0.10141567917E+02  0.00000000000E+00 0. -1.
         13    1    1    2    0    0  0.89606588969E+01 -0.59512410597E+01  0.27266164144E+02  0.29311525876E+02  0.10566000000E+00 0.  1.
        996    1    1    2    0    0 -0.89606588969E+01  0.59512410597E+01  0.62592212108E+02  0.80830042030E+02  0.50000000000E+02 0.  0.
<mgrwt>
<rscale>  0 0.51144019E+02</rscale>
<asrwt>0</asrwt>
<pdfrwt beam="1">  1       13 0.10000000E+01 0.51144019E+02</pdfrwt>
<pdfrwt beam="2">  1       22 0.10141593E+00 0.51144019E+02</pdfrwt>
<totfact> 0.13784700E+00</totfact>
</mgrwt>
</event>
<event>
 4    1  0.2471347E+000  0.5115616E+02  0.7957747E-01  0.1439203E+00
         13   -1    0    0    0    0  0.00000000000E+00  0.00000000000E+00  0.99999944185E+02  0.10000000000E+03  0.10566000000E+00 0.  1.
         22   -1    0    0    0    0 -0.00000000000E+00 -0.00000000000E+00 -0.96375993012E+01  0.96375993012E+01  0.00000000000E+00 0.  1.
         13    1    1    2    0    0 -0.28412284593E+01 -0.10434582057E+02  0.13314679224E+02  0.17153568979E+02  0.10566000000E+00 0. -1.
        996    1    1    2    0    0  0.28412284593E+01  0.10434582057E+02  0.77047665660E+02  0.92484030327E+02  0.50000000000E+02 0.  0.
<mgrwt>
<rscale>  0 0.51156164E+02</rscale>
<asrwt>0</asrwt>
<pdfrwt beam="1">  1       13 0.10000000E+01 0.51156164E+02</pdfrwt>
<pdfrwt beam="2">  1       22 0.96376245E-01 0.51156164E+02</pdfrwt>
<totfact> 0.14837714E+00</totfact>
</mgrwt>
</event>
<event>
 4    1  0.2471347E+000  0.5124539E+02  0.7957747E-01  0.1438738E+00
         13   -1    0    0    0    0  0.00000000000E+00  0.00000000000E+00  0.99999944180E+02  0.10000000000E+03  0.10566000000E+00 0.  1.
         22   -1    0    0    0    0 -0.00000000000E+00 -0.00000000000E+00 -0.11924554532E+02  0.11924554532E+02  0.00000000000E+00 0.  1.
         13    1    1    2    0    0 -0.85494089896E+01 -0.72799388283E+01  0.15134255020E+01  0.11330998376E+02  0.10566000000E+00 0. -1.
        996    1    1    2    0    0  0.85494089896E+01  0.72799388283E+01  0.86561964146E+02  0.10059355616E+03  0.50000000000E+02 0.  0.
<mgrwt>
<rscale>  0 0.51245389E+02</rscale>
<asrwt>0</asrwt>
<pdfrwt beam="1">  1       13 0.10000000E+01 0.51245389E+02</pdfrwt>
<pdfrwt beam="2">  1       22 0.11924579E+00 0.51245389E+02</pdfrwt>
<totfact> 0.10835165E+00</totfact>
</mgrwt>
</event>
<event>
 4    1  0.2471347E+000  0.5792407E+02  0.7957747E-01  0.1406756E+00
         13   -1    0    0    0    0  0.00000000000E+00  0.00000000000E+00  0.99999944173E+02  0.99999999994E+02  0.10566000000E+00 0. -1.
         22   -1    0    0    0    0 -0.00000000000E+00 -0.00000000000E+00 -0.19654144068E+02  0.19654144068E+02  0.00000000000E+00 0. -1.
         13    1    1    2    0    0 -0.19382736692E+02 -0.21897661472E+02  0.17035854067E+02  0.33844195181E+02  0.10566000000E+00 0.  1.
        996    1    1    2    0    0  0.19382736692E+02  0.21897661472E+02  0.63309946038E+02  0.85809948881E+02  0.50000000000E+02 0.  0.
<mgrwt>
<rscale>  0 0.57924072E+02</rscale>
<asrwt>0</asrwt>
<pdfrwt beam="1">  1       13 0.10000000E+01 0.57924072E+02</pdfrwt>
<pdfrwt beam="2">  1       22 0.19654167E+00 0.57924072E+02</pdfrwt>
<totfact> 0.47277609E-01</totfact>
</mgrwt>
</event>
<event>
 4    1  0.2471347E+000  0.5129758E+02  0.7957747E-01  0.1438466E+00
         13   -1    0    0    0    0  0.00000000000E+00  0.00000000000E+00  0.99999944180E+02  0.10000000000E+03  0.10566000000E+00 0. -1.
         22   -1    0    0    0    0 -0.00000000000E+00 -0.00000000000E+00 -0.10165525508E+02  0.10165525508E+02  0.00000000000E+00 0. -1.
         13    1    1    2    0    0  0.47205103739E+00  0.11455098387E+02  0.96982405648E+01  0.15016961921E+02  0.10566000000E+00 0.  1.
        996    1    1    2    0    0 -0.47205103739E+00 -0.11455098387E+02  0.80136178107E+02  0.95148563588E+02  0.50000000000E+02 0.  0.
<mgrwt>
<rscale>  0 0.51297584E+02</rscale>
<asrwt>0</asrwt>
<pdfrwt beam="1">  1       13 0.10000000E+01 0.51297584E+02</pdfrwt>
<pdfrwt beam="2">  1       22 0.10165551E+00 0.51297584E+02</pdfrwt>
<totfact> 0.13742598E+00</totfact>
</mgrwt>
</event>
<event>
 4    1  0.2471347E+000  0.5266965E+02  0.7957747E-01  0.1431452E+00
         13   -1    0    0    0    0  0.00000000000E+00  0.00000000000E+00  0.99999944180E+02  0.10000000000E+03  0.10566000000E+00 0.  1.
         22   -1    0    0    0    0 -0.00000000000E+00 -0.00000000000E+00 -0.54527534731E+02  0.54527534731E+02  0.00000000000E+00 0. -1.
         13    1    1    2    0    0 -0.67740020670E+01 -0.15106437060E+02 -0.46047871117E+02  0.48933721942E+02  0.10566000000E+00 0. -1.
        996    1    1    2    0    0  0.67740020670E+01  0.15106437060E+02  0.91520280566E+02  0.10559381279E+03  0.50000000000E+02 0.  0.
<mgrwt>
<rscale>  0 0.52669645E+02</rscale>
<asrwt>0</asrwt>
<pdfrwt beam="1">  1       13 0.10000000E+01 0.52669645E+02</pdfrwt>
<pdfrwt beam="2">  1       22 0.54527547E+00 0.52669645E+02</pdfrwt>
<totfact> 0.59773242E-02</totfact>
</mgrwt>
</event>
<event>
 4    1  0.2471347E+000  0.5103487E+02  0.7957747E-01  0.1439838E+00
         13   -1    0    0    0    0  0.00000000000E+00  0.00000000000E+00  0.99999944179E+02  0.99999999999E+02  0.10566000000E+00 0. -1.
         22   -1    0    0    0    0 -0.00000000000E+00 -0.00000000000E+00 -0.10383577152E+02  0.10383577152E+02  0.00000000000E+00 0.  1.
         13    1    1    2    0    0  0.80981809802E+01 -0.62431909737E+01  0.45720731748E+01  0.11201472487E+02  0.10566000000E+00 0.  1.
        996    1    1    2    0    0 -0.80981809802E+01  0.62431909737E+01  0.85044293852E+02  0.99182104664E+02  0.50000000000E+02 0.  0.
<mgrwt>
<rscale>  0 0.51034870E+02</rscale>
<asrwt>0</asrwt>
<pdfrwt beam="1">  1       13 0.10000000E+01 0.51034870E+02</pdfrwt>
<pdfrwt beam="2">  1       22 0.10383602E+00 0.51034870E+02</pdfrwt>
<totfact> 0.13315271E+00</totfact>
</mgrwt>
</event>
<event>
 4    1  0.2471347E+000  0.5136003E+02  0.7957747E-01  0.1438141E+00
         13   -1    0    0    0    0  0.00000000000E+00  0.00000000000E+00  0.99999944182E+02  0.10000000000E+03  0.10566000000E+00 0.  1.
         22   -1    0    0    0    0 -0.00000000000E+00 -0.00000000000E+00 -0.10369041987E+02  0.10369041987E+02  0.00000000000E+00 0. -1.
         13    1    1    2    0    0  0.11032883442E+02  0.40159557571E+01  0.91036990842E+01  0.14857352346E+02  0.10566000000E+00 0. -1.
        996    1    1    2    0    0 -0.11032883442E+02 -0.40159557571E+01  0.80527203110E+02  0.95511689643E+02  0.50000000000E+02 0.  0.
<mgrwt>
<rscale>  0 0.51360027E+02</rscale>
<asrwt>0</asrwt>
<pdfrwt beam="1">  1       13 0.10000000E+01 0.51360027E+02</pdfrwt>
<pdfrwt beam="2">  1       22 0.10369067E+00 0.51360027E+02</pdfrwt>
<totfact> 0.13353003E+00</totfact>
</mgrwt>
</event>
<event>
 4    1  0.2471347E+000  0.5160132E+02  0.7957747E-01  0.1436891E+00
         13   -1    0    0    0    0  0.00000000000E+00  0.00000000000E+00  0.99999944186E+02  0.10000000001E+03  0.10566000000E+00 0.  1.
         22   -1    0    0    0    0 -0.00000000000E+00 -0.00000000000E+00 -0.29584518826E+02  0.29584518826E+02  0.00000000000E+00 0. -1.
         13    1    1    2    0    0  0.45346063870E+01  0.11921962132E+02 -0.21023398270E+02  0.24590450891E+02  0.10566000000E+00 0. -1.
        996    1    1    2    0    0 -0.45346063870E+01 -0.11921962132E+02  0.91438823630E+02  0.10499406794E+03  0.50000000000E+02 0.  0.
<mgrwt>
<rscale>  0 0.51601316E+02</rscale>
<asrwt>0</asrwt>
<pdfrwt beam="1">  1       13 0.10000000E+01 0.51601316E+02</pdfrwt>
<pdfrwt beam="2">  1       22 0.29584538E+00 0.51601316E+02</pdfrwt>
<totfact> 0.21241075E-01</totfact>
</mgrwt>
</event>
<event>
 4    1  0.2471347E+000  0.5327870E+02  0.7957747E-01  0.1428419E+00
         13   -1    0    0    0    0  0.00000000000E+00  0.00000000000E+00  0.99999944173E+02  0.99999999994E+02  0.10566000000E+00 0.  1.
         22   -1    0    0    0    0 -0.00000000000E+00 -0.00000000000E+00 -0.22240354940E+02  0.22240354940E+02  0.00000000000E+00 0. -1.
         13    1    1    2    0    0 -0.59830587068E+00 -0.18391890926E+02 -0.89555733795E+01  0.20465411805E+02  0.10566000000E+00 0. -1.
        996    1    1    2    0    0  0.59830587068E+00  0.18391890926E+02  0.86715162613E+02  0.10177494313E+03  0.50000000000E+02 0.  0.
<mgrwt>
<rscale>  0 0.53278698E+02</rscale>
<asrwt>0</asrwt>
<pdfrwt beam="1">  1       13 0.10000000E+01 0.53278698E+02</pdfrwt>
<pdfrwt beam="2">  1       22 0.22240377E+00 0.53278698E+02</pdfrwt>
<totfact> 0.37117348E-01</totfact>
</mgrwt>
</event>
<event>
 4    1  0.2471347E+000  0.5800765E+02  0.7957747E-01  0.1406388E+00
         13   -1    0    0    0    0  0.00000000000E+00  0.00000000000E+00  0.99999944187E+02  0.10000000001E+03  0.10566000000E+00 0. -1.
         22   -1    0    0    0    0 -0.00000000000E+00 -0.00000000000E+00 -0.22911394759E+02  0.22911394759E+02  0.00000000000E+00 0. -1.
         13    1    1    2    0    0 -0.15868497274E+02 -0.24760421447E+02  0.41221024328E+01  0.29696642377E+02  0.10566000000E+00 0.  1.
        996    1    1    2    0    0  0.15868497274E+02  0.24760421447E+02  0.72966446994E+02  0.93214752389E+02  0.50000000000E+02 0.  0.
<mgrwt>
<rscale>  0 0.58007652E+02</rscale>
<asrwt>0</asrwt>
<pdfrwt beam="1">  1       13 0.10000000E+01 0.58007652E+02</pdfrwt>
<pdfrwt beam="2">  1       22 0.22911416E+00 0.58007652E+02</pdfrwt>
<totfact> 0.35298582E-01</totfact>
</mgrwt>
</event>
<event>
 4    1  0.2471347E+000  0.7726162E+02  0.7957747E-01  0.1337007E+00
         13   -1    0    0    0    0  0.00000000000E+00  0.00000000000E+00  0.99999944177E+02  0.99999999998E+02  0.10566000000E+00 0.  1.
         22   -1    0    0    0    0 -0.00000000000E+00 -0.00000000000E+00 -0.48929747806E+02  0.48929747806E+02  0.00000000000E+00 0. -1.
         13    1    1    2    0    0 -0.13483375299E+02  0.57337217958E+02  0.53258400204E+01  0.59141641071E+02  0.10566000000E+00 0. -1.
        996    1    1    2    0    0  0.13483375299E+02 -0.57337217958E+02  0.45744356351E+02  0.89788106732E+02  0.50000000000E+02 0.  0.
<mgrwt>
<rscale>  0 0.77261620E+02</rscale>
<asrwt>0</asrwt>
<pdfrwt beam="1">  1       13 0.10000000E+01 0.77261620E+02</pdfrwt>
<pdfrwt beam="2">  1       22 0.48929762E+00 0.77261620E+02</pdfrwt>
<totfact> 0.78892619E-02</totfact>
</mgrwt>
</event>
<event>
 4    1  0.2471347E+000  0.5220640E+02  0.7957747E-01  0.1433792E+00
         13   -1    0    0    0    0  0.00000000000E+00  0.00000000000E+00  0.99999944185E+02  0.10000000001E+03  0.10566000000E+00 0.  1.
         22   -1    0    0    0    0 -0.00000000000E+00 -0.00000000000E+00 -0.12251215057E+02  0.12251215057E+02  0.00000000000E+00 0.  1.
         13    1    1    2    0    0  0.14273446383E+02 -0.46666173648E+01  0.82250910980E+01  0.17122262610E+02  0.10566000000E+00 0. -1.
        996    1    1    2    0    0 -0.14273446383E+02  0.46666173648E+01  0.79523638030E+02  0.95128952453E+02  0.50000000000E+02 0.  0.
<mgrwt>
<rscale>  0 0.52206404E+02</rscale>
<asrwt>0</asrwt>
<pdfrwt beam="1">  1       13 0.10000000E+01 0.52206404E+02</pdfrwt>
<pdfrwt beam="2">  1       22 0.12251240E+00 0.52206404E+02</pdfrwt>
<totfact> 0.10417179E+00</totfact>
</mgrwt>
</event>
<event>
 4    1  0.2471347E+000  0.7921524E+02  0.7957747E-01  0.1331293E+00
         13   -1    0    0    0    0  0.00000000000E+00  0.00000000000E+00  0.99999944178E+02  0.99999999998E+02  0.10566000000E+00 0.  1.
         22   -1    0    0    0    0 -0.00000000000E+00 -0.00000000000E+00 -0.52440386279E+02  0.52440386279E+02  0.00000000000E+00 0. -1.
         13    1    1    2    0    0 -0.46741045177E+02  0.39878935745E+02  0.29147406967E+01  0.61510663285E+02  0.10566000000E+00 0. -1.
        996    1    1    2    0    0  0.46741045177E+02 -0.39878935745E+02  0.44644817202E+02  0.90929722992E+02  0.50000000000E+02 0.  0.
<mgrwt>
<rscale>  0 0.79215244E+02</rscale>
<asrwt>0</asrwt>
<pdfrwt beam="1">  1       13 0.10000000E+01 0.79215244E+02</pdfrwt>
<pdfrwt beam="2">  1       22 0.52440400E+00 0.79215244E+02</pdfrwt>
<totfact> 0.65414332E-02</totfact>
</mgrwt>
</event>
<event>
 4    1  0.2471347E+000  0.5109055E+02  0.7957747E-01  0.1439547E+00
         13   -1    0    0    0    0  0.00000000000E+00  0.00000000000E+00  0.99999944176E+02  0.99999999996E+02  0.10566000000E+00 0.  1.
         22   -1    0    0    0    0 -0.00000000000E+00 -0.00000000000E+00 -0.95068767673E+01  0.95068767673E+01  0.00000000000E+00 0.  1.
         13    1    1    2    0    0  0.78693048394E+01 -0.69511704433E+01  0.17542526917E+02  0.20444953995E+02  0.10566000000E+00 0. -1.
        996    1    1    2    0    0 -0.78693048394E+01  0.69511704433E+01  0.72950540492E+02  0.89061922769E+02  0.50000000000E+02 0.  0.
<mgrwt>
<rscale>  0 0.51090554E+02</rscale>
<asrwt>0</asrwt>
<pdfrwt beam="1">  1       13 0.10000000E+01 0.51090554E+02</pdfrwt>
<pdfrwt beam="2">  1       22 0.95069020E-01 0.51090554E+02</pdfrwt>
<totfact> 0.15128174E+00</totfact>
</mgrwt>
</event>
<event>
 4    1  0.2471347E+000  0.5165398E+02  0.7957747E-01  0.1436619E+00
         13   -1    0    0    0    0  0.00000000000E+00  0.00000000000E+00  0.99999944180E+02  0.10000000000E+03  0.10566000000E+00 0. -1.
         22   -1    0    0    0    0 -0.00000000000E+00 -0.00000000000E+00 -0.12840103869E+02  0.12840103869E+02  0.00000000000E+00 0.  1.
         13    1    1    2    0    0 -0.12765801582E+02 -0.22733606366E+01  0.18324042282E+01  0.13095905005E+02  0.10566000000E+00 0.  1.
        996    1    1    2    0    0  0.12765801582E+02  0.22733606366E+01  0.85327436082E+02  0.99744198864E+02  0.50000000000E+02 0.  0.
<mgrwt>
<rscale>  0 0.51653982E+02</rscale>
<asrwt>0</asrwt>
<pdfrwt beam="1">  1       13 0.10000000E+01 0.51653982E+02</pdfrwt>
<pdfrwt beam="2">  1       22 0.12840128E+00 0.51653982E+02</pdfrwt>
<totfact> 0.96718180E-01</totfact>
</mgrwt>
</event>
<event>
 4    1  0.2471347E+000  0.5188290E+02  0.7957747E-01  0.1435442E+00
         13   -1    0    0    0    0  0.00000000000E+00  0.00000000000E+00  0.99999944185E+02  0.10000000001E+03  0.10566000000E+00 0.  1.
         22   -1    0    0    0    0 -0.00000000000E+00 -0.00000000000E+00 -0.19733157915E+02  0.19733157915E+02  0.00000000000E+00 0.  1.
         13    1    1    2    0    0 -0.48021108268E+01  0.12991352078E+02  0.63820164098E+02  0.65305895651E+02  0.10566000000E+00 0. -1.
        996    1    1    2    0    0  0.48021108268E+01 -0.12991352078E+02  0.16446622172E+02  0.54427262269E+02  0.50000000000E+02 0.  0.
<mgrwt>
<rscale>  0 0.51882902E+02</rscale>
<asrwt>0</asrwt>
<pdfrwt beam="1">  1       13 0.10000000E+01 0.51882902E+02</pdfrwt>
<pdfrwt beam="2">  1       22 0.19733180E+00 0.51882902E+02</pdfrwt>
<totfact> 0.46444833E-01</totfact>
</mgrwt>
</event>
<event>
 4    1  0.2471347E+000  0.8115312E+02  0.7957747E-01  0.1325811E+00
         13   -1    0    0    0    0  0.00000000000E+00  0.00000000000E+00  0.99999944178E+02  0.99999999998E+02  0.10566000000E+00 0.  1.
         22   -1    0    0    0    0 -0.00000000000E+00 -0.00000000000E+00 -0.66439809356E+02  0.66439809356E+02  0.00000000000E+00 0. -1.
         13    1    1    2    0    0  0.56373958849E+02 -0.30129821667E+02 -0.22545889481E+02  0.67780216040E+02  0.10566000000E+00 0. -1.
        996    1    1    2    0    0 -0.56373958849E+02  0.30129821667E+02  0.56106024302E+02  0.98659593314E+02  0.50000000000E+02 0.  0.
<mgrwt>
<rscale>  0 0.81153123E+02</rscale>
<asrwt>0</asrwt>
<pdfrwt beam="1">  1       13 0.10000000E+01 0.81153123E+02</pdfrwt>
<pdfrwt beam="2">  1       22 0.66439819E+00 0.81153123E+02</pdfrwt>
<totfact> 0.87055044E-02</totfact>
</mgrwt>
</event>
<event>
 4    1  0.2471347E+000  0.5186977E+02  0.7957747E-01  0.1435510E+00
         13   -1    0    0    0    0  0.00000000000E+00  0.00000000000E+00  0.99999944182E+02  0.10000000000E+03  0.10566000000E+00 0.  1.
         22   -1    0    0    0    0 -0.00000000000E+00 -0.00000000000E+00 -0.37270492908E+02  0.37270492908E+02  0.00000000000E+00 0. -1.
         13    1    1    2    0    0 -0.20088769126E+01 -0.13654218977E+02 -0.28872870354E+02  0.32001985701E+02  0.10566000000E+00 0. -1.
        996    1    1    2    0    0  0.20088769126E+01  0.13654218977E+02  0.91602321628E+02  0.10526850721E+03  0.50000000000E+02 0.  0.
<mgrwt>
<rscale>  0 0.51869772E+02</rscale>
<asrwt>0</asrwt>
<pdfrwt beam="1">  1       13 0.10000000E+01 0.51869772E+02</pdfrwt>
<pdfrwt beam="2">  1       22 0.37270510E+00 0.51869772E+02</pdfrwt>
<totfact> 0.14072075E-01</totfact>
</mgrwt>
</event>
<event>
 4    1  0.2471347E+000  0.5779750E+02  0.7957747E-01  0.1407314E+00
         13   -1    0    0    0    0  0.00000000000E+00  0.00000000000E+00  0.99999944177E+02  0.99999999997E+02  0.10566000000E+00 0. -1.
         22   -1    0    0    0    0 -0.00000000000E+00 -0.00000000000E+00 -0.19776341174E+02  0.19776341174E+02  0.00000000000E+00 0. -1.
         13    1    1    2    0    0 -0.23280580563E+02  0.17279062078E+02  0.39821704937E+02  0.49257799035E+02  0.10566000000E+00 0.  1.
        996    1    1    2    0    0  0.23280580563E+02 -0.17279062078E+02  0.40401898065E+02  0.70518542136E+02  0.50000000000E+02 0.  0.
<mgrwt>
<rscale>  0 0.57797504E+02</rscale>
<asrwt>0</asrwt>
<pdfrwt beam="1">  1       13 0.10000000E+01 0.57797504E+02</pdfrwt>
<pdfrwt beam="2">  1       22 0.19776364E+00 0.57797504E+02</pdfrwt>
<totfact> 0.46725930E-01</totfact>
</mgrwt>
</event>
<event>
 4    1  0.2471347E+000  0.5140531E+02  0.7957747E-01  0.1437906E+00
         13   -1    0    0    0    0  0.00000000000E+00  0.00000000000E+00  0.99999944184E+02  0.10000000000E+03  0.10566000000E+00 0.  1.
         22   -1    0    0    0    0 -0.00000000000E+00 -0.00000000000E+00 -0.10051260193E+02  0.10051260193E+02  0.00000000000E+00 0.  1.
         13    1    1    2    0    0  0.69243074373E+01  0.97242131353E+01  0.15072320487E+02  0.19227385769E+02  0.10566000000E+00 0. -1.
        996    1    1    2    0    0 -0.69243074373E+01 -0.97242131353E+01  0.74876363504E+02  0.90823874429E+02  0.50000000000E+02 0.  0.
<mgrwt>
<rscale>  0 0.51405314E+02</rscale>
<asrwt>0</asrwt>
<pdfrwt beam="1">  1       13 0.10000000E+01 0.51405314E+02</pdfrwt>
<pdfrwt beam="2">  1       22 0.10051285E+00 0.51405314E+02</pdfrwt>
<totfact> 0.13973707E+00</totfact>
</mgrwt>
</event>
<event>
 4    1  0.2471347E+000  0.5106464E+02  0.7957747E-01  0.1439682E+00
         13   -1    0    0    0    0  0.00000000000E+00  0.00000000000E+00  0.99999944186E+02  0.10000000001E+03  0.10566000000E+00 0. -1.
         22   -1    0    0    0    0 -0.00000000000E+00 -0.00000000000E+00 -0.16181790035E+02  0.16181790035E+02  0.00000000000E+00 0.  1.
         13    1    1    2    0    0 -0.98858296452E+01 -0.31413544281E+01 -0.66321580621E+01  0.12312368578E+02  0.10566000000E+00 0.  1.
        996    1    1    2    0    0  0.98858296452E+01  0.31413544281E+01  0.90450312213E+02  0.10386942146E+03  0.50000000000E+02 0.  0.
<mgrwt>
<rscale>  0 0.51064643E+02</rscale>
<asrwt>0</asrwt>
<pdfrwt beam="1">  1       13 0.10000000E+01 0.51064643E+02</pdfrwt>
<pdfrwt beam="2">  1       22 0.16181813E+00 0.51064643E+02</pdfrwt>
<totfact> 0.66106460E-01</totfact>
</mgrwt>
</event>
<event>
 4    1  0.2471347E+000  0.5974904E+02  0.7957747E-01  0.1398888E+00
         13   -1    0    0    0    0  0.00000000000E+00  0.00000000000E+00  0.99999944185E+02  0.10000000001E+03  0.10566000000E+00 0.  1.
         22   -1    0    0    0    0 -0.00000000000E+00 -0.00000000000E+00 -0.63919577295E+02  0.63919577295E+02  0.00000000000E+00 0. -1.
         13    1    1    2    0    0 -0.32433928211E+02  0.42412087849E+01 -0.49629419307E+02  0.59439363858E+02  0.10566000000E+00 0. -1.
        996    1    1    2    0    0  0.32433928211E+02 -0.42412087849E+01  0.85709786196E+02  0.10448021344E+03  0.50000000000E+02 0.  0.
<mgrwt>
<rscale>  0 0.59749038E+02</rscale>
<asrwt>0</asrwt>
<pdfrwt beam="1">  1       13 0.10000000E+01 0.59749038E+02</pdfrwt>
<pdfrwt beam="2">  1       22 0.63919587E+00 0.59749038E+02</pdfrwt>
<totfact> 0.83059306E-02</totfact>
</mgrwt>
</event>
<event>
 4    1  0.2471347E+000  0.5203512E+02  0.7957747E-01  0.1434664E+00
         13   -1    0    0    0    0  0.00000000000E+00  0.00000000000E+00  0.99999944180E+02  0.10000000000E+03  0.10566000000E+00 0.  1.
         22   -1    0    0    0    0 -0.00000000000E+00 -0.00000000000E+00 -0.14411204909E+02  0.14411204909E+02  0.00000000000E+00 0. -1.
         13    1    1    2    0    0  0.45161050864E+01 -0.13684260003E+02  0.19433011511E+00  0.14411908451E+02  0.10566000000E+00 0. -1.
        996    1    1    2    0    0 -0.45161050864E+01  0.13684260003E+02  0.85394409156E+02  0.99999296458E+02  0.50000000000E+02 0.  0.
<mgrwt>
<rscale>  0 0.52035124E+02</rscale>
<asrwt>0</asrwt>
<pdfrwt beam="1">  1       13 0.10000000E+01 0.52035124E+02</pdfrwt>
<pdfrwt beam="2">  1       22 0.14411229E+00 0.52035124E+02</pdfrwt>
<totfact> 0.80447347E-01</totfact>
</mgrwt>
</event>
<event>
 4    1  0.2471347E+000  0.5546611E+02  0.7957747E-01  0.1417907E+00
         13   -1    0    0    0    0  0.00000000000E+00  0.00000000000E+00  0.99999944172E+02  0.99999999992E+02  0.10566000000E+00 0. -1.
         22   -1    0    0    0    0 -0.00000000000E+00 -0.00000000000E+00 -0.22714063006E+02  0.22714063006E+02  0.00000000000E+00 0.  1.
         13    1    1    2    0    0 -0.14896081607E+02 -0.18830731693E+02 -0.39656368142E+01  0.24335717427E+02  0.10566000000E+00 0.  1.
        996    1    1    2    0    0  0.14896081607E+02  0.18830731693E+02  0.81251517980E+02  0.98378345571E+02  0.50000000000E+02 0.  0.
<mgrwt>
<rscale>  0 0.55466113E+02</rscale>
<asrwt>0</asrwt>
<pdfrwt beam="1">  1       13 0.10000000E+01 0.55466113E+02</pdfrwt>
<pdfrwt beam="2">  1       22 0.22714085E+00 0.55466113E+02</pdfrwt>
<totfact> 0.35759038E-01</totfact>
</mgrwt>
</event>
<event>
 4    1  0.2471347E+000  0.5657692E+02  0.7957747E-01  0.1412785E+00
         13   -1    0    0    0    0  0.00000000000E+00  0.00000000000E+00  0.99999944187E+02  0.10000000001E+03  0.10566000000E+00 0.  1.
         22   -1    0    0    0    0 -0.00000000000E+00 -0.00000000000E+00 -0.26790469320E+02  0.26790469320E+02  0.00000000000E+00 0. -1.
         13    1    1    2    0    0  0.26468547852E+02  0.60357892438E+00 -0.81422148238E+01  0.27699371097E+02  0.10566000000E+00 0. -1.
        996    1    1    2    0    0 -0.26468547852E+02 -0.60357892438E+00  0.81351689691E+02  0.99091098230E+02  0.50000000000E+02 0.  0.
<mgrwt>
<rscale>  0 0.56576924E+02</rscale>
<asrwt>0</asrwt>
<pdfrwt beam="1">  1       13 0.10000000E+01 0.56576924E+02</pdfrwt>
<pdfrwt beam="2">  1       22 0.26790490E+00 0.56576924E+02</pdfrwt>
<totfact> 0.25899362E-01</totfact>
</mgrwt>
</event>
<event>
 4    1  0.2471347E+000  0.5327602E+02  0.7957747E-01  0.1428432E+00
         13   -1    0    0    0    0  0.00000000000E+00  0.00000000000E+00  0.99999944171E+02  0.99999999991E+02  0.10566000000E+00 0.  1.
         22   -1    0    0    0    0 -0.00000000000E+00 -0.00000000000E+00 -0.20549028081E+02  0.20549028081E+02  0.00000000000E+00 0. -1.
         13    1    1    2    0    0  0.74301554393E+01  0.16826371850E+02 -0.64297617766E+01  0.19485558756E+02  0.10566000000E+00 0. -1.
        996    1    1    2    0    0 -0.74301554393E+01 -0.16826371850E+02  0.85880677866E+02  0.10106346932E+03  0.50000000000E+02 0.  0.
<mgrwt>
<rscale>  0 0.53276017E+02</rscale>
<asrwt>0</asrwt>
<pdfrwt beam="1">  1       13 0.10000000E+01 0.53276017E+02</pdfrwt>
<pdfrwt beam="2">  1       22 0.20549050E+00 0.53276017E+02</pdfrwt>
<totfact> 0.43161795E-01</totfact>
</mgrwt>
</event>
<event>
 4    1  0.2471347E+000  0.5219576E+02  0.7957747E-01  0.1433846E+00
         13   -1    0    0    0    0  0.00000000000E+00  0.00000000000E+00  0.99999944180E+02  0.10000000000E+03  0.10566000000E+00 0.  1.
         22   -1    0    0    0    0 -0.00000000000E+00 -0.00000000000E+00 -0.11288908038E+02  0.11288908038E+02  0.00000000000E+00 0. -1.
         13    1    1    2    0    0 -0.14974706871E+02  0.39453591054E+00  0.18613810063E+02  0.23893149511E+02  0.10566000000E+00 0. -1.
        996    1    1    2    0    0  0.14974706871E+02 -0.39453591054E+00  0.70097226079E+02  0.87395758527E+02  0.50000000000E+02 0.  0.
<mgrwt>
<rscale>  0 0.52195761E+02</rscale>
<asrwt>0</asrwt>
<pdfrwt beam="1">  1       13 0.10000000E+01 0.52195761E+02</pdfrwt>
<pdfrwt beam="2">  1       22 0.11288933E+00 0.52195761E+02</pdfrwt>
<totfact> 0.11796902E+00</totfact>
</mgrwt>
</event>
<event>
 4    1  0.2471347E+000  0.5157555E+02  0.7957747E-01  0.1437024E+00
         13   -1    0    0    0    0  0.00000000000E+00  0.00000000000E+00  0.99999944174E+02  0.99999999994E+02  0.10566000000E+00 0. -1.
         22   -1    0    0    0    0 -0.00000000000E+00 -0.00000000000E+00 -0.32156486738E+02  0.32156486738E+02  0.00000000000E+00 0.  1.
         13    1    1    2    0    0 -0.65138174043E+01 -0.10844680227E+02 -0.23824709329E+02  0.26975263577E+02  0.10566000000E+00 0.  1.
        996    1    1    2    0    0  0.65138174043E+01  0.10844680227E+02  0.91668166765E+02  0.10518122316E+03  0.50000000000E+02 0.  0.
<mgrwt>
<rscale>  0 0.51575546E+02</rscale>
<asrwt>0</asrwt>
<pdfrwt beam="1">  1       13 0.10000000E+01 0.51575546E+02</pdfrwt>
<pdfrwt beam="2">  1       22 0.32156506E+00 0.51575546E+02</pdfrwt>
<totfact> 0.18228903E-01</totfact>
</mgrwt>
</event>
<event>
 4    1  0.2471347E+000  0.5118514E+02  0.7957747E-01  0.1439052E+00
         13   -1    0    0    0    0  0.00000000000E+00  0.00000000000E+00  0.99999944181E+02  0.10000000000E+03  0.10566000000E+00 0.  1.
         22   -1    0    0    0    0 -0.00000000000E+00 -0.00000000000E+00 -0.96594280866E+01  0.96594280866E+01  0.00000000000E+00 0.  1.
         13    1    1    2    0    0  0.81576804232E+01 -0.73055582569E+01  0.14808833728E+02  0.18418242363E+02  0.10566000000E+00 0. -1.
        996    1    1    2    0    0 -0.81576804232E+01  0.73055582569E+01  0.75531682367E+02  0.91241185725E+02  0.50000000000E+02 0.  0.
<mgrwt>
<rscale>  0 0.51185144E+02</rscale>
<asrwt>0</asrwt>
<pdfrwt beam="1">  1       13 0.10000000E+01 0.51185144E+02</pdfrwt>
<pdfrwt beam="2">  1       22 0.96594533E-01 0.51185144E+02</pdfrwt>
<totfact> 0.14790697E+00</totfact>
</mgrwt>
</event>
<event>
 4    1  0.2471347E+000  0.5300357E+02  0.7957747E-01  0.1429783E+00
         13   -1    0    0    0    0  0.00000000000E+00  0.00000000000E+00  0.99999944175E+02  0.99999999995E+02  0.10566000000E+00 0.  1.
         22   -1    0    0    0    0 -0.00000000000E+00 -0.00000000000E+00 -0.14008249318E+02  0.14008249318E+02  0.00000000000E+00 0.  1.
         13    1    1    2    0    0  0.17587248339E+02 -0.25894710933E+00  0.71081013945E+01  0.18971416057E+02  0.10566000000E+00 0. -1.
        996    1    1    2    0    0 -0.17587248339E+02  0.25894710933E+00  0.78883593462E+02  0.95036833256E+02  0.50000000000E+02 0.  0.
<mgrwt>
<rscale>  0 0.53003569E+02</rscale>
<asrwt>0</asrwt>
<pdfrwt beam="1">  1       13 0.10000000E+01 0.53003569E+02</pdfrwt>
<pdfrwt beam="2">  1       22 0.14008273E+00 0.53003569E+02</pdfrwt>
<totfact> 0.84423183E-01</totfact>
</mgrwt>
</event>
<event>
 4    1  0.2471347E+000  0.5555624E+02  0.7957747E-01  0.1417487E+00
         13   -1    0    0    0    0  0.00000000000E+00  0.00000000000E+00  0.99999944179E+02  0.99999999999E+02  0.10566000000E+00 0.  1.
         22   -1    0    0    0    0 -0.00000000000E+00 -0.00000000000E+00 -0.39799590509E+02  0.39799590509E+02  0.00000000000E+00 0. -1.
         13    1    1    2    0    0  0.99438866660E+01  0.22082001428E+02 -0.27085175848E+02  0.36333367362E+02  0.10566000000E+00 0. -1.
        996    1    1    2    0    0 -0.99438866660E+01 -0.22082001428E+02  0.87285529517E+02  0.10346622315E+03  0.50000000000E+02 0.  0.
<mgrwt>
<rscale>  0 0.55556239E+02</rscale>
<asrwt>0</asrwt>
<pdfrwt beam="1">  1       13 0.10000000E+01 0.55556239E+02</pdfrwt>
<pdfrwt beam="2">  1       22 0.39799607E+00 0.55556239E+02</pdfrwt>
<totfact> 0.12519996E-01</totfact>
</mgrwt>
</event>
<event>
 4    1  0.2471347E+000  0.5109738E+02  0.7957747E-01  0.1439511E+00
         13   -1    0    0    0    0  0.00000000000E+00  0.00000000000E+00  0.99999944177E+02  0.99999999997E+02  0.10566000000E+00 0. -1.
         22   -1    0    0    0    0 -0.00000000000E+00 -0.00000000000E+00 -0.10134556389E+02  0.10134556389E+02  0.00000000000E+00 0. -1.
         13    1    1    2    0    0  0.55613210747E+01  0.89450555434E+01  0.65675183102E+01  0.12413129000E+02  0.10566000000E+00 0.  1.
        996    1    1    2    0    0 -0.55613210747E+01 -0.89450555434E+01  0.83297869478E+02  0.97721427386E+02  0.50000000000E+02 0.  0.
<mgrwt>
<rscale>  0 0.51097381E+02</rscale>
<asrwt>0</asrwt>
<pdfrwt beam="1">  1       13 0.10000000E+01 0.51097381E+02</pdfrwt>
<pdfrwt beam="2">  1       22 0.10134581E+00 0.51097381E+02</pdfrwt>
<totfact> 0.13796999E+00</totfact>
</mgrwt>
</event>
<event>
 4    1  0.2471347E+000  0.5118524E+02  0.7957747E-01  0.1439052E+00
         13   -1    0    0    0    0  0.00000000000E+00  0.00000000000E+00  0.99999944179E+02  0.10000000000E+03  0.10566000000E+00 0.  1.
         22   -1    0    0    0    0 -0.00000000000E+00 -0.00000000000E+00 -0.32122127451E+02  0.32122127451E+02  0.00000000000E+00 0. -1.
         13    1    1    2    0    0 -0.90154168824E+01 -0.62170104713E+01 -0.24318236157E+02  0.26670521828E+02  0.10566000000E+00 0. -1.
        996    1    1    2    0    0  0.90154168824E+01  0.62170104713E+01  0.92196052885E+02  0.10545160562E+03  0.50000000000E+02 0.  0.
<mgrwt>
<rscale>  0 0.51185242E+02</rscale>
<asrwt>0</asrwt>
<pdfrwt beam="1">  1       13 0.10000000E+01 0.51185242E+02</pdfrwt>
<pdfrwt beam="2">  1       22 0.32122146E+00 0.51185242E+02</pdfrwt>
<totfact> 0.18255106E-01</totfact>
</mgrwt>
</event>
<event>
 4    1  0.2471347E+000  0.5295818E+02  0.7957747E-01  0.1430009E+00
         13   -1    0    0    0    0  0.00000000000E+00  0.00000000000E+00  0.99999944182E+02  0.10000000000E+03  0.10566000000E+00 0.  1.
         22   -1    0    0    0    0 -0.00000000000E+00 -0.00000000000E+00 -0.14153720497E+02  0.14153720497E+02  0.00000000000E+00 0.  1.
         13    1    1    2    0    0  0.11506846381E+01  0.17413934866E+02  0.62256126731E+01  0.18529398799E+02  0.10566000000E+00 0. -1.
        996    1    1    2    0    0 -0.11506846381E+01 -0.17413934866E+02  0.79620611012E+02  0.95624321700E+02  0.50000000000E+02 0.  0.
<mgrwt>
<rscale>  0 0.52958184E+02</rscale>
<asrwt>0</asrwt>
<pdfrwt beam="1">  1       13 0.10000000E+01 0.52958184E+02</pdfrwt>
<pdfrwt beam="2">  1       22 0.14153744E+00 0.52958184E+02</pdfrwt>
<totfact> 0.83009917E-01</totfact>
</mgrwt>
</event>
<event>
 4    1  0.2471347E+000  0.5899741E+02  0.7957747E-01  0.1402088E+00
         13   -1    0    0    0    0  0.00000000000E+00  0.00000000000E+00  0.99999944173E+02  0.99999999994E+02  0.10566000000E+00 0. -1.
         22   -1    0    0    0    0 -0.00000000000E+00 -0.00000000000E+00 -0.38645229971E+02  0.38645229971E+02  0.00000000000E+00 0.  1.
         13    1    1    2    0    0 -0.29891497063E+02 -0.93377117642E+01 -0.20731729648E+02  0.37556760189E+02  0.10566000000E+00 0.  1.
        996    1    1    2    0    0  0.29891497063E+02  0.93377117642E+01  0.82086443850E+02  0.10108846978E+03  0.50000000000E+02 0.  0.
<mgrwt>
<rscale>  0 0.58997411E+02</rscale>
<asrwt>0</asrwt>
<pdfrwt beam="1">  1       13 0.10000000E+01 0.58997411E+02</pdfrwt>
<pdfrwt beam="2">  1       22 0.38645247E+00 0.58997411E+02</pdfrwt>
<totfact> 0.13259664E-01</totfact>
</mgrwt>
</event>
<event>
 4    1  0.2471347E+000  0.5164033E+02  0.7957747E-01  0.1436690E+00
         13   -1    0    0    0    0  0.00000000000E+00  0.00000000000E+00  0.99999944176E+02  0.99999999997E+02  0.10566000000E+00 0.  1.
         22   -1    0    0    0    0 -0.00000000000E+00 -0.00000000000E+00 -0.62313879847E+02  0.62313879847E+02  0.00000000000E+00 0.  1.
         13    1    1    2    0    0 -0.11960641519E+02 -0.48648849788E+01 -0.54846980806E+02  0.56346486305E+02  0.10566000000E+00 0. -1.
        996    1    1    2    0    0  0.11960641519E+02  0.48648849788E+01  0.92533045135E+02  0.10596739354E+03  0.50000000000E+02 0.  0.
<mgrwt>
<rscale>  0 0.51640334E+02</rscale>
<asrwt>0</asrwt>
<pdfrwt beam="1">  1       13 0.10000000E+01 0.51640334E+02</pdfrwt>
<pdfrwt beam="2">  1       22 0.62313890E+00 0.51640334E+02</pdfrwt>
<totfact> 0.74762056E-02</totfact>
</mgrwt>
</event>
<event>
 4    1  0.2471347E+000  0.5707066E+02  0.7957747E-01  0.1410553E+00
         13   -1    0    0    0    0  0.00000000000E+00  0.00000000000E+00  0.99999944181E+02  0.10000000000E+03  0.10566000000E+00 0. -1.
         22   -1    0    0    0    0 -0.00000000000E+00 -0.00000000000E+00 -0.22678000653E+02  0.22678000653E+02  0.00000000000E+00 0.  1.
         13    1    1    2    0    0 -0.26401621850E+02  0.77469407211E+01  0.12040303935E+01  0.27541270487E+02  0.10566000000E+00 0.  1.
        996    1    1    2    0    0  0.26401621850E+02 -0.77469407211E+01  0.76117913134E+02  0.95136730166E+02  0.50000000000E+02 0.  0.
<mgrwt>
<rscale>  0 0.57070664E+02</rscale>
<asrwt>0</asrwt>
<pdfrwt beam="1">  1       13 0.10000000E+01 0.57070664E+02</pdfrwt>
<pdfrwt beam="2">  1       22 0.22678022E+00 0.57070664E+02</pdfrwt>
<totfact> 0.35958184E-01</totfact>
</mgrwt>
</event>
<event>
 4    1  0.2471347E+000  0.5881930E+02  0.7957747E-01  0.1402854E+00
         13   -1    0    0    0    0  0.00000000000E+00  0.00000000000E+00  0.99999944177E+02  0.99999999997E+02  0.10566000000E+00 0.  1.
         22   -1    0    0    0    0 -0.00000000000E+00 -0.00000000000E+00 -0.30397901947E+02  0.30397901947E+02  0.00000000000E+00 0. -1.
         13    1    1    2    0    0  0.26022503765E+02  0.16808916576E+02 -0.89670218365E+01  0.32251031353E+02  0.10566000000E+00 0. -1.
        996    1    1    2    0    0 -0.26022503765E+02 -0.16808916576E+02  0.78569064066E+02  0.98146870591E+02  0.50000000000E+02 0.  0.
<mgrwt>
<rscale>  0 0.58819303E+02</rscale>
<asrwt>0</asrwt>
<pdfrwt beam="1">  1       13 0.10000000E+01 0.58819303E+02</pdfrwt>
<pdfrwt beam="2">  1       22 0.30397921E+00 0.58819303E+02</pdfrwt>
<totfact> 0.20369698E-01</totfact>
</mgrwt>
</event>
<event>
 4    1  0.2471347E+000  0.5103663E+02  0.7957747E-01  0.1439829E+00
         13   -1    0    0    0    0  0.00000000000E+00  0.00000000000E+00  0.99999944182E+02  0.10000000000E+03  0.10566000000E+00 0. -1.
         22   -1    0    0    0    0 -0.00000000000E+00 -0.00000000000E+00 -0.94816332433E+01  0.94816332433E+01  0.00000000000E+00 0. -1.
         13    1    1    2    0    0 -0.51854579979E+01  0.88231909823E+01  0.11295390002E+02  0.15242528435E+02  0.10566000000E+00 0.  1.
        996    1    1    2    0    0  0.51854579979E+01 -0.88231909823E+01  0.79222920936E+02  0.94239104810E+02  0.50000000000E+02 0.  0.
<mgrwt>
<rscale>  0 0.51036631E+02</rscale>
<asrwt>0</asrwt>
<pdfrwt beam="1">  1       13 0.10000000E+01 0.51036631E+02</pdfrwt>
<pdfrwt beam="2">  1       22 0.94816585E-01 0.51036631E+02</pdfrwt>
<totfact> 0.15183702E+00</totfact>
</mgrwt>
</event>
<event>
 4    1  0.2471347E+000  0.5173256E+02  0.7957747E-01  0.1436215E+00
         13   -1    0    0    0    0  0.00000000000E+00  0.00000000000E+00  0.99999944186E+02  0.10000000001E+03  0.10566000000E+00 0.  1.
         22   -1    0    0    0    0 -0.00000000000E+00 -0.00000000000E+00 -0.10620173357E+02  0.10620173357E+02  0.00000000000E+00 0.  1.
         13    1    1    2    0    0 -0.81689450445E+01  0.10465452165E+02  0.15184542819E+02  0.20170246821E+02  0.10566000000E+00 0. -1.
        996    1    1    2    0    0  0.81689450445E+01 -0.10465452165E+02  0.74195228009E+02  0.90449926542E+02  0.50000000000E+02 0.  0.
<mgrwt>
<rscale>  0 0.51732556E+02</rscale>
<asrwt>0</asrwt>
<pdfrwt beam="1">  1       13 0.10000000E+01 0.51732556E+02</pdfrwt>
<pdfrwt beam="2">  1       22 0.10620198E+00 0.51732556E+02</pdfrwt>
<totfact> 0.12903619E+00</totfact>
</mgrwt>
</event>
<event>
 4    1  0.2471347E+000  0.5355816E+02  0.7957747E-01  0.1427043E+00
         13   -1    0    0    0    0  0.00000000000E+00  0.00000000000E+00  0.99999944188E+02  0.10000000001E+03  0.10566000000E+00 0. -1.
         22   -1    0    0    0    0 -0.00000000000E+00 -0.00000000000E+00 -0.17266970921E+02  0.17266970921E+02  0.00000000000E+00 0. -1.
         13    1    1    2    0    0  0.13273596108E+02  0.13866785001E+02  0.58880545239E+00  0.19205049747E+02  0.10566000000E+00 0.  1.
        996    1    1    2    0    0 -0.13273596108E+02 -0.13866785001E+02  0.82144167815E+02  0.98061921182E+02  0.50000000000E+02 0.  0.
<mgrwt>
<rscale>  0 0.53558156E+02</rscale>
<asrwt>0</asrwt>
<pdfrwt beam="1">  1       13 0.10000000E+01 0.53558156E+02</pdfrwt>
<pdfrwt beam="2">  1       22 0.17266994E+00 0.53558156E+02</pdfrwt>
<totfact> 0.59330692E-01</totfact>
</mgrwt>
</event>
<event>
 4    1  0.2471347E+000  0.6163709E+02  0.7957747E-01  0.1391087E+00
         13   -1    0    0    0    0  0.00000000000E+00  0.00000000000E+00  0.99999944181E+02  0.10000000000E+03  0.10566000000E+00 0.  1.
         22   -1    0    0    0    0 -0.00000000000E+00 -0.00000000000E+00 -0.28086739141E+02  0.28086739141E+02  0.00000000000E+00 0. -1.
         13    1    1    2    0    0 -0.11693198168E+02  0.34093992354E+02  0.38285510361E+01  0.36246381407E+02  0.10566000000E+00 0. -1.
        996    1    1    2    0    0  0.11693198168E+02 -0.34093992354E+02  0.68084654004E+02  0.91840357735E+02  0.50000000000E+02 0.  0.
<mgrwt>
<rscale>  0 0.61637093E+02</rscale>
<asrwt>0</asrwt>
<pdfrwt beam="1">  1       13 0.10000000E+01 0.61637093E+02</pdfrwt>
<pdfrwt beam="2">  1       22 0.28086759E+00 0.61637093E+02</pdfrwt>
<totfact> 0.23764680E-01</totfact>
</mgrwt>
</event>
<event>
 4    1  0.2471347E+000  0.5709880E+02  0.7957747E-01  0.1410426E+00
         13   -1    0    0    0    0  0.00000000000E+00  0.00000000000E+00  0.99999944185E+02  0.10000000000E+03  0.10566000000E+00 0. -1.
         22   -1    0    0    0    0 -0.00000000000E+00 -0.00000000000E+00 -0.19571476890E+02  0.19571476890E+02  0.00000000000E+00 0. -1.
         13    1    1    2    0    0 -0.26493992297E+02  0.76381314326E+01  0.11017486371E+02  0.29692909079E+02  0.10566000000E+00 0.  1.
        996    1    1    2    0    0  0.26493992297E+02 -0.76381314326E+01  0.69410980924E+02  0.89878567815E+02  0.50000000000E+02 0.  0.
<mgrwt>
<rscale>  0 0.57098798E+02</rscale>
<asrwt>0</asrwt>
<pdfrwt beam="1">  1       13 0.10000000E+01 0.57098798E+02</pdfrwt>
<pdfrwt beam="2">  1       22 0.19571499E+00 0.57098798E+02</pdfrwt>
<totfact> 0.47585267E-01</totfact>
</mgrwt>
</event>
<event>
 4    1  0.2471347E+000  0.5332155E+02  0.7957747E-01  0.1428207E+00
         13   -1    0    0    0    0  0.00000000000E+00  0.00000000000E+00  0.99999944176E+02  0.99999999996E+02  0.10566000000E+00 0.  1.
         22   -1    0    0    0    0 -0.00000000000E+00 -0.00000000000E+00 -0.17938253128E+02  0.17938253128E+02  0.00000000000E+00 0. -1.
         13    1    1    2    0    0  0.49072227738E+01  0.17863556350E+02 -0.17440600342E+01  0.18607535846E+02  0.10566000000E+00 0. -1.
        996    1    1    2    0    0 -0.49072227738E+01 -0.17863556350E+02  0.83805751081E+02  0.99330717279E+02  0.50000000000E+02 0.  0.
<mgrwt>
<rscale>  0 0.53321548E+02</rscale>
<asrwt>0</asrwt>
<pdfrwt beam="1">  1       13 0.10000000E+01 0.53321548E+02</pdfrwt>
<pdfrwt beam="2">  1       22 0.17938276E+00 0.53321548E+02</pdfrwt>
<totfact> 0.55416205E-01</totfact>
</mgrwt>
</event>
<event>
 4    1  0.2471347E+000  0.5820803E+02  0.7957747E-01  0.1405509E+00
         13   -1    0    0    0    0  0.00000000000E+00  0.00000000000E+00  0.99999944174E+02  0.99999999994E+02  0.10566000000E+00 0. -1.
         22   -1    0    0    0    0 -0.00000000000E+00 -0.00000000000E+00 -0.23884472383E+02  0.23884472383E+02  0.00000000000E+00 0. -1.
         13    1    1    2    0    0  0.62139750113E+01  0.29147236614E+02  0.23160708535E+01  0.29892310649E+02  0.10566000000E+00 0.  1.
        996    1    1    2    0    0 -0.62139750113E+01 -0.29147236614E+02  0.73799400937E+02  0.93992161728E+02  0.50000000000E+02 0.  0.
<mgrwt>
<rscale>  0 0.58208031E+02</rscale>
<asrwt>0</asrwt>
<pdfrwt beam="1">  1       13 0.10000000E+01 0.58208031E+02</pdfrwt>
<pdfrwt beam="2">  1       22 0.23884494E+00 0.58208031E+02</pdfrwt>
<totfact> 0.32549495E-01</totfact>
</mgrwt>
</event>
<event>
 4    1  0.2471347E+000  0.5130650E+02  0.7957747E-01  0.1438419E+00
         13   -1    0    0    0    0  0.00000000000E+00  0.00000000000E+00  0.99999944187E+02  0.10000000001E+03  0.10566000000E+00 0. -1.
         22   -1    0    0    0    0 -0.00000000000E+00 -0.00000000000E+00 -0.21369622640E+02  0.21369622640E+02  0.00000000000E+00 0.  1.
         13    1    1    2    0    0  0.85930338063E+01  0.76496329768E+01 -0.12375601111E+02  0.16897448967E+02  0.10566000000E+00 0.  1.
        996    1    1    2    0    0 -0.85930338063E+01 -0.76496329768E+01  0.91005922659E+02  0.10447217368E+03  0.50000000000E+02 0.  0.
<mgrwt>
<rscale>  0 0.51306502E+02</rscale>
<asrwt>0</asrwt>
<pdfrwt beam="1">  1       13 0.10000000E+01 0.51306502E+02</pdfrwt>
<pdfrwt beam="2">  1       22 0.21369645E+00 0.51306502E+02</pdfrwt>
<totfact> 0.39937552E-01</totfact>
</mgrwt>
</event>
<event>
 4    1  0.2471347E+000  0.5103248E+02  0.7957747E-01  0.1439851E+00
         13   -1    0    0    0    0  0.00000000000E+00  0.00000000000E+00  0.99999944187E+02  0.10000000001E+03  0.10566000000E+00 0.  1.
         22   -1    0    0    0    0 -0.00000000000E+00 -0.00000000000E+00 -0.22647516492E+02  0.22647516492E+02  0.00000000000E+00 0. -1.
         13    1    1    2    0    0  0.84196022934E+01  0.57813475055E+01 -0.14401948153E+02  0.17656187482E+02  0.10566000000E+00 0. -1.
        996    1    1    2    0    0 -0.84196022934E+01 -0.57813475055E+01  0.91754375847E+02  0.10499132902E+03  0.50000000000E+02 0.  0.
<mgrwt>
<rscale>  0 0.51032477E+02</rscale>
<asrwt>0</asrwt>
<pdfrwt beam="1">  1       13 0.10000000E+01 0.51032477E+02</pdfrwt>
<pdfrwt beam="2">  1       22 0.22647538E+00 0.51032477E+02</pdfrwt>
<totfact> 0.35703389E-01</totfact>
</mgrwt>
</event>
<event>
 4    1  0.2471347E+000  0.5115662E+02  0.7957747E-01  0.1439201E+00
         13   -1    0    0    0    0  0.00000000000E+00  0.00000000000E+00  0.99999944180E+02  0.10000000000E+03  0.10566000000E+00 0. -1.
         22   -1    0    0    0    0 -0.00000000000E+00 -0.00000000000E+00 -0.10304957084E+02  0.10304957084E+02  0.00000000000E+00 0. -1.
         13    1    1    2    0    0  0.95133290390E+01 -0.51474808680E+01  0.64399821772E+01  0.12589063634E+02  0.10566000000E+00 0.  1.
        996    1    1    2    0    0 -0.95133290390E+01  0.51474808680E+01  0.83255004919E+02  0.97715893450E+02  0.50000000000E+02 0.  0.
<mgrwt>
<rscale>  0 0.51156622E+02</rscale>
<asrwt>0</asrwt>
<pdfrwt beam="1">  1       13 0.10000000E+01 0.51156622E+02</pdfrwt>
<pdfrwt beam="2">  1       22 0.10304982E+00 0.51156622E+02</pdfrwt>
<totfact> 0.13467922E+00</totfact>
</mgrwt>
</event>
<event>
 4    1  0.2471347E+000  0.5116660E+02  0.7957747E-01  0.1439149E+00
         13   -1    0    0    0    0  0.00000000000E+00  0.00000000000E+00  0.99999944186E+02  0.10000000001E+03  0.10566000000E+00 0.  1.
         22   -1    0    0    0    0 -0.00000000000E+00 -0.00000000000E+00 -0.40610280757E+02  0.40610280757E+02  0.00000000000E+00 0. -1.
         13    1    1    2    0    0  0.32326019581E+01 -0.10371667737E+02 -0.33140284711E+02  0.34875648264E+02  0.10566000000E+00 0. -1.
        996    1    1    2    0    0 -0.32326019581E+01  0.10371667737E+02  0.92529948140E+02  0.10573463250E+03  0.50000000000E+02 0.  0.
<mgrwt>
<rscale>  0 0.51166602E+02</rscale>
<asrwt>0</asrwt>
<pdfrwt beam="1">  1       13 0.10000000E+01 0.51166602E+02</pdfrwt>
<pdfrwt beam="2">  1       22 0.40610297E+00 0.51166602E+02</pdfrwt>
<totfact> 0.12006038E-01</totfact>
</mgrwt>
</event>
<event>
 4    1  0.2471347E+000  0.5356352E+02  0.7957747E-01  0.1427017E+00
         13   -1    0    0    0    0  0.00000000000E+00  0.00000000000E+00  0.99999944183E+02  0.10000000000E+03  0.10566000000E+00 0.  1.
         22   -1    0    0    0    0 -0.00000000000E+00 -0.00000000000E+00 -0.17034969731E+02  0.17034969731E+02  0.00000000000E+00 0. -1.
         13    1    1    2    0    0  0.18829029701E+02 -0.38103255361E+01  0.11495846207E+01  0.19245353959E+02  0.10566000000E+00 0. -1.
        996    1    1    2    0    0 -0.18829029701E+02  0.38103255361E+01  0.81815389832E+02  0.97789615775E+02  0.50000000000E+02 0.  0.
<mgrwt>
<rscale>  0 0.53563522E+02</rscale>
<asrwt>0</asrwt>
<pdfrwt beam="1">  1       13 0.10000000E+01 0.53563522E+02</pdfrwt>
<pdfrwt beam="2">  1       22 0.17034993E+00 0.53563522E+02</pdfrwt>
<totfact> 0.60760590E-01</totfact>
</mgrwt>
</event>
<event>
 4    1  0.2471347E+000  0.5142754E+02  0.7957747E-01  0.1437790E+00
         13   -1    0    0    0    0  0.00000000000E+00  0.00000000000E+00  0.99999944179E+02  0.99999999999E+02  0.10566000000E+00 0.  1.
         22   -1    0    0    0    0 -0.00000000000E+00 -0.00000000000E+00 -0.10427283024E+02  0.10427283024E+02  0.00000000000E+00 0.  1.
         13    1    1    2    0    0 -0.11477791167E+02 -0.36127143002E+01  0.26061256151E+02  0.28705254413E+02  0.10566000000E+00 0. -1.
        996    1    1    2    0    0  0.11477791167E+02  0.36127143002E+01  0.63511405004E+02  0.81722028611E+02  0.50000000000E+02 0.  0.
<mgrwt>
<rscale>  0 0.51427535E+02</rscale>
<asrwt>0</asrwt>
<pdfrwt beam="1">  1       13 0.10000000E+01 0.51427535E+02</pdfrwt>
<pdfrwt beam="2">  1       22 0.10427308E+00 0.51427535E+02</pdfrwt>
<totfact> 0.13246124E+00</totfact>
</mgrwt>
</event>
<event>
 4    1  0.2471347E+000  0.5365929E+02  0.7957747E-01  0.1426548E+00
         13   -1    0    0    0    0  0.00000000000E+00  0.00000000000E+00  0.99999944183E+02  0.10000000000E+03  0.10566000000E+00 0. -1.
         22   -1    0    0    0    0 -0.00000000000E+00 -0.00000000000E+00 -0.27715686138E+02  0.27715686138E+02  0.00000000000E+00 0.  1.
         13    1    1    2    0    0  0.93291376516E+01  0.17096395328E+02 -0.15458624985E+02  0.24865634780E+02  0.10566000000E+00 0.  1.
        996    1    1    2    0    0 -0.93291376516E+01 -0.17096395328E+02  0.87742883030E+02  0.10285005136E+03  0.50000000000E+02 0.  0.
<mgrwt>
<rscale>  0 0.53659291E+02</rscale>
<asrwt>0</asrwt>
<pdfrwt beam="1">  1       13 0.10000000E+01 0.53659291E+02</pdfrwt>
<pdfrwt beam="2">  1       22 0.27715706E+00 0.53659291E+02</pdfrwt>
<totfact> 0.24139275E-01</totfact>
</mgrwt>
</event>
<event>
 4    1  0.2471347E+000  0.5188291E+02  0.7957747E-01  0.1435442E+00
         13   -1    0    0    0    0  0.00000000000E+00  0.00000000000E+00  0.99999944183E+02  0.10000000000E+03  0.10566000000E+00 0. -1.
         22   -1    0    0    0    0 -0.00000000000E+00 -0.00000000000E+00 -0.10840741206E+02  0.10840741206E+02  0.00000000000E+00 0. -1.
         13    1    1    2    0    0 -0.13827092843E+02  0.80474375986E+00  0.16184469524E+02  0.21302214130E+02  0.10566000000E+00 0.  1.
        996    1    1    2    0    0  0.13827092843E+02 -0.80474375986E+00  0.72974733453E+02  0.89538527080E+02  0.50000000000E+02 0.  0.
<mgrwt>
<rscale>  0 0.51882908E+02</rscale>
<asrwt>0</asrwt>
<pdfrwt beam="1">  1       13 0.10000000E+01 0.51882908E+02</pdfrwt>
<pdfrwt beam="2">  1       22 0.10840766E+00 0.51882908E+02</pdfrwt>
<totfact> 0.12522141E+00</totfact>
</mgrwt>
</event>
<event>
 4    1  0.2471347E+000  0.5386492E+02  0.7957747E-01  0.1425544E+00
         13   -1    0    0    0    0  0.00000000000E+00  0.00000000000E+00  0.99999944177E+02  0.99999999997E+02  0.10566000000E+00 0.  1.
         22   -1    0    0    0    0 -0.00000000000E+00 -0.00000000000E+00 -0.14419198229E+02  0.14419198229E+02  0.00000000000E+00 0. -1.
         13    1    1    2    0    0 -0.19933536528E+02  0.20207217118E+01  0.12438452877E+02  0.23582948687E+02  0.10566000000E+00 0. -1.
        996    1    1    2    0    0  0.19933536528E+02 -0.20207217118E+01  0.73142293071E+02  0.90836249539E+02  0.50000000000E+02 0.  0.
<mgrwt>
<rscale>  0 0.53864916E+02</rscale>
<asrwt>0</asrwt>
<pdfrwt beam="1">  1       13 0.10000000E+01 0.53864916E+02</pdfrwt>
<pdfrwt beam="2">  1       22 0.14419222E+00 0.53864916E+02</pdfrwt>
<totfact> 0.80674403E-01</totfact>
</mgrwt>
</event>
<event>
 4    1  0.2471347E+000  0.8906761E+02  0.7957747E-01  0.1305125E+00
         13   -1    0    0    0    0  0.00000000000E+00  0.00000000000E+00  0.99999944176E+02  0.99999999996E+02  0.10566000000E+00 0. -1.
         22   -1    0    0    0    0 -0.00000000000E+00 -0.00000000000E+00 -0.66977035648E+02  0.66977035648E+02  0.00000000000E+00 0.  1.
         13    1    1    2    0    0 -0.64662109951E+02 -0.35381491552E+02  0.62555886663E+01  0.73974197943E+02  0.10566000000E+00 0.  1.
        996    1    1    2    0    0  0.64662109951E+02  0.35381491552E+02  0.26767319861E+02  0.93002837700E+02  0.50000000000E+02 0.  0.
<mgrwt>
<rscale>  0 0.89067606E+02</rscale>
<asrwt>0</asrwt>
<pdfrwt beam="1">  1       13 0.10000000E+01 0.89067606E+02</pdfrwt>
<pdfrwt beam="2">  1       22 0.66977045E+00 0.89067606E+02</pdfrwt>
<totfact> 0.86313819E-02</totfact>
</mgrwt>
</event>
<event>
 4    1  0.2471347E+000  0.5663587E+02  0.7957747E-01  0.1412517E+00
         13   -1    0    0    0    0  0.00000000000E+00  0.00000000000E+00  0.99999944182E+02  0.10000000000E+03  0.10566000000E+00 0. -1.
         22   -1    0    0    0    0 -0.00000000000E+00 -0.00000000000E+00 -0.17423175178E+02  0.17423175178E+02  0.00000000000E+00 0.  1.
         13    1    1    2    0    0  0.26488947463E+02 -0.24406868556E+01  0.22283966200E+02  0.34701694536E+02  0.10566000000E+00 0.  1.
        996    1    1    2    0    0 -0.26488947463E+02  0.24406868556E+01  0.60292802804E+02  0.82721480645E+02  0.50000000000E+02 0.  0.
<mgrwt>
<rscale>  0 0.56635866E+02</rscale>
<asrwt>0</asrwt>
<pdfrwt beam="1">  1       13 0.10000000E+01 0.56635866E+02</pdfrwt>
<pdfrwt beam="2">  1       22 0.17423198E+00 0.56635866E+02</pdfrwt>
<totfact> 0.58717987E-01</totfact>
</mgrwt>
</event>
<event>
 4    1  0.2471347E+000  0.5375217E+02  0.7957747E-01  0.1426094E+00
         13   -1    0    0    0    0  0.00000000000E+00  0.00000000000E+00  0.99999944178E+02  0.99999999999E+02  0.10566000000E+00 0.  1.
         22   -1    0    0    0    0 -0.00000000000E+00 -0.00000000000E+00 -0.13549516575E+02  0.13549516575E+02  0.00000000000E+00 0.  1.
         13    1    1    2    0    0 -0.12665539841E+02 -0.15128786548E+02  0.26349797470E+02  0.32918369835E+02  0.10566000000E+00 0. -1.
        996    1    1    2    0    0  0.12665539841E+02  0.15128786548E+02  0.60100630134E+02  0.80631146738E+02  0.50000000000E+02 0.  0.
<mgrwt>
<rscale>  0 0.53752173E+02</rscale>
<asrwt>0</asrwt>
<pdfrwt beam="1">  1       13 0.10000000E+01 0.53752173E+02</pdfrwt>
<pdfrwt beam="2">  1       22 0.13549541E+00 0.53752173E+02</pdfrwt>
<totfact> 0.89214381E-01</totfact>
</mgrwt>
</event>
<event>
 4    1  0.2471347E+000  0.5123733E+02  0.7957747E-01  0.1438780E+00
         13   -1    0    0    0    0  0.00000000000E+00  0.00000000000E+00  0.99999944177E+02  0.99999999997E+02  0.10566000000E+00 0. -1.
         22   -1    0    0    0    0 -0.00000000000E+00 -0.00000000000E+00 -0.19326192496E+02  0.19326192496E+02  0.00000000000E+00 0. -1.
         13    1    1    2    0    0 -0.11186662324E+02 -0.35007038234E+00 -0.10109241940E+02  0.15082171590E+02  0.10566000000E+00 0.  1.
        996    1    1    2    0    0  0.11186662324E+02  0.35007038234E+00  0.90782993621E+02  0.10424402090E+03  0.50000000000E+02 0.  0.
<mgrwt>
<rscale>  0 0.51237330E+02</rscale>
<asrwt>0</asrwt>
<pdfrwt beam="1">  1       13 0.10000000E+01 0.51237330E+02</pdfrwt>
<pdfrwt beam="2">  1       22 0.19326215E+00 0.51237330E+02</pdfrwt>
<totfact> 0.48212359E-01</totfact>
</mgrwt>
</event>
<event>
 4    1  0.2471347E+000  0.5121216E+02  0.7957747E-01  0.1438911E+00
         13   -1    0    0    0    0  0.00000000000E+00  0.00000000000E+00  0.99999944183E+02  0.10000000000E+03  0.10566000000E+00 0.  1.
         22   -1    0    0    0    0 -0.00000000000E+00 -0.00000000000E+00 -0.13632864298E+02  0.13632864298E+02  0.00000000000E+00 0. -1.
         13    1    1    2    0    0 -0.71119735888E+01  0.84914747316E+01 -0.22303402011E+01  0.11299154521E+02  0.10566000000E+00 0. -1.
        996    1    1    2    0    0  0.71119735888E+01 -0.84914747316E+01  0.88597420086E+02  0.10233370978E+03  0.50000000000E+02 0.  0.
<mgrwt>
<rscale>  0 0.51212160E+02</rscale>
<asrwt>0</asrwt>
<pdfrwt beam="1">  1       13 0.10000000E+01 0.51212160E+02</pdfrwt>
<pdfrwt beam="2">  1       22 0.13632888E+00 0.51212160E+02</pdfrwt>
<totfact> 0.87870752E-01</totfact>
</mgrwt>
</event>
<event>
 4    1  0.2471347E+000  0.5119003E+02  0.7957747E-01  0.1439027E+00
         13   -1    0    0    0    0  0.00000000000E+00  0.00000000000E+00  0.99999944175E+02  0.99999999995E+02  0.10566000000E+00 0. -1.
         22   -1    0    0    0    0 -0.00000000000E+00 -0.00000000000E+00 -0.15153474697E+02  0.15153474697E+02  0.00000000000E+00 0.  1.
         13    1    1    2    0    0  0.45820506123E+01 -0.99711723176E+01 -0.47552242266E+01  0.11960049610E+02  0.10566000000E+00 0.  1.
        996    1    1    2    0    0 -0.45820506123E+01  0.99711723176E+01  0.89601693705E+02  0.10319342508E+03  0.50000000000E+02 0.  0.
<mgrwt>
<rscale>  0 0.51190033E+02</rscale>
<asrwt>0</asrwt>
<pdfrwt beam="1">  1       13 0.10000000E+01 0.51190033E+02</pdfrwt>
<pdfrwt beam="2">  1       22 0.15153498E+00 0.51190033E+02</pdfrwt>
<totfact> 0.73901542E-01</totfact>
</mgrwt>
</event>
<event>
 4    1  0.2471347E+000  0.5236611E+02  0.7957747E-01  0.1432982E+00
         13   -1    0    0    0    0  0.00000000000E+00  0.00000000000E+00  0.99999944183E+02  0.10000000000E+03  0.10566000000E+00 0.  1.
         22   -1    0    0    0    0 -0.00000000000E+00 -0.00000000000E+00 -0.17133953704E+02  0.17133953704E+02  0.00000000000E+00 0.  1.
         13    1    1    2    0    0  0.32528400855E+00 -0.15559696430E+02 -0.36670337516E+01  0.15989629866E+02  0.10566000000E+00 0. -1.
        996    1    1    2    0    0 -0.32528400855E+00  0.15559696430E+02  0.86533024231E+02  0.10114432384E+03  0.50000000000E+02 0.  0.
<mgrwt>
<rscale>  0 0.52366115E+02</rscale>
<asrwt>0</asrwt>
<pdfrwt beam="1">  1       13 0.10000000E+01 0.52366115E+02</pdfrwt>
<pdfrwt beam="2">  1       22 0.17133977E+00 0.52366115E+02</pdfrwt>
<totfact> 0.60009002E-01</totfact>
</mgrwt>
</event>
<event>
 4    1  0.2471347E+000  0.5835226E+02  0.7957747E-01  0.1404880E+00
         13   -1    0    0    0    0  0.00000000000E+00  0.00000000000E+00  0.99999944178E+02  0.99999999999E+02  0.10566000000E+00 0.  1.
         22   -1    0    0    0    0 -0.00000000000E+00 -0.00000000000E+00 -0.67217992926E+02  0.67217992926E+02  0.00000000000E+00 0. -1.
         13    1    1    2    0    0  0.15191467332E+02  0.25965460901E+02 -0.54485610535E+02  0.62238884622E+02  0.10566000000E+00 0. -1.
        996    1    1    2    0    0 -0.15191467332E+02 -0.25965460901E+02  0.87267561788E+02  0.10497910830E+03  0.50000000000E+02 0.  0.
<mgrwt>
<rscale>  0 0.58352257E+02</rscale>
<asrwt>0</asrwt>
<pdfrwt beam="1">  1       13 0.10000000E+01 0.58352257E+02</pdfrwt>
<pdfrwt beam="2">  1       22 0.67218002E+00 0.58352257E+02</pdfrwt>
<totfact> 0.85788121E-02</totfact>
</mgrwt>
</event>
<event>
 4    1  0.2471347E+000  0.5249270E+02  0.7957747E-01  0.1432342E+00
         13   -1    0    0    0    0  0.00000000000E+00  0.00000000000E+00  0.99999944180E+02  0.10000000000E+03  0.10566000000E+00 0.  1.
         22   -1    0    0    0    0 -0.00000000000E+00 -0.00000000000E+00 -0.22849237832E+02  0.22849237832E+02  0.00000000000E+00 0. -1.
         13    1    1    2    0    0  0.11761762640E+02 -0.10823312779E+02 -0.11591039065E+02  0.19744531155E+02  0.10566000000E+00 0. -1.
        996    1    1    2    0    0 -0.11761762640E+02  0.10823312779E+02  0.88741745413E+02  0.10310470668E+03  0.50000000000E+02 0.  0.
<mgrwt>
<rscale>  0 0.52492696E+02</rscale>
<asrwt>0</asrwt>
<pdfrwt beam="1">  1       13 0.10000000E+01 0.52492696E+02</pdfrwt>
<pdfrwt beam="2">  1       22 0.22849259E+00 0.52492696E+02</pdfrwt>
<totfact> 0.35181081E-01</totfact>
</mgrwt>
</event>
<event>
 4    1  0.2471347E+000  0.5101602E+02  0.7957747E-01  0.1439937E+00
         13   -1    0    0    0    0  0.00000000000E+00  0.00000000000E+00  0.99999944177E+02  0.99999999997E+02  0.10566000000E+00 0.  1.
         22   -1    0    0    0    0 -0.00000000000E+00 -0.00000000000E+00 -0.10204852934E+02  0.10204852934E+02  0.00000000000E+00 0.  1.
         13    1    1    2    0    0  0.74486449623E+01  0.68667030738E+01  0.29673331444E+02  0.31355249735E+02  0.10566000000E+00 0. -1.
        996    1    1    2    0    0 -0.74486449623E+01 -0.68667030738E+01  0.60121759799E+02  0.78849603196E+02  0.50000000000E+02 0.  0.
<mgrwt>
<rscale>  0 0.51016016E+02</rscale>
<asrwt>0</asrwt>
<pdfrwt beam="1">  1       13 0.10000000E+01 0.51016016E+02</pdfrwt>
<pdfrwt beam="2">  1       22 0.10204878E+00 0.51016016E+02</pdfrwt>
<totfact> 0.13656292E+00</totfact>
</mgrwt>
</event>
<event>
 4    1  0.2471347E+000  0.5200231E+02  0.7957747E-01  0.1434831E+00
         13   -1    0    0    0    0  0.00000000000E+00  0.00000000000E+00  0.99999944181E+02  0.10000000000E+03  0.10566000000E+00 0. -1.
         22   -1    0    0    0    0 -0.00000000000E+00 -0.00000000000E+00 -0.31841688783E+02  0.31841688783E+02  0.00000000000E+00 0.  1.
         13    1    1    2    0    0 -0.89405626548E+01 -0.11149286523E+02 -0.22892356979E+02  0.26987245555E+02  0.10566000000E+00 0.  1.
        996    1    1    2    0    0  0.89405626548E+01  0.11149286523E+02  0.91050612377E+02  0.10485444323E+03  0.50000000000E+02 0.  0.
<mgrwt>
<rscale>  0 0.52002310E+02</rscale>
<asrwt>0</asrwt>
<pdfrwt beam="1">  1       13 0.10000000E+01 0.52002310E+02</pdfrwt>
<pdfrwt beam="2">  1       22 0.31841708E+00 0.52002310E+02</pdfrwt>
<totfact> 0.18562747E-01</totfact>
</mgrwt>
</event>
<event>
 4    1  0.2471347E+000  0.5653285E+02  0.7957747E-01  0.1412986E+00
         13   -1    0    0    0    0  0.00000000000E+00  0.00000000000E+00  0.99999944176E+02  0.99999999996E+02  0.10566000000E+00 0. -1.
         22   -1    0    0    0    0 -0.00000000000E+00 -0.00000000000E+00 -0.24753110418E+02  0.24753110418E+02  0.00000000000E+00 0.  1.
         13    1    1    2    0    0  0.21606679127E+02 -0.15136535409E+02 -0.47411126940E+01  0.26803966137E+02  0.10566000000E+00 0.  1.
        996    1    1    2    0    0 -0.21606679127E+02  0.15136535409E+02  0.79987946451E+02  0.97949144277E+02  0.50000000000E+02 0.  0.
<mgrwt>
<rscale>  0 0.56532851E+02</rscale>
<asrwt>0</asrwt>
<pdfrwt beam="1">  1       13 0.10000000E+01 0.56532851E+02</pdfrwt>
<pdfrwt beam="2">  1       22 0.24753131E+00 0.56532851E+02</pdfrwt>
<totfact> 0.30267044E-01</totfact>
</mgrwt>
</event>
<event>
 4    1  0.2471347E+000  0.5144667E+02  0.7957747E-01  0.1437691E+00
         13   -1    0    0    0    0  0.00000000000E+00  0.00000000000E+00  0.99999944181E+02  0.10000000000E+03  0.10566000000E+00 0.  1.
         22   -1    0    0    0    0 -0.00000000000E+00 -0.00000000000E+00 -0.10741226218E+02  0.10741226218E+02  0.00000000000E+00 0.  1.
         13    1    1    2    0    0 -0.77311500899E+00  0.12089750184E+02  0.29482202638E+02  0.31874303173E+02  0.10566000000E+00 0. -1.
        996    1    1    2    0    0  0.77311500899E+00 -0.12089750184E+02  0.59776515325E+02  0.78866923046E+02  0.50000000000E+02 0.  0.
<mgrwt>
<rscale>  0 0.51446669E+02</rscale>
<asrwt>0</asrwt>
<pdfrwt beam="1">  1       13 0.10000000E+01 0.51446669E+02</pdfrwt>
<pdfrwt beam="2">  1       22 0.10741251E+00 0.51446669E+02</pdfrwt>
<totfact> 0.12681174E+00</totfact>
</mgrwt>
</event>
<event>
 4    1  0.2471347E+000  0.5160990E+02  0.7957747E-01  0.1436847E+00
         13   -1    0    0    0    0  0.00000000000E+00  0.00000000000E+00  0.99999944185E+02  0.10000000001E+03  0.10566000000E+00 0.  1.
         22   -1    0    0    0    0 -0.00000000000E+00 -0.00000000000E+00 -0.19980940309E+02  0.19980940309E+02  0.00000000000E+00 0. -1.
         13    1    1    2    0    0 -0.12725933531E+02  0.12775045692E+01 -0.99873509101E+01  0.16227746128E+02  0.10566000000E+00 0. -1.
        996    1    1    2    0    0  0.12725933531E+02 -0.12775045692E+01  0.90006354786E+02  0.10375319419E+03  0.50000000000E+02 0.  0.
<mgrwt>
<rscale>  0 0.51609896E+02</rscale>
<asrwt>0</asrwt>
<pdfrwt beam="1">  1       13 0.10000000E+01 0.51609896E+02</pdfrwt>
<pdfrwt beam="2">  1       22 0.19980963E+00 0.51609896E+02</pdfrwt>
<totfact> 0.45356589E-01</totfact>
</mgrwt>
</event>
<event>
 4    1  0.2471347E+000  0.5194149E+02  0.7957747E-01  0.1435142E+00
         13   -1    0    0    0    0  0.00000000000E+00  0.00000000000E+00  0.99999944177E+02  0.99999999997E+02  0.10566000000E+00 0. -1.
         22   -1    0    0    0    0 -0.00000000000E+00 -0.00000000000E+00 -0.19053654505E+02  0.19053654505E+02  0.00000000000E+00 0.  1.
         13    1    1    2    0    0 -0.81153514313E+01 -0.11491700357E+02 -0.79023752758E+01  0.16136195493E+02  0.10566000000E+00 0.  1.
        996    1    1    2    0    0  0.81153514313E+01  0.11491700357E+02  0.88848664948E+02  0.10291745901E+03  0.50000000000E+02 0.  0.
<mgrwt>
<rscale>  0 0.51941487E+02</rscale>
<asrwt>0</asrwt>
<pdfrwt beam="1">  1       13 0.10000000E+01 0.51941487E+02</pdfrwt>
<pdfrwt beam="2">  1       22 0.19053677E+00 0.51941487E+02</pdfrwt>
<totfact> 0.49551358E-01</totfact>
</mgrwt>
</event>
<event>
 4    1  0.2471347E+000  0.5425191E+02  0.7957747E-01  0.1423670E+00
         13   -1    0    0    0    0  0.00000000000E+00  0.00000000000E+00  0.99999944181E+02  0.10000000000E+03  0.10566000000E+00 0.  1.
         22   -1    0    0    0    0 -0.00000000000E+00 -0.00000000000E+00 -0.15528265747E+02  0.15528265747E+02  0.00000000000E+00 0.  1.
         13    1    1    2    0    0  0.66195656024E+01  0.19986259643E+02  0.40687868315E+02  0.45812476634E+02  0.10566000000E+00 0. -1.
        996    1    1    2    0    0 -0.66195656024E+01 -0.19986259643E+02  0.43783810119E+02  0.69715789115E+02  0.50000000000E+02 0.  0.
<mgrwt>
<rscale>  0 0.54251905E+02</rscale>
<asrwt>0</asrwt>
<pdfrwt beam="1">  1       13 0.10000000E+01 0.54251905E+02</pdfrwt>
<pdfrwt beam="2">  1       22 0.15528289E+00 0.54251905E+02</pdfrwt>
<totfact> 0.71362981E-01</totfact>
</mgrwt>
</event>
<event>
 4    1  0.2471347E+000  0.5268984E+02  0.7957747E-01  0.1431351E+00
         13   -1    0    0    0    0  0.00000000000E+00  0.00000000000E+00  0.99999944183E+02  0.10000000000E+03  0.10566000000E+00 0.  1.
         22   -1    0    0    0    0 -0.00000000000E+00 -0.00000000000E+00 -0.12121518705E+02  0.12121518705E+02  0.00000000000E+00 0.  1.
         13    1    1    2    0    0  0.12969406341E+02 -0.10392969274E+02  0.16677539880E+02  0.23545080413E+02  0.10566000000E+00 0. -1.
        996    1    1    2    0    0 -0.12969406341E+02  0.10392969274E+02  0.71200885598E+02  0.88576438295E+02  0.50000000000E+02 0.  0.
<mgrwt>
<rscale>  0 0.52689841E+02</rscale>
<asrwt>0</asrwt>
<pdfrwt beam="1">  1       13 0.10000000E+01 0.52689841E+02</pdfrwt>
<pdfrwt beam="2">  1       22 0.12121543E+00 0.52689841E+02</pdfrwt>
<totfact> 0.10600634E+00</totfact>
</mgrwt>
</event>
<event>
 4    1  0.2471347E+000  0.5494958E+02  0.7957747E-01  0.1420337E+00
         13   -1    0    0    0    0  0.00000000000E+00  0.00000000000E+00  0.99999944179E+02  0.99999999999E+02  0.10566000000E+00 0.  1.
         22   -1    0    0    0    0 -0.00000000000E+00 -0.00000000000E+00 -0.25066478359E+02  0.25066478359E+02  0.00000000000E+00 0.  1.
         13    1    1    2    0    0  0.91983431253E+01 -0.20852975028E+02 -0.91996668984E+01  0.24578468602E+02  0.10566000000E+00 0. -1.
        996    1    1    2    0    0 -0.91983431253E+01  0.20852975028E+02  0.84133132718E+02  0.10048800976E+03  0.50000000000E+02 0.  0.
<mgrwt>
<rscale>  0 0.54949578E+02</rscale>
<asrwt>0</asrwt>
<pdfrwt beam="1">  1       13 0.10000000E+01 0.54949578E+02</pdfrwt>
<pdfrwt beam="2">  1       22 0.25066499E+00 0.54949578E+02</pdfrwt>
<totfact> 0.29457590E-01</totfact>
</mgrwt>
</event>
<event>
 4    1  0.2471347E+000  0.5271009E+02  0.7957747E-01  0.1431249E+00
         13   -1    0    0    0    0  0.00000000000E+00  0.00000000000E+00  0.99999944178E+02  0.99999999998E+02  0.10566000000E+00 0.  1.
         22   -1    0    0    0    0 -0.00000000000E+00 -0.00000000000E+00 -0.18747471321E+02  0.18747471321E+02  0.00000000000E+00 0. -1.
         13    1    1    2    0    0  0.16272734940E+02 -0.36812901968E+01 -0.52152596073E+01  0.17480386058E+02  0.10566000000E+00 0. -1.
        996    1    1    2    0    0 -0.16272734940E+02  0.36812901968E+01  0.86467732464E+02  0.10126708526E+03  0.50000000000E+02 0.  0.
<mgrwt>
<rscale>  0 0.52710092E+02</rscale>
<asrwt>0</asrwt>
<pdfrwt beam="1">  1       13 0.10000000E+01 0.52710092E+02</pdfrwt>
<pdfrwt beam="2">  1       22 0.18747494E+00 0.52710092E+02</pdfrwt>
<totfact> 0.51112257E-01</totfact>
</mgrwt>
</event>
<event>
 4    1  0.2471347E+000  0.9413752E+02  0.7957747E-01  0.1293131E+00
         13   -1    0    0    0    0  0.00000000000E+00  0.00000000000E+00  0.99999944185E+02  0.10000000000E+03  0.10566000000E+00 0. -1.
         22   -1    0    0    0    0 -0.00000000000E+00 -0.00000000000E+00 -0.90069619418E+02  0.90069619418E+02  0.00000000000E+00 0.  1.
         13    1    1    2    0    0  0.19693675231E+02 -0.77291861587E+02 -0.33358181542E+02  0.86456070646E+02  0.10566000000E+00 0.  1.
        996    1    1    2    0    0 -0.19693675231E+02  0.77291861587E+02  0.43288506309E+02  0.10361354878E+03  0.50000000000E+02 0.  0.
<mgrwt>
<rscale>  0 0.94137520E+02</rscale>
<asrwt>0</asrwt>
<pdfrwt beam="1">  1       13 0.10000000E+01 0.94137520E+02</pdfrwt>
<pdfrwt beam="2">  1       22 0.90069622E+00 0.94137520E+02</pdfrwt>
<totfact> 0.10279416E-02</totfact>
</mgrwt>
</event>
<event>
 4    1  0.2471347E+000  0.5226820E+02  0.7957747E-01  0.1433478E+00
         13   -1    0    0    0    0  0.00000000000E+00  0.00000000000E+00  0.99999944175E+02  0.99999999996E+02  0.10566000000E+00 0.  1.
         22   -1    0    0    0    0 -0.00000000000E+00 -0.00000000000E+00 -0.21852457537E+02  0.21852457537E+02  0.00000000000E+00 0.  1.
         13    1    1    2    0    0 -0.16272358489E+01 -0.15143222112E+02 -0.10809207807E+02  0.18676595244E+02  0.10566000000E+00 0. -1.
        996    1    1    2    0    0  0.16272358489E+01  0.15143222112E+02  0.88956694445E+02  0.10317586229E+03  0.50000000000E+02 0.  0.
<mgrwt>
<rscale>  0 0.52268203E+02</rscale>
<asrwt>0</asrwt>
<pdfrwt beam="1">  1       13 0.10000000E+01 0.52268203E+02</pdfrwt>
<pdfrwt beam="2">  1       22 0.21852479E+00 0.52268203E+02</pdfrwt>
<totfact> 0.38330596E-01</totfact>
</mgrwt>
</event>
<event>
 4    1  0.2471347E+000  0.5201833E+02  0.7957747E-01  0.1434750E+00
         13   -1    0    0    0    0  0.00000000000E+00  0.00000000000E+00  0.99999944173E+02  0.99999999993E+02  0.10566000000E+00 0. -1.
         22   -1    0    0    0    0 -0.00000000000E+00 -0.00000000000E+00 -0.11526673066E+02  0.11526673066E+02  0.00000000000E+00 0. -1.
         13    1    1    2    0    0  0.68077036637E+01 -0.12631761563E+02  0.30056463726E+02  0.33306281766E+02  0.10566000000E+00 0.  1.
        996    1    1    2    0    0 -0.68077036637E+01  0.12631761563E+02  0.58416807381E+02  0.78220391293E+02  0.50000000000E+02 0.  0.
<mgrwt>
<rscale>  0 0.52018326E+02</rscale>
<asrwt>0</asrwt>
<pdfrwt beam="1">  1       13 0.10000000E+01 0.52018326E+02</pdfrwt>
<pdfrwt beam="2">  1       22 0.11526698E+00 0.52018326E+02</pdfrwt>
<totfact> 0.11428043E+00</totfact>
</mgrwt>
</event>
<event>
 4    1  0.2471347E+000  0.7003670E+02  0.7957747E-01  0.1359968E+00
         13   -1    0    0    0    0  0.00000000000E+00  0.00000000000E+00  0.99999944180E+02  0.10000000000E+03  0.10566000000E+00 0. -1.
         22   -1    0    0    0    0 -0.00000000000E+00 -0.00000000000E+00 -0.37466608604E+02  0.37466608604E+02  0.00000000000E+00 0.  1.
         13    1    1    2    0    0  0.32815200674E+02 -0.36445883069E+02  0.10339194128E+02  0.50120354021E+02  0.10566000000E+00 0.  1.
        996    1    1    2    0    0 -0.32815200674E+02  0.36445883069E+02  0.52194141448E+02  0.87346254582E+02  0.50000000000E+02 0.  0.
<mgrwt>
<rscale>  0 0.70036703E+02</rscale>
<asrwt>0</asrwt>
<pdfrwt beam="1">  1       13 0.10000000E+01 0.70036703E+02</pdfrwt>
<pdfrwt beam="2">  1       22 0.37466626E+00 0.70036703E+02</pdfrwt>
<totfact> 0.14139233E-01</totfact>
</mgrwt>
</event>
<event>
 4    1  0.2471347E+000  0.6118956E+02  0.7957747E-01  0.1392906E+00
         13   -1    0    0    0    0  0.00000000000E+00  0.00000000000E+00  0.99999944176E+02  0.99999999996E+02  0.10566000000E+00 0.  1.
         22   -1    0    0    0    0 -0.00000000000E+00 -0.00000000000E+00 -0.40471111257E+02  0.40471111257E+02  0.00000000000E+00 0. -1.
         13    1    1    2    0    0  0.34030548443E+02  0.92781309520E+01 -0.19671098321E+02  0.40387191218E+02  0.10566000000E+00 0. -1.
        996    1    1    2    0    0 -0.34030548443E+02 -0.92781309520E+01  0.79199931240E+02  0.10008392004E+03  0.50000000000E+02 0.  0.
<mgrwt>
<rscale>  0 0.61189557E+02</rscale>
<asrwt>0</asrwt>
<pdfrwt beam="1">  1       13 0.10000000E+01 0.61189557E+02</pdfrwt>
<pdfrwt beam="2">  1       22 0.40471128E+00 0.61189557E+02</pdfrwt>
<totfact> 0.12172179E-01</totfact>
</mgrwt>
</event>
<event>
 4    1  0.2471347E+000  0.5140422E+02  0.7957747E-01  0.1437911E+00
         13   -1    0    0    0    0  0.00000000000E+00  0.00000000000E+00  0.99999944177E+02  0.99999999998E+02  0.10566000000E+00 0. -1.
         22   -1    0    0    0    0 -0.00000000000E+00 -0.00000000000E+00 -0.14087818171E+02  0.14087818171E+02  0.00000000000E+00 0.  1.
         13    1    1    2    0    0  0.57537446300E+01  0.10454081081E+02 -0.21452354141E+01  0.12124627316E+02  0.10566000000E+00 0.  1.
        996    1    1    2    0    0 -0.57537446300E+01 -0.10454081081E+02  0.88057361421E+02  0.10196319085E+03  0.50000000000E+02 0.  0.
<mgrwt>
<rscale>  0 0.51404216E+02</rscale>
<asrwt>0</asrwt>
<pdfrwt beam="1">  1       13 0.10000000E+01 0.51404216E+02</pdfrwt>
<pdfrwt beam="2">  1       22 0.14087842E+00 0.51404216E+02</pdfrwt>
<totfact> 0.83371452E-01</totfact>
</mgrwt>
</event>
<event>
 4    1  0.2471347E+000  0.5213716E+02  0.7957747E-01  0.1434144E+00
         13   -1    0    0    0    0  0.00000000000E+00  0.00000000000E+00  0.99999944184E+02  0.10000000000E+03  0.10566000000E+00 0.  1.
         22   -1    0    0    0    0 -0.00000000000E+00 -0.00000000000E+00 -0.12159172044E+02  0.12159172044E+02  0.00000000000E+00 0. -1.
         13    1    1    2    0    0  0.14652567096E+02 -0.18937329577E+01  0.79967187055E+01  0.16800078009E+02  0.10566000000E+00 0. -1.
        996    1    1    2    0    0 -0.14652567096E+02  0.18937329577E+01  0.79844053435E+02  0.95359094039E+02  0.50000000000E+02 0.  0.
<mgrwt>
<rscale>  0 0.52137165E+02</rscale>
<asrwt>0</asrwt>
<pdfrwt beam="1">  1       13 0.10000000E+01 0.52137165E+02</pdfrwt>
<pdfrwt beam="2">  1       22 0.12159197E+00 0.52137165E+02</pdfrwt>
<totfact> 0.10537322E+00</totfact>
</mgrwt>
</event>
<event>
 4    1  0.2471347E+000  0.5849442E+02  0.7957747E-01  0.1404261E+00
         13   -1    0    0    0    0  0.00000000000E+00  0.00000000000E+00  0.99999944177E+02  0.99999999997E+02  0.10566000000E+00 0. -1.
         22   -1    0    0    0    0 -0.00000000000E+00 -0.00000000000E+00 -0.45072813898E+02  0.45072813898E+02  0.00000000000E+00 0.  1.
         13    1    1    2    0    0  0.18800430226E+01 -0.30299556406E+02 -0.29520747396E+02  0.42344815161E+02  0.10566000000E+00 0.  1.
        996    1    1    2    0    0 -0.18800430226E+01  0.30299556406E+02  0.84447877675E+02  0.10272799873E+03  0.50000000000E+02 0.  0.
<mgrwt>
<rscale>  0 0.58494424E+02</rscale>
<asrwt>0</asrwt>
<pdfrwt beam="1">  1       13 0.10000000E+01 0.58494424E+02</pdfrwt>
<pdfrwt beam="2">  1       22 0.45072829E+00 0.58494424E+02</pdfrwt>
<totfact> 0.96603420E-02</totfact>
</mgrwt>
</event>
<event>
 4    1  0.2471347E+000  0.5275246E+02  0.7957747E-01  0.1431037E+00
         13   -1    0    0    0    0  0.00000000000E+00  0.00000000000E+00  0.99999944177E+02  0.99999999997E+02  0.10566000000E+00 0.  1.
         22   -1    0    0    0    0 -0.00000000000E+00 -0.00000000000E+00 -0.14792634160E+02  0.14792634160E+02  0.00000000000E+00 0.  1.
         13    1    1    2    0    0 -0.10233118068E+02 -0.13345619742E+02  0.29518251715E+01  0.17074738873E+02  0.10566000000E+00 0. -1.
        996    1    1    2    0    0  0.10233118068E+02  0.13345619742E+02  0.82255484845E+02  0.97717895284E+02  0.50000000000E+02 0.  0.
<mgrwt>
<rscale>  0 0.52752462E+02</rscale>
<asrwt>0</asrwt>
<pdfrwt beam="1">  1       13 0.10000000E+01 0.52752462E+02</pdfrwt>
<pdfrwt beam="2">  1       22 0.14792658E+00 0.52752462E+02</pdfrwt>
<totfact> 0.77171476E-01</totfact>
</mgrwt>
</event>
<event>
 4    1  0.2471347E+000  0.6955550E+02  0.7957747E-01  0.1361611E+00
         13   -1    0    0    0    0  0.00000000000E+00  0.00000000000E+00  0.99999944183E+02  0.10000000000E+03  0.10566000000E+00 0. -1.
         22   -1    0    0    0    0 -0.00000000000E+00 -0.00000000000E+00 -0.73617372711E+02  0.73617372711E+02  0.00000000000E+00 0.  1.
         13    1    1    2    0    0 -0.10377844096E+02  0.47225714068E+02 -0.50516812542E+02  0.69928014635E+02  0.10566000000E+00 0.  1.
        996    1    1    2    0    0  0.10377844096E+02 -0.47225714068E+02  0.76899384014E+02  0.10368935808E+03  0.50000000000E+02 0.  0.
<mgrwt>
<rscale>  0 0.69555501E+02</rscale>
<asrwt>0</asrwt>
<pdfrwt beam="1">  1       13 0.10000000E+01 0.69555501E+02</pdfrwt>
<pdfrwt beam="2">  1       22 0.73617380E+00 0.69555501E+02</pdfrwt>
<totfact> 0.55607953E-02</totfact>
</mgrwt>
</event>
<event>
 4    1  0.2471347E+000  0.5138386E+02  0.7957747E-01  0.1438017E+00
         13   -1    0    0    0    0  0.00000000000E+00  0.00000000000E+00  0.99999944174E+02  0.99999999995E+02  0.10566000000E+00 0. -1.
         22   -1    0    0    0    0 -0.00000000000E+00 -0.00000000000E+00 -0.10617309786E+02  0.10617309786E+02  0.00000000000E+00 0. -1.
         13    1    1    2    0    0  0.68307804994E+00 -0.11825172986E+02  0.77376226712E+01  0.14148614081E+02  0.10566000000E+00 0.  1.
        996    1    1    2    0    0 -0.68307804994E+00  0.11825172986E+02  0.81645011717E+02  0.96468695700E+02  0.50000000000E+02 0.  0.
<mgrwt>
<rscale>  0 0.51383862E+02</rscale>
<asrwt>0</asrwt>
<pdfrwt beam="1">  1       13 0.10000000E+01 0.51383862E+02</pdfrwt>
<pdfrwt beam="2">  1       22 0.10617335E+00 0.51383862E+02</pdfrwt>
<totfact> 0.12898115E+00</totfact>
</mgrwt>
</event>
<event>
 4    1  0.2471347E+000  0.5339711E+02  0.7957747E-01  0.1427835E+00
         13   -1    0    0    0    0  0.00000000000E+00  0.00000000000E+00  0.99999944176E+02  0.99999999996E+02  0.10566000000E+00 0.  1.
         22   -1    0    0    0    0 -0.00000000000E+00 -0.00000000000E+00 -0.14499689367E+02  0.14499689367E+02  0.00000000000E+00 0. -1.
         13    1    1    2    0    0 -0.11032134774E+02  0.15150671703E+02  0.79832952606E+01  0.20371426508E+02  0.10566000000E+00 0. -1.
        996    1    1    2    0    0  0.11032134774E+02 -0.15150671703E+02  0.77516959548E+02  0.94128262856E+02  0.50000000000E+02 0.  0.
<mgrwt>
<rscale>  0 0.53397105E+02</rscale>
<asrwt>0</asrwt>
<pdfrwt beam="1">  1       13 0.10000000E+01 0.53397105E+02</pdfrwt>
<pdfrwt beam="2">  1       22 0.14499713E+00 0.53397105E+02</pdfrwt>
<totfact> 0.79865179E-01</totfact>
</mgrwt>
</event>
<event>
 4    1  0.2471347E+000  0.5382865E+02  0.7957747E-01  0.1425721E+00
         13   -1    0    0    0    0  0.00000000000E+00  0.00000000000E+00  0.99999944173E+02  0.99999999993E+02  0.10566000000E+00 0.  1.
         22   -1    0    0    0    0 -0.00000000000E+00 -0.00000000000E+00 -0.67041450066E+02  0.67041450066E+02  0.00000000000E+00 0. -1.
         13    1    1    2    0    0 -0.14341552449E+02  0.13850742822E+02 -0.58009570663E+02  0.61340399868E+02  0.10566000000E+00 0. -1.
        996    1    1    2    0    0  0.14341552449E+02 -0.13850742822E+02  0.90968064770E+02  0.10570105019E+03  0.50000000000E+02 0.  0.
<mgrwt>
<rscale>  0 0.53828647E+02</rscale>
<asrwt>0</asrwt>
<pdfrwt beam="1">  1       13 0.10000000E+01 0.53828647E+02</pdfrwt>
<pdfrwt beam="2">  1       22 0.67041459E+00 0.53828647E+02</pdfrwt>
<totfact> 0.86187322E-02</totfact>
</mgrwt>
</event>
<event>
 4    1  0.2471347E+000  0.5368892E+02  0.7957747E-01  0.1426403E+00
         13   -1    0    0    0    0  0.00000000000E+00  0.00000000000E+00  0.99999944175E+02  0.99999999995E+02  0.10566000000E+00 0. -1.
         22   -1    0    0    0    0 -0.00000000000E+00 -0.00000000000E+00 -0.14109789677E+02  0.14109789677E+02  0.00000000000E+00 0.  1.
         13    1    1    2    0    0 -0.33913548533E+01  0.19261319735E+02  0.12625207158E+02  0.23278890556E+02  0.10566000000E+00 0.  1.
        996    1    1    2    0    0  0.33913548533E+01 -0.19261319735E+02  0.73264947339E+02  0.90830899116E+02  0.50000000000E+02 0.  0.
<mgrwt>
<rscale>  0 0.53688916E+02</rscale>
<asrwt>0</asrwt>
<pdfrwt beam="1">  1       13 0.10000000E+01 0.53688916E+02</pdfrwt>
<pdfrwt beam="2">  1       22 0.14109814E+00 0.53688916E+02</pdfrwt>
<totfact> 0.83555306E-01</totfact>
</mgrwt>
</event>
<event>
 4    1  0.2471347E+000  0.5130007E+02  0.7957747E-01  0.1438453E+00
         13   -1    0    0    0    0  0.00000000000E+00  0.00000000000E+00  0.99999944173E+02  0.99999999994E+02  0.10566000000E+00 0.  1.
         22   -1    0    0    0    0 -0.00000000000E+00 -0.00000000000E+00 -0.10430857670E+02  0.10430857670E+02  0.00000000000E+00 0.  1.
         13    1    1    2    0    0  0.46420691600E+01 -0.10495173302E+02  0.28189861901E+02  0.30436441098E+02  0.10566000000E+00 0. -1.
        996    1    1    2    0    0 -0.46420691600E+01  0.10495173302E+02  0.61379224603E+02  0.79994416565E+02  0.50000000000E+02 0.  0.
<mgrwt>
<rscale>  0 0.51300073E+02</rscale>
<asrwt>0</asrwt>
<pdfrwt beam="1">  1       13 0.10000000E+01 0.51300073E+02</pdfrwt>
<pdfrwt beam="2">  1       22 0.10430883E+00 0.51300073E+02</pdfrwt>
<totfact> 0.13235445E+00</totfact>
</mgrwt>
</event>
<event>
 4    1  0.2471347E+000  0.5243910E+02  0.7957747E-01  0.1432613E+00
         13   -1    0    0    0    0  0.00000000000E+00  0.00000000000E+00  0.99999944189E+02  0.10000000001E+03  0.10566000000E+00 0.  1.
         22   -1    0    0    0    0 -0.00000000000E+00 -0.00000000000E+00 -0.19160948717E+02  0.19160948717E+02  0.00000000000E+00 0. -1.
         13    1    1    2    0    0  0.43512753303E+01 -0.15196249777E+02 -0.66587493717E+01  0.17152542421E+02  0.10566000000E+00 0. -1.
        996    1    1    2    0    0 -0.43512753303E+01  0.15196249777E+02  0.87497744843E+02  0.10200840631E+03  0.50000000000E+02 0.  0.
<mgrwt>
<rscale>  0 0.52439104E+02</rscale>
<asrwt>0</asrwt>
<pdfrwt beam="1">  1       13 0.10000000E+01 0.52439104E+02</pdfrwt>
<pdfrwt beam="2">  1       22 0.19160971E+00 0.52439104E+02</pdfrwt>
<totfact> 0.49088112E-01</totfact>
</mgrwt>
</event>
<event>
 4    1  0.2471347E+000  0.5442041E+02  0.7957747E-01  0.1422860E+00
         13   -1    0    0    0    0  0.00000000000E+00  0.00000000000E+00  0.99999944186E+02  0.10000000001E+03  0.10566000000E+00 0.  1.
         22   -1    0    0    0    0 -0.00000000000E+00 -0.00000000000E+00 -0.17774336140E+02  0.17774336140E+02  0.00000000000E+00 0.  1.
         13    1    1    2    0    0  0.20023187956E+02 -0.77880355723E+01  0.30507880286E+01  0.21700231004E+02  0.10566000000E+00 0. -1.
        996    1    1    2    0    0 -0.20023187956E+02  0.77880355723E+01  0.79174820018E+02  0.96074105142E+02  0.50000000000E+02 0.  0.
<mgrwt>
<rscale>  0 0.54420415E+02</rscale>
<asrwt>0</asrwt>
<pdfrwt beam="1">  1       13 0.10000000E+01 0.54420415E+02</pdfrwt>
<pdfrwt beam="2">  1       22 0.17774359E+00 0.54420415E+02</pdfrwt>
<totfact> 0.56446721E-01</totfact>
</mgrwt>
</event>
<event>
 4    1  0.2471347E+000  0.5237138E+02  0.7957747E-01  0.1432955E+00
         13   -1    0    0    0    0  0.00000000000E+00  0.00000000000E+00  0.99999944184E+02  0.10000000000E+03  0.10566000000E+00 0. -1.
         22   -1    0    0    0    0 -0.00000000000E+00 -0.00000000000E+00 -0.11619407390E+02  0.11619407390E+02  0.00000000000E+00 0. -1.
         13    1    1    2    0    0  0.14336501868E+02  0.61013557495E+01  0.24209652576E+02  0.28790280820E+02  0.10566000000E+00 0.  1.
        996    1    1    2    0    0 -0.14336501868E+02 -0.61013557495E+01  0.64170884217E+02  0.82829126574E+02  0.50000000000E+02 0.  0.
<mgrwt>
<rscale>  0 0.52371384E+02</rscale>
<asrwt>0</asrwt>
<pdfrwt beam="1">  1       13 0.10000000E+01 0.52371384E+02</pdfrwt>
<pdfrwt beam="2">  1       22 0.11619432E+00 0.52371384E+02</pdfrwt>
<totfact> 0.11299452E+00</totfact>
</mgrwt>
</event>
<event>
 4    1  0.2471347E+000  0.5136759E+02  0.7957747E-01  0.1438102E+00
         13   -1    0    0    0    0  0.00000000000E+00  0.00000000000E+00  0.99999944183E+02  0.10000000000E+03  0.10566000000E+00 0.  1.
         22   -1    0    0    0    0 -0.00000000000E+00 -0.00000000000E+00 -0.10429555436E+02  0.10429555436E+02  0.00000000000E+00 0.  1.
         13    1    1    2    0    0 -0.10851630222E+02 -0.45685635287E+01  0.87634338189E+01  0.14677826390E+02  0.10566000000E+00 0. -1.
        996    1    1    2    0    0  0.10851630222E+02  0.45685635287E+01  0.80806954928E+02  0.95751729049E+02  0.50000000000E+02 0.  0.
<mgrwt>
<rscale>  0 0.51367593E+02</rscale>
<asrwt>0</asrwt>
<pdfrwt beam="1">  1       13 0.10000000E+01 0.51367593E+02</pdfrwt>
<pdfrwt beam="2">  1       22 0.10429580E+00 0.51367593E+02</pdfrwt>
<totfact> 0.13240002E+00</totfact>
</mgrwt>
</event>
<event>
 4    1  0.2471347E+000  0.5565180E+02  0.7957747E-01  0.1417041E+00
         13   -1    0    0    0    0  0.00000000000E+00  0.00000000000E+00  0.99999944167E+02  0.99999999987E+02  0.10566000000E+00 0.  1.
         22   -1    0    0    0    0 -0.00000000000E+00 -0.00000000000E+00 -0.73201650216E+02  0.73201650216E+02  0.00000000000E+00 0. -1.
         13    1    1    2    0    0 -0.22090704007E+02  0.10446250160E+02 -0.62990750315E+02  0.67564555317E+02  0.10566000000E+00 0. -1.
        996    1    1    2    0    0  0.22090704007E+02 -0.10446250160E+02  0.89789044265E+02  0.10563709489E+03  0.50000000000E+02 0.  0.
<mgrwt>
<rscale>  0 0.55651805E+02</rscale>
<asrwt>0</asrwt>
<pdfrwt beam="1">  1       13 0.10000000E+01 0.55651805E+02</pdfrwt>
<pdfrwt beam="2">  1       22 0.73201658E+00 0.55651805E+02</pdfrwt>
<totfact> 0.57732507E-02</totfact>
</mgrwt>
</event>
<event>
 4    1  0.2471347E+000  0.5100022E+02  0.7957747E-01  0.1440020E+00
         13   -1    0    0    0    0  0.00000000000E+00  0.00000000000E+00  0.99999944181E+02  0.10000000000E+03  0.10566000000E+00 0.  1.
         22   -1    0    0    0    0 -0.00000000000E+00 -0.00000000000E+00 -0.93325354775E+01  0.93325354775E+01  0.00000000000E+00 0.  1.
         13    1    1    2    0    0  0.52101933536E+01  0.85951538776E+01  0.16559798729E+02  0.19371651528E+02  0.10566000000E+00 0. -1.
        996    1    1    2    0    0 -0.52101933536E+01 -0.85951538776E+01  0.74107609974E+02  0.89960883950E+02  0.50000000000E+02 0.  0.
<mgrwt>
<rscale>  0 0.51000223E+02</rscale>
<asrwt>0</asrwt>
<pdfrwt beam="1">  1       13 0.10000000E+01 0.51000223E+02</pdfrwt>
<pdfrwt beam="2">  1       22 0.93325608E-01 0.51000223E+02</pdfrwt>
<totfact> 0.15529143E+00</totfact>
</mgrwt>
</event>
<event>
 4    1  0.2471347E+000  0.5551542E+02  0.7957747E-01  0.1417677E+00
         13   -1    0    0    0    0  0.00000000000E+00  0.00000000000E+00  0.99999944178E+02  0.99999999999E+02  0.10566000000E+00 0. -1.
         22   -1    0    0    0    0 -0.00000000000E+00 -0.00000000000E+00 -0.16444494615E+02  0.16444494615E+02  0.00000000000E+00 0. -1.
         13    1    1    2    0    0 -0.17675738578E+02  0.16417373463E+02  0.15744860386E+02  0.28807528153E+02  0.10566000000E+00 0.  1.
        996    1    1    2    0    0  0.17675738578E+02 -0.16417373463E+02  0.67810589178E+02  0.87636966460E+02  0.50000000000E+02 0.  0.
<mgrwt>
<rscale>  0 0.55515420E+02</rscale>
<asrwt>0</asrwt>
<pdfrwt beam="1">  1       13 0.10000000E+01 0.55515420E+02</pdfrwt>
<pdfrwt beam="2">  1       22 0.16444518E+00 0.55515420E+02</pdfrwt>
<totfact> 0.64848540E-01</totfact>
</mgrwt>
</event>
<event>
 4    1  0.2471347E+000  0.5199847E+02  0.7957747E-01  0.1434851E+00
         13   -1    0    0    0    0  0.00000000000E+00  0.00000000000E+00  0.99999944173E+02  0.99999999993E+02  0.10566000000E+00 0.  1.
         22   -1    0    0    0    0 -0.00000000000E+00 -0.00000000000E+00 -0.14288502698E+02  0.14288502698E+02  0.00000000000E+00 0.  1.
         13    1    1    2    0    0 -0.18288754758E+01  0.14159678158E+02  0.28454714014E+00  0.14280525275E+02  0.10566000000E+00 0. -1.
        996    1    1    2    0    0  0.18288754758E+01 -0.14159678158E+02  0.85426894335E+02  0.10000797742E+03  0.50000000000E+02 0.  0.
<mgrwt>
<rscale>  0 0.51998474E+02</rscale>
<asrwt>0</asrwt>
<pdfrwt beam="1">  1       13 0.10000000E+01 0.51998474E+02</pdfrwt>
<pdfrwt beam="2">  1       22 0.14288527E+00 0.51998474E+02</pdfrwt>
<totfact> 0.81574577E-01</totfact>
</mgrwt>
</event>
<event>
 4    1  0.2471347E+000  0.5195738E+02  0.7957747E-01  0.1435061E+00
         13   -1    0    0    0    0  0.00000000000E+00  0.00000000000E+00  0.99999944171E+02  0.99999999991E+02  0.10566000000E+00 0.  1.
         22   -1    0    0    0    0 -0.00000000000E+00 -0.00000000000E+00 -0.12617960458E+02  0.12617960458E+02  0.00000000000E+00 0. -1.
         13    1    1    2    0    0 -0.13063515790E+02 -0.53771448506E+01  0.45552416474E+01  0.14843534689E+02  0.10566000000E+00 0. -1.
        996    1    1    2    0    0  0.13063515790E+02  0.53771448506E+01  0.82826742066E+02  0.97774425761E+02  0.50000000000E+02 0.  0.
<mgrwt>
<rscale>  0 0.51957378E+02</rscale>
<asrwt>0</asrwt>
<pdfrwt beam="1">  1       13 0.10000000E+01 0.51957378E+02</pdfrwt>
<pdfrwt beam="2">  1       22 0.12617985E+00 0.51957378E+02</pdfrwt>
<totfact> 0.99459605E-01</totfact>
</mgrwt>
</event>
<event>
 4    1  0.2471347E+000  0.5168846E+02  0.7957747E-01  0.1436442E+00
         13   -1    0    0    0    0  0.00000000000E+00  0.00000000000E+00  0.99999944182E+02  0.10000000000E+03  0.10566000000E+00 0.  1.
         22   -1    0    0    0    0 -0.00000000000E+00 -0.00000000000E+00 -0.11439260036E+02  0.11439260036E+02  0.00000000000E+00 0.  1.
         13    1    1    2    0    0 -0.82896304068E+01 -0.10147866251E+02  0.69388042704E+01  0.14827519364E+02  0.10566000000E+00 0. -1.
        996    1    1    2    0    0  0.82896304068E+01  0.10147866251E+02  0.81621879875E+02  0.96611740674E+02  0.50000000000E+02 0.  0.
<mgrwt>
<rscale>  0 0.51688463E+02</rscale>
<asrwt>0</asrwt>
<pdfrwt beam="1">  1       13 0.10000000E+01 0.51688463E+02</pdfrwt>
<pdfrwt beam="2">  1       22 0.11439285E+00 0.51688463E+02</pdfrwt>
<totfact> 0.11551263E+00</totfact>
</mgrwt>
</event>
<event>
 4    1  0.2471347E+000  0.5213167E+02  0.7957747E-01  0.1434172E+00
         13   -1    0    0    0    0  0.00000000000E+00  0.00000000000E+00  0.99999944174E+02  0.99999999994E+02  0.10566000000E+00 0.  1.
         22   -1    0    0    0    0 -0.00000000000E+00 -0.00000000000E+00 -0.24617441550E+02  0.24617441550E+02  0.00000000000E+00 0. -1.
         13    1    1    2    0    0  0.14713085900E+02 -0.11117222183E+01 -0.14514933925E+02  0.20697953857E+02  0.10566000000E+00 0. -1.
        996    1    1    2    0    0 -0.14713085900E+02  0.11117222183E+01  0.89897436549E+02  0.10391948769E+03  0.50000000000E+02 0.  0.
<mgrwt>
<rscale>  0 0.52131668E+02</rscale>
<asrwt>0</asrwt>
<pdfrwt beam="1">  1       13 0.10000000E+01 0.52131668E+02</pdfrwt>
<pdfrwt beam="2">  1       22 0.24617463E+00 0.52131668E+02</pdfrwt>
<totfact> 0.30393140E-01</totfact>
</mgrwt>
</event>
<event>
 4    1  0.2471347E+000  0.6307930E+02  0.7957747E-01  0.1385346E+00
         13   -1    0    0    0    0  0.00000000000E+00  0.00000000000E+00  0.99999944184E+02  0.10000000000E+03  0.10566000000E+00 0.  1.
         22   -1    0    0    0    0 -0.00000000000E+00 -0.00000000000E+00 -0.25858281672E+02  0.25858281672E+02  0.00000000000E+00 0. -1.
         13    1    1    2    0    0  0.35869776887E+02  0.13869301329E+02  0.24635015009E+02  0.45671583526E+02  0.10566000000E+00 0. -1.
        996    1    1    2    0    0 -0.35869776887E+02 -0.13869301329E+02  0.49506647503E+02  0.80186698150E+02  0.50000000000E+02 0.  0.
<mgrwt>
<rscale>  0 0.63079303E+02</rscale>
<asrwt>0</asrwt>
<pdfrwt beam="1">  1       13 0.10000000E+01 0.63079303E+02</pdfrwt>
<pdfrwt beam="2">  1       22 0.25858302E+00 0.63079303E+02</pdfrwt>
<totfact> 0.28008854E-01</totfact>
</mgrwt>
</event>
<event>
 4    1  0.2471347E+000  0.5116693E+02  0.7957747E-01  0.1439147E+00
         13   -1    0    0    0    0  0.00000000000E+00  0.00000000000E+00  0.99999944175E+02  0.99999999995E+02  0.10566000000E+00 0.  1.
         22   -1    0    0    0    0 -0.00000000000E+00 -0.00000000000E+00 -0.97132145498E+01  0.97132145498E+01  0.00000000000E+00 0.  1.
         13    1    1    2    0    0 -0.97196164203E+01 -0.48563388884E+01  0.20192587238E+02  0.22930475664E+02  0.10566000000E+00 0. -1.
        996    1    1    2    0    0  0.97196164203E+01  0.48563388884E+01  0.70094142387E+02  0.86782738881E+02  0.50000000000E+02 0.  0.
<mgrwt>
<rscale>  0 0.51166932E+02</rscale>
<asrwt>0</asrwt>
<pdfrwt beam="1">  1       13 0.10000000E+01 0.51166932E+02</pdfrwt>
<pdfrwt beam="2">  1       22 0.97132398E-01 0.51166932E+02</pdfrwt>
<totfact> 0.14672574E+00</totfact>
</mgrwt>
</event>
<event>
 4    1  0.2471347E+000  0.6461311E+02  0.7957747E-01  0.1379433E+00
         13   -1    0    0    0    0  0.00000000000E+00  0.00000000000E+00  0.99999944176E+02  0.99999999996E+02  0.10566000000E+00 0.  1.
         22   -1    0    0    0    0 -0.00000000000E+00 -0.00000000000E+00 -0.50111744094E+02  0.50111744094E+02  0.00000000000E+00 0. -1.
         13    1    1    2    0    0 -0.35765798221E+02  0.19891261195E+02 -0.27492291243E+02  0.49302046977E+02  0.10566000000E+00 0. -1.
        996    1    1    2    0    0  0.35765798221E+02 -0.19891261195E+02  0.77380491325E+02  0.10080969711E+03  0.50000000000E+02 0.  0.
<mgrwt>
<rscale>  0 0.64613115E+02</rscale>
<asrwt>0</asrwt>
<pdfrwt beam="1">  1       13 0.10000000E+01 0.64613115E+02</pdfrwt>
<pdfrwt beam="2">  1       22 0.50111758E+00 0.64613115E+02</pdfrwt>
<totfact> 0.73531805E-02</totfact>
</mgrwt>
</event>
<event>
 4    1  0.2471347E+000  0.5247848E+02  0.7957747E-01  0.1432414E+00
         13   -1    0    0    0    0  0.00000000000E+00  0.00000000000E+00  0.99999944181E+02  0.10000000000E+03  0.10566000000E+00 0. -1.
         22   -1    0    0    0    0 -0.00000000000E+00 -0.00000000000E+00 -0.11990591776E+02  0.11990591776E+02  0.00000000000E+00 0. -1.
         13    1    1    2    0    0  0.13559361905E+02  0.83746568066E+01  0.13686078774E+02  0.21007405555E+02  0.10566000000E+00 0.  1.
        996    1    1    2    0    0 -0.13559361905E+02 -0.83746568066E+01  0.74323273631E+02  0.90983186222E+02  0.50000000000E+02 0.  0.
<mgrwt>
<rscale>  0 0.52478483E+02</rscale>
<asrwt>0</asrwt>
<pdfrwt beam="1">  1       13 0.10000000E+01 0.52478483E+02</pdfrwt>
<pdfrwt beam="2">  1       22 0.11990616E+00 0.52478483E+02</pdfrwt>
<totfact> 0.10773780E+00</totfact>
</mgrwt>
</event>
<event>
 4    1  0.2471347E+000  0.5144542E+02  0.7957747E-01  0.1437698E+00
         13   -1    0    0    0    0  0.00000000000E+00  0.00000000000E+00  0.99999944181E+02  0.10000000000E+03  0.10566000000E+00 0.  1.
         22   -1    0    0    0    0 -0.00000000000E+00 -0.00000000000E+00 -0.38052805482E+02  0.38052805482E+02  0.00000000000E+00 0. -1.
         13    1    1    2    0    0 -0.77637718236E+01  0.92927206456E+01 -0.30188889355E+02  0.32527081247E+02  0.10566000000E+00 0. -1.
        996    1    1    2    0    0  0.77637718236E+01 -0.92927206456E+01  0.92136028054E+02  0.10552572424E+03  0.50000000000E+02 0.  0.
<mgrwt>
<rscale>  0 0.51445416E+02</rscale>
<asrwt>0</asrwt>
<pdfrwt beam="1">  1       13 0.10000000E+01 0.51445416E+02</pdfrwt>
<pdfrwt beam="2">  1       22 0.38052823E+00 0.51445416E+02</pdfrwt>
<totfact> 0.13553971E-01</totfact>
</mgrwt>
</event>
<event>
 4    1  0.2471347E+000  0.5632992E+02  0.7957747E-01  0.1413912E+00
         13   -1    0    0    0    0  0.00000000000E+00  0.00000000000E+00  0.99999944183E+02  0.10000000000E+03  0.10566000000E+00 0.  1.
         22   -1    0    0    0    0 -0.00000000000E+00 -0.00000000000E+00 -0.17158952673E+02  0.17158952673E+02  0.00000000000E+00 0.  1.
         13    1    1    2    0    0 -0.56183596194E+01 -0.25327719805E+02  0.32733481028E+02  0.41767826129E+02  0.10566000000E+00 0. -1.
        996    1    1    2    0    0  0.56183596194E+01  0.25327719805E+02  0.50107510482E+02  0.75391126547E+02  0.50000000000E+02 0.  0.
<mgrwt>
<rscale>  0 0.56329915E+02</rscale>
<asrwt>0</asrwt>
<pdfrwt beam="1">  1       13 0.10000000E+01 0.56329915E+02</pdfrwt>
<pdfrwt beam="2">  1       22 0.17158976E+00 0.56329915E+02</pdfrwt>
<totfact> 0.60293479E-01</totfact>
</mgrwt>
</event>
<event>
 4    1  0.2471347E+000  0.5803075E+02  0.7957747E-01  0.1406287E+00
         13   -1    0    0    0    0  0.00000000000E+00  0.00000000000E+00  0.99999944176E+02  0.99999999996E+02  0.10566000000E+00 0. -1.
         22   -1    0    0    0    0 -0.00000000000E+00 -0.00000000000E+00 -0.19459655889E+02  0.19459655889E+02  0.00000000000E+00 0.  1.
         13    1    1    2    0    0 -0.10866243882E+02 -0.27376871081E+02  0.20028727349E+02  0.35619228087E+02  0.10566000000E+00 0.  1.
        996    1    1    2    0    0  0.10866243882E+02  0.27376871081E+02  0.60511560937E+02  0.83840427798E+02  0.50000000000E+02 0.  0.
<mgrwt>
<rscale>  0 0.58030753E+02</rscale>
<asrwt>0</asrwt>
<pdfrwt beam="1">  1       13 0.10000000E+01 0.58030753E+02</pdfrwt>
<pdfrwt beam="2">  1       22 0.19459678E+00 0.58030753E+02</pdfrwt>
<totfact> 0.48166385E-01</totfact>
</mgrwt>
</event>
<event>
 4    1  0.2471347E+000  0.5572984E+02  0.7957747E-01  0.1416679E+00
         13   -1    0    0    0    0  0.00000000000E+00  0.00000000000E+00  0.99999944175E+02  0.99999999995E+02  0.10566000000E+00 0. -1.
         22   -1    0    0    0    0 -0.00000000000E+00 -0.00000000000E+00 -0.19983124534E+02  0.19983124534E+02  0.00000000000E+00 0.  1.
         13    1    1    2    0    0 -0.73652861104E+01  0.23485482392E+02  0.28237209091E+01  0.24774985095E+02  0.10566000000E+00 0.  1.
        996    1    1    2    0    0  0.73652861104E+01 -0.23485482392E+02  0.77193098732E+02  0.95208139434E+02  0.50000000000E+02 0.  0.
<mgrwt>
<rscale>  0 0.55729842E+02</rscale>
<asrwt>0</asrwt>
<pdfrwt beam="1">  1       13 0.10000000E+01 0.55729842E+02</pdfrwt>
<pdfrwt beam="2">  1       22 0.19983147E+00 0.55729842E+02</pdfrwt>
<totfact> 0.45673062E-01</totfact>
</mgrwt>
</event>
<event>
 4    1  0.2471347E+000  0.5220087E+02  0.7957747E-01  0.1433820E+00
         13   -1    0    0    0    0  0.00000000000E+00  0.00000000000E+00  0.99999944184E+02  0.10000000000E+03  0.10566000000E+00 0. -1.
         22   -1    0    0    0    0 -0.00000000000E+00 -0.00000000000E+00 -0.25935669360E+02  0.25935669360E+02  0.00000000000E+00 0.  1.
         13    1    1    2    0    0 -0.87060800347E+01 -0.12212071439E+02 -0.15941505606E+02  0.21887742767E+02  0.10566000000E+00 0.  1.
        996    1    1    2    0    0  0.87060800347E+01  0.12212071439E+02  0.90005780430E+02  0.10404792660E+03  0.50000000000E+02 0.  0.
<mgrwt>
<rscale>  0 0.52200867E+02</rscale>
<asrwt>0</asrwt>
<pdfrwt beam="1">  1       13 0.10000000E+01 0.52200867E+02</pdfrwt>
<pdfrwt beam="2">  1       22 0.25935690E+00 0.52200867E+02</pdfrwt>
<totfact> 0.27431561E-01</totfact>
</mgrwt>
</event>
<event>
 4    1  0.2471347E+000  0.5102995E+02  0.7957747E-01  0.1439864E+00
         13   -1    0    0    0    0  0.00000000000E+00  0.00000000000E+00  0.99999944180E+02  0.10000000000E+03  0.10566000000E+00 0.  1.
         22   -1    0    0    0    0 -0.00000000000E+00 -0.00000000000E+00 -0.14747491165E+02  0.14747491165E+02  0.00000000000E+00 0.  1.
         13    1    1    2    0    0  0.84966198833E+01 -0.56447864127E+01 -0.47747162143E+01  0.11263447165E+02  0.10566000000E+00 0. -1.
        996    1    1    2    0    0 -0.84966198833E+01  0.56447864127E+01  0.90027169229E+02  0.10348404400E+03  0.50000000000E+02 0.  0.
<mgrwt>
<rscale>  0 0.51029954E+02</rscale>
<asrwt>0</asrwt>
<pdfrwt beam="1">  1       13 0.10000000E+01 0.51029954E+02</pdfrwt>
<pdfrwt beam="2">  1       22 0.14747515E+00 0.51029954E+02</pdfrwt>
<totfact> 0.77287860E-01</totfact>
</mgrwt>
</event>
<event>
 4    1  0.2471347E+000  0.5192115E+02  0.7957747E-01  0.1435247E+00
         13   -1    0    0    0    0  0.00000000000E+00  0.00000000000E+00  0.99999944174E+02  0.99999999994E+02  0.10566000000E+00 0. -1.
         22   -1    0    0    0    0 -0.00000000000E+00 -0.00000000000E+00 -0.11216160712E+02  0.11216160712E+02  0.00000000000E+00 0. -1.
         13    1    1    2    0    0 -0.85018828664E+01  0.11114108119E+02  0.11508733443E+02  0.18118154460E+02  0.10566000000E+00 0.  1.
        996    1    1    2    0    0  0.85018828664E+01 -0.11114108119E+02  0.77275050019E+02  0.93098006246E+02  0.50000000000E+02 0.  0.
<mgrwt>
<rscale>  0 0.51921146E+02</rscale>
<asrwt>0</asrwt>
<pdfrwt beam="1">  1       13 0.10000000E+01 0.51921146E+02</pdfrwt>
<pdfrwt beam="2">  1       22 0.11216185E+00 0.51921146E+02</pdfrwt>
<totfact> 0.11904241E+00</totfact>
</mgrwt>
</event>
<event>
 4    1  0.2471347E+000  0.5257612E+02  0.7957747E-01  0.1431922E+00
         13   -1    0    0    0    0  0.00000000000E+00  0.00000000000E+00  0.99999944180E+02  0.10000000000E+03  0.10566000000E+00 0. -1.
         22   -1    0    0    0    0 -0.00000000000E+00 -0.00000000000E+00 -0.12129150079E+02  0.12129150079E+02  0.00000000000E+00 0. -1.
         13    1    1    2    0    0 -0.96007159467E+01 -0.13117724213E+02  0.13969428248E+02  0.21433724008E+02  0.10566000000E+00 0.  1.
        996    1    1    2    0    0  0.96007159467E+01  0.13117724213E+02  0.73901365853E+02  0.90695426071E+02  0.50000000000E+02 0.  0.
<mgrwt>
<rscale>  0 0.52576120E+02</rscale>
<asrwt>0</asrwt>
<pdfrwt beam="1">  1       13 0.10000000E+01 0.52576120E+02</pdfrwt>
<pdfrwt beam="2">  1       22 0.12129175E+00 0.52576120E+02</pdfrwt>
<totfact> 0.10587733E+00</totfact>
</mgrwt>
</event>
<event>
 4    1  0.2471347E+000  0.5480364E+02  0.7957747E-01  0.1421030E+00
         13   -1    0    0    0    0  0.00000000000E+00  0.00000000000E+00  0.99999944183E+02  0.10000000000E+03  0.10566000000E+00 0. -1.
         22   -1    0    0    0    0 -0.00000000000E+00 -0.00000000000E+00 -0.15100226950E+02  0.15100226950E+02  0.00000000000E+00 0. -1.
         13    1    1    2    0    0  0.12046673220E+02 -0.18929250211E+02  0.30666448897E+02  0.37998435510E+02  0.10566000000E+00 0.  1.
        996    1    1    2    0    0 -0.12046673220E+02  0.18929250211E+02  0.54233268336E+02  0.77101791442E+02  0.50000000000E+02 0.  0.
<mgrwt>
<rscale>  0 0.54803639E+02</rscale>
<asrwt>0</asrwt>
<pdfrwt beam="1">  1       13 0.10000000E+01 0.54803639E+02</pdfrwt>
<pdfrwt beam="2">  1       22 0.15100251E+00 0.54803639E+02</pdfrwt>
<totfact> 0.74875637E-01</totfact>
</mgrwt>
</event>
<event>
 4    1  0.2471347E+000  0.5117206E+02  0.7957747E-01  0.1439120E+00
         13   -1    0    0    0    0  0.00000000000E+00  0.00000000000E+00  0.99999944184E+02  0.10000000000E+03  0.10566000000E+00 0.  1.
         22   -1    0    0    0    0 -0.00000000000E+00 -0.00000000000E+00 -0.10871909121E+02  0.10871909121E+02  0.00000000000E+00 0. -1.
         13    1    1    2    0    0  0.18352606515E+01 -0.10733653795E+02  0.41061573295E+01  0.11638350291E+02  0.10566000000E+00 0. -1.
        996    1    1    2    0    0 -0.18352606515E+01  0.10733653795E+02  0.85021877733E+02  0.99233558834E+02  0.50000000000E+02 0.  0.
<mgrwt>
<rscale>  0 0.51172058E+02</rscale>
<asrwt>0</asrwt>
<pdfrwt beam="1">  1       13 0.10000000E+01 0.51172058E+02</pdfrwt>
<pdfrwt beam="2">  1       22 0.10871934E+00 0.51172058E+02</pdfrwt>
<totfact> 0.12448220E+00</totfact>
</mgrwt>
</event>
<event>
 4    1  0.2471347E+000  0.5569795E+02  0.7957747E-01  0.1416827E+00
         13   -1    0    0    0    0  0.00000000000E+00  0.00000000000E+00  0.99999944184E+02  0.10000000000E+03  0.10566000000E+00 0. -1.
         22   -1    0    0    0    0 -0.00000000000E+00 -0.00000000000E+00 -0.31086345845E+02  0.31086345845E+02  0.00000000000E+00 0.  1.
         13    1    1    2    0    0  0.20351977357E+02 -0.13713447535E+02 -0.16172735568E+02  0.29390987826E+02  0.10566000000E+00 0.  1.
        996    1    1    2    0    0 -0.20351977357E+02  0.13713447535E+02  0.85086333907E+02  0.10169535802E+03  0.50000000000E+02 0.  0.
<mgrwt>
<rscale>  0 0.55697950E+02</rscale>
<asrwt>0</asrwt>
<pdfrwt beam="1">  1       13 0.10000000E+01 0.55697950E+02</pdfrwt>
<pdfrwt beam="2">  1       22 0.31086365E+00 0.55697950E+02</pdfrwt>
<totfact> 0.19474669E-01</totfact>
</mgrwt>
</event>
<event>
 4    1  0.2471347E+000  0.7303781E+02  0.7957747E-01  0.1350057E+00
         13   -1    0    0    0    0  0.00000000000E+00  0.00000000000E+00  0.99999944183E+02  0.10000000000E+03  0.10566000000E+00 0. -1.
         22   -1    0    0    0    0 -0.00000000000E+00 -0.00000000000E+00 -0.57276716786E+02  0.57276716786E+02  0.00000000000E+00 0.  1.
         13    1    1    2    0    0  0.31778480484E+02 -0.42715913665E+02 -0.23954065633E+02  0.58380900357E+02  0.10566000000E+00 0.  1.
        996    1    1    2    0    0 -0.31778480484E+02  0.42715913665E+02  0.66677293030E+02  0.98895816433E+02  0.50000000000E+02 0.  0.
<mgrwt>
<rscale>  0 0.73037806E+02</rscale>
<asrwt>0</asrwt>
<pdfrwt beam="1">  1       13 0.10000000E+01 0.73037806E+02</pdfrwt>
<pdfrwt beam="2">  1       22 0.57276729E+00 0.73037806E+02</pdfrwt>
<totfact> 0.58033320E-02</totfact>
</mgrwt>
</event>
<event>
 4    1  0.2471347E+000  0.5191629E+02  0.7957747E-01  0.1435271E+00
         13   -1    0    0    0    0  0.00000000000E+00  0.00000000000E+00  0.99999944174E+02  0.99999999994E+02  0.10566000000E+00 0.  1.
         22   -1    0    0    0    0 -0.00000000000E+00 -0.00000000000E+00 -0.15815235527E+02  0.15815235527E+02  0.00000000000E+00 0. -1.
         13    1    1    2    0    0 -0.90359722909E+01  0.10660809489E+02 -0.30465899372E+01  0.14303654375E+02  0.10566000000E+00 0. -1.
        996    1    1    2    0    0  0.90359722909E+01 -0.10660809489E+02  0.87231298584E+02  0.10151158115E+03  0.50000000000E+02 0.  0.
<mgrwt>
<rscale>  0 0.51916295E+02</rscale>
<asrwt>0</asrwt>
<pdfrwt beam="1">  1       13 0.10000000E+01 0.51916295E+02</pdfrwt>
<pdfrwt beam="2">  1       22 0.15815259E+00 0.51916295E+02</pdfrwt>
<totfact> 0.68864205E-01</totfact>
</mgrwt>
</event>
<event>
 4    1  0.2471347E+000  0.5480077E+02  0.7957747E-01  0.1421043E+00
         13   -1    0    0    0    0  0.00000000000E+00  0.00000000000E+00  0.99999944167E+02  0.99999999988E+02  0.10566000000E+00 0. -1.
         22   -1    0    0    0    0 -0.00000000000E+00 -0.00000000000E+00 -0.18916045499E+02  0.18916045499E+02  0.00000000000E+00 0.  1.
         13    1    1    2    0    0 -0.18462659163E+02 -0.12737910926E+02  0.17549721385E+01  0.22499227750E+02  0.10566000000E+00 0.  1.
        996    1    1    2    0    0  0.18462659163E+02  0.12737910926E+02  0.79328926530E+02  0.96416817737E+02  0.50000000000E+02 0.  0.
<mgrwt>
<rscale>  0 0.54800768E+02</rscale>
<asrwt>0</asrwt>
<pdfrwt beam="1">  1       13 0.10000000E+01 0.54800768E+02</pdfrwt>
<pdfrwt beam="2">  1       22 0.18916068E+00 0.54800768E+02</pdfrwt>
<totfact> 0.50471456E-01</totfact>
</mgrwt>
</event>
<event>
 4    1  0.2471347E+000  0.5149474E+02  0.7957747E-01  0.1437442E+00
         13   -1    0    0    0    0  0.00000000000E+00  0.00000000000E+00  0.99999944180E+02  0.10000000000E+03  0.10566000000E+00 0.  1.
         22   -1    0    0    0    0 -0.00000000000E+00 -0.00000000000E+00 -0.20577768820E+02  0.20577768820E+02  0.00000000000E+00 0. -1.
         13    1    1    2    0    0  0.36685427957E+01  0.11757987572E+02 -0.11004202859E+02  0.16517025234E+02  0.10566000000E+00 0. -1.
        996    1    1    2    0    0 -0.36685427957E+01 -0.11757987572E+02  0.90426378218E+02  0.10406074359E+03  0.50000000000E+02 0.  0.
<mgrwt>
<rscale>  0 0.51494742E+02</rscale>
<asrwt>0</asrwt>
<pdfrwt beam="1">  1       13 0.10000000E+01 0.51494742E+02</pdfrwt>
<pdfrwt beam="2">  1       22 0.20577791E+00 0.51494742E+02</pdfrwt>
<totfact> 0.42913817E-01</totfact>
</mgrwt>
</event>
<event>
 4    1  0.2471347E+000  0.6297245E+02  0.7957747E-01  0.1385765E+00
         13   -1    0    0    0    0  0.00000000000E+00  0.00000000000E+00  0.99999944174E+02  0.99999999995E+02  0.10566000000E+00 0.  1.
         22   -1    0    0    0    0 -0.00000000000E+00 -0.00000000000E+00 -0.71762200508E+02  0.71762200508E+02  0.00000000000E+00 0. -1.
         13    1    1    2    0    0 -0.37445416444E+02  0.79605748402E+01 -0.55232288923E+02  0.67202283207E+02  0.10566000000E+00 0. -1.
        996    1    1    2    0    0  0.37445416444E+02 -0.79605748402E+01  0.83470032589E+02  0.10455991730E+03  0.50000000000E+02 0.  0.
<mgrwt>
<rscale>  0 0.62972454E+02</rscale>
<asrwt>0</asrwt>
<pdfrwt beam="1">  1       13 0.10000000E+01 0.62972454E+02</pdfrwt>
<pdfrwt beam="2">  1       22 0.71762208E+00 0.62972454E+02</pdfrwt>
<totfact> 0.65313086E-02</totfact>
</mgrwt>
</event>
<event>
 4    1  0.2471347E+000  0.5117769E+02  0.7957747E-01  0.1439091E+00
         13   -1    0    0    0    0  0.00000000000E+00  0.00000000000E+00  0.99999944181E+02  0.10000000000E+03  0.10566000000E+00 0. -1.
         22   -1    0    0    0    0 -0.00000000000E+00 -0.00000000000E+00 -0.13261819735E+02  0.13261819735E+02  0.00000000000E+00 0.  1.
         13    1    1    2    0    0 -0.10903773513E+02 -0.51345239666E+00 -0.17345917476E+01  0.11053319988E+02  0.10566000000E+00 0.  1.
        996    1    1    2    0    0  0.10903773513E+02  0.51345239666E+00  0.88472716193E+02  0.10220849975E+03  0.50000000000E+02 0.  0.
<mgrwt>
<rscale>  0 0.51177690E+02</rscale>
<asrwt>0</asrwt>
<pdfrwt beam="1">  1       13 0.10000000E+01 0.51177690E+02</pdfrwt>
<pdfrwt beam="2">  1       22 0.13261844E+00 0.51177690E+02</pdfrwt>
<totfact> 0.91816456E-01</totfact>
</mgrwt>
</event>
<event>
 4    1  0.2471347E+000  0.5113010E+02  0.7957747E-01  0.1439340E+00
         13   -1    0    0    0    0  0.00000000000E+00  0.00000000000E+00  0.99999944188E+02  0.10000000001E+03  0.10566000000E+00 0. -1.
         22   -1    0    0    0    0 -0.00000000000E+00 -0.00000000000E+00 -0.10245823275E+02  0.10245823275E+02  0.00000000000E+00 0. -1.
         13    1    1    2    0    0 -0.39337984907E+01 -0.99404441670E+01  0.28601311144E+02  0.30534134407E+02  0.10566000000E+00 0.  1.
        996    1    1    2    0    0  0.39337984907E+01  0.99404441670E+01  0.61152809768E+02  0.79711688875E+02  0.50000000000E+02 0.  0.
<mgrwt>
<rscale>  0 0.51130101E+02</rscale>
<asrwt>0</asrwt>
<pdfrwt beam="1">  1       13 0.10000000E+01 0.51130101E+02</pdfrwt>
<pdfrwt beam="2">  1       22 0.10245848E+00 0.51130101E+02</pdfrwt>
<totfact> 0.13580577E+00</totfact>
</mgrwt>
</event>
<event>
 4    1  0.2471347E+000  0.5342166E+02  0.7957747E-01  0.1427714E+00
         13   -1    0    0    0    0  0.00000000000E+00  0.00000000000E+00  0.99999944177E+02  0.99999999997E+02  0.10566000000E+00 0.  1.
         22   -1    0    0    0    0 -0.00000000000E+00 -0.00000000000E+00 -0.27982632469E+02  0.27982632469E+02  0.00000000000E+00 0. -1.
         13    1    1    2    0    0 -0.46685181225E+01 -0.18223013538E+02 -0.16216546015E+02  0.24836682801E+02  0.10566000000E+00 0. -1.
        996    1    1    2    0    0  0.46685181225E+01  0.18223013538E+02  0.88233857722E+02  0.10314594967E+03  0.50000000000E+02 0.  0.
<mgrwt>
<rscale>  0 0.53421656E+02</rscale>
<asrwt>0</asrwt>
<pdfrwt beam="1">  1       13 0.10000000E+01 0.53421656E+02</pdfrwt>
<pdfrwt beam="2">  1       22 0.27982653E+00 0.53421656E+02</pdfrwt>
<totfact> 0.23686451E-01</totfact>
</mgrwt>
</event>
<event>
 4    1  0.2471347E+000  0.5312425E+02  0.7957747E-01  0.1429184E+00
         13   -1    0    0    0    0  0.00000000000E+00  0.00000000000E+00  0.99999944172E+02  0.99999999993E+02  0.10566000000E+00 0.  1.
         22   -1    0    0    0    0 -0.00000000000E+00 -0.00000000000E+00 -0.12836243171E+02  0.12836243171E+02  0.00000000000E+00 0.  1.
         13    1    1    2    0    0  0.16715497763E+02  0.65404897008E+01  0.28610516923E+02  0.33775119742E+02  0.10566000000E+00 0. -1.
        996    1    1    2    0    0 -0.16715497763E+02 -0.65404897008E+01  0.58553184078E+02  0.79061123422E+02  0.50000000000E+02 0.  0.
<mgrwt>
<rscale>  0 0.53124249E+02</rscale>
<asrwt>0</asrwt>
<pdfrwt beam="1">  1       13 0.10000000E+01 0.53124249E+02</pdfrwt>
<pdfrwt beam="2">  1       22 0.12836268E+00 0.53124249E+02</pdfrwt>
<totfact> 0.97071495E-01</totfact>
</mgrwt>
</event>
<event>
 4    1  0.2471347E+000  0.5304772E+02  0.7957747E-01  0.1429564E+00
         13   -1    0    0    0    0  0.00000000000E+00  0.00000000000E+00  0.99999944173E+02  0.99999999994E+02  0.10566000000E+00 0. -1.
         22   -1    0    0    0    0 -0.00000000000E+00 -0.00000000000E+00 -0.63423156090E+02  0.63423156090E+02  0.00000000000E+00 0.  1.
         13    1    1    2    0    0 -0.16222842175E+02 -0.71329910712E+01 -0.54893591106E+02  0.57683426375E+02  0.10566000000E+00 0.  1.
        996    1    1    2    0    0  0.16222842175E+02  0.71329910712E+01  0.91470379189E+02  0.10573972971E+03  0.50000000000E+02 0.  0.
<mgrwt>
<rscale>  0 0.53047716E+02</rscale>
<asrwt>0</asrwt>
<pdfrwt beam="1">  1       13 0.10000000E+01 0.53047716E+02</pdfrwt>
<pdfrwt beam="2">  1       22 0.63423166E+00 0.53047716E+02</pdfrwt>
<totfact> 0.80894289E-02</totfact>
</mgrwt>
</event>
<event>
 4    1  0.2471347E+000  0.5161717E+02  0.7957747E-01  0.1436809E+00
         13   -1    0    0    0    0  0.00000000000E+00  0.00000000000E+00  0.99999944178E+02  0.99999999998E+02  0.10566000000E+00 0.  1.
         22   -1    0    0    0    0 -0.00000000000E+00 -0.00000000000E+00 -0.71293983953E+02  0.71293983953E+02  0.00000000000E+00 0. -1.
         13    1    1    2    0    0 -0.53227117315E+01  0.11661934085E+02 -0.63954443575E+02  0.65226635540E+02  0.10566000000E+00 0. -1.
        996    1    1    2    0    0  0.53227117315E+01 -0.11661934085E+02  0.92660403799E+02  0.10606734841E+03  0.50000000000E+02 0.  0.
<mgrwt>
<rscale>  0 0.51617167E+02</rscale>
<asrwt>0</asrwt>
<pdfrwt beam="1">  1       13 0.10000000E+01 0.51617167E+02</pdfrwt>
<pdfrwt beam="2">  1       22 0.71293992E+00 0.51617167E+02</pdfrwt>
<totfact> 0.67842640E-02</totfact>
</mgrwt>
</event>
<event>
 4    1  0.2471347E+000  0.5127952E+02  0.7957747E-01  0.1438560E+00
         13   -1    0    0    0    0  0.00000000000E+00  0.00000000000E+00  0.99999944177E+02  0.99999999997E+02  0.10566000000E+00 0. -1.
         22   -1    0    0    0    0 -0.00000000000E+00 -0.00000000000E+00 -0.13078995713E+02  0.13078995713E+02  0.00000000000E+00 0. -1.
         13    1    1    2    0    0 -0.10457580747E+02 -0.44976063176E+01 -0.86076105772E+00  0.11416721566E+02  0.10566000000E+00 0.  1.
        996    1    1    2    0    0  0.10457580747E+02  0.44976063176E+01  0.87781709522E+02  0.10166227414E+03  0.50000000000E+02 0.  0.
<mgrwt>
<rscale>  0 0.51279523E+02</rscale>
<asrwt>0</asrwt>
<pdfrwt beam="1">  1       13 0.10000000E+01 0.51279523E+02</pdfrwt>
<pdfrwt beam="2">  1       22 0.13079020E+00 0.51279523E+02</pdfrwt>
<totfact> 0.93876454E-01</totfact>
</mgrwt>
</event>
<event>
 4    1  0.2471347E+000  0.5114507E+02  0.7957747E-01  0.1439261E+00
         13   -1    0    0    0    0  0.00000000000E+00  0.00000000000E+00  0.99999944177E+02  0.99999999998E+02  0.10566000000E+00 0.  1.
         22   -1    0    0    0    0 -0.00000000000E+00 -0.00000000000E+00 -0.95875521578E+01  0.95875521578E+01  0.00000000000E+00 0.  1.
         13    1    1    2    0    0 -0.24456646004E+01 -0.10480303432E+02  0.14677163849E+02  0.18200229066E+02  0.10566000000E+00 0. -1.
        996    1    1    2    0    0  0.24456646004E+01  0.10480303432E+02  0.75735228171E+02  0.91387323090E+02  0.50000000000E+02 0.  0.
<mgrwt>
<rscale>  0 0.51145069E+02</rscale>
<asrwt>0</asrwt>
<pdfrwt beam="1">  1       13 0.10000000E+01 0.51145069E+02</pdfrwt>
<pdfrwt beam="2">  1       22 0.95875774E-01 0.51145069E+02</pdfrwt>
<totfact> 0.14948425E+00</totfact>
</mgrwt>
</event>
<event>
 4    1  0.2471347E+000  0.5470395E+02  0.7957747E-01  0.1421504E+00
         13   -1    0    0    0    0  0.00000000000E+00  0.00000000000E+00  0.99999944175E+02  0.99999999995E+02  0.10566000000E+00 0.  1.
         22   -1    0    0    0    0 -0.00000000000E+00 -0.00000000000E+00 -0.14786180958E+02  0.14786180958E+02  0.00000000000E+00 0.  1.
         13    1    1    2    0    0 -0.14196791780E+02  0.17057931768E+02  0.23818040602E+02  0.32555063435E+02  0.10566000000E+00 0. -1.
        996    1    1    2    0    0  0.14196791780E+02 -0.17057931768E+02  0.61395722615E+02  0.82231117519E+02  0.50000000000E+02 0.  0.
<mgrwt>
<rscale>  0 0.54703948E+02</rscale>
<asrwt>0</asrwt>
<pdfrwt beam="1">  1       13 0.10000000E+01 0.54703948E+02</pdfrwt>
<pdfrwt beam="2">  1       22 0.14786205E+00 0.54703948E+02</pdfrwt>
<totfact> 0.77526841E-01</totfact>
</mgrwt>
</event>
<event>
 4    1  0.2471347E+000  0.5559051E+02  0.7957747E-01  0.1417327E+00
         13   -1    0    0    0    0  0.00000000000E+00  0.00000000000E+00  0.99999944168E+02  0.99999999988E+02  0.10566000000E+00 0.  1.
         22   -1    0    0    0    0 -0.00000000000E+00 -0.00000000000E+00 -0.31512993267E+02  0.31512993267E+02  0.00000000000E+00 0.  1.
         13    1    1    2    0    0 -0.23951089994E+02 -0.40804799572E+01 -0.16920286480E+02  0.29607639001E+02  0.10566000000E+00 0. -1.
        996    1    1    2    0    0  0.23951089994E+02  0.40804799572E+01  0.85407237381E+02  0.10190535425E+03  0.50000000000E+02 0.  0.
<mgrwt>
<rscale>  0 0.55590512E+02</rscale>
<asrwt>0</asrwt>
<pdfrwt beam="1">  1       13 0.10000000E+01 0.55590512E+02</pdfrwt>
<pdfrwt beam="2">  1       22 0.31513012E+00 0.55590512E+02</pdfrwt>
<totfact> 0.18994409E-01</totfact>
</mgrwt>
</event>
<event>
 4    1  0.2471347E+000  0.5108101E+02  0.7957747E-01  0.1439597E+00
         13   -1    0    0    0    0  0.00000000000E+00  0.00000000000E+00  0.99999944181E+02  0.10000000000E+03  0.10566000000E+00 0.  1.
         22   -1    0    0    0    0 -0.00000000000E+00 -0.00000000000E+00 -0.47165422348E+02  0.47165422348E+02  0.00000000000E+00 0. -1.
         13    1    1    2    0    0  0.12473449483E+01 -0.10378528764E+02 -0.39925135658E+02  0.41271023128E+02  0.10566000000E+00 0. -1.
        996    1    1    2    0    0 -0.12473449483E+01  0.10378528764E+02  0.92759657491E+02  0.10589439922E+03  0.50000000000E+02 0.  0.
<mgrwt>
<rscale>  0 0.51081011E+02</rscale>
<asrwt>0</asrwt>
<pdfrwt beam="1">  1       13 0.10000000E+01 0.51081011E+02</pdfrwt>
<pdfrwt beam="2">  1       22 0.47165437E+00 0.51081011E+02</pdfrwt>
<totfact> 0.86059483E-02</totfact>
</mgrwt>
</event>
<event>
 4    1  0.2471347E+000  0.5303939E+02  0.7957747E-01  0.1429605E+00
         13   -1    0    0    0    0  0.00000000000E+00  0.00000000000E+00  0.99999944184E+02  0.10000000000E+03  0.10566000000E+00 0. -1.
         22   -1    0    0    0    0 -0.00000000000E+00 -0.00000000000E+00 -0.15531648239E+02  0.15531648239E+02  0.00000000000E+00 0. -1.
         13    1    1    2    0    0 -0.15692702239E+02 -0.81801890963E+01  0.24614970155E+01  0.17867471249E+02  0.10566000000E+00 0.  1.
        996    1    1    2    0    0  0.15692702239E+02  0.81801890963E+01  0.82006798930E+02  0.97664176994E+02  0.50000000000E+02 0.  0.
<mgrwt>
<rscale>  0 0.53039385E+02</rscale>
<asrwt>0</asrwt>
<pdfrwt beam="1">  1       13 0.10000000E+01 0.53039385E+02</pdfrwt>
<pdfrwt beam="2">  1       22 0.15531672E+00 0.53039385E+02</pdfrwt>
<totfact> 0.71168487E-01</totfact>
</mgrwt>
</event>
<event>
 4    1  0.2471347E+000  0.6414704E+02  0.7957747E-01  0.1381209E+00
         13   -1    0    0    0    0  0.00000000000E+00  0.00000000000E+00  0.99999944179E+02  0.10000000000E+03  0.10566000000E+00 0. -1.
         22   -1    0    0    0    0 -0.00000000000E+00 -0.00000000000E+00 -0.28412225730E+02  0.28412225730E+02  0.00000000000E+00 0.  1.
         13    1    1    2    0    0  0.24843236732E+01  0.40108244083E+02  0.15067015905E+02  0.42917004087E+02  0.10566000000E+00 0.  1.
        996    1    1    2    0    0 -0.24843236732E+01 -0.40108244083E+02  0.56520702545E+02  0.85495221642E+02  0.50000000000E+02 0.  0.
<mgrwt>
<rscale>  0 0.64147043E+02</rscale>
<asrwt>0</asrwt>
<pdfrwt beam="1">  1       13 0.10000000E+01 0.64147043E+02</pdfrwt>
<pdfrwt beam="2">  1       22 0.28412246E+00 0.64147043E+02</pdfrwt>
<totfact> 0.23305870E-01</totfact>
</mgrwt>
</event>
<event>
 4    1  0.2471347E+000  0.5188246E+02  0.7957747E-01  0.1435445E+00
         13   -1    0    0    0    0  0.00000000000E+00  0.00000000000E+00  0.99999944180E+02  0.10000000000E+03  0.10566000000E+00 0. -1.
         22   -1    0    0    0    0 -0.00000000000E+00 -0.00000000000E+00 -0.10867226020E+02  0.10867226020E+02  0.00000000000E+00 0. -1.
         13    1    1    2    0    0 -0.86368159876E+01 -0.10825665683E+02  0.15416829550E+02  0.20723885381E+02  0.10566000000E+00 0.  1.
        996    1    1    2    0    0  0.86368159876E+01  0.10825665683E+02  0.73715888610E+02  0.90143340639E+02  0.50000000000E+02 0.  0.
<mgrwt>
<rscale>  0 0.51882460E+02</rscale>
<asrwt>0</asrwt>
<pdfrwt beam="1">  1       13 0.10000000E+01 0.51882460E+02</pdfrwt>
<pdfrwt beam="2">  1       22 0.10867251E+00 0.51882460E+02</pdfrwt>
<totfact> 0.12476927E+00</totfact>
</mgrwt>
</event>
<event>
 4    1  0.2471347E+000  0.5204987E+02  0.7957747E-01  0.1434589E+00
         13   -1    0    0    0    0  0.00000000000E+00  0.00000000000E+00  0.99999944176E+02  0.99999999996E+02  0.10566000000E+00 0.  1.
         22   -1    0    0    0    0 -0.00000000000E+00 -0.00000000000E+00 -0.14570109360E+02  0.14570109360E+02  0.00000000000E+00 0.  1.
         13    1    1    2    0    0  0.14462948762E+02 -0.11101188636E+00 -0.80672032546E-01  0.14463985708E+02  0.10566000000E+00 0. -1.
        996    1    1    2    0    0 -0.14462948762E+02  0.11101188636E+00  0.85510506848E+02  0.10010612365E+03  0.50000000000E+02 0.  0.
<mgrwt>
<rscale>  0 0.52049872E+02</rscale>
<asrwt>0</asrwt>
<pdfrwt beam="1">  1       13 0.10000000E+01 0.52049872E+02</pdfrwt>
<pdfrwt beam="2">  1       22 0.14570133E+00 0.52049872E+02</pdfrwt>
<totfact> 0.79013726E-01</totfact>
</mgrwt>
</event>
<event>
 4    1  0.2471347E+000  0.5554379E+02  0.7957747E-01  0.1417545E+00
         13   -1    0    0    0    0  0.00000000000E+00  0.00000000000E+00  0.99999944179E+02  0.10000000000E+03  0.10566000000E+00 0. -1.
         22   -1    0    0    0    0 -0.00000000000E+00 -0.00000000000E+00 -0.16350702343E+02  0.16350702343E+02  0.00000000000E+00 0. -1.
         13    1    1    2    0    0  0.14409902785E+02 -0.19428518607E+02  0.16869316798E+02  0.29490636596E+02  0.10566000000E+00 0.  1.
        996    1    1    2    0    0 -0.14409902785E+02  0.19428518607E+02  0.66779925038E+02  0.86860065747E+02  0.50000000000E+02 0.  0.
<mgrwt>
<rscale>  0 0.55543790E+02</rscale>
<asrwt>0</asrwt>
<pdfrwt beam="1">  1       13 0.10000000E+01 0.55543790E+02</pdfrwt>
<pdfrwt beam="2">  1       22 0.16350726E+00 0.55543790E+02</pdfrwt>
<totfact> 0.65496682E-01</totfact>
</mgrwt>
</event>
<event>
 4    1  0.2471347E+000  0.5647967E+02  0.7957747E-01  0.1413228E+00
         13   -1    0    0    0    0  0.00000000000E+00  0.00000000000E+00  0.99999944184E+02  0.10000000000E+03  0.10566000000E+00 0.  1.
         22   -1    0    0    0    0 -0.00000000000E+00 -0.00000000000E+00 -0.17123459468E+02  0.17123459468E+02  0.00000000000E+00 0.  1.
         13    1    1    2    0    0  0.84723845933E+00  0.26253284656E+02  0.27324451515E+02  0.37902369093E+02  0.10566000000E+00 0. -1.
        996    1    1    2    0    0 -0.84723845933E+00 -0.26253284656E+02  0.55552033201E+02  0.79221090380E+02  0.50000000000E+02 0.  0.
<mgrwt>
<rscale>  0 0.56479667E+02</rscale>
<asrwt>0</asrwt>
<pdfrwt beam="1">  1       13 0.10000000E+01 0.56479667E+02</pdfrwt>
<pdfrwt beam="2">  1       22 0.17123483E+00 0.56479667E+02</pdfrwt>
<totfact> 0.60529821E-01</totfact>
</mgrwt>
</event>
<event>
 4    1  0.2471347E+000  0.5470129E+02  0.7957747E-01  0.1421517E+00
         13   -1    0    0    0    0  0.00000000000E+00  0.00000000000E+00  0.99999944174E+02  0.99999999994E+02  0.10566000000E+00 0.  1.
         22   -1    0    0    0    0 -0.00000000000E+00 -0.00000000000E+00 -0.36955719273E+02  0.36955719273E+02  0.00000000000E+00 0. -1.
         13    1    1    2    0    0  0.20556222439E+02  0.83470574454E+01 -0.24923084374E+02  0.33367693173E+02  0.10566000000E+00 0. -1.
        996    1    1    2    0    0 -0.20556222439E+02 -0.83470574454E+01  0.87967309274E+02  0.10358802609E+03  0.50000000000E+02 0.  0.
<mgrwt>
<rscale>  0 0.54701295E+02</rscale>
<asrwt>0</asrwt>
<pdfrwt beam="1">  1       13 0.10000000E+01 0.54701295E+02</pdfrwt>
<pdfrwt beam="2">  1       22 0.36955737E+00 0.54701295E+02</pdfrwt>
<totfact> 0.14321943E-01</totfact>
</mgrwt>
</event>
<event>
 4    1  0.2471347E+000  0.5255862E+02  0.7957747E-01  0.1432010E+00
         13   -1    0    0    0    0  0.00000000000E+00  0.00000000000E+00  0.99999944180E+02  0.10000000000E+03  0.10566000000E+00 0. -1.
         22   -1    0    0    0    0 -0.00000000000E+00 -0.00000000000E+00 -0.65022552603E+02  0.65022552603E+02  0.00000000000E+00 0.  1.
         13    1    1    2    0    0 -0.15904676190E+02  0.30740815917E+01 -0.56907212146E+02  0.59167986789E+02  0.10566000000E+00 0.  1.
        996    1    1    2    0    0  0.15904676190E+02 -0.30740815917E+01  0.91884603723E+02  0.10585456581E+03  0.50000000000E+02 0.  0.
<mgrwt>
<rscale>  0 0.52558622E+02</rscale>
<asrwt>0</asrwt>
<pdfrwt beam="1">  1       13 0.10000000E+01 0.52558622E+02</pdfrwt>
<pdfrwt beam="2">  1       22 0.65022562E+00 0.52558622E+02</pdfrwt>
<totfact> 0.86427883E-02</totfact>
</mgrwt>
</event>
<event>
 4    1  0.2471347E+000  0.6224260E+02  0.7957747E-01  0.1388654E+00
         13   -1    0    0    0    0  0.00000000000E+00  0.00000000000E+00  0.99999944180E+02  0.10000000000E+03  0.10566000000E+00 0. -1.
         22   -1    0    0    0    0 -0.00000000000E+00 -0.00000000000E+00 -0.25307207597E+02  0.25307207597E+02  0.00000000000E+00 0.  1.
         13    1    1    2    0    0  0.19954591519E+02  0.31240289705E+02  0.18401719221E+02  0.41385696295E+02  0.10566000000E+00 0.  1.
        996    1    1    2    0    0 -0.19954591519E+02 -0.31240289705E+02  0.56291017363E+02  0.83921511302E+02  0.50000000000E+02 0.  0.
<mgrwt>
<rscale>  0 0.62242601E+02</rscale>
<asrwt>0</asrwt>
<pdfrwt beam="1">  1       13 0.10000000E+01 0.62242601E+02</pdfrwt>
<pdfrwt beam="2">  1       22 0.25307228E+00 0.62242601E+02</pdfrwt>
<totfact> 0.29198083E-01</totfact>
</mgrwt>
</event>
<event>
 4    1  0.2471347E+000  0.6187816E+02  0.7957747E-01  0.1390115E+00
         13   -1    0    0    0    0  0.00000000000E+00  0.00000000000E+00  0.99999944179E+02  0.99999999999E+02  0.10566000000E+00 0. -1.
         22   -1    0    0    0    0 -0.00000000000E+00 -0.00000000000E+00 -0.24670334876E+02  0.24670334876E+02  0.00000000000E+00 0. -1.
         13    1    1    2    0    0  0.96760199184E+01  0.35146567628E+02  0.19568532915E+02  0.41374451320E+02  0.10566000000E+00 0.  1.
        996    1    1    2    0    0 -0.96760199184E+01 -0.35146567628E+02  0.55761076388E+02  0.83295883556E+02  0.50000000000E+02 0.  0.
<mgrwt>
<rscale>  0 0.61878159E+02</rscale>
<asrwt>0</asrwt>
<pdfrwt beam="1">  1       13 0.10000000E+01 0.61878159E+02</pdfrwt>
<pdfrwt beam="2">  1       22 0.24670356E+00 0.61878159E+02</pdfrwt>
<totfact> 0.30692942E-01</totfact>
</mgrwt>
</event>
<event>
 4    1  0.2471347E+000  0.5487773E+02  0.7957747E-01  0.1420678E+00
         13   -1    0    0    0    0  0.00000000000E+00  0.00000000000E+00  0.99999944185E+02  0.10000000000E+03  0.10566000000E+00 0. -1.
         22   -1    0    0    0    0 -0.00000000000E+00 -0.00000000000E+00 -0.60351646821E+02  0.60351646821E+02  0.00000000000E+00 0.  1.
         13    1    1    2    0    0 -0.47761283708E+01 -0.22107779591E+02 -0.50205446390E+02  0.55065082692E+02  0.10566000000E+00 0.  1.
        996    1    1    2    0    0  0.47761283708E+01  0.22107779591E+02  0.89853743753E+02  0.10528656413E+03  0.50000000000E+02 0.  0.
<mgrwt>
<rscale>  0 0.54877731E+02</rscale>
<asrwt>0</asrwt>
<pdfrwt beam="1">  1       13 0.10000000E+01 0.54877731E+02</pdfrwt>
<pdfrwt beam="2">  1       22 0.60351658E+00 0.54877731E+02</pdfrwt>
<totfact> 0.64904857E-02</totfact>
</mgrwt>
</event>
<event>
 4    1  0.2471347E+000  0.5291296E+02  0.7957747E-01  0.1430235E+00
         13   -1    0    0    0    0  0.00000000000E+00  0.00000000000E+00  0.99999944178E+02  0.99999999998E+02  0.10566000000E+00 0.  1.
         22   -1    0    0    0    0 -0.00000000000E+00 -0.00000000000E+00 -0.33404223470E+02  0.33404223470E+02  0.00000000000E+00 0. -1.
         13    1    1    2    0    0 -0.10359590203E+02 -0.13872991293E+02 -0.23337904122E+02  0.29059420666E+02  0.10566000000E+00 0. -1.
        996    1    1    2    0    0  0.10359590203E+02  0.13872991293E+02  0.89933624831E+02  0.10434480280E+03  0.50000000000E+02 0.  0.
<mgrwt>
<rscale>  0 0.52912957E+02</rscale>
<asrwt>0</asrwt>
<pdfrwt beam="1">  1       13 0.10000000E+01 0.52912957E+02</pdfrwt>
<pdfrwt beam="2">  1       22 0.33404242E+00 0.52912957E+02</pdfrwt>
<totfact> 0.17066898E-01</totfact>
</mgrwt>
</event>
<event>
 4    1  0.2471347E+000  0.5365740E+02  0.7957747E-01  0.1426557E+00
         13   -1    0    0    0    0  0.00000000000E+00  0.00000000000E+00  0.99999944185E+02  0.10000000001E+03  0.10566000000E+00 0.  1.
         22   -1    0    0    0    0 -0.00000000000E+00 -0.00000000000E+00 -0.14695057723E+02  0.14695057723E+02  0.00000000000E+00 0.  1.
         13    1    1    2    0    0 -0.89374867940E+01  0.17298499271E+02  0.90949611871E+01  0.21490607954E+02  0.10566000000E+00 0. -1.
        996    1    1    2    0    0  0.89374867940E+01 -0.17298499271E+02  0.76209925275E+02  0.93204449774E+02  0.50000000000E+02 0.  0.
<mgrwt>
<rscale>  0 0.53657402E+02</rscale>
<asrwt>0</asrwt>
<pdfrwt beam="1">  1       13 0.10000000E+01 0.53657402E+02</pdfrwt>
<pdfrwt beam="2">  1       22 0.14695082E+00 0.53657402E+02</pdfrwt>
<totfact> 0.78163119E-01</totfact>
</mgrwt>
</event>
<event>
 4    1  0.2471347E+000  0.5243742E+02  0.7957747E-01  0.1432621E+00
         13   -1    0    0    0    0  0.00000000000E+00  0.00000000000E+00  0.99999944175E+02  0.99999999995E+02  0.10566000000E+00 0. -1.
         22   -1    0    0    0    0 -0.00000000000E+00 -0.00000000000E+00 -0.13153886748E+02  0.13153886748E+02  0.00000000000E+00 0.  1.
         13    1    1    2    0    0  0.50584371103E+01 -0.14969806837E+02  0.62329958520E+01  0.16986591891E+02  0.10566000000E+00 0.  1.
        996    1    1    2    0    0 -0.50584371103E+01  0.14969806837E+02  0.80613061575E+02  0.96167294852E+02  0.50000000000E+02 0.  0.
<mgrwt>
<rscale>  0 0.52437419E+02</rscale>
<asrwt>0</asrwt>
<pdfrwt beam="1">  1       13 0.10000000E+01 0.52437419E+02</pdfrwt>
<pdfrwt beam="2">  1       22 0.13153911E+00 0.52437419E+02</pdfrwt>
<totfact> 0.93266534E-01</totfact>
</mgrwt>
</event>
<event>
 4    1  0.2471347E+000  0.5334441E+02  0.7957747E-01  0.1428094E+00
         13   -1    0    0    0    0  0.00000000000E+00  0.00000000000E+00  0.99999944183E+02  0.10000000000E+03  0.10566000000E+00 0. -1.
         22   -1    0    0    0    0 -0.00000000000E+00 -0.00000000000E+00 -0.34913035932E+02  0.34913035932E+02  0.00000000000E+00 0.  1.
         13    1    1    2    0    0  0.78347165352E+01 -0.16859524557E+02 -0.24434486145E+02  0.30703120830E+02  0.10566000000E+00 0.  1.
        996    1    1    2    0    0 -0.78347165352E+01  0.16859524557E+02  0.89521394396E+02  0.10420991510E+03  0.50000000000E+02 0.  0.
<mgrwt>
<rscale>  0 0.53344413E+02</rscale>
<asrwt>0</asrwt>
<pdfrwt beam="1">  1       13 0.10000000E+01 0.53344413E+02</pdfrwt>
<pdfrwt beam="2">  1       22 0.34913054E+00 0.53344413E+02</pdfrwt>
<totfact> 0.15804471E-01</totfact>
</mgrwt>
</event>
<event>
 4    1  0.2471347E+000  0.5203013E+02  0.7957747E-01  0.1434689E+00
         13   -1    0    0    0    0  0.00000000000E+00  0.00000000000E+00  0.99999944183E+02  0.10000000000E+03  0.10566000000E+00 0. -1.
         22   -1    0    0    0    0 -0.00000000000E+00 -0.00000000000E+00 -0.16685312184E+02  0.16685312184E+02  0.00000000000E+00 0.  1.
         13    1    1    2    0    0  0.81780907312E+01  0.11842839301E+02 -0.40936802351E+01  0.14963401773E+02  0.10566000000E+00 0.  1.
        996    1    1    2    0    0 -0.81780907312E+01 -0.11842839301E+02  0.87408312235E+02  0.10172191041E+03  0.50000000000E+02 0.  0.
<mgrwt>
<rscale>  0 0.52030126E+02</rscale>
<asrwt>0</asrwt>
<pdfrwt beam="1">  1       13 0.10000000E+01 0.52030126E+02</pdfrwt>
<pdfrwt beam="2">  1       22 0.16685335E+00 0.52030126E+02</pdfrwt>
<totfact> 0.62817805E-01</totfact>
</mgrwt>
</event>
<event>
 4    1  0.2471347E+000  0.5121549E+02  0.7957747E-01  0.1438894E+00
         13   -1    0    0    0    0  0.00000000000E+00  0.00000000000E+00  0.99999944186E+02  0.10000000001E+03  0.10566000000E+00 0.  1.
         22   -1    0    0    0    0 -0.00000000000E+00 -0.00000000000E+00 -0.12318848728E+02  0.12318848728E+02  0.00000000000E+00 0.  1.
         13    1    1    2    0    0 -0.74350337010E+01 -0.82308651475E+01  0.37404634462E+00  0.11098555848E+02  0.10566000000E+00 0. -1.
        996    1    1    2    0    0  0.74350337010E+01  0.82308651475E+01  0.87307049113E+02  0.10122029289E+03  0.50000000000E+02 0.  0.
<mgrwt>
<rscale>  0 0.51215494E+02</rscale>
<asrwt>0</asrwt>
<pdfrwt beam="1">  1       13 0.10000000E+01 0.51215494E+02</pdfrwt>
<pdfrwt beam="2">  1       22 0.12318873E+00 0.51215494E+02</pdfrwt>
<totfact> 0.10306234E+00</totfact>
</mgrwt>
</event>
<event>
 4    1  0.2471347E+000  0.5440433E+02  0.7957747E-01  0.1422937E+00
         13   -1    0    0    0    0  0.00000000000E+00  0.00000000000E+00  0.99999944191E+02  0.10000000001E+03  0.10566000000E+00 0. -1.
         22   -1    0    0    0    0 -0.00000000000E+00 -0.00000000000E+00 -0.23207307305E+02  0.23207307305E+02  0.00000000000E+00 0. -1.
         13    1    1    2    0    0  0.17177989367E+02  0.12835398967E+02 -0.76404432172E+01  0.22764409105E+02  0.10566000000E+00 0.  1.
        996    1    1    2    0    0 -0.17177989367E+02 -0.12835398967E+02  0.84433080103E+02  0.10044289821E+03  0.50000000000E+02 0.  0.
<mgrwt>
<rscale>  0 0.54404327E+02</rscale>
<asrwt>0</asrwt>
<pdfrwt beam="1">  1       13 0.10000000E+01 0.54404327E+02</pdfrwt>
<pdfrwt beam="2">  1       22 0.23207329E+00 0.54404327E+02</pdfrwt>
<totfact> 0.34237943E-01</totfact>
</mgrwt>
</event>
<event>
 4    1  0.2471347E+000  0.5188251E+02  0.7957747E-01  0.1435444E+00
         13   -1    0    0    0    0  0.00000000000E+00  0.00000000000E+00  0.99999944192E+02  0.10000000001E+03  0.10566000000E+00 0.  1.
         22   -1    0    0    0    0 -0.00000000000E+00 -0.00000000000E+00 -0.17747990998E+02  0.17747990998E+02  0.00000000000E+00 0. -1.
         13    1    1    2    0    0  0.13677943535E+02 -0.21699913931E+01 -0.62226485047E+01  0.15183132761E+02  0.10566000000E+00 0. -1.
        996    1    1    2    0    0 -0.13677943535E+02  0.21699913931E+01  0.88474601698E+02  0.10256485825E+03  0.50000000000E+02 0.  0.
<mgrwt>
<rscale>  0 0.51882512E+02</rscale>
<asrwt>0</asrwt>
<pdfrwt beam="1">  1       13 0.10000000E+01 0.51882512E+02</pdfrwt>
<pdfrwt beam="2">  1       22 0.17748014E+00 0.51882512E+02</pdfrwt>
<totfact> 0.56330319E-01</totfact>
</mgrwt>
</event>
<event>
 4    1  0.2471347E+000  0.5175074E+02  0.7957747E-01  0.1436121E+00
         13   -1    0    0    0    0  0.00000000000E+00  0.00000000000E+00  0.99999944180E+02  0.10000000000E+03  0.10566000000E+00 0.  1.
         22   -1    0    0    0    0 -0.00000000000E+00 -0.00000000000E+00 -0.12379588608E+02  0.12379588608E+02  0.00000000000E+00 0.  1.
         13    1    1    2    0    0 -0.57649073389E+01  0.12037644232E+02  0.38120278217E+01  0.13880985391E+02  0.10566000000E+00 0. -1.
        996    1    1    2    0    0  0.57649073389E+01 -0.12037644232E+02  0.83808327750E+02  0.98498603216E+02  0.50000000000E+02 0.  0.
<mgrwt>
<rscale>  0 0.51750739E+02</rscale>
<asrwt>0</asrwt>
<pdfrwt beam="1">  1       13 0.10000000E+01 0.51750739E+02</pdfrwt>
<pdfrwt beam="2">  1       22 0.12379613E+00 0.51750739E+02</pdfrwt>
<totfact> 0.10240363E+00</totfact>
</mgrwt>
</event>
<event>
 4    1  0.2471347E+000  0.5146020E+02  0.7957747E-01  0.1437621E+00
         13   -1    0    0    0    0  0.00000000000E+00  0.00000000000E+00  0.99999944178E+02  0.99999999999E+02  0.10566000000E+00 0.  1.
         22   -1    0    0    0    0 -0.00000000000E+00 -0.00000000000E+00 -0.10150619807E+02  0.10150619807E+02  0.00000000000E+00 0.  1.
         13    1    1    2    0    0 -0.69215144418E+00 -0.12152098777E+02  0.14989441588E+02  0.19309249117E+02  0.10566000000E+00 0. -1.
        996    1    1    2    0    0  0.69215144418E+00  0.12152098777E+02  0.74859882783E+02  0.90841370689E+02  0.50000000000E+02 0.  0.
<mgrwt>
<rscale>  0 0.51460204E+02</rscale>
<asrwt>0</asrwt>
<pdfrwt beam="1">  1       13 0.10000000E+01 0.51460204E+02</pdfrwt>
<pdfrwt beam="2">  1       22 0.10150645E+00 0.51460204E+02</pdfrwt>
<totfact> 0.13777357E+00</totfact>
</mgrwt>
</event>
<event>
 4    1  0.2471347E+000  0.5217252E+02  0.7957747E-01  0.1433964E+00
         13   -1    0    0    0    0  0.00000000000E+00  0.00000000000E+00  0.99999944183E+02  0.10000000000E+03  0.10566000000E+00 0.  1.
         22   -1    0    0    0    0 -0.00000000000E+00 -0.00000000000E+00 -0.11355837884E+02  0.11355837884E+02  0.00000000000E+00 0.  1.
         13    1    1    2    0    0  0.13442964634E+02  0.64232918928E+01  0.15376149489E+02  0.21410490747E+02  0.10566000000E+00 0. -1.
        996    1    1    2    0    0 -0.13442964634E+02 -0.64232918928E+01  0.73267956811E+02  0.89945347140E+02  0.50000000000E+02 0.  0.
<mgrwt>
<rscale>  0 0.52172521E+02</rscale>
<asrwt>0</asrwt>
<pdfrwt beam="1">  1       13 0.10000000E+01 0.52172521E+02</pdfrwt>
<pdfrwt beam="2">  1       22 0.11355863E+00 0.52172521E+02</pdfrwt>
<totfact> 0.11692055E+00</totfact>
</mgrwt>
</event>
<event>
 4    1  0.2471347E+000  0.5111217E+02  0.7957747E-01  0.1439433E+00
         13   -1    0    0    0    0  0.00000000000E+00  0.00000000000E+00  0.99999944186E+02  0.10000000001E+03  0.10566000000E+00 0.  1.
         22   -1    0    0    0    0 -0.00000000000E+00 -0.00000000000E+00 -0.63193116850E+02  0.63193116850E+02  0.00000000000E+00 0. -1.
         13    1    1    2    0    0 -0.71334354720E+01 -0.78465222454E+01 -0.56132924445E+02  0.57125915167E+02  0.10566000000E+00 0. -1.
        996    1    1    2    0    0  0.71334354720E+01  0.78465222454E+01  0.92939751781E+02  0.10606720169E+03  0.50000000000E+02 0.  0.
<mgrwt>
<rscale>  0 0.51112169E+02</rscale>
<asrwt>0</asrwt>
<pdfrwt beam="1">  1       13 0.10000000E+01 0.51112169E+02</pdfrwt>
<pdfrwt beam="2">  1       22 0.63193127E+00 0.51112169E+02</pdfrwt>
<totfact> 0.79754631E-02</totfact>
</mgrwt>
</event>
<event>
 4    1  0.2471347E+000  0.5345903E+02  0.7957747E-01  0.1427530E+00
         13   -1    0    0    0    0  0.00000000000E+00  0.00000000000E+00  0.99999944179E+02  0.10000000000E+03  0.10566000000E+00 0.  1.
         22   -1    0    0    0    0 -0.00000000000E+00 -0.00000000000E+00 -0.15857718201E+02  0.15857718201E+02  0.00000000000E+00 0.  1.
         13    1    1    2    0    0  0.14590466415E+02 -0.12041005834E+02  0.37065735824E+01  0.19277380098E+02  0.10566000000E+00 0. -1.
        996    1    1    2    0    0 -0.14590466415E+02  0.12041005834E+02  0.80435652396E+02  0.96580338103E+02  0.50000000000E+02 0.  0.
<mgrwt>
<rscale>  0 0.53459027E+02</rscale>
<asrwt>0</asrwt>
<pdfrwt beam="1">  1       13 0.10000000E+01 0.53459027E+02</pdfrwt>
<pdfrwt beam="2">  1       22 0.15857742E+00 0.53459027E+02</pdfrwt>
<totfact> 0.68758977E-01</totfact>
</mgrwt>
</event>
<event>
 4    1  0.2471347E+000  0.5187512E+02  0.7957747E-01  0.1435482E+00
         13   -1    0    0    0    0  0.00000000000E+00  0.00000000000E+00  0.99999944176E+02  0.99999999996E+02  0.10566000000E+00 0. -1.
         22   -1    0    0    0    0 -0.00000000000E+00 -0.00000000000E+00 -0.17474501497E+02  0.17474501497E+02  0.00000000000E+00 0. -1.
         13    1    1    2    0    0 -0.11741704602E+02 -0.72911169439E+01 -0.58421640553E+01  0.15005667534E+02  0.10566000000E+00 0.  1.
        996    1    1    2    0    0  0.11741704602E+02  0.72911169439E+01  0.88367606734E+02  0.10246883396E+03  0.50000000000E+02 0.  0.
<mgrwt>
<rscale>  0 0.51875119E+02</rscale>
<asrwt>0</asrwt>
<pdfrwt beam="1">  1       13 0.10000000E+01 0.51875119E+02</pdfrwt>
<pdfrwt beam="2">  1       22 0.17474525E+00 0.51875119E+02</pdfrwt>
<totfact> 0.57905855E-01</totfact>
</mgrwt>
</event>
<event>
 4    1  0.2471347E+000  0.5099196E+02  0.7957747E-01  0.1440063E+00
         13   -1    0    0    0    0  0.00000000000E+00  0.00000000000E+00  0.99999944176E+02  0.99999999996E+02  0.10566000000E+00 0.  1.
         22   -1    0    0    0    0 -0.00000000000E+00 -0.00000000000E+00 -0.14668988078E+02  0.14668988078E+02  0.00000000000E+00 0.  1.
         13    1    1    2    0    0 -0.99150729320E+01  0.13677788051E+01 -0.48095360607E+01  0.11105057013E+02  0.10566000000E+00 0. -1.
        996    1    1    2    0    0  0.99150729320E+01 -0.13677788051E+01  0.90140492159E+02  0.10356393106E+03  0.50000000000E+02 0.  0.
<mgrwt>
<rscale>  0 0.50991955E+02</rscale>
<asrwt>0</asrwt>
<pdfrwt beam="1">  1       13 0.10000000E+01 0.50991955E+02</pdfrwt>
<pdfrwt beam="2">  1       22 0.14669012E+00 0.50991955E+02</pdfrwt>
<totfact> 0.77965821E-01</totfact>
</mgrwt>
</event>
<event>
 4    1  0.2471347E+000  0.5323118E+02  0.7957747E-01  0.1428654E+00
         13   -1    0    0    0    0  0.00000000000E+00  0.00000000000E+00  0.99999944178E+02  0.99999999998E+02  0.10566000000E+00 0.  1.
         22   -1    0    0    0    0 -0.00000000000E+00 -0.00000000000E+00 -0.13063845370E+02  0.13063845370E+02  0.00000000000E+00 0.  1.
         13    1    1    2    0    0 -0.16239661210E+02 -0.83565352093E+01  0.29980339094E+02  0.35105415155E+02  0.10566000000E+00 0. -1.
        996    1    1    2    0    0  0.16239661210E+02  0.83565352093E+01  0.56955759713E+02  0.77958430214E+02  0.50000000000E+02 0.  0.
<mgrwt>
<rscale>  0 0.53231178E+02</rscale>
<asrwt>0</asrwt>
<pdfrwt beam="1">  1       13 0.10000000E+01 0.53231178E+02</pdfrwt>
<pdfrwt beam="2">  1       22 0.13063870E+00 0.53231178E+02</pdfrwt>
<totfact> 0.94443786E-01</totfact>
</mgrwt>
</event>
<event>
 4    1  0.2471347E+000  0.5191251E+02  0.7957747E-01  0.1435291E+00
         13   -1    0    0    0    0  0.00000000000E+00  0.00000000000E+00  0.99999944178E+02  0.99999999998E+02  0.10566000000E+00 0. -1.
         22   -1    0    0    0    0 -0.00000000000E+00 -0.00000000000E+00 -0.12275434700E+02  0.12275434700E+02  0.00000000000E+00 0. -1.
         13    1    1    2    0    0  0.11473811930E+02 -0.79536200812E+01  0.54397852552E+01  0.14983686471E+02  0.10566000000E+00 0.  1.
        996    1    1    2    0    0 -0.11473811930E+02  0.79536200812E+01  0.82284724223E+02  0.97291748227E+02  0.50000000000E+02 0.  0.
<mgrwt>
<rscale>  0 0.51912507E+02</rscale>
<asrwt>0</asrwt>
<pdfrwt beam="1">  1       13 0.10000000E+01 0.51912507E+02</pdfrwt>
<pdfrwt beam="2">  1       22 0.12275459E+00 0.51912507E+02</pdfrwt>
<totfact> 0.10378720E+00</totfact>
</mgrwt>
</event>
<event>
 4    1  0.2471347E+000  0.6094515E+02  0.7957747E-01  0.1393908E+00
         13   -1    0    0    0    0  0.00000000000E+00  0.00000000000E+00  0.99999944172E+02  0.99999999992E+02  0.10566000000E+00 0. -1.
         22   -1    0    0    0    0 -0.00000000000E+00 -0.00000000000E+00 -0.44080853857E+02  0.44080853857E+02  0.00000000000E+00 0.  1.
         13    1    1    2    0    0  0.20395714258E+02  0.28254675327E+02 -0.24921035386E+02  0.42841346929E+02  0.10566000000E+00 0.  1.
        996    1    1    2    0    0 -0.20395714258E+02 -0.28254675327E+02  0.80840125701E+02  0.10123950692E+03  0.50000000000E+02 0.  0.
<mgrwt>
<rscale>  0 0.60945154E+02</rscale>
<asrwt>0</asrwt>
<pdfrwt beam="1">  1       13 0.10000000E+01 0.60945154E+02</pdfrwt>
<pdfrwt beam="2">  1       22 0.44080869E+00 0.60945154E+02</pdfrwt>
<totfact> 0.10182081E-01</totfact>
</mgrwt>
</event>
<event>
 4    1  0.2471347E+000  0.5201930E+02  0.7957747E-01  0.1434745E+00
         13   -1    0    0    0    0  0.00000000000E+00  0.00000000000E+00  0.99999944180E+02  0.10000000000E+03  0.10566000000E+00 0.  1.
         22   -1    0    0    0    0 -0.00000000000E+00 -0.00000000000E+00 -0.12976368139E+02  0.12976368139E+02  0.00000000000E+00 0.  1.
         13    1    1    2    0    0 -0.33616641245E+01 -0.13953750637E+02  0.38255822493E+01  0.14854433214E+02  0.10566000000E+00 0. -1.
        996    1    1    2    0    0  0.33616641245E+01  0.13953750637E+02  0.83197993791E+02  0.98121934925E+02  0.50000000000E+02 0.  0.
<mgrwt>
<rscale>  0 0.52019304E+02</rscale>
<asrwt>0</asrwt>
<pdfrwt beam="1">  1       13 0.10000000E+01 0.52019304E+02</pdfrwt>
<pdfrwt beam="2">  1       22 0.12976392E+00 0.52019304E+02</pdfrwt>
<totfact> 0.95202857E-01</totfact>
</mgrwt>
</event>
<event>
 4    1  0.2471347E+000  0.5230875E+02  0.7957747E-01  0.1433272E+00
         13   -1    0    0    0    0  0.00000000000E+00  0.00000000000E+00  0.99999944180E+02  0.10000000000E+03  0.10566000000E+00 0. -1.
         22   -1    0    0    0    0 -0.00000000000E+00 -0.00000000000E+00 -0.11909792556E+02  0.11909792556E+02  0.00000000000E+00 0. -1.
         13    1    1    2    0    0  0.47996835831E+01  0.14600284266E+02  0.11652023379E+02  0.19286940556E+02  0.10566000000E+00 0.  1.
        996    1    1    2    0    0 -0.47996835831E+01 -0.14600284266E+02  0.76438128245E+02  0.92622852001E+02  0.50000000000E+02 0.  0.
<mgrwt>
<rscale>  0 0.52308749E+02</rscale>
<asrwt>0</asrwt>
<pdfrwt beam="1">  1       13 0.10000000E+01 0.52308749E+02</pdfrwt>
<pdfrwt beam="2">  1       22 0.11909817E+00 0.52308749E+02</pdfrwt>
<totfact> 0.10881710E+00</totfact>
</mgrwt>
</event>
<event>
 4    1  0.2471347E+000  0.5431709E+02  0.7957747E-01  0.1423356E+00
         13   -1    0    0    0    0  0.00000000000E+00  0.00000000000E+00  0.99999944179E+02  0.99999999999E+02  0.10566000000E+00 0.  1.
         22   -1    0    0    0    0 -0.00000000000E+00 -0.00000000000E+00 -0.61756957165E+02  0.61756957165E+02  0.00000000000E+00 0. -1.
         13    1    1    2    0    0 -0.21162449045E+02  0.15801546064E+01 -0.52148374955E+02  0.56301068486E+02  0.10566000000E+00 0. -1.
        996    1    1    2    0    0  0.21162449045E+02 -0.15801546064E+01  0.90391361969E+02  0.10545588868E+03  0.50000000000E+02 0.  0.
<mgrwt>
<rscale>  0 0.54317089E+02</rscale>
<asrwt>0</asrwt>
<pdfrwt beam="1">  1       13 0.10000000E+01 0.54317089E+02</pdfrwt>
<pdfrwt beam="2">  1       22 0.61756968E+00 0.54317089E+02</pdfrwt>
<totfact> 0.71501302E-02</totfact>
</mgrwt>
</event>
<event>
 4    1  0.2471347E+000  0.5111254E+02  0.7957747E-01  0.1439432E+00
         13   -1    0    0    0    0  0.00000000000E+00  0.00000000000E+00  0.99999944176E+02  0.99999999996E+02  0.10566000000E+00 0.  1.
         22   -1    0    0    0    0 -0.00000000000E+00 -0.00000000000E+00 -0.22548833318E+02  0.22548833318E+02  0.00000000000E+00 0. -1.
         13    1    1    2    0    0 -0.95009774464E+01  0.47141050635E+01 -0.14131113792E+02  0.17668924700E+02  0.10566000000E+00 0. -1.
        996    1    1    2    0    0  0.95009774464E+01 -0.47141050635E+01  0.91582224651E+02  0.10487990861E+03  0.50000000000E+02 0.  0.
<mgrwt>
<rscale>  0 0.51112536E+02</rscale>
<asrwt>0</asrwt>
<pdfrwt beam="1">  1       13 0.10000000E+01 0.51112536E+02</pdfrwt>
<pdfrwt beam="2">  1       22 0.22548855E+00 0.51112536E+02</pdfrwt>
<totfact> 0.36011279E-01</totfact>
</mgrwt>
</event>
<event>
 4    1  0.2471347E+000  0.5273903E+02  0.7957747E-01  0.1431104E+00
         13   -1    0    0    0    0  0.00000000000E+00  0.00000000000E+00  0.99999944178E+02  0.99999999998E+02  0.10566000000E+00 0.  1.
         22   -1    0    0    0    0 -0.00000000000E+00 -0.00000000000E+00 -0.50327152563E+02  0.50327152563E+02  0.00000000000E+00 0. -1.
         13    1    1    2    0    0 -0.16764971836E+02 -0.58384427286E+00 -0.41632350528E+02  0.44885063543E+02  0.10566000000E+00 0. -1.
        996    1    1    2    0    0  0.16764971836E+02  0.58384427286E+00  0.91305142142E+02  0.10544208902E+03  0.50000000000E+02 0.  0.
<mgrwt>
<rscale>  0 0.52739029E+02</rscale>
<asrwt>0</asrwt>
<pdfrwt beam="1">  1       13 0.10000000E+01 0.52739029E+02</pdfrwt>
<pdfrwt beam="2">  1       22 0.50327166E+00 0.52739029E+02</pdfrwt>
<totfact> 0.72329994E-02</totfact>
</mgrwt>
</event>
<event>
 4    1  0.2471347E+000  0.5246060E+02  0.7957747E-01  0.1432504E+00
         13   -1    0    0    0    0  0.00000000000E+00  0.00000000000E+00  0.99999944181E+02  0.10000000000E+03  0.10566000000E+00 0. -1.
         22   -1    0    0    0    0 -0.00000000000E+00 -0.00000000000E+00 -0.11703623164E+02  0.11703623164E+02  0.00000000000E+00 0. -1.
         13    1    1    2    0    0  0.12568734569E+02 -0.97026380547E+01  0.22884143289E+02  0.27853356207E+02  0.10566000000E+00 0.  1.
        996    1    1    2    0    0 -0.12568734569E+02  0.97026380547E+01  0.65412177727E+02  0.83850266958E+02  0.50000000000E+02 0.  0.
<mgrwt>
<rscale>  0 0.52460597E+02</rscale>
<asrwt>0</asrwt>
<pdfrwt beam="1">  1       13 0.10000000E+01 0.52460597E+02</pdfrwt>
<pdfrwt beam="2">  1       22 0.11703648E+00 0.52460597E+02</pdfrwt>
<totfact> 0.11178684E+00</totfact>
</mgrwt>
</event>
<event>
 4    1  0.2471347E+000  0.5390993E+02  0.7957747E-01  0.1425325E+00
         13   -1    0    0    0    0  0.00000000000E+00  0.00000000000E+00  0.99999944176E+02  0.99999999996E+02  0.10566000000E+00 0.  1.
         22   -1    0    0    0    0 -0.00000000000E+00 -0.00000000000E+00 -0.21607642374E+02  0.21607642374E+02  0.00000000000E+00 0. -1.
         13    1    1    2    0    0  0.77969091424E+00  0.20141323991E+02 -0.63828805453E+01  0.21143159133E+02  0.10566000000E+00 0. -1.
        996    1    1    2    0    0 -0.77969091424E+00 -0.20141323991E+02  0.84775182347E+02  0.10046448324E+03  0.50000000000E+02 0.  0.
<mgrwt>
<rscale>  0 0.53909933E+02</rscale>
<asrwt>0</asrwt>
<pdfrwt beam="1">  1       13 0.10000000E+01 0.53909933E+02</pdfrwt>
<pdfrwt beam="2">  1       22 0.21607664E+00 0.53909933E+02</pdfrwt>
<totfact> 0.39275637E-01</totfact>
</mgrwt>
</event>
<event>
 4    1  0.2471347E+000  0.5133039E+02  0.7957747E-01  0.1438295E+00
         13   -1    0    0    0    0  0.00000000000E+00  0.00000000000E+00  0.99999944180E+02  0.10000000000E+03  0.10566000000E+00 0. -1.
         22   -1    0    0    0    0 -0.00000000000E+00 -0.00000000000E+00 -0.11089197822E+02  0.11089197822E+02  0.00000000000E+00 0. -1.
         13    1    1    2    0    0  0.10411534672E+02 -0.51389727027E+01  0.33975588799E+02  0.35904886755E+02  0.10566000000E+00 0.  1.
        996    1    1    2    0    0 -0.10411534672E+02  0.51389727027E+01  0.54935157559E+02  0.75184311068E+02  0.50000000000E+02 0.  0.
<mgrwt>
<rscale>  0 0.51330392E+02</rscale>
<asrwt>0</asrwt>
<pdfrwt beam="1">  1       13 0.10000000E+01 0.51330392E+02</pdfrwt>
<pdfrwt beam="2">  1       22 0.11089223E+00 0.51330392E+02</pdfrwt>
<totfact> 0.12091860E+00</totfact>
</mgrwt>
</event>
<event>
 4    1  0.2471347E+000  0.5231165E+02  0.7957747E-01  0.1433258E+00
         13   -1    0    0    0    0  0.00000000000E+00  0.00000000000E+00  0.99999944163E+02  0.99999999983E+02  0.10566000000E+00 0.  1.
         22   -1    0    0    0    0 -0.00000000000E+00 -0.00000000000E+00 -0.73679545919E+02  0.73679545919E+02  0.00000000000E+00 0. -1.
         13    1    1    2    0    0 -0.64899287459E+01  0.13942374026E+02 -0.65891697348E+02  0.67662662614E+02  0.10566000000E+00 0. -1.
        996    1    1    2    0    0  0.64899287459E+01 -0.13942374026E+02  0.92212095592E+02  0.10601688329E+03  0.50000000000E+02 0.  0.
<mgrwt>
<rscale>  0 0.52311652E+02</rscale>
<asrwt>0</asrwt>
<pdfrwt beam="1">  1       13 0.10000000E+01 0.52311652E+02</pdfrwt>
<pdfrwt beam="2">  1       22 0.73679553E+00 0.52311652E+02</pdfrwt>
<totfact> 0.55319105E-02</totfact>
</mgrwt>
</event>
<event>
 4    1  0.2471347E+000  0.5110556E+02  0.7957747E-01  0.1439468E+00
         13   -1    0    0    0    0  0.00000000000E+00  0.00000000000E+00  0.99999944181E+02  0.10000000000E+03  0.10566000000E+00 0. -1.
         22   -1    0    0    0    0 -0.00000000000E+00 -0.00000000000E+00 -0.95369329042E+01  0.95369329042E+01  0.00000000000E+00 0. -1.
         13    1    1    2    0    0 -0.80733901778E+01  0.68262951974E+01  0.13417759153E+02  0.17082896704E+02  0.10566000000E+00 0.  1.
        996    1    1    2    0    0  0.80733901778E+01 -0.68262951974E+01  0.77045252124E+02  0.92454036201E+02  0.50000000000E+02 0.  0.
<mgrwt>
<rscale>  0 0.51105557E+02</rscale>
<asrwt>0</asrwt>
<pdfrwt beam="1">  1       13 0.10000000E+01 0.51105557E+02</pdfrwt>
<pdfrwt beam="2">  1       22 0.95369582E-01 0.51105557E+02</pdfrwt>
<totfact> 0.15060626E+00</totfact>
</mgrwt>
</event>
<event>
 4    1  0.2471347E+000  0.5363320E+02  0.7957747E-01  0.1426675E+00
         13   -1    0    0    0    0  0.00000000000E+00  0.00000000000E+00  0.99999944185E+02  0.10000000000E+03  0.10566000000E+00 0. -1.
         22   -1    0    0    0    0 -0.00000000000E+00 -0.00000000000E+00 -0.33584362993E+02  0.33584362993E+02  0.00000000000E+00 0.  1.
         13    1    1    2    0    0 -0.18052389512E+02 -0.71155662547E+01 -0.22521012189E+02  0.29727549584E+02  0.10566000000E+00 0.  1.
        996    1    1    2    0    0  0.18052389512E+02  0.71155662547E+01  0.88936593381E+02  0.10385681341E+03  0.50000000000E+02 0.  0.
<mgrwt>
<rscale>  0 0.53633199E+02</rscale>
<asrwt>0</asrwt>
<pdfrwt beam="1">  1       13 0.10000000E+01 0.53633199E+02</pdfrwt>
<pdfrwt beam="2">  1       22 0.33584382E+00 0.53633199E+02</pdfrwt>
<totfact> 0.16919729E-01</totfact>
</mgrwt>
</event>
<event>
 4    1  0.2471347E+000  0.5353373E+02  0.7957747E-01  0.1427163E+00
         13   -1    0    0    0    0  0.00000000000E+00  0.00000000000E+00  0.99999944179E+02  0.99999999999E+02  0.10566000000E+00 0. -1.
         22   -1    0    0    0    0 -0.00000000000E+00 -0.00000000000E+00 -0.19871454232E+02  0.19871454232E+02  0.00000000000E+00 0. -1.
         13    1    1    2    0    0 -0.38351669980E+01 -0.18739041991E+02 -0.45765491932E+01  0.19667642645E+02  0.10566000000E+00 0.  1.
        996    1    1    2    0    0  0.38351669980E+01  0.18739041991E+02  0.84705039140E+02  0.10020381159E+03  0.50000000000E+02 0.  0.
<mgrwt>
<rscale>  0 0.53533730E+02</rscale>
<asrwt>0</asrwt>
<pdfrwt beam="1">  1       13 0.10000000E+01 0.53533730E+02</pdfrwt>
<pdfrwt beam="2">  1       22 0.19871477E+00 0.53533730E+02</pdfrwt>
<totfact> 0.45980441E-01</totfact>
</mgrwt>
</event>
<event>
 4    1  0.2471347E+000  0.5225689E+02  0.7957747E-01  0.1433535E+00
         13   -1    0    0    0    0  0.00000000000E+00  0.00000000000E+00  0.99999944173E+02  0.99999999993E+02  0.10566000000E+00 0.  1.
         22   -1    0    0    0    0 -0.00000000000E+00 -0.00000000000E+00 -0.23932353976E+02  0.23932353976E+02  0.00000000000E+00 0. -1.
         13    1    1    2    0    0 -0.10321891254E+02 -0.11146372945E+02 -0.13442070416E+02  0.20285055829E+02  0.10566000000E+00 0. -1.
        996    1    1    2    0    0  0.10321891254E+02  0.11146372945E+02  0.89509660612E+02  0.10364729814E+03  0.50000000000E+02 0.  0.
<mgrwt>
<rscale>  0 0.52256895E+02</rscale>
<asrwt>0</asrwt>
<pdfrwt beam="1">  1       13 0.10000000E+01 0.52256895E+02</pdfrwt>
<pdfrwt beam="2">  1       22 0.23932375E+00 0.52256895E+02</pdfrwt>
<totfact> 0.32129954E-01</totfact>
</mgrwt>
</event>
<event>
 4    1  0.2471347E+000  0.5396566E+02  0.7957747E-01  0.1425055E+00
         13   -1    0    0    0    0  0.00000000000E+00  0.00000000000E+00  0.99999944174E+02  0.99999999994E+02  0.10566000000E+00 0.  1.
         22   -1    0    0    0    0 -0.00000000000E+00 -0.00000000000E+00 -0.14948906491E+02  0.14948906491E+02  0.00000000000E+00 0. -1.
         13    1    1    2    0    0 -0.15765779221E+02  0.12795795931E+02  0.10341511230E+02  0.22787062261E+02  0.10566000000E+00 0. -1.
        996    1    1    2    0    0  0.15765779221E+02 -0.12795795931E+02  0.74709526453E+02  0.92161844224E+02  0.50000000000E+02 0.  0.
<mgrwt>
<rscale>  0 0.53965657E+02</rscale>
<asrwt>0</asrwt>
<pdfrwt beam="1">  1       13 0.10000000E+01 0.53965657E+02</pdfrwt>
<pdfrwt beam="2">  1       22 0.14948930E+00 0.53965657E+02</pdfrwt>
<totfact> 0.76020254E-01</totfact>
</mgrwt>
</event>
<event>
 4    1  0.2471347E+000  0.5116256E+02  0.7957747E-01  0.1439170E+00
         13   -1    0    0    0    0  0.00000000000E+00  0.00000000000E+00  0.99999944176E+02  0.99999999996E+02  0.10566000000E+00 0.  1.
         22   -1    0    0    0    0 -0.00000000000E+00 -0.00000000000E+00 -0.11704834186E+02  0.11704834186E+02  0.00000000000E+00 0. -1.
         13    1    1    2    0    0 -0.17398608049E+01  0.10704237405E+02  0.14942060358E+01  0.10947676911E+02  0.10566000000E+00 0. -1.
        996    1    1    2    0    0  0.17398608049E+01 -0.10704237405E+02  0.86800903955E+02  0.10075715727E+03  0.50000000000E+02 0.  0.
<mgrwt>
<rscale>  0 0.51162563E+02</rscale>
<asrwt>0</asrwt>
<pdfrwt beam="1">  1       13 0.10000000E+01 0.51162563E+02</pdfrwt>
<pdfrwt beam="2">  1       22 0.11704859E+00 0.51162563E+02</pdfrwt>
<totfact> 0.11144112E+00</totfact>
</mgrwt>
</event>
<event>
 4    1  0.2471347E+000  0.5147301E+02  0.7957747E-01  0.1437555E+00
         13   -1    0    0    0    0  0.00000000000E+00  0.00000000000E+00  0.99999944176E+02  0.99999999996E+02  0.10566000000E+00 0. -1.
         22   -1    0    0    0    0 -0.00000000000E+00 -0.00000000000E+00 -0.31571757181E+02  0.31571757181E+02  0.00000000000E+00 0.  1.
         13    1    1    2    0    0 -0.61960143858E+01 -0.10539436470E+02 -0.23342943148E+02  0.26350986209E+02  0.10566000000E+00 0.  1.
        996    1    1    2    0    0  0.61960143858E+01  0.10539436470E+02  0.91771130143E+02  0.10522077097E+03  0.50000000000E+02 0.  0.
<mgrwt>
<rscale>  0 0.51473006E+02</rscale>
<asrwt>0</asrwt>
<pdfrwt beam="1">  1       13 0.10000000E+01 0.51473006E+02</pdfrwt>
<pdfrwt beam="2">  1       22 0.31571776E+00 0.51473006E+02</pdfrwt>
<totfact> 0.18837435E-01</totfact>
</mgrwt>
</event>
<event>
 4    1  0.2471347E+000  0.5833391E+02  0.7957747E-01  0.1404960E+00
         13   -1    0    0    0    0  0.00000000000E+00  0.00000000000E+00  0.99999944178E+02  0.99999999998E+02  0.10566000000E+00 0.  1.
         22   -1    0    0    0    0 -0.00000000000E+00 -0.00000000000E+00 -0.32433932202E+02  0.32433932202E+02  0.00000000000E+00 0. -1.
         13    1    1    2    0    0 -0.19837022545E+02 -0.22568497145E+02 -0.13188057390E+02  0.32814334499E+02  0.10566000000E+00 0. -1.
        996    1    1    2    0    0  0.19837022545E+02  0.22568497145E+02  0.80754069367E+02  0.99619597701E+02  0.50000000000E+02 0.  0.
<mgrwt>
<rscale>  0 0.58333905E+02</rscale>
<asrwt>0</asrwt>
<pdfrwt beam="1">  1       13 0.10000000E+01 0.58333905E+02</pdfrwt>
<pdfrwt beam="2">  1       22 0.32433951E+00 0.58333905E+02</pdfrwt>
<totfact> 0.18087934E-01</totfact>
</mgrwt>
</event>
<event>
 4    1  0.2471347E+000  0.5176562E+02  0.7957747E-01  0.1436044E+00
         13   -1    0    0    0    0  0.00000000000E+00  0.00000000000E+00  0.99999944179E+02  0.99999999999E+02  0.10566000000E+00 0.  1.
         22   -1    0    0    0    0 -0.00000000000E+00 -0.00000000000E+00 -0.12276114278E+02  0.12276114278E+02  0.00000000000E+00 0.  1.
         13    1    1    2    0    0 -0.58215829957E+01 -0.12074311176E+02  0.42652887375E+01  0.14067113101E+02  0.10566000000E+00 0. -1.
        996    1    1    2    0    0  0.58215829957E+01  0.12074311176E+02  0.83458541163E+02  0.98209001176E+02  0.50000000000E+02 0.  0.
<mgrwt>
<rscale>  0 0.51765624E+02</rscale>
<asrwt>0</asrwt>
<pdfrwt beam="1">  1       13 0.10000000E+01 0.51765624E+02</pdfrwt>
<pdfrwt beam="2">  1       22 0.12276139E+00 0.51765624E+02</pdfrwt>
<totfact> 0.10374445E+00</totfact>
</mgrwt>
</event>
<event>
 4    1  0.2471347E+000  0.6856014E+02  0.7957747E-01  0.1365059E+00
         13   -1    0    0    0    0  0.00000000000E+00  0.00000000000E+00  0.99999944178E+02  0.99999999998E+02  0.10566000000E+00 0.  1.
         22   -1    0    0    0    0 -0.00000000000E+00 -0.00000000000E+00 -0.33532109051E+02  0.33532109051E+02  0.00000000000E+00 0. -1.
         13    1    1    2    0    0 -0.39817793228E+01  0.46740116268E+02  0.32092443593E+02  0.56836864227E+02  0.10566000000E+00 0. -1.
        996    1    1    2    0    0  0.39817793228E+01 -0.46740116268E+02  0.34375391533E+02  0.76695244822E+02  0.50000000000E+02 0.  0.
<mgrwt>
<rscale>  0 0.68560142E+02</rscale>
<asrwt>0</asrwt>
<pdfrwt beam="1">  1       13 0.10000000E+01 0.68560142E+02</pdfrwt>
<pdfrwt beam="2">  1       22 0.33532128E+00 0.68560142E+02</pdfrwt>
<totfact> 0.17208473E-01</totfact>
</mgrwt>
</event>
<event>
 4    1  0.2471347E+000  0.5527787E+02  0.7957747E-01  0.1418789E+00
         13   -1    0    0    0    0  0.00000000000E+00  0.00000000000E+00  0.99999944179E+02  0.99999999999E+02  0.10566000000E+00 0.  1.
         22   -1    0    0    0    0 -0.00000000000E+00 -0.00000000000E+00 -0.15754599081E+02  0.15754599081E+02  0.00000000000E+00 0.  1.
         13    1    1    2    0    0 -0.23468256927E+02  0.22098584763E+01  0.31556496104E+02  0.39388655323E+02  0.10566000000E+00 0. -1.
        996    1    1    2    0    0  0.23468256927E+02 -0.22098584763E+01  0.52688848994E+02  0.76365943758E+02  0.50000000000E+02 0.  0.
<mgrwt>
<rscale>  0 0.55277867E+02</rscale>
<asrwt>0</asrwt>
<pdfrwt beam="1">  1       13 0.10000000E+01 0.55277867E+02</pdfrwt>
<pdfrwt beam="2">  1       22 0.15754623E+00 0.55277867E+02</pdfrwt>
<totfact> 0.69768468E-01</totfact>
</mgrwt>
</event>
<event>
 4    1  0.2471347E+000  0.5487368E+02  0.7957747E-01  0.1420697E+00
         13   -1    0    0    0    0  0.00000000000E+00  0.00000000000E+00  0.99999944175E+02  0.99999999996E+02  0.10566000000E+00 0.  1.
         22   -1    0    0    0    0 -0.00000000000E+00 -0.00000000000E+00 -0.19794048832E+02  0.19794048832E+02  0.00000000000E+00 0. -1.
         13    1    1    2    0    0  0.14393826325E+02  0.17433828805E+02 -0.60974457364E-02  0.22608224705E+02  0.10566000000E+00 0. -1.
        996    1    1    2    0    0 -0.14393826325E+02 -0.17433828805E+02  0.80211992790E+02  0.97185824122E+02  0.50000000000E+02 0.  0.
<mgrwt>
<rscale>  0 0.54873679E+02</rscale>
<asrwt>0</asrwt>
<pdfrwt beam="1">  1       13 0.10000000E+01 0.54873679E+02</pdfrwt>
<pdfrwt beam="2">  1       22 0.19794071E+00 0.54873679E+02</pdfrwt>
<totfact> 0.46422903E-01</totfact>
</mgrwt>
</event>
<event>
 4    1  0.2471347E+000  0.5959009E+02  0.7957747E-01  0.1399560E+00
         13   -1    0    0    0    0  0.00000000000E+00  0.00000000000E+00  0.99999944177E+02  0.99999999997E+02  0.10566000000E+00 0. -1.
         22   -1    0    0    0    0 -0.00000000000E+00 -0.00000000000E+00 -0.30283570214E+02  0.30283570214E+02  0.00000000000E+00 0.  1.
         13    1    1    2    0    0  0.29182128459E+02 -0.14120294603E+02 -0.69764366753E+01  0.33161139513E+02  0.10566000000E+00 0.  1.
        996    1    1    2    0    0 -0.29182128459E+02  0.14120294603E+02  0.76692810639E+02  0.97122430698E+02  0.50000000000E+02 0.  0.
<mgrwt>
<rscale>  0 0.59590094E+02</rscale>
<asrwt>0</asrwt>
<pdfrwt beam="1">  1       13 0.10000000E+01 0.59590094E+02</pdfrwt>
<pdfrwt beam="2">  1       22 0.30283590E+00 0.59590094E+02</pdfrwt>
<totfact> 0.20531168E-01</totfact>
</mgrwt>
</event>
<event>
 4    1  0.2471347E+000  0.5133398E+02  0.7957747E-01  0.1438276E+00
         13   -1    0    0    0    0  0.00000000000E+00  0.00000000000E+00  0.99999944182E+02  0.10000000000E+03  0.10566000000E+00 0. -1.
         22   -1    0    0    0    0 -0.00000000000E+00 -0.00000000000E+00 -0.12591595336E+02  0.12591595336E+02  0.00000000000E+00 0.  1.
         13    1    1    2    0    0 -0.75333447250E+01 -0.88558527818E+01  0.47926323098E+00  0.11636935530E+02  0.10566000000E+00 0.  1.
        996    1    1    2    0    0  0.75333447250E+01  0.88558527818E+01  0.86929085615E+02  0.10095465981E+03  0.50000000000E+02 0.  0.
<mgrwt>
<rscale>  0 0.51333979E+02</rscale>
<asrwt>0</asrwt>
<pdfrwt beam="1">  1       13 0.10000000E+01 0.51333979E+02</pdfrwt>
<pdfrwt beam="2">  1       22 0.12591620E+00 0.51333979E+02</pdfrwt>
<totfact> 0.99646995E-01</totfact>
</mgrwt>
</event>
<event>
 4    1  0.2471347E+000  0.5192760E+02  0.7957747E-01  0.1435214E+00
         13   -1    0    0    0    0  0.00000000000E+00  0.00000000000E+00  0.99999944178E+02  0.99999999998E+02  0.10566000000E+00 0.  1.
         22   -1    0    0    0    0 -0.00000000000E+00 -0.00000000000E+00 -0.21054988397E+02  0.21054988397E+02  0.00000000000E+00 0. -1.
         13    1    1    2    0    0  0.12531770818E+02  0.62793224978E+01 -0.10578723596E+02  0.17561199499E+02  0.10566000000E+00 0. -1.
        996    1    1    2    0    0 -0.12531770818E+02 -0.62793224978E+01  0.89523679377E+02  0.10349378890E+03  0.50000000000E+02 0.  0.
<mgrwt>
<rscale>  0 0.51927595E+02</rscale>
<asrwt>0</asrwt>
<pdfrwt beam="1">  1       13 0.10000000E+01 0.51927595E+02</pdfrwt>
<pdfrwt beam="2">  1       22 0.21055010E+00 0.51927595E+02</pdfrwt>
<totfact> 0.41124980E-01</totfact>
</mgrwt>
</event>
<event>
 4    1  0.2471347E+000  0.5147257E+02  0.7957747E-01  0.1437557E+00
         13   -1    0    0    0    0  0.00000000000E+00  0.00000000000E+00  0.99999944187E+02  0.10000000001E+03  0.10566000000E+00 0.  1.
         22   -1    0    0    0    0 -0.00000000000E+00 -0.00000000000E+00 -0.10160384647E+02  0.10160384647E+02  0.00000000000E+00 0.  1.
         13    1    1    2    0    0  0.28342869184E+01 -0.11890863554E+02  0.15505806762E+02  0.19745050665E+02  0.10566000000E+00 0. -1.
        996    1    1    2    0    0 -0.28342869184E+01  0.11890863554E+02  0.74333752778E+02  0.90415333990E+02  0.50000000000E+02 0.  0.
<mgrwt>
<rscale>  0 0.51472573E+02</rscale>
<asrwt>0</asrwt>
<pdfrwt beam="1">  1       13 0.10000000E+01 0.51472573E+02</pdfrwt>
<pdfrwt beam="2">  1       22 0.10160410E+00 0.51472573E+02</pdfrwt>
<totfact> 0.13758515E+00</totfact>
</mgrwt>
</event>
<event>
 4    1  0.2471347E+000  0.5262002E+02  0.7957747E-01  0.1431701E+00
         13   -1    0    0    0    0  0.00000000000E+00  0.00000000000E+00  0.99999944179E+02  0.10000000000E+03  0.10566000000E+00 0. -1.
         22   -1    0    0    0    0 -0.00000000000E+00 -0.00000000000E+00 -0.12151211157E+02  0.12151211157E+02  0.00000000000E+00 0. -1.
         13    1    1    2    0    0  0.13119510843E+02 -0.98358861190E+01  0.14560592058E+02  0.21929163815E+02  0.10566000000E+00 0.  1.
        996    1    1    2    0    0 -0.13119510843E+02  0.98358861190E+01  0.73288140965E+02  0.90222047342E+02  0.50000000000E+02 0.  0.
<mgrwt>
<rscale>  0 0.52620017E+02</rscale>
<asrwt>0</asrwt>
<pdfrwt beam="1">  1       13 0.10000000E+01 0.52620017E+02</pdfrwt>
<pdfrwt beam="2">  1       22 0.12151236E+00 0.52620017E+02</pdfrwt>
<totfact> 0.10559194E+00</totfact>
</mgrwt>
</event>
<event>
 4    1  0.2471347E+000  0.5131921E+02  0.7957747E-01  0.1438353E+00
         13   -1    0    0    0    0  0.00000000000E+00  0.00000000000E+00  0.99999944181E+02  0.10000000000E+03  0.10566000000E+00 0. -1.
         22   -1    0    0    0    0 -0.00000000000E+00 -0.00000000000E+00 -0.11290100859E+02  0.11290100859E+02  0.00000000000E+00 0. -1.
         13    1    1    2    0    0  0.96334860719E+01 -0.63920026771E+01  0.35627476573E+02  0.37456508154E+02  0.10566000000E+00 0.  1.
        996    1    1    2    0    0 -0.96334860719E+01  0.63920026771E+01  0.53082366750E+02  0.73833592706E+02  0.50000000000E+02 0.  0.
<mgrwt>
<rscale>  0 0.51319214E+02</rscale>
<asrwt>0</asrwt>
<pdfrwt beam="1">  1       13 0.10000000E+01 0.51319214E+02</pdfrwt>
<pdfrwt beam="2">  1       22 0.11290126E+00 0.51319214E+02</pdfrwt>
<totfact> 0.11771283E+00</totfact>
</mgrwt>
</event>
<event>
 4    1  0.2471347E+000  0.5242253E+02  0.7957747E-01  0.1432696E+00
         13   -1    0    0    0    0  0.00000000000E+00  0.00000000000E+00  0.99999944181E+02  0.10000000000E+03  0.10566000000E+00 0. -1.
         22   -1    0    0    0    0 -0.00000000000E+00 -0.00000000000E+00 -0.21064326323E+02  0.21064326323E+02  0.00000000000E+00 0.  1.
         13    1    1    2    0    0  0.76069524425E+01  0.13793324701E+02 -0.94007678957E+01  0.18344130746E+02  0.10566000000E+00 0.  1.
        996    1    1    2    0    0 -0.76069524425E+01 -0.13793324701E+02  0.88336385754E+02  0.10272019558E+03  0.50000000000E+02 0.  0.
<mgrwt>
<rscale>  0 0.52422529E+02</rscale>
<asrwt>0</asrwt>
<pdfrwt beam="1">  1       13 0.10000000E+01 0.52422529E+02</pdfrwt>
<pdfrwt beam="2">  1       22 0.21064348E+00 0.52422529E+02</pdfrwt>
<totfact> 0.41125836E-01</totfact>
</mgrwt>
</event>
<event>
 4    1  0.2471347E+000  0.5447029E+02  0.7957747E-01  0.1422621E+00
         13   -1    0    0    0    0  0.00000000000E+00  0.00000000000E+00  0.99999944180E+02  0.10000000000E+03  0.10566000000E+00 0.  1.
         22   -1    0    0    0    0 -0.00000000000E+00 -0.00000000000E+00 -0.16177991370E+02  0.16177991370E+02  0.00000000000E+00 0.  1.
         13    1    1    2    0    0  0.19482758200E+02 -0.93506718313E+01  0.84956962951E+01  0.23220700901E+02  0.10566000000E+00 0. -1.
        996    1    1    2    0    0 -0.19482758200E+02  0.93506718313E+01  0.75326256515E+02  0.92957290469E+02  0.50000000000E+02 0.  0.
<mgrwt>
<rscale>  0 0.54470294E+02</rscale>
<asrwt>0</asrwt>
<pdfrwt beam="1">  1       13 0.10000000E+01 0.54470294E+02</pdfrwt>
<pdfrwt beam="2">  1       22 0.16178015E+00 0.54470294E+02</pdfrwt>
<totfact> 0.66573536E-01</totfact>
</mgrwt>
</event>
<event>
 4    1  0.2471347E+000  0.5600833E+02  0.7957747E-01  0.1415390E+00
         13   -1    0    0    0    0  0.00000000000E+00  0.00000000000E+00  0.99999944179E+02  0.99999999999E+02  0.10566000000E+00 0. -1.
         22   -1    0    0    0    0 -0.00000000000E+00 -0.00000000000E+00 -0.19743703776E+02  0.19743703776E+02  0.00000000000E+00 0. -1.
         13    1    1    2    0    0 -0.25099796160E+02  0.26330136877E+01  0.46668452042E+01  0.25665602205E+02  0.10566000000E+00 0.  1.
        996    1    1    2    0    0  0.25099796160E+02 -0.26330136877E+01  0.75589395199E+02  0.94078101570E+02  0.50000000000E+02 0.  0.
<mgrwt>
<rscale>  0 0.56008326E+02</rscale>
<asrwt>0</asrwt>
<pdfrwt beam="1">  1       13 0.10000000E+01 0.56008326E+02</pdfrwt>
<pdfrwt beam="2">  1       22 0.19743726E+00 0.56008326E+02</pdfrwt>
<totfact> 0.46732660E-01</totfact>
</mgrwt>
</event>
<event>
 4    1  0.2471347E+000  0.5103571E+02  0.7957747E-01  0.1439834E+00
         13   -1    0    0    0    0  0.00000000000E+00  0.00000000000E+00  0.99999944175E+02  0.99999999995E+02  0.10566000000E+00 0.  1.
         22   -1    0    0    0    0 -0.00000000000E+00 -0.00000000000E+00 -0.96898179681E+01  0.96898179681E+01  0.00000000000E+00 0.  1.
         13    1    1    2    0    0  0.73142182249E+01 -0.71516146803E+01  0.23392022460E+02  0.25531182103E+02  0.10566000000E+00 0. -1.
        996    1    1    2    0    0 -0.73142182249E+01  0.71516146803E+01  0.66918103747E+02  0.84158635860E+02  0.50000000000E+02 0.  0.
<mgrwt>
<rscale>  0 0.51035707E+02</rscale>
<asrwt>0</asrwt>
<pdfrwt beam="1">  1       13 0.10000000E+01 0.51035707E+02</pdfrwt>
<pdfrwt beam="2">  1       22 0.96898432E-01 0.51035707E+02</pdfrwt>
<totfact> 0.14718724E+00</totfact>
</mgrwt>
</event>
<event>
 4    1  0.2471347E+000  0.5241003E+02  0.7957747E-01  0.1432760E+00
         13   -1    0    0    0    0  0.00000000000E+00  0.00000000000E+00  0.99999944177E+02  0.99999999997E+02  0.10566000000E+00 0. -1.
         22   -1    0    0    0    0 -0.00000000000E+00 -0.00000000000E+00 -0.13645899123E+02  0.13645899123E+02  0.00000000000E+00 0.  1.
         13    1    1    2    0    0 -0.19875029469E+01 -0.15584002344E+02  0.43106349599E+01  0.16291225700E+02  0.10566000000E+00 0.  1.
        996    1    1    2    0    0  0.19875029469E+01  0.15584002344E+02  0.82043410093E+02  0.97354673420E+02  0.50000000000E+02 0.  0.
<mgrwt>
<rscale>  0 0.52410031E+02</rscale>
<asrwt>0</asrwt>
<pdfrwt beam="1">  1       13 0.10000000E+01 0.52410031E+02</pdfrwt>
<pdfrwt beam="2">  1       22 0.13645923E+00 0.52410031E+02</pdfrwt>
<totfact> 0.87960621E-01</totfact>
</mgrwt>
</event>
<event>
 4    1  0.2471347E+000  0.5102086E+02  0.7957747E-01  0.1439912E+00
         13   -1    0    0    0    0  0.00000000000E+00  0.00000000000E+00  0.99999944182E+02  0.10000000000E+03  0.10566000000E+00 0. -1.
         22   -1    0    0    0    0 -0.00000000000E+00 -0.00000000000E+00 -0.10131238665E+02  0.10131238665E+02  0.00000000000E+00 0. -1.
         13    1    1    2    0    0  0.97194365651E+01  0.29429341666E+01  0.55380198420E+01  0.11567589916E+02  0.10566000000E+00 0.  1.
        996    1    1    2    0    0 -0.97194365651E+01 -0.29429341666E+01  0.84330685675E+02  0.98563648751E+02  0.50000000000E+02 0.  0.
<mgrwt>
<rscale>  0 0.51020862E+02</rscale>
<asrwt>0</asrwt>
<pdfrwt beam="1">  1       13 0.10000000E+01 0.51020862E+02</pdfrwt>
<pdfrwt beam="2">  1       22 0.10131264E+00 0.51020862E+02</pdfrwt>
<totfact> 0.13800997E+00</totfact>
</mgrwt>
</event>
<event>
 4    1  0.2471347E+000  0.7072279E+02  0.7957747E-01  0.1357652E+00
         13   -1    0    0    0    0  0.00000000000E+00  0.00000000000E+00  0.99999944175E+02  0.99999999995E+02  0.10566000000E+00 0.  1.
         22   -1    0    0    0    0 -0.00000000000E+00 -0.00000000000E+00 -0.41009237925E+02  0.41009237925E+02  0.00000000000E+00 0. -1.
         13    1    1    2    0    0  0.48687979046E+02  0.11454001350E+02  0.17892324764E+01  0.50049235433E+02  0.10566000000E+00 0. -1.
        996    1    1    2    0    0 -0.48687979046E+02 -0.11454001350E+02  0.57201473774E+02  0.90960002487E+02  0.50000000000E+02 0.  0.
<mgrwt>
<rscale>  0 0.70722793E+02</rscale>
<asrwt>0</asrwt>
<pdfrwt beam="1">  1       13 0.10000000E+01 0.70722793E+02</pdfrwt>
<pdfrwt beam="2">  1       22 0.41009254E+00 0.70722793E+02</pdfrwt>
<totfact> 0.11926927E-01</totfact>
</mgrwt>
</event>
<event>
 4    1  0.2471347E+000  0.5277441E+02  0.7957747E-01  0.1430927E+00
         13   -1    0    0    0    0  0.00000000000E+00  0.00000000000E+00  0.99999944176E+02  0.99999999996E+02  0.10566000000E+00 0. -1.
         22   -1    0    0    0    0 -0.00000000000E+00 -0.00000000000E+00 -0.12145436871E+02  0.12145436871E+02  0.00000000000E+00 0. -1.
         13    1    1    2    0    0  0.11406581425E+02  0.12451036106E+02  0.22948735630E+02  0.28491999421E+02  0.10566000000E+00 0.  1.
        996    1    1    2    0    0 -0.11406581425E+02 -0.12451036106E+02  0.64905771675E+02  0.83653437446E+02  0.50000000000E+02 0.  0.
<mgrwt>
<rscale>  0 0.52774410E+02</rscale>
<asrwt>0</asrwt>
<pdfrwt beam="1">  1       13 0.10000000E+01 0.52774410E+02</pdfrwt>
<pdfrwt beam="2">  1       22 0.12145461E+00 0.52774410E+02</pdfrwt>
<totfact> 0.10570497E+00</totfact>
</mgrwt>
</event>
<event>
 4    1  0.2471347E+000  0.5117358E+02  0.7957747E-01  0.1439112E+00
         13   -1    0    0    0    0  0.00000000000E+00  0.00000000000E+00  0.99999944179E+02  0.99999999999E+02  0.10566000000E+00 0.  1.
         22   -1    0    0    0    0 -0.00000000000E+00 -0.00000000000E+00 -0.23996759246E+02  0.23996759246E+02  0.00000000000E+00 0. -1.
         13    1    1    2    0    0  0.96530795465E-01 -0.10896137065E+02 -0.15623449039E+02  0.19048318694E+02  0.10566000000E+00 0. -1.
        996    1    1    2    0    0 -0.96530795465E-01  0.10896137065E+02  0.91626633972E+02  0.10494844055E+03  0.50000000000E+02 0.  0.
<mgrwt>
<rscale>  0 0.51173578E+02</rscale>
<asrwt>0</asrwt>
<pdfrwt beam="1">  1       13 0.10000000E+01 0.51173578E+02</pdfrwt>
<pdfrwt beam="2">  1       22 0.23996780E+00 0.51173578E+02</pdfrwt>
<totfact> 0.31905034E-01</totfact>
</mgrwt>
</event>
<event>
 4    1  0.2471347E+000  0.8800995E+02  0.7957747E-01  0.1307744E+00
         13   -1    0    0    0    0  0.00000000000E+00  0.00000000000E+00  0.99999944178E+02  0.99999999998E+02  0.10566000000E+00 0. -1.
         22   -1    0    0    0    0 -0.00000000000E+00 -0.00000000000E+00 -0.65027681830E+02  0.65027681830E+02  0.00000000000E+00 0.  1.
         13    1    1    2    0    0  0.23481925327E+02 -0.68515330905E+02  0.74247757911E+01  0.72807210122E+02  0.10566000000E+00 0.  1.
        996    1    1    2    0    0 -0.23481925327E+02  0.68515330905E+02  0.27547486556E+02  0.92220471706E+02  0.50000000000E+02 0.  0.
<mgrwt>
<rscale>  0 0.88009950E+02</rscale>
<asrwt>0</asrwt>
<pdfrwt beam="1">  1       13 0.10000000E+01 0.88009950E+02</pdfrwt>
<pdfrwt beam="2">  1       22 0.65027692E+00 0.88009950E+02</pdfrwt>
<totfact> 0.86472027E-02</totfact>
</mgrwt>
</event>
<event>
 4    1  0.2471347E+000  0.5215491E+02  0.7957747E-01  0.1434053E+00
         13   -1    0    0    0    0  0.00000000000E+00  0.00000000000E+00  0.99999944179E+02  0.99999999999E+02  0.10566000000E+00 0. -1.
         22   -1    0    0    0    0 -0.00000000000E+00 -0.00000000000E+00 -0.15792381541E+02  0.15792381541E+02  0.00000000000E+00 0. -1.
         13    1    1    2    0    0 -0.85872913869E+01  0.12099292247E+02 -0.20649164640E+01  0.14980303411E+02  0.10566000000E+00 0.  1.
        996    1    1    2    0    0  0.85872913869E+01 -0.12099292247E+02  0.86272479102E+02  0.10081207813E+03  0.50000000000E+02 0.  0.
<mgrwt>
<rscale>  0 0.52154908E+02</rscale>
<asrwt>0</asrwt>
<pdfrwt beam="1">  1       13 0.10000000E+01 0.52154908E+02</pdfrwt>
<pdfrwt beam="2">  1       22 0.15792405E+00 0.52154908E+02</pdfrwt>
<totfact> 0.69066747E-01</totfact>
</mgrwt>
</event>
<event>
 4    1  0.2471347E+000  0.5347308E+02  0.7957747E-01  0.1427461E+00
         13   -1    0    0    0    0  0.00000000000E+00  0.00000000000E+00  0.99999944178E+02  0.99999999998E+02  0.10566000000E+00 0. -1.
         22   -1    0    0    0    0 -0.00000000000E+00 -0.00000000000E+00 -0.13280026653E+02  0.13280026653E+02  0.00000000000E+00 0. -1.
         13    1    1    2    0    0  0.18761107735E+02  0.27186603295E+01  0.17399179180E+02  0.25731554123E+02  0.10566000000E+00 0.  1.
        996    1    1    2    0    0 -0.18761107735E+02 -0.27186603295E+01  0.69320738345E+02  0.87548472529E+02  0.50000000000E+02 0.  0.
<mgrwt>
<rscale>  0 0.53473080E+02</rscale>
<asrwt>0</asrwt>
<pdfrwt beam="1">  1       13 0.10000000E+01 0.53473080E+02</pdfrwt>
<pdfrwt beam="2">  1       22 0.13280051E+00 0.53473080E+02</pdfrwt>
<totfact> 0.92066466E-01</totfact>
</mgrwt>
</event>
<event>
 4    1  0.2471347E+000  0.5270470E+02  0.7957747E-01  0.1431276E+00
         13   -1    0    0    0    0  0.00000000000E+00  0.00000000000E+00  0.99999944181E+02  0.10000000000E+03  0.10566000000E+00 0. -1.
         22   -1    0    0    0    0 -0.00000000000E+00 -0.00000000000E+00 -0.14702394145E+02  0.14702394145E+02  0.00000000000E+00 0.  1.
         13    1    1    2    0    0 -0.29336292984E+01  0.16406679331E+02  0.29403265524E+01  0.16924597242E+02  0.10566000000E+00 0.  1.
        996    1    1    2    0    0  0.29336292984E+01 -0.16406679331E+02  0.82357223484E+02  0.97777796905E+02  0.50000000000E+02 0.  0.
<mgrwt>
<rscale>  0 0.52704699E+02</rscale>
<asrwt>0</asrwt>
<pdfrwt beam="1">  1       13 0.10000000E+01 0.52704699E+02</pdfrwt>
<pdfrwt beam="2">  1       22 0.14702418E+00 0.52704699E+02</pdfrwt>
<totfact> 0.77949170E-01</totfact>
</mgrwt>
</event>
<event>
 4    1  0.2471347E+000  0.5108424E+02  0.7957747E-01  0.1439580E+00
         13   -1    0    0    0    0  0.00000000000E+00  0.00000000000E+00  0.99999944179E+02  0.99999999999E+02  0.10566000000E+00 0.  1.
         22   -1    0    0    0    0 -0.00000000000E+00 -0.00000000000E+00 -0.20589537024E+02  0.20589537024E+02  0.00000000000E+00 0. -1.
         13    1    1    2    0    0 -0.48452200371E+01  0.92802485265E+01 -0.11968197062E+02  0.15901197278E+02  0.10566000000E+00 0. -1.
        996    1    1    2    0    0  0.48452200371E+01 -0.92802485265E+01  0.91378604217E+02  0.10468833975E+03  0.50000000000E+02 0.  0.
<mgrwt>
<rscale>  0 0.51084236E+02</rscale>
<asrwt>0</asrwt>
<pdfrwt beam="1">  1       13 0.10000000E+01 0.51084236E+02</pdfrwt>
<pdfrwt beam="2">  1       22 0.20589559E+00 0.51084236E+02</pdfrwt>
<totfact> 0.42836067E-01</totfact>
</mgrwt>
</event>
<event>
 4    1  0.2471347E+000  0.5207017E+02  0.7957747E-01  0.1434485E+00
         13   -1    0    0    0    0  0.00000000000E+00  0.00000000000E+00  0.99999944182E+02  0.10000000000E+03  0.10566000000E+00 0. -1.
         22   -1    0    0    0    0 -0.00000000000E+00 -0.00000000000E+00 -0.13304553224E+02  0.13304553224E+02  0.00000000000E+00 0.  1.
         13    1    1    2    0    0 -0.23798818888E+01  0.14340128510E+02  0.31705004604E+01  0.14878385688E+02  0.10566000000E+00 0.  1.
        996    1    1    2    0    0  0.23798818888E+01 -0.14340128510E+02  0.83524890498E+02  0.98426167538E+02  0.50000000000E+02 0.  0.
<mgrwt>
<rscale>  0 0.52070175E+02</rscale>
<asrwt>0</asrwt>
<pdfrwt beam="1">  1       13 0.10000000E+01 0.52070175E+02</pdfrwt>
<pdfrwt beam="2">  1       22 0.13304577E+00 0.52070175E+02</pdfrwt>
<totfact> 0.91525232E-01</totfact>
</mgrwt>
</event>
<event>
 4    1  0.2471347E+000  0.5113094E+02  0.7957747E-01  0.1439335E+00
         13   -1    0    0    0    0  0.00000000000E+00  0.00000000000E+00  0.99999944176E+02  0.99999999996E+02  0.10566000000E+00 0. -1.
         22   -1    0    0    0    0 -0.00000000000E+00 -0.00000000000E+00 -0.12156360013E+02  0.12156360013E+02  0.00000000000E+00 0. -1.
         13    1    1    2    0    0 -0.66406616428E+01  0.83830079067E+01  0.21024411639E+00  0.10697129299E+02  0.10566000000E+00 0.  1.
        996    1    1    2    0    0  0.66406616428E+01 -0.83830079067E+01  0.87633340047E+02  0.10145923071E+03  0.50000000000E+02 0.  0.
<mgrwt>
<rscale>  0 0.51130942E+02</rscale>
<asrwt>0</asrwt>
<pdfrwt beam="1">  1       13 0.10000000E+01 0.51130942E+02</pdfrwt>
<pdfrwt beam="2">  1       22 0.12156385E+00 0.51130942E+02</pdfrwt>
<totfact> 0.10517340E+00</totfact>
</mgrwt>
</event>
<event>
 4    1  0.2471347E+000  0.5117948E+02  0.7957747E-01  0.1439082E+00
         13   -1    0    0    0    0  0.00000000000E+00  0.00000000000E+00  0.99999944178E+02  0.99999999998E+02  0.10566000000E+00 0.  1.
         22   -1    0    0    0    0 -0.00000000000E+00 -0.00000000000E+00 -0.13523322585E+02  0.13523322585E+02  0.00000000000E+00 0. -1.
         13    1    1    2    0    0 -0.76185889755E+01 -0.78291805329E+01 -0.21937105770E+01  0.11142822619E+02  0.10566000000E+00 0. -1.
        996    1    1    2    0    0  0.76185889755E+01  0.78291805329E+01  0.88670332170E+02  0.10238049996E+03  0.50000000000E+02 0.  0.
<mgrwt>
<rscale>  0 0.51179478E+02</rscale>
<asrwt>0</asrwt>
<pdfrwt beam="1">  1       13 0.10000000E+01 0.51179478E+02</pdfrwt>
<pdfrwt beam="2">  1       22 0.13523347E+00 0.51179478E+02</pdfrwt>
<totfact> 0.89006314E-01</totfact>
</mgrwt>
</event>
<event>
 4    1  0.2471347E+000  0.5922078E+02  0.7957747E-01  0.1401131E+00
         13   -1    0    0    0    0  0.00000000000E+00  0.00000000000E+00  0.99999944185E+02  0.10000000001E+03  0.10566000000E+00 0.  1.
         22   -1    0    0    0    0 -0.00000000000E+00 -0.00000000000E+00 -0.42706982420E+02  0.42706982420E+02  0.00000000000E+00 0. -1.
         13    1    1    2    0    0 -0.86123286299E+01 -0.30543878998E+02 -0.25641197881E+02  0.40799300747E+02  0.10566000000E+00 0. -1.
        996    1    1    2    0    0  0.86123286299E+01  0.30543878998E+02  0.82934159647E+02  0.10190768168E+03  0.50000000000E+02 0.  0.
<mgrwt>
<rscale>  0 0.59220780E+02</rscale>
<asrwt>0</asrwt>
<pdfrwt beam="1">  1       13 0.10000000E+01 0.59220780E+02</pdfrwt>
<pdfrwt beam="2">  1       22 0.42706998E+00 0.59220780E+02</pdfrwt>
<totfact> 0.10901953E-01</totfact>
</mgrwt>
</event>
<event>
 4    1  0.2471347E+000  0.5140416E+02  0.7957747E-01  0.1437912E+00
         13   -1    0    0    0    0  0.00000000000E+00  0.00000000000E+00  0.99999944175E+02  0.99999999996E+02  0.10566000000E+00 0.  1.
         22   -1    0    0    0    0 -0.00000000000E+00 -0.00000000000E+00 -0.14312548784E+02  0.14312548784E+02  0.00000000000E+00 0.  1.
         13    1    1    2    0    0 -0.19957928936E+01  0.11764545141E+02 -0.25419358490E+01  0.12200832494E+02  0.10566000000E+00 0. -1.
        996    1    1    2    0    0  0.19957928936E+01 -0.11764545141E+02  0.88229331240E+02  0.10211171629E+03  0.50000000000E+02 0.  0.
<mgrwt>
<rscale>  0 0.51404160E+02</rscale>
<asrwt>0</asrwt>
<pdfrwt beam="1">  1       13 0.10000000E+01 0.51404160E+02</pdfrwt>
<pdfrwt beam="2">  1       22 0.14312573E+00 0.51404160E+02</pdfrwt>
<totfact> 0.81249489E-01</totfact>
</mgrwt>
</event>
<event>
 4    1  0.2471347E+000  0.5118532E+02  0.7957747E-01  0.1439051E+00
         13   -1    0    0    0    0  0.00000000000E+00  0.00000000000E+00  0.99999944177E+02  0.99999999997E+02  0.10566000000E+00 0.  1.
         22   -1    0    0    0    0 -0.00000000000E+00 -0.00000000000E+00 -0.23421516721E+02  0.23421516721E+02  0.00000000000E+00 0. -1.
         13    1    1    2    0    0  0.10149671745E+02  0.41135039124E+01 -0.14962301081E+02  0.18542339891E+02  0.10566000000E+00 0. -1.
        996    1    1    2    0    0 -0.10149671745E+02 -0.41135039124E+01  0.91540728537E+02  0.10487917683E+03  0.50000000000E+02 0.  0.
<mgrwt>
<rscale>  0 0.51185318E+02</rscale>
<asrwt>0</asrwt>
<pdfrwt beam="1">  1       13 0.10000000E+01 0.51185318E+02</pdfrwt>
<pdfrwt beam="2">  1       22 0.23421538E+00 0.51185318E+02</pdfrwt>
<totfact> 0.33454934E-01</totfact>
</mgrwt>
</event>
<event>
 4    1  0.2471347E+000  0.6164532E+02  0.7957747E-01  0.1391054E+00
         13   -1    0    0    0    0  0.00000000000E+00  0.00000000000E+00  0.99999944185E+02  0.10000000001E+03  0.10566000000E+00 0. -1.
         22   -1    0    0    0    0 -0.00000000000E+00 -0.00000000000E+00 -0.35679470965E+02  0.35679470965E+02  0.00000000000E+00 0.  1.
         13    1    1    2    0    0  0.25485574757E+02 -0.25507480682E+02 -0.11605334072E+02  0.37879295590E+02  0.10566000000E+00 0.  1.
        996    1    1    2    0    0 -0.25485574757E+02  0.25507480682E+02  0.75925807292E+02  0.97800175380E+02  0.50000000000E+02 0.  0.
<mgrwt>
<rscale>  0 0.61645325E+02</rscale>
<asrwt>0</asrwt>
<pdfrwt beam="1">  1       13 0.10000000E+01 0.61645325E+02</pdfrwt>
<pdfrwt beam="2">  1       22 0.35679489E+00 0.61645325E+02</pdfrwt>
<totfact> 0.15330923E-01</totfact>
</mgrwt>
</event>
<event>
 4    1  0.2471347E+000  0.5154983E+02  0.7957747E-01  0.1437157E+00
         13   -1    0    0    0    0  0.00000000000E+00  0.00000000000E+00  0.99999944171E+02  0.99999999991E+02  0.10566000000E+00 0. -1.
         22   -1    0    0    0    0 -0.00000000000E+00 -0.00000000000E+00 -0.72181448572E+02  0.72181448572E+02  0.00000000000E+00 0.  1.
         13    1    1    2    0    0 -0.10648018137E+02 -0.66335840223E+01 -0.64897092507E+02  0.66098627120E+02  0.10566000000E+00 0.  1.
        996    1    1    2    0    0  0.10648018137E+02  0.66335840223E+01  0.92715588106E+02  0.10608282144E+03  0.50000000000E+02 0.  0.
<mgrwt>
<rscale>  0 0.51549828E+02</rscale>
<asrwt>0</asrwt>
<pdfrwt beam="1">  1       13 0.10000000E+01 0.51549828E+02</pdfrwt>
<pdfrwt beam="2">  1       22 0.72181456E+00 0.51549828E+02</pdfrwt>
<totfact> 0.63077914E-02</totfact>
</mgrwt>
</event>
<event>
 4    1  0.2471347E+000  0.5210251E+02  0.7957747E-01  0.1434320E+00
         13   -1    0    0    0    0  0.00000000000E+00  0.00000000000E+00  0.99999944176E+02  0.99999999996E+02  0.10566000000E+00 0. -1.
         22   -1    0    0    0    0 -0.00000000000E+00 -0.00000000000E+00 -0.39250373697E+02  0.39250373697E+02  0.00000000000E+00 0.  1.
         13    1    1    2    0    0 -0.13975098472E+02  0.44009415036E+01 -0.30690119388E+02  0.34008326267E+02  0.10566000000E+00 0.  1.
        996    1    1    2    0    0  0.13975098472E+02 -0.44009415036E+01  0.91439689866E+02  0.10524204743E+03  0.50000000000E+02 0.  0.
<mgrwt>
<rscale>  0 0.52102511E+02</rscale>
<asrwt>0</asrwt>
<pdfrwt beam="1">  1       13 0.10000000E+01 0.52102511E+02</pdfrwt>
<pdfrwt beam="2">  1       22 0.39250391E+00 0.52102511E+02</pdfrwt>
<totfact> 0.12815634E-01</totfact>
</mgrwt>
</event>
<event>
 4    1  0.2471347E+000  0.5207744E+02  0.7957747E-01  0.1434448E+00
         13   -1    0    0    0    0  0.00000000000E+00  0.00000000000E+00  0.99999944179E+02  0.99999999999E+02  0.10566000000E+00 0.  1.
         22   -1    0    0    0    0 -0.00000000000E+00 -0.00000000000E+00 -0.30876194866E+02  0.30876194866E+02  0.00000000000E+00 0. -1.
         13    1    1    2    0    0 -0.74512554720E+01 -0.12511544557E+02 -0.21728156567E+02  0.26156909357E+02  0.10566000000E+00 0. -1.
        996    1    1    2    0    0  0.74512554720E+01  0.12511544557E+02  0.90851905880E+02  0.10471928551E+03  0.50000000000E+02 0.  0.
<mgrwt>
<rscale>  0 0.52077442E+02</rscale>
<asrwt>0</asrwt>
<pdfrwt beam="1">  1       13 0.10000000E+01 0.52077442E+02</pdfrwt>
<pdfrwt beam="2">  1       22 0.30876214E+00 0.52077442E+02</pdfrwt>
<totfact> 0.19631314E-01</totfact>
</mgrwt>
</event>
<event>
 4    1  0.2471347E+000  0.5872513E+02  0.7957747E-01  0.1403261E+00
         13   -1    0    0    0    0  0.00000000000E+00  0.00000000000E+00  0.99999944184E+02  0.10000000000E+03  0.10566000000E+00 0. -1.
         22   -1    0    0    0    0 -0.00000000000E+00 -0.00000000000E+00 -0.21263297837E+02  0.21263297837E+02  0.00000000000E+00 0. -1.
         13    1    1    2    0    0  0.23826402678E+02  0.19517778140E+02  0.13919221521E+02  0.33799364193E+02  0.10566000000E+00 0.  1.
        996    1    1    2    0    0 -0.23826402678E+02 -0.19517778140E+02  0.64817424827E+02  0.87463933648E+02  0.50000000000E+02 0.  0.
<mgrwt>
<rscale>  0 0.58725132E+02</rscale>
<asrwt>0</asrwt>
<pdfrwt beam="1">  1       13 0.10000000E+01 0.58725132E+02</pdfrwt>
<pdfrwt beam="2">  1       22 0.21263320E+00 0.58725132E+02</pdfrwt>
<totfact> 0.40811871E-01</totfact>
</mgrwt>
</event>
<event>
 4    1  0.2471347E+000  0.5104428E+02  0.7957747E-01  0.1439789E+00
         13   -1    0    0    0    0  0.00000000000E+00  0.00000000000E+00  0.99999944184E+02  0.10000000000E+03  0.10566000000E+00 0. -1.
         22   -1    0    0    0    0 -0.00000000000E+00 -0.00000000000E+00 -0.17302450187E+02  0.17302450187E+02  0.00000000000E+00 0.  1.
         13    1    1    2    0    0 -0.24468310017E+01  0.99765326669E+01 -0.81392256448E+01  0.13106347475E+02  0.10566000000E+00 0.  1.
        996    1    1    2    0    0  0.24468310017E+01 -0.99765326669E+01  0.90836719641E+02  0.10419610272E+03  0.50000000000E+02 0.  0.
<mgrwt>
<rscale>  0 0.51044277E+02</rscale>
<asrwt>0</asrwt>
<pdfrwt beam="1">  1       13 0.10000000E+01 0.51044277E+02</pdfrwt>
<pdfrwt beam="2">  1       22 0.17302473E+00 0.51044277E+02</pdfrwt>
<totfact> 0.58832790E-01</totfact>
</mgrwt>
</event>
<event>
 4    1  0.2471347E+000  0.5162292E+02  0.7957747E-01  0.1436779E+00
         13   -1    0    0    0    0  0.00000000000E+00  0.00000000000E+00  0.99999944183E+02  0.10000000000E+03  0.10566000000E+00 0. -1.
         22   -1    0    0    0    0 -0.00000000000E+00 -0.00000000000E+00 -0.10389694265E+02  0.10389694265E+02  0.00000000000E+00 0. -1.
         13    1    1    2    0    0 -0.16438676565E+00 -0.12841301087E+02  0.17684902187E+02  0.21856188278E+02  0.10566000000E+00 0.  1.
        996    1    1    2    0    0  0.16438676565E+00  0.12841301087E+02  0.71925347732E+02  0.88533505990E+02  0.50000000000E+02 0.  0.
<mgrwt>
<rscale>  0 0.51622922E+02</rscale>
<asrwt>0</asrwt>
<pdfrwt beam="1">  1       13 0.10000000E+01 0.51622922E+02</pdfrwt>
<pdfrwt beam="2">  1       22 0.10389719E+00 0.51622922E+02</pdfrwt>
<totfact> 0.13322545E+00</totfact>
</mgrwt>
</event>
<event>
 4    1  0.2471347E+000  0.5904109E+02  0.7957747E-01  0.1401900E+00
         13   -1    0    0    0    0  0.00000000000E+00  0.00000000000E+00  0.99999944181E+02  0.10000000000E+03  0.10566000000E+00 0. -1.
         22   -1    0    0    0    0 -0.00000000000E+00 -0.00000000000E+00 -0.20962998238E+02  0.20962998238E+02  0.00000000000E+00 0.  1.
         13    1    1    2    0    0 -0.31019901779E+02  0.48595756836E+01  0.18700891460E+02  0.36545646630E+02  0.10566000000E+00 0.  1.
        996    1    1    2    0    0  0.31019901779E+02 -0.48595756836E+01  0.60336054483E+02  0.84417351609E+02  0.50000000000E+02 0.  0.
<mgrwt>
<rscale>  0 0.59041086E+02</rscale>
<asrwt>0</asrwt>
<pdfrwt beam="1">  1       13 0.10000000E+01 0.59041086E+02</pdfrwt>
<pdfrwt beam="2">  1       22 0.20963020E+00 0.59041086E+02</pdfrwt>
<totfact> 0.41953306E-01</totfact>
</mgrwt>
</event>
<event>
 4    1  0.2471347E+000  0.5389347E+02  0.7957747E-01  0.1425405E+00
         13   -1    0    0    0    0  0.00000000000E+00  0.00000000000E+00  0.99999944181E+02  0.10000000000E+03  0.10566000000E+00 0.  1.
         22   -1    0    0    0    0 -0.00000000000E+00 -0.00000000000E+00 -0.21986922705E+02  0.21986922705E+02  0.00000000000E+00 0. -1.
         13    1    1    2    0    0  0.11493340885E+02 -0.16504820362E+02 -0.70294190516E+01  0.21305630151E+02  0.10566000000E+00 0. -1.
        996    1    1    2    0    0 -0.11493340885E+02  0.16504820362E+02  0.85042440527E+02  0.10068129256E+03  0.50000000000E+02 0.  0.
<mgrwt>
<rscale>  0 0.53893469E+02</rscale>
<asrwt>0</asrwt>
<pdfrwt beam="1">  1       13 0.10000000E+01 0.53893469E+02</pdfrwt>
<pdfrwt beam="2">  1       22 0.21986944E+00 0.53893469E+02</pdfrwt>
<totfact> 0.37984517E-01</totfact>
</mgrwt>
</event>
<event>
 4    1  0.2471347E+000  0.6740674E+02  0.7957747E-01  0.1369140E+00
         13   -1    0    0    0    0  0.00000000000E+00  0.00000000000E+00  0.99999944173E+02  0.99999999993E+02  0.10566000000E+00 0.  1.
         22   -1    0    0    0    0 -0.00000000000E+00 -0.00000000000E+00 -0.32551114050E+02  0.32551114050E+02  0.00000000000E+00 0.  1.
         13    1    1    2    0    0  0.45202346395E+02  0.64557809963E+00  0.37732335059E+02  0.58884710781E+02  0.10566000000E+00 0. -1.
        996    1    1    2    0    0 -0.45202346395E+02 -0.64557809963E+00  0.29716495064E+02  0.73666403262E+02  0.50000000000E+02 0.  0.
<mgrwt>
<rscale>  0 0.67406742E+02</rscale>
<asrwt>0</asrwt>
<pdfrwt beam="1">  1       13 0.10000000E+01 0.67406742E+02</pdfrwt>
<pdfrwt beam="2">  1       22 0.32551133E+00 0.67406742E+02</pdfrwt>
<totfact> 0.18129530E-01</totfact>
</mgrwt>
</event>
<event>
 4    1  0.2471347E+000  0.9034847E+02  0.7957747E-01  0.1302010E+00
         13   -1    0    0    0    0  0.00000000000E+00  0.00000000000E+00  0.99999944184E+02  0.10000000000E+03  0.10566000000E+00 0. -1.
         22   -1    0    0    0    0 -0.00000000000E+00 -0.00000000000E+00 -0.72695207329E+02  0.72695207329E+02  0.00000000000E+00 0.  1.
         13    1    1    2    0    0 -0.10176700008E+02 -0.74560582350E+02 -0.80378989996E+01  0.75680014850E+02  0.10566000000E+00 0.  1.
        996    1    1    2    0    0  0.10176700008E+02  0.74560582350E+02  0.35342635854E+02  0.97015192483E+02  0.50000000000E+02 0.  0.
<mgrwt>
<rscale>  0 0.90348468E+02</rscale>
<asrwt>0</asrwt>
<pdfrwt beam="1">  1       13 0.10000000E+01 0.90348468E+02</pdfrwt>
<pdfrwt beam="2">  1       22 0.72695215E+00 0.90348468E+02</pdfrwt>
<totfact> 0.60314888E-02</totfact>
</mgrwt>
</event>
<event>
 4    1  0.2471347E+000  0.5298675E+02  0.7957747E-01  0.1429867E+00
         13   -1    0    0    0    0  0.00000000000E+00  0.00000000000E+00  0.99999944177E+02  0.99999999997E+02  0.10566000000E+00 0.  1.
         22   -1    0    0    0    0 -0.00000000000E+00 -0.00000000000E+00 -0.43427435317E+02  0.43427435317E+02  0.00000000000E+00 0. -1.
         13    1    1    2    0    0  0.83038572325E+01 -0.15448023868E+02 -0.34135317393E+02  0.38377422320E+02  0.10566000000E+00 0. -1.
        996    1    1    2    0    0 -0.83038572325E+01  0.15448023868E+02  0.90707826254E+02  0.10505001299E+03  0.50000000000E+02 0.  0.
<mgrwt>
<rscale>  0 0.52986748E+02</rscale>
<asrwt>0</asrwt>
<pdfrwt beam="1">  1       13 0.10000000E+01 0.52986748E+02</pdfrwt>
<pdfrwt beam="2">  1       22 0.43427451E+00 0.52986748E+02</pdfrwt>
<totfact> 0.10476629E-01</totfact>
</mgrwt>
</event>
<event>
 4    1  0.2471347E+000  0.5418770E+02  0.7957747E-01  0.1423980E+00
         13   -1    0    0    0    0  0.00000000000E+00  0.00000000000E+00  0.99999944182E+02  0.10000000000E+03  0.10566000000E+00 0.  1.
         22   -1    0    0    0    0 -0.00000000000E+00 -0.00000000000E+00 -0.14932590663E+02  0.14932590663E+02  0.00000000000E+00 0. -1.
         13    1    1    2    0    0 -0.20850628693E+02 -0.12483169952E+01  0.12419884682E+02  0.24301681254E+02  0.10566000000E+00 0. -1.
        996    1    1    2    0    0  0.20850628693E+02  0.12483169952E+01  0.72647468837E+02  0.90630909411E+02  0.50000000000E+02 0.  0.
<mgrwt>
<rscale>  0 0.54187702E+02</rscale>
<asrwt>0</asrwt>
<pdfrwt beam="1">  1       13 0.10000000E+01 0.54187702E+02</pdfrwt>
<pdfrwt beam="2">  1       22 0.14932614E+00 0.54187702E+02</pdfrwt>
<totfact> 0.76191704E-01</totfact>
</mgrwt>
</event>
<event>
 4    1  0.2471347E+000  0.5293042E+02  0.7957747E-01  0.1430147E+00
         13   -1    0    0    0    0  0.00000000000E+00  0.00000000000E+00  0.99999944179E+02  0.99999999999E+02  0.10566000000E+00 0. -1.
         22   -1    0    0    0    0 -0.00000000000E+00 -0.00000000000E+00 -0.15140635175E+02  0.15140635175E+02  0.00000000000E+00 0.  1.
         13    1    1    2    0    0 -0.75454334373E+01 -0.15642764553E+02  0.29486277724E+01  0.17616333852E+02  0.10566000000E+00 0.  1.
        996    1    1    2    0    0  0.75454334373E+01  0.15642764553E+02  0.81910681231E+02  0.97524301322E+02  0.50000000000E+02 0.  0.
<mgrwt>
<rscale>  0 0.52930423E+02</rscale>
<asrwt>0</asrwt>
<pdfrwt beam="1">  1       13 0.10000000E+01 0.52930423E+02</pdfrwt>
<pdfrwt beam="2">  1       22 0.15140659E+00 0.52930423E+02</pdfrwt>
<totfact> 0.74268637E-01</totfact>
</mgrwt>
</event>
<event>
 4    1  0.2471347E+000  0.5518090E+02  0.7957747E-01  0.1419245E+00
         13   -1    0    0    0    0  0.00000000000E+00  0.00000000000E+00  0.99999944180E+02  0.10000000000E+03  0.10566000000E+00 0. -1.
         22   -1    0    0    0    0 -0.00000000000E+00 -0.00000000000E+00 -0.27052586917E+02  0.27052586917E+02  0.00000000000E+00 0. -1.
         13    1    1    2    0    0 -0.47638242940E+01 -0.22852528991E+02 -0.11618698632E+02  0.26075609775E+02  0.10566000000E+00 0.  1.
        996    1    1    2    0    0  0.47638242940E+01  0.22852528991E+02  0.84566055895E+02  0.10097697714E+03  0.50000000000E+02 0.  0.
<mgrwt>
<rscale>  0 0.55180903E+02</rscale>
<asrwt>0</asrwt>
<pdfrwt beam="1">  1       13 0.10000000E+01 0.55180903E+02</pdfrwt>
<pdfrwt beam="2">  1       22 0.27052607E+00 0.55180903E+02</pdfrwt>
<totfact> 0.25361007E-01</totfact>
</mgrwt>
</event>
<event>
 4    1  0.2471347E+000  0.5100636E+02  0.7957747E-01  0.1439988E+00
         13   -1    0    0    0    0  0.00000000000E+00  0.00000000000E+00  0.99999944177E+02  0.99999999997E+02  0.10566000000E+00 0.  1.
         22   -1    0    0    0    0 -0.00000000000E+00 -0.00000000000E+00 -0.16779232352E+02  0.16779232352E+02  0.00000000000E+00 0. -1.
         13    1    1    2    0    0  0.80801347961E+01  0.60299496751E+01 -0.75928691041E+01  0.12621873739E+02  0.10566000000E+00 0. -1.
        996    1    1    2    0    0 -0.80801347961E+01 -0.60299496751E+01  0.90813580929E+02  0.10415735861E+03  0.50000000000E+02 0.  0.
<mgrwt>
<rscale>  0 0.51006361E+02</rscale>
<asrwt>0</asrwt>
<pdfrwt beam="1">  1       13 0.10000000E+01 0.51006361E+02</pdfrwt>
<pdfrwt beam="2">  1       22 0.16779256E+00 0.51006361E+02</pdfrwt>
<totfact> 0.62081732E-01</totfact>
</mgrwt>
</event>
<event>
 4    1  0.2471347E+000  0.5186902E+02  0.7957747E-01  0.1435514E+00
         13   -1    0    0    0    0  0.00000000000E+00  0.00000000000E+00  0.99999944181E+02  0.10000000000E+03  0.10566000000E+00 0. -1.
         22   -1    0    0    0    0 -0.00000000000E+00 -0.00000000000E+00 -0.37144830998E+02  0.37144830998E+02  0.00000000000E+00 0.  1.
         13    1    1    2    0    0 -0.13747059577E+02 -0.11887879932E+01 -0.28741151439E+02  0.31881966909E+02  0.10566000000E+00 0.  1.
        996    1    1    2    0    0  0.13747059577E+02  0.11887879932E+01  0.91596264622E+02  0.10526286409E+03  0.50000000000E+02 0.  0.
<mgrwt>
<rscale>  0 0.51869016E+02</rscale>
<asrwt>0</asrwt>
<pdfrwt beam="1">  1       13 0.10000000E+01 0.51869016E+02</pdfrwt>
<pdfrwt beam="2">  1       22 0.37144849E+00 0.51869016E+02</pdfrwt>
<totfact> 0.14156600E-01</totfact>
</mgrwt>
</event>
<event>
 4    1  0.2471347E+000  0.5235439E+02  0.7957747E-01  0.1433041E+00
         13   -1    0    0    0    0  0.00000000000E+00  0.00000000000E+00  0.99999944177E+02  0.99999999997E+02  0.10566000000E+00 0. -1.
         22   -1    0    0    0    0 -0.00000000000E+00 -0.00000000000E+00 -0.12501285968E+02  0.12501285968E+02  0.00000000000E+00 0.  1.
         13    1    1    2    0    0  0.28650324343E+00 -0.15520954539E+02  0.84144262044E+01  0.17657741823E+02  0.10566000000E+00 0.  1.
        996    1    1    2    0    0 -0.28650324343E+00  0.15520954539E+02  0.79084232004E+02  0.94843544143E+02  0.50000000000E+02 0.  0.
<mgrwt>
<rscale>  0 0.52354390E+02</rscale>
<asrwt>0</asrwt>
<pdfrwt beam="1">  1       13 0.10000000E+01 0.52354390E+02</pdfrwt>
<pdfrwt beam="2">  1       22 0.12501310E+00 0.52354390E+02</pdfrwt>
<totfact> 0.10099575E+00</totfact>
</mgrwt>
</event>
<event>
 4    1  0.2471347E+000  0.5228987E+02  0.7957747E-01  0.1433368E+00
         13   -1    0    0    0    0  0.00000000000E+00  0.00000000000E+00  0.99999944183E+02  0.10000000000E+03  0.10566000000E+00 0. -1.
         22   -1    0    0    0    0 -0.00000000000E+00 -0.00000000000E+00 -0.14157093803E+02  0.14157093803E+02  0.00000000000E+00 0. -1.
         13    1    1    2    0    0 -0.15292218125E+02 -0.61545540892E+00  0.21262136422E+01  0.15451947096E+02  0.10566000000E+00 0.  1.
        996    1    1    2    0    0  0.15292218125E+02  0.61545540892E+00  0.83716636738E+02  0.98705146711E+02  0.50000000000E+02 0.  0.
<mgrwt>
<rscale>  0 0.52289872E+02</rscale>
<asrwt>0</asrwt>
<pdfrwt beam="1">  1       13 0.10000000E+01 0.52289872E+02</pdfrwt>
<pdfrwt beam="2">  1       22 0.14157118E+00 0.52289872E+02</pdfrwt>
<totfact> 0.82863208E-01</totfact>
</mgrwt>
</event>
<event>
 4    1  0.2471347E+000  0.5120416E+02  0.7957747E-01  0.1438953E+00
         13   -1    0    0    0    0  0.00000000000E+00  0.00000000000E+00  0.99999944177E+02  0.99999999998E+02  0.10566000000E+00 0. -1.
         22   -1    0    0    0    0 -0.00000000000E+00 -0.00000000000E+00 -0.34261335332E+02  0.34261335332E+02  0.00000000000E+00 0.  1.
         13    1    1    2    0    0 -0.30786277827E+01 -0.10601345583E+02 -0.26530995087E+02  0.28736237428E+02  0.10566000000E+00 0.  1.
        996    1    1    2    0    0  0.30786277827E+01  0.10601345583E+02  0.92269603932E+02  0.10552509790E+03  0.50000000000E+02 0.  0.
<mgrwt>
<rscale>  0 0.51204165E+02</rscale>
<asrwt>0</asrwt>
<pdfrwt beam="1">  1       13 0.10000000E+01 0.51204165E+02</pdfrwt>
<pdfrwt beam="2">  1       22 0.34261354E+00 0.51204165E+02</pdfrwt>
<totfact> 0.16295823E-01</totfact>
</mgrwt>
</event>
<event>
 4    1  0.2471347E+000  0.5184692E+02  0.7957747E-01  0.1435627E+00
         13   -1    0    0    0    0  0.00000000000E+00  0.00000000000E+00  0.99999944175E+02  0.99999999995E+02  0.10566000000E+00 0.  1.
         22   -1    0    0    0    0 -0.00000000000E+00 -0.00000000000E+00 -0.21898612311E+02  0.21898612311E+02  0.00000000000E+00 0. -1.
         13    1    1    2    0    0  0.27813822017E+01 -0.13430068360E+02 -0.11816709930E+02  0.18103828897E+02  0.10566000000E+00 0. -1.
        996    1    1    2    0    0 -0.27813822017E+01  0.13430068360E+02  0.89918041794E+02  0.10379478341E+03  0.50000000000E+02 0.  0.
<mgrwt>
<rscale>  0 0.51846917E+02</rscale>
<asrwt>0</asrwt>
<pdfrwt beam="1">  1       13 0.10000000E+01 0.51846917E+02</pdfrwt>
<pdfrwt beam="2">  1       22 0.21898634E+00 0.51846917E+02</pdfrwt>
<totfact> 0.38148171E-01</totfact>
</mgrwt>
</event>
<event>
 4    1  0.2471347E+000  0.5338800E+02  0.7957747E-01  0.1427880E+00
         13   -1    0    0    0    0  0.00000000000E+00  0.00000000000E+00  0.99999944179E+02  0.99999999999E+02  0.10566000000E+00 0.  1.
         22   -1    0    0    0    0 -0.00000000000E+00 -0.00000000000E+00 -0.15397181234E+02  0.15397181234E+02  0.00000000000E+00 0.  1.
         13    1    1    2    0    0 -0.18271675143E+02 -0.40527227376E+01  0.46956944850E+01  0.19296097659E+02  0.10566000000E+00 0. -1.
        996    1    1    2    0    0  0.18271675143E+02  0.40527227376E+01  0.79907068460E+02  0.96101083574E+02  0.50000000000E+02 0.  0.
<mgrwt>
<rscale>  0 0.53388001E+02</rscale>
<asrwt>0</asrwt>
<pdfrwt beam="1">  1       13 0.10000000E+01 0.53388001E+02</pdfrwt>
<pdfrwt beam="2">  1       22 0.15397205E+00 0.53388001E+02</pdfrwt>
<totfact> 0.72269514E-01</totfact>
</mgrwt>
</event>
<event>
 4    1  0.2471347E+000  0.5148923E+02  0.7957747E-01  0.1437471E+00
         13   -1    0    0    0    0  0.00000000000E+00  0.00000000000E+00  0.99999944186E+02  0.10000000001E+03  0.10566000000E+00 0.  1.
         22   -1    0    0    0    0 -0.00000000000E+00 -0.00000000000E+00 -0.11008287097E+02  0.11008287097E+02  0.00000000000E+00 0.  1.
         13    1    1    2    0    0  0.68818886902E+00  0.12274666595E+02  0.31586253348E+02  0.33894595565E+02  0.10566000000E+00 0. -1.
        996    1    1    2    0    0 -0.68818886902E+00 -0.12274666595E+02  0.57405403741E+02  0.77113691538E+02  0.50000000000E+02 0.  0.
<mgrwt>
<rscale>  0 0.51489232E+02</rscale>
<asrwt>0</asrwt>
<pdfrwt beam="1">  1       13 0.10000000E+01 0.51489232E+02</pdfrwt>
<pdfrwt beam="2">  1       22 0.11008312E+00 0.51489232E+02</pdfrwt>
<totfact> 0.12229004E+00</totfact>
</mgrwt>
</event>
<event>
 4    1  0.2471347E+000  0.5156480E+02  0.7957747E-01  0.1437080E+00
         13   -1    0    0    0    0  0.00000000000E+00  0.00000000000E+00  0.99999944179E+02  0.99999999999E+02  0.10566000000E+00 0. -1.
         22   -1    0    0    0    0 -0.00000000000E+00 -0.00000000000E+00 -0.11758782479E+02  0.11758782479E+02  0.00000000000E+00 0. -1.
         13    1    1    2    0    0  0.65616288458E+01 -0.10764476638E+02  0.36895319846E+02  0.38989802782E+02  0.10566000000E+00 0.  1.
        996    1    1    2    0    0 -0.65616288458E+01  0.10764476638E+02  0.51345841853E+02  0.72768979696E+02  0.50000000000E+02 0.  0.
<mgrwt>
<rscale>  0 0.51564803E+02</rscale>
<asrwt>0</asrwt>
<pdfrwt beam="1">  1       13 0.10000000E+01 0.51564803E+02</pdfrwt>
<pdfrwt beam="2">  1       22 0.11758807E+00 0.51564803E+02</pdfrwt>
<totfact> 0.11076777E+00</totfact>
</mgrwt>
</event>
<event>
 4    1  0.2471347E+000  0.5613167E+02  0.7957747E-01  0.1414822E+00
         13   -1    0    0    0    0  0.00000000000E+00  0.00000000000E+00  0.99999944174E+02  0.99999999994E+02  0.10566000000E+00 0. -1.
         22   -1    0    0    0    0 -0.00000000000E+00 -0.00000000000E+00 -0.28585507377E+02  0.28585507377E+02  0.00000000000E+00 0.  1.
         13    1    1    2    0    0 -0.11269623825E+01 -0.25485184685E+02 -0.11881556421E+02  0.28141556987E+02  0.10566000000E+00 0.  1.
        996    1    1    2    0    0  0.11269623825E+01  0.25485184685E+02  0.83295993218E+02  0.10044395038E+03  0.50000000000E+02 0.  0.
<mgrwt>
<rscale>  0 0.56131673E+02</rscale>
<asrwt>0</asrwt>
<pdfrwt beam="1">  1       13 0.10000000E+01 0.56131673E+02</pdfrwt>
<pdfrwt beam="2">  1       22 0.28585527E+00 0.56131673E+02</pdfrwt>
<totfact> 0.22813424E-01</totfact>
</mgrwt>
</event>
<event>
 4    1  0.2471347E+000  0.5305862E+02  0.7957747E-01  0.1429509E+00
         13   -1    0    0    0    0  0.00000000000E+00  0.00000000000E+00  0.99999944184E+02  0.10000000000E+03  0.10566000000E+00 0.  1.
         22   -1    0    0    0    0 -0.00000000000E+00 -0.00000000000E+00 -0.14804175673E+02  0.14804175673E+02  0.00000000000E+00 0.  1.
         13    1    1    2    0    0 -0.17929954713E+01  0.17663586448E+02  0.46509282668E+01  0.18353730323E+02  0.10566000000E+00 0. -1.
        996    1    1    2    0    0  0.17929954713E+01 -0.17663586448E+02  0.80544840244E+02  0.96450445354E+02  0.50000000000E+02 0.  0.
<mgrwt>
<rscale>  0 0.53058620E+02</rscale>
<asrwt>0</asrwt>
<pdfrwt beam="1">  1       13 0.10000000E+01 0.53058620E+02</pdfrwt>
<pdfrwt beam="2">  1       22 0.14804199E+00 0.53058620E+02</pdfrwt>
<totfact> 0.77119428E-01</totfact>
</mgrwt>
</event>
<event>
 4    1  0.2471347E+000  0.5124950E+02  0.7957747E-01  0.1438716E+00
         13   -1    0    0    0    0  0.00000000000E+00  0.00000000000E+00  0.99999944172E+02  0.99999999993E+02  0.10566000000E+00 0. -1.
         22   -1    0    0    0    0 -0.00000000000E+00 -0.00000000000E+00 -0.97973283132E+01  0.97973283132E+01  0.00000000000E+00 0. -1.
         13    1    1    2    0    0  0.10467310659E+02 -0.41166502339E+01  0.13900158760E+02  0.17881190653E+02  0.10566000000E+00 0.  1.
        996    1    1    2    0    0 -0.10467310659E+02  0.41166502339E+01  0.76302457099E+02  0.91916137653E+02  0.50000000000E+02 0.  0.
<mgrwt>
<rscale>  0 0.51249501E+02</rscale>
<asrwt>0</asrwt>
<pdfrwt beam="1">  1       13 0.10000000E+01 0.51249501E+02</pdfrwt>
<pdfrwt beam="2">  1       22 0.97973535E-01 0.51249501E+02</pdfrwt>
<totfact> 0.14494635E+00</totfact>
</mgrwt>
</event>
<event>
 4    1  0.2471347E+000  0.5123919E+02  0.7957747E-01  0.1438770E+00
         13   -1    0    0    0    0  0.00000000000E+00  0.00000000000E+00  0.99999944169E+02  0.99999999989E+02  0.10566000000E+00 0.  1.
         22   -1    0    0    0    0 -0.00000000000E+00 -0.00000000000E+00 -0.97509109121E+01  0.97509109121E+01  0.00000000000E+00 0.  1.
         13    1    1    2    0    0 -0.10861549969E+02 -0.27351200857E+01  0.15353430067E+02  0.19005081648E+02  0.10566000000E+00 0. -1.
        996    1    1    2    0    0  0.10861549969E+02  0.27351200857E+01  0.74895603190E+02  0.90745829253E+02  0.50000000000E+02 0.  0.
<mgrwt>
<rscale>  0 0.51239186E+02</rscale>
<asrwt>0</asrwt>
<pdfrwt beam="1">  1       13 0.10000000E+01 0.51239186E+02</pdfrwt>
<pdfrwt beam="2">  1       22 0.97509361E-01 0.51239186E+02</pdfrwt>
<totfact> 0.14593685E+00</totfact>
</mgrwt>
</event>
<event>
 4    1  0.2471347E+000  0.5356459E+02  0.7957747E-01  0.1427012E+00
         13   -1    0    0    0    0  0.00000000000E+00  0.00000000000E+00  0.99999944182E+02  0.10000000000E+03  0.10566000000E+00 0.  1.
         22   -1    0    0    0    0 -0.00000000000E+00 -0.00000000000E+00 -0.13244619708E+02  0.13244619708E+02  0.00000000000E+00 0.  1.
         13    1    1    2    0    0  0.50964069672E+01 -0.18525427928E+02  0.22175459486E+02  0.29341557753E+02  0.10566000000E+00 0. -1.
        996    1    1    2    0    0 -0.50964069672E+01  0.18525427928E+02  0.64579864989E+02  0.83903061958E+02  0.50000000000E+02 0.  0.
<mgrwt>
<rscale>  0 0.53564586E+02</rscale>
<asrwt>0</asrwt>
<pdfrwt beam="1">  1       13 0.10000000E+01 0.53564586E+02</pdfrwt>
<pdfrwt beam="2">  1       22 0.13244644E+00 0.53564586E+02</pdfrwt>
<totfact> 0.92475310E-01</totfact>
</mgrwt>
</event>
<event>
 4    1  0.2471347E+000  0.5423016E+02  0.7957747E-01  0.1423775E+00
         13   -1    0    0    0    0  0.00000000000E+00  0.00000000000E+00  0.99999944180E+02  0.10000000000E+03  0.10566000000E+00 0.  1.
         22   -1    0    0    0    0 -0.00000000000E+00 -0.00000000000E+00 -0.34145330615E+02  0.34145330615E+02  0.00000000000E+00 0. -1.
         13    1    1    2    0    0 -0.76936869583E+01 -0.19537589703E+02 -0.22309871610E+02  0.30637424267E+02  0.10566000000E+00 0. -1.
        996    1    1    2    0    0  0.76936869583E+01  0.19537589703E+02  0.88164485175E+02  0.10350790635E+03  0.50000000000E+02 0.  0.
<mgrwt>
<rscale>  0 0.54230160E+02</rscale>
<asrwt>0</asrwt>
<pdfrwt beam="1">  1       13 0.10000000E+01 0.54230160E+02</pdfrwt>
<pdfrwt beam="2">  1       22 0.34145349E+00 0.54230160E+02</pdfrwt>
<totfact> 0.16445757E-01</totfact>
</mgrwt>
</event>
<event>
 4    1  0.2471347E+000  0.5200163E+02  0.7957747E-01  0.1434835E+00
         13   -1    0    0    0    0  0.00000000000E+00  0.00000000000E+00  0.99999944182E+02  0.10000000000E+03  0.10566000000E+00 0.  1.
         22   -1    0    0    0    0 -0.00000000000E+00 -0.00000000000E+00 -0.23288407804E+02  0.23288407804E+02  0.00000000000E+00 0. -1.
         13    1    1    2    0    0  0.10948452658E+02 -0.91815588368E+01 -0.13179821646E+02  0.19439354437E+02  0.10566000000E+00 0. -1.
        996    1    1    2    0    0 -0.10948452658E+02  0.91815588368E+01  0.89891358023E+02  0.10384905337E+03  0.50000000000E+02 0.  0.
<mgrwt>
<rscale>  0 0.52001631E+02</rscale>
<asrwt>0</asrwt>
<pdfrwt beam="1">  1       13 0.10000000E+01 0.52001631E+02</pdfrwt>
<pdfrwt beam="2">  1       22 0.23288429E+00 0.52001631E+02</pdfrwt>
<totfact> 0.33874552E-01</totfact>
</mgrwt>
</event>
<event>
 4    1  0.2471347E+000  0.5169188E+02  0.7957747E-01  0.1436424E+00
         13   -1    0    0    0    0  0.00000000000E+00  0.00000000000E+00  0.99999944183E+02  0.10000000000E+03  0.10566000000E+00 0. -1.
         22   -1    0    0    0    0 -0.00000000000E+00 -0.00000000000E+00 -0.16364825983E+02  0.16364825983E+02  0.00000000000E+00 0.  1.
         13    1    1    2    0    0 -0.94936871294E+01 -0.90510045733E+01 -0.47688753141E+01  0.13957224470E+02  0.10566000000E+00 0.  1.
        996    1    1    2    0    0  0.94936871294E+01  0.90510045733E+01  0.88403993514E+02  0.10240760152E+03  0.50000000000E+02 0.  0.
<mgrwt>
<rscale>  0 0.51691883E+02</rscale>
<asrwt>0</asrwt>
<pdfrwt beam="1">  1       13 0.10000000E+01 0.51691883E+02</pdfrwt>
<pdfrwt beam="2">  1       22 0.16364849E+00 0.51691883E+02</pdfrwt>
<totfact> 0.64920588E-01</totfact>
</mgrwt>
</event>
<event>
 4    1  0.2471347E+000  0.5138359E+02  0.7957747E-01  0.1438019E+00
         13   -1    0    0    0    0  0.00000000000E+00  0.00000000000E+00  0.99999944180E+02  0.10000000000E+03  0.10566000000E+00 0.  1.
         22   -1    0    0    0    0 -0.00000000000E+00 -0.00000000000E+00 -0.13545539570E+02  0.13545539570E+02  0.00000000000E+00 0. -1.
         13    1    1    2    0    0  0.88528301207E+01 -0.78677086117E+01 -0.12370582213E+01  0.11908606846E+02  0.10566000000E+00 0. -1.
        996    1    1    2    0    0 -0.88528301207E+01  0.78677086117E+01  0.87691462832E+02  0.10163693272E+03  0.50000000000E+02 0.  0.
<mgrwt>
<rscale>  0 0.51383591E+02</rscale>
<asrwt>0</asrwt>
<pdfrwt beam="1">  1       13 0.10000000E+01 0.51383591E+02</pdfrwt>
<pdfrwt beam="2">  1       22 0.13545564E+00 0.51383591E+02</pdfrwt>
<totfact> 0.88812259E-01</totfact>
</mgrwt>
</event>
<event>
 4    1  0.2471347E+000  0.5291408E+02  0.7957747E-01  0.1430229E+00
         13   -1    0    0    0    0  0.00000000000E+00  0.00000000000E+00  0.99999944167E+02  0.99999999987E+02  0.10566000000E+00 0.  1.
         22   -1    0    0    0    0 -0.00000000000E+00 -0.00000000000E+00 -0.18544576105E+02  0.18544576105E+02  0.00000000000E+00 0. -1.
         13    1    1    2    0    0  0.51740153214E+01 -0.16526627597E+02 -0.42397466432E+01  0.17829370990E+02  0.10566000000E+00 0. -1.
        996    1    1    2    0    0 -0.51740153214E+01  0.16526627597E+02  0.85695114705E+02  0.10071520510E+03  0.50000000000E+02 0.  0.
<mgrwt>
<rscale>  0 0.52914080E+02</rscale>
<asrwt>0</asrwt>
<pdfrwt beam="1">  1       13 0.10000000E+01 0.52914080E+02</pdfrwt>
<pdfrwt beam="2">  1       22 0.18544599E+00 0.52914080E+02</pdfrwt>
<totfact> 0.52153139E-01</totfact>
</mgrwt>
</event>
<event>
 4    1  0.2471347E+000  0.5241120E+02  0.7957747E-01  0.1432754E+00
         13   -1    0    0    0    0  0.00000000000E+00  0.00000000000E+00  0.99999944178E+02  0.99999999998E+02  0.10566000000E+00 0. -1.
         22   -1    0    0    0    0 -0.00000000000E+00 -0.00000000000E+00 -0.11604711499E+02  0.11604711499E+02  0.00000000000E+00 0. -1.
         13    1    1    2    0    0 -0.96593434003E+01  0.12394810928E+02  0.19783281190E+02  0.25265067416E+02  0.10566000000E+00 0.  1.
        996    1    1    2    0    0  0.96593434003E+01 -0.12394810928E+02  0.68611951489E+02  0.86339644081E+02  0.50000000000E+02 0.  0.
<mgrwt>
<rscale>  0 0.52411204E+02</rscale>
<asrwt>0</asrwt>
<pdfrwt beam="1">  1       13 0.10000000E+01 0.52411204E+02</pdfrwt>
<pdfrwt beam="2">  1       22 0.11604736E+00 0.52411204E+02</pdfrwt>
<totfact> 0.11322129E+00</totfact>
</mgrwt>
</event>
<event>
 4    1  0.2471347E+000  0.5125216E+02  0.7957747E-01  0.1438702E+00
         13   -1    0    0    0    0  0.00000000000E+00  0.00000000000E+00  0.99999944184E+02  0.10000000000E+03  0.10566000000E+00 0.  1.
         22   -1    0    0    0    0 -0.00000000000E+00 -0.00000000000E+00 -0.98369207395E+01  0.98369207395E+01  0.00000000000E+00 0.  1.
         13    1    1    2    0    0  0.79488135207E+01 -0.79749668433E+01  0.12935939913E+02  0.17150318890E+02  0.10566000000E+00 0. -1.
        996    1    1    2    0    0 -0.79488135207E+01  0.79749668433E+01  0.77227083531E+02  0.92686601854E+02  0.50000000000E+02 0.  0.
<mgrwt>
<rscale>  0 0.51252158E+02</rscale>
<asrwt>0</asrwt>
<pdfrwt beam="1">  1       13 0.10000000E+01 0.51252158E+02</pdfrwt>
<pdfrwt beam="2">  1       22 0.98369459E-01 0.51252158E+02</pdfrwt>
<totfact> 0.14410734E+00</totfact>
</mgrwt>
</event>
<event>
 4    1  0.2471347E+000  0.6255392E+02  0.7957747E-01  0.1387416E+00
         13   -1    0    0    0    0  0.00000000000E+00  0.00000000000E+00  0.99999944184E+02  0.10000000000E+03  0.10566000000E+00 0. -1.
         22   -1    0    0    0    0 -0.00000000000E+00 -0.00000000000E+00 -0.34879501393E+02  0.34879501393E+02  0.00000000000E+00 0.  1.
         13    1    1    2    0    0  0.21174633424E+01  0.37530112458E+02 -0.82274279478E+01  0.38479796345E+02  0.10566000000E+00 0.  1.
        996    1    1    2    0    0 -0.21174633424E+01 -0.37530112458E+02  0.73347870739E+02  0.96399705051E+02  0.50000000000E+02 0.  0.
<mgrwt>
<rscale>  0 0.62553921E+02</rscale>
<asrwt>0</asrwt>
<pdfrwt beam="1">  1       13 0.10000000E+01 0.62553921E+02</pdfrwt>
<pdfrwt beam="2">  1       22 0.34879520E+00 0.62553921E+02</pdfrwt>
<totfact> 0.15967855E-01</totfact>
</mgrwt>
</event>
<event>
 4    1  0.2471347E+000  0.5243123E+02  0.7957747E-01  0.1432653E+00
         13   -1    0    0    0    0  0.00000000000E+00  0.00000000000E+00  0.99999944171E+02  0.99999999991E+02  0.10566000000E+00 0. -1.
         22   -1    0    0    0    0 -0.00000000000E+00 -0.00000000000E+00 -0.20097782215E+02  0.20097782215E+02  0.00000000000E+00 0.  1.
         13    1    1    2    0    0  0.60671904295E+01 -0.14567867085E+02 -0.80405820964E+01  0.17711456055E+02  0.10566000000E+00 0.  1.
        996    1    1    2    0    0 -0.60671904295E+01  0.14567867085E+02  0.87942744053E+02  0.10238632615E+03  0.50000000000E+02 0.  0.
<mgrwt>
<rscale>  0 0.52431227E+02</rscale>
<asrwt>0</asrwt>
<pdfrwt beam="1">  1       13 0.10000000E+01 0.52431227E+02</pdfrwt>
<pdfrwt beam="2">  1       22 0.20097805E+00 0.52431227E+02</pdfrwt>
<totfact> 0.44931735E-01</totfact>
</mgrwt>
</event>
<event>
 4    1  0.2471347E+000  0.5403017E+02  0.7957747E-01  0.1424742E+00
         13   -1    0    0    0    0  0.00000000000E+00  0.00000000000E+00  0.99999944186E+02  0.10000000001E+03  0.10566000000E+00 0.  1.
         22   -1    0    0    0    0 -0.00000000000E+00 -0.00000000000E+00 -0.20835221769E+02  0.20835221769E+02  0.00000000000E+00 0. -1.
         13    1    1    2    0    0  0.20121144090E+02 -0.37946120207E+01 -0.47602001688E+01  0.21022135704E+02  0.10566000000E+00 0. -1.
        996    1    1    2    0    0 -0.20121144090E+02  0.37946120207E+01  0.83924922586E+02  0.99813086071E+02  0.50000000000E+02 0.  0.
<mgrwt>
<rscale>  0 0.54030172E+02</rscale>
<asrwt>0</asrwt>
<pdfrwt beam="1">  1       13 0.10000000E+01 0.54030172E+02</pdfrwt>
<pdfrwt beam="2">  1       22 0.20835244E+00 0.54030172E+02</pdfrwt>
<totfact> 0.42103011E-01</totfact>
</mgrwt>
</event>
<event>
 4    1  0.2471347E+000  0.5210674E+02  0.7957747E-01  0.1434299E+00
         13   -1    0    0    0    0  0.00000000000E+00  0.00000000000E+00  0.99999944176E+02  0.99999999997E+02  0.10566000000E+00 0.  1.
         22   -1    0    0    0    0 -0.00000000000E+00 -0.00000000000E+00 -0.12729776212E+02  0.12729776212E+02  0.00000000000E+00 0.  1.
         13    1    1    2    0    0 -0.89932179272E+01 -0.11585957571E+02  0.39132012452E+02  0.41790404929E+02  0.10566000000E+00 0. -1.
        996    1    1    2    0    0  0.89932179272E+01  0.11585957571E+02  0.48138155512E+02  0.70939371280E+02  0.50000000000E+02 0.  0.
<mgrwt>
<rscale>  0 0.52106740E+02</rscale>
<asrwt>0</asrwt>
<pdfrwt beam="1">  1       13 0.10000000E+01 0.52106740E+02</pdfrwt>
<pdfrwt beam="2">  1       22 0.12729801E+00 0.52106740E+02</pdfrwt>
<totfact> 0.98131097E-01</totfact>
</mgrwt>
</event>
<event>
 4    1  0.2471347E+000  0.5110660E+02  0.7957747E-01  0.1439463E+00
         13   -1    0    0    0    0  0.00000000000E+00  0.00000000000E+00  0.99999944176E+02  0.99999999996E+02  0.10566000000E+00 0.  1.
         22   -1    0    0    0    0 -0.00000000000E+00 -0.00000000000E+00 -0.15748761818E+02  0.15748761818E+02  0.00000000000E+00 0. -1.
         13    1    1    2    0    0  0.10353037686E+02  0.21677166974E+01 -0.59050319485E+01  0.12114658532E+02  0.10566000000E+00 0. -1.
        996    1    1    2    0    0 -0.10353037686E+02 -0.21677166974E+01  0.90156214306E+02  0.10363410328E+03  0.50000000000E+02 0.  0.
<mgrwt>
<rscale>  0 0.51106598E+02</rscale>
<asrwt>0</asrwt>
<pdfrwt beam="1">  1       13 0.10000000E+01 0.51106598E+02</pdfrwt>
<pdfrwt beam="2">  1       22 0.15748785E+00 0.51106598E+02</pdfrwt>
<totfact> 0.69245606E-01</totfact>
</mgrwt>
</event>
<event>
 4    1  0.2471347E+000  0.5397172E+02  0.7957747E-01  0.1425025E+00
         13   -1    0    0    0    0  0.00000000000E+00  0.00000000000E+00  0.99999944174E+02  0.99999999994E+02  0.10566000000E+00 0.  1.
         22   -1    0    0    0    0 -0.00000000000E+00 -0.00000000000E+00 -0.63316876484E+02  0.63316876484E+02  0.00000000000E+00 0. -1.
         13    1    1    2    0    0 -0.16127282426E+02  0.12363563471E+02 -0.54050559384E+02  0.57744446261E+02  0.10566000000E+00 0. -1.
        996    1    1    2    0    0  0.16127282426E+02 -0.12363563471E+02  0.90733627074E+02  0.10557243022E+03  0.50000000000E+02 0.  0.
<mgrwt>
<rscale>  0 0.53971724E+02</rscale>
<asrwt>0</asrwt>
<pdfrwt beam="1">  1       13 0.10000000E+01 0.53971724E+02</pdfrwt>
<pdfrwt beam="2">  1       22 0.63316887E+00 0.53971724E+02</pdfrwt>
<totfact> 0.80393996E-02</totfact>
</mgrwt>
</event>
<event>
 4    1  0.2471347E+000  0.5224768E+02  0.7957747E-01  0.1433582E+00
         13   -1    0    0    0    0  0.00000000000E+00  0.00000000000E+00  0.99999944176E+02  0.99999999996E+02  0.10566000000E+00 0. -1.
         22   -1    0    0    0    0 -0.00000000000E+00 -0.00000000000E+00 -0.63955268596E+02  0.63955268596E+02  0.00000000000E+00 0.  1.
         13    1    1    2    0    0 -0.14752911094E+02  0.34888360493E+01 -0.56054375190E+02  0.58068274511E+02  0.10566000000E+00 0.  1.
        996    1    1    2    0    0  0.14752911094E+02 -0.34888360493E+01  0.92099050770E+02  0.10588699408E+03  0.50000000000E+02 0.  0.
<mgrwt>
<rscale>  0 0.52247683E+02</rscale>
<asrwt>0</asrwt>
<pdfrwt beam="1">  1       13 0.10000000E+01 0.52247683E+02</pdfrwt>
<pdfrwt beam="2">  1       22 0.63955279E+00 0.52247683E+02</pdfrwt>
<totfact> 0.83183218E-02</totfact>
</mgrwt>
</event>
<event>
 4    1  0.2471347E+000  0.5162989E+02  0.7957747E-01  0.1436744E+00
         13   -1    0    0    0    0  0.00000000000E+00  0.00000000000E+00  0.99999944186E+02  0.10000000001E+03  0.10566000000E+00 0.  1.
         22   -1    0    0    0    0 -0.00000000000E+00 -0.00000000000E+00 -0.11543812012E+02  0.11543812012E+02  0.00000000000E+00 0. -1.
         13    1    1    2    0    0 -0.59085013222E+01 -0.11433941603E+02  0.58677413316E+01  0.14145209819E+02  0.10566000000E+00 0. -1.
        996    1    1    2    0    0  0.59085013222E+01  0.11433941603E+02  0.82588390843E+02  0.97398602200E+02  0.50000000000E+02 0.  0.
<mgrwt>
<rscale>  0 0.51629889E+02</rscale>
<asrwt>0</asrwt>
<pdfrwt beam="1">  1       13 0.10000000E+01 0.51629889E+02</pdfrwt>
<pdfrwt beam="2">  1       22 0.11543837E+00 0.51629889E+02</pdfrwt>
<totfact> 0.11392353E+00</totfact>
</mgrwt>
</event>
<event>
 4    1  0.2471347E+000  0.5219351E+02  0.7957747E-01  0.1433857E+00
         13   -1    0    0    0    0  0.00000000000E+00  0.00000000000E+00  0.99999944179E+02  0.99999999999E+02  0.10566000000E+00 0.  1.
         22   -1    0    0    0    0 -0.00000000000E+00 -0.00000000000E+00 -0.59991037570E+02  0.59991037570E+02  0.00000000000E+00 0. -1.
         13    1    1    2    0    0  0.14254814772E+02  0.45784686726E+01 -0.52052753244E+02  0.54163293880E+02  0.10566000000E+00 0. -1.
        996    1    1    2    0    0 -0.14254814772E+02 -0.45784686726E+01  0.92061659853E+02  0.10582774369E+03  0.50000000000E+02 0.  0.
<mgrwt>
<rscale>  0 0.52193506E+02</rscale>
<asrwt>0</asrwt>
<pdfrwt beam="1">  1       13 0.10000000E+01 0.52193506E+02</pdfrwt>
<pdfrwt beam="2">  1       22 0.59991049E+00 0.52193506E+02</pdfrwt>
<totfact> 0.63541408E-02</totfact>
</mgrwt>
</event>
<event>
 4    1  0.2471347E+000  0.5384436E+02  0.7957747E-01  0.1425644E+00
         13   -1    0    0    0    0  0.00000000000E+00  0.00000000000E+00  0.99999944178E+02  0.99999999998E+02  0.10566000000E+00 0. -1.
         22   -1    0    0    0    0 -0.00000000000E+00 -0.00000000000E+00 -0.62950744450E+02  0.62950744450E+02  0.00000000000E+00 0.  1.
         13    1    1    2    0    0 -0.36895503341E+01  0.19636766823E+02 -0.53774125837E+02  0.57366219733E+02  0.10566000000E+00 0.  1.
        996    1    1    2    0    0  0.36895503341E+01 -0.19636766823E+02  0.90823325564E+02  0.10558452472E+03  0.50000000000E+02 0.  0.
<mgrwt>
<rscale>  0 0.53844363E+02</rscale>
<asrwt>0</asrwt>
<pdfrwt beam="1">  1       13 0.10000000E+01 0.53844363E+02</pdfrwt>
<pdfrwt beam="2">  1       22 0.62950755E+00 0.53844363E+02</pdfrwt>
<totfact> 0.78444274E-02</totfact>
</mgrwt>
</event>
<event>
 4    1  0.2471347E+000  0.7842119E+02  0.7957747E-01  0.1333593E+00
         13   -1    0    0    0    0  0.00000000000E+00  0.00000000000E+00  0.99999944177E+02  0.99999999997E+02  0.10566000000E+00 0.  1.
         22   -1    0    0    0    0 -0.00000000000E+00 -0.00000000000E+00 -0.62443630566E+02  0.62443630566E+02  0.00000000000E+00 0. -1.
         13    1    1    2    0    0 -0.60161250503E+02  0.55233049097E+01 -0.21656325062E+02  0.64178583176E+02  0.10566000000E+00 0. -1.
        996    1    1    2    0    0  0.60161250503E+02 -0.55233049097E+01  0.59212638673E+02  0.98265047387E+02  0.50000000000E+02 0.  0.
<mgrwt>
<rscale>  0 0.78421189E+02</rscale>
<asrwt>0</asrwt>
<pdfrwt beam="1">  1       13 0.10000000E+01 0.78421189E+02</pdfrwt>
<pdfrwt beam="2">  1       22 0.62443641E+00 0.78421189E+02</pdfrwt>
<totfact> 0.75621689E-02</totfact>
</mgrwt>
</event>
<event>
 4    1  0.2471347E+000  0.5881513E+02  0.7957747E-01  0.1402872E+00
         13   -1    0    0    0    0  0.00000000000E+00  0.00000000000E+00  0.99999944183E+02  0.10000000000E+03  0.10566000000E+00 0. -1.
         22   -1    0    0    0    0 -0.00000000000E+00 -0.00000000000E+00 -0.31700600102E+02  0.31700600102E+02  0.00000000000E+00 0.  1.
         13    1    1    2    0    0  0.14635657878E+02  0.27295005641E+02 -0.11091083395E+02  0.32897463570E+02  0.10566000000E+00 0.  1.
        996    1    1    2    0    0 -0.14635657878E+02 -0.27295005641E+02  0.79390427476E+02  0.98803136535E+02  0.50000000000E+02 0.  0.
<mgrwt>
<rscale>  0 0.58815133E+02</rscale>
<asrwt>0</asrwt>
<pdfrwt beam="1">  1       13 0.10000000E+01 0.58815133E+02</pdfrwt>
<pdfrwt beam="2">  1       22 0.31700619E+00 0.58815133E+02</pdfrwt>
<totfact> 0.18858392E-01</totfact>
</mgrwt>
</event>
<event>
 4    1  0.2471347E+000  0.5737895E+02  0.7957747E-01  0.1409172E+00
         13   -1    0    0    0    0  0.00000000000E+00  0.00000000000E+00  0.99999944180E+02  0.10000000000E+03  0.10566000000E+00 0. -1.
         22   -1    0    0    0    0 -0.00000000000E+00 -0.00000000000E+00 -0.38044390874E+02  0.38044390874E+02  0.00000000000E+00 0.  1.
         13    1    1    2    0    0  0.74899053747E+00 -0.28138642108E+02 -0.22434467130E+02  0.35995286441E+02  0.10566000000E+00 0.  1.
        996    1    1    2    0    0 -0.74899053747E+00  0.28138642108E+02  0.84390020436E+02  0.10204910443E+03  0.50000000000E+02 0.  0.
<mgrwt>
<rscale>  0 0.57378952E+02</rscale>
<asrwt>0</asrwt>
<pdfrwt beam="1">  1       13 0.10000000E+01 0.57378952E+02</pdfrwt>
<pdfrwt beam="2">  1       22 0.38044408E+00 0.57378952E+02</pdfrwt>
<totfact> 0.13627088E-01</totfact>
</mgrwt>
</event>
<event>
 4    1  0.2471347E+000  0.5264474E+02  0.7957747E-01  0.1431577E+00
         13   -1    0    0    0    0  0.00000000000E+00  0.00000000000E+00  0.99999944177E+02  0.99999999997E+02  0.10566000000E+00 0. -1.
         22   -1    0    0    0    0 -0.00000000000E+00 -0.00000000000E+00 -0.42338461721E+02  0.42338461721E+02  0.00000000000E+00 0. -1.
         13    1    1    2    0    0  0.15824275045E+02 -0.45892368131E+01 -0.33349800890E+02  0.37197972507E+02  0.10566000000E+00 0.  1.
        996    1    1    2    0    0 -0.15824275045E+02  0.45892368131E+01  0.91011283346E+02  0.10514048921E+03  0.50000000000E+02 0.  0.
<mgrwt>
<rscale>  0 0.52644741E+02</rscale>
<asrwt>0</asrwt>
<pdfrwt beam="1">  1       13 0.10000000E+01 0.52644741E+02</pdfrwt>
<pdfrwt beam="2">  1       22 0.42338478E+00 0.52644741E+02</pdfrwt>
<totfact> 0.11055852E-01</totfact>
</mgrwt>
</event>
<event>
 4    1  0.2471347E+000  0.5193087E+02  0.7957747E-01  0.1435197E+00
         13   -1    0    0    0    0  0.00000000000E+00  0.00000000000E+00  0.99999944175E+02  0.99999999996E+02  0.10566000000E+00 0. -1.
         22   -1    0    0    0    0 -0.00000000000E+00 -0.00000000000E+00 -0.11182814192E+02  0.11182814192E+02  0.00000000000E+00 0. -1.
         13    1    1    2    0    0  0.45827723710E+01  0.13259456907E+02  0.12013320654E+02  0.18470139069E+02  0.10566000000E+00 0.  1.
        996    1    1    2    0    0 -0.45827723710E+01 -0.13259456907E+02  0.76803809330E+02  0.92712675118E+02  0.50000000000E+02 0.  0.
<mgrwt>
<rscale>  0 0.51930868E+02</rscale>
<asrwt>0</asrwt>
<pdfrwt beam="1">  1       13 0.10000000E+01 0.51930868E+02</pdfrwt>
<pdfrwt beam="2">  1       22 0.11182839E+00 0.51930868E+02</pdfrwt>
<totfact> 0.11957652E+00</totfact>
</mgrwt>
</event>
<event>
 4    1  0.2471347E+000  0.5167811E+02  0.7957747E-01  0.1436495E+00
         13   -1    0    0    0    0  0.00000000000E+00  0.00000000000E+00  0.99999944179E+02  0.99999999999E+02  0.10566000000E+00 0.  1.
         22   -1    0    0    0    0 -0.00000000000E+00 -0.00000000000E+00 -0.11099989188E+02  0.11099989188E+02  0.00000000000E+00 0.  1.
         13    1    1    2    0    0 -0.12696645865E+02 -0.30695287973E+01  0.30134488543E+02  0.32843955107E+02  0.10566000000E+00 0. -1.
        996    1    1    2    0    0  0.12696645865E+02  0.30695287973E+01  0.58765466447E+02  0.78256034081E+02  0.50000000000E+02 0.  0.
<mgrwt>
<rscale>  0 0.51678108E+02</rscale>
<asrwt>0</asrwt>
<pdfrwt beam="1">  1       13 0.10000000E+01 0.51678108E+02</pdfrwt>
<pdfrwt beam="2">  1       22 0.11100014E+00 0.51678108E+02</pdfrwt>
<totfact> 0.12084102E+00</totfact>
</mgrwt>
</event>
<event>
 4    1  0.2471347E+000  0.5246026E+02  0.7957747E-01  0.1432506E+00
         13   -1    0    0    0    0  0.00000000000E+00  0.00000000000E+00  0.99999944183E+02  0.10000000000E+03  0.10566000000E+00 0. -1.
         22   -1    0    0    0    0 -0.00000000000E+00 -0.00000000000E+00 -0.15635029636E+02  0.15635029636E+02  0.00000000000E+00 0. -1.
         13    1    1    2    0    0  0.13995450802E+01  0.15815194603E+02 -0.47663401385E+00  0.15884503480E+02  0.10566000000E+00 0.  1.
        996    1    1    2    0    0 -0.13995450802E+01 -0.15815194603E+02  0.84841548561E+02  0.99750526159E+02  0.50000000000E+02 0.  0.
<mgrwt>
<rscale>  0 0.52460262E+02</rscale>
<asrwt>0</asrwt>
<pdfrwt beam="1">  1       13 0.10000000E+01 0.52460262E+02</pdfrwt>
<pdfrwt beam="2">  1       22 0.15635053E+00 0.52460262E+02</pdfrwt>
<totfact> 0.70293427E-01</totfact>
</mgrwt>
</event>
<event>
 4    1  0.2471347E+000  0.5587865E+02  0.7957747E-01  0.1415989E+00
         13   -1    0    0    0    0  0.00000000000E+00  0.00000000000E+00  0.99999944173E+02  0.99999999993E+02  0.10566000000E+00 0. -1.
         22   -1    0    0    0    0 -0.00000000000E+00 -0.00000000000E+00 -0.77747691066E+02  0.77747691066E+02  0.00000000000E+00 0.  1.
         13    1    1    2    0    0 -0.37339413808E+01 -0.24667411713E+02 -0.67533055617E+02  0.71994085062E+02  0.10566000000E+00 0.  1.
        996    1    1    2    0    0  0.37339413808E+01  0.24667411713E+02  0.89785308723E+02  0.10575360600E+03  0.50000000000E+02 0.  0.
<mgrwt>
<rscale>  0 0.55878650E+02</rscale>
<asrwt>0</asrwt>
<pdfrwt beam="1">  1       13 0.10000000E+01 0.55878650E+02</pdfrwt>
<pdfrwt beam="2">  1       22 0.77747697E+00 0.55878650E+02</pdfrwt>
<totfact> 0.37983275E-02</totfact>
</mgrwt>
</event>
<event>
 4    1  0.2471347E+000  0.5413687E+02  0.7957747E-01  0.1424225E+00
         13   -1    0    0    0    0  0.00000000000E+00  0.00000000000E+00  0.99999944178E+02  0.99999999998E+02  0.10566000000E+00 0. -1.
         22   -1    0    0    0    0 -0.00000000000E+00 -0.00000000000E+00 -0.14945391757E+02  0.14945391757E+02  0.00000000000E+00 0.  1.
         13    1    1    2    0    0 -0.12141049504E+02  0.16834347706E+02  0.11859536656E+02  0.23905232053E+02  0.10566000000E+00 0.  1.
        996    1    1    2    0    0  0.12141049504E+02 -0.16834347706E+02  0.73195015765E+02  0.91040159702E+02  0.50000000000E+02 0.  0.
<mgrwt>
<rscale>  0 0.54136867E+02</rscale>
<asrwt>0</asrwt>
<pdfrwt beam="1">  1       13 0.10000000E+01 0.54136867E+02</pdfrwt>
<pdfrwt beam="2">  1       22 0.14945416E+00 0.54136867E+02</pdfrwt>
<totfact> 0.76075561E-01</totfact>
</mgrwt>
</event>
<event>
 4    1  0.2471347E+000  0.5420400E+02  0.7957747E-01  0.1423901E+00
         13   -1    0    0    0    0  0.00000000000E+00  0.00000000000E+00  0.99999944181E+02  0.10000000000E+03  0.10566000000E+00 0.  1.
         22   -1    0    0    0    0 -0.00000000000E+00 -0.00000000000E+00 -0.14202879288E+02  0.14202879288E+02  0.00000000000E+00 0.  1.
         13    1    1    2    0    0  0.52824796984E+00  0.20923545362E+02  0.19944120988E+02  0.28911121086E+02  0.10566000000E+00 0. -1.
        996    1    1    2    0    0 -0.52824796984E+00 -0.20923545362E+02  0.65852943904E+02  0.85291758203E+02  0.50000000000E+02 0.  0.
<mgrwt>
<rscale>  0 0.54204002E+02</rscale>
<asrwt>0</asrwt>
<pdfrwt beam="1">  1       13 0.10000000E+01 0.54204002E+02</pdfrwt>
<pdfrwt beam="2">  1       22 0.14202903E+00 0.54204002E+02</pdfrwt>
<totfact> 0.82750553E-01</totfact>
</mgrwt>
</event>
<event>
 4    1  0.2471347E+000  0.5448865E+02  0.7957747E-01  0.1422533E+00
         13   -1    0    0    0    0  0.00000000000E+00  0.00000000000E+00  0.99999944183E+02  0.10000000000E+03  0.10566000000E+00 0.  1.
         22   -1    0    0    0    0 -0.00000000000E+00 -0.00000000000E+00 -0.16610583656E+02  0.16610583656E+02  0.00000000000E+00 0. -1.
         13    1    1    2    0    0  0.21546572004E+02 -0.21813394217E+01  0.69626400932E+01  0.22748681893E+02  0.10566000000E+00 0. -1.
        996    1    1    2    0    0 -0.21546572004E+02  0.21813394217E+01  0.76426720434E+02  0.93861901766E+02  0.50000000000E+02 0.  0.
<mgrwt>
<rscale>  0 0.54488650E+02</rscale>
<asrwt>0</asrwt>
<pdfrwt beam="1">  1       13 0.10000000E+01 0.54488650E+02</pdfrwt>
<pdfrwt beam="2">  1       22 0.16610607E+00 0.54488650E+02</pdfrwt>
<totfact> 0.63607244E-01</totfact>
</mgrwt>
</event>
<event>
 4    1  0.2471347E+000  0.5292836E+02  0.7957747E-01  0.1430158E+00
         13   -1    0    0    0    0  0.00000000000E+00  0.00000000000E+00  0.99999944173E+02  0.99999999993E+02  0.10566000000E+00 0.  1.
         22   -1    0    0    0    0 -0.00000000000E+00 -0.00000000000E+00 -0.13829208431E+02  0.13829208431E+02  0.00000000000E+00 0.  1.
         13    1    1    2    0    0 -0.18053798535E+01 -0.17267070507E+02  0.39951998930E+02  0.43561272971E+02  0.10566000000E+00 0. -1.
        996    1    1    2    0    0  0.18053798535E+01  0.17267070507E+02  0.46218736812E+02  0.70267935453E+02  0.50000000000E+02 0.  0.
<mgrwt>
<rscale>  0 0.52928358E+02</rscale>
<asrwt>0</asrwt>
<pdfrwt beam="1">  1       13 0.10000000E+01 0.52928358E+02</pdfrwt>
<pdfrwt beam="2">  1       22 0.13829232E+00 0.52928358E+02</pdfrwt>
<totfact> 0.86185100E-01</totfact>
</mgrwt>
</event>
<event>
 4    1  0.2471347E+000  0.5110846E+02  0.7957747E-01  0.1439453E+00
         13   -1    0    0    0    0  0.00000000000E+00  0.00000000000E+00  0.99999944179E+02  0.99999999999E+02  0.10566000000E+00 0. -1.
         22   -1    0    0    0    0 -0.00000000000E+00 -0.00000000000E+00 -0.12454068887E+02  0.12454068887E+02  0.00000000000E+00 0.  1.
         13    1    1    2    0    0 -0.98241684212E+01 -0.39446619458E+01 -0.55546779522E+00  0.10601620232E+02  0.10566000000E+00 0.  1.
        996    1    1    2    0    0  0.98241684212E+01  0.39446619458E+01  0.88101343087E+02  0.10185244865E+03  0.50000000000E+02 0.  0.
<mgrwt>
<rscale>  0 0.51108460E+02</rscale>
<asrwt>0</asrwt>
<pdfrwt beam="1">  1       13 0.10000000E+01 0.51108460E+02</pdfrwt>
<pdfrwt beam="2">  1       22 0.12454093E+00 0.51108460E+02</pdfrwt>
<totfact> 0.10131105E+00</totfact>
</mgrwt>
</event>
<event>
 4    1  0.2471347E+000  0.5186653E+02  0.7957747E-01  0.1435526E+00
         13   -1    0    0    0    0  0.00000000000E+00  0.00000000000E+00  0.99999944174E+02  0.99999999995E+02  0.10566000000E+00 0. -1.
         22   -1    0    0    0    0 -0.00000000000E+00 -0.00000000000E+00 -0.35189251781E+02  0.35189251781E+02  0.00000000000E+00 0.  1.
         13    1    1    2    0    0  0.13769355208E+02 -0.73623691429E+00 -0.26672400109E+02  0.30026076655E+02  0.10566000000E+00 0.  1.
        996    1    1    2    0    0 -0.13769355208E+02  0.73623691429E+00  0.91483092503E+02  0.10516317512E+03  0.50000000000E+02 0.  0.
<mgrwt>
<rscale>  0 0.51866532E+02</rscale>
<asrwt>0</asrwt>
<pdfrwt beam="1">  1       13 0.10000000E+01 0.51866532E+02</pdfrwt>
<pdfrwt beam="2">  1       22 0.35189270E+00 0.51866532E+02</pdfrwt>
<totfact> 0.15565195E-01</totfact>
</mgrwt>
</event>
<event>
 4    1  0.2471347E+000  0.5212686E+02  0.7957747E-01  0.1434196E+00
         13   -1    0    0    0    0  0.00000000000E+00  0.00000000000E+00  0.99999944170E+02  0.99999999990E+02  0.10566000000E+00 0.  1.
         22   -1    0    0    0    0 -0.00000000000E+00 -0.00000000000E+00 -0.11441617805E+02  0.11441617805E+02  0.00000000000E+00 0.  1.
         13    1    1    2    0    0 -0.14732008384E+02  0.42139968418E+00  0.13034780106E+02  0.19675525537E+02  0.10566000000E+00 0. -1.
        996    1    1    2    0    0  0.14732008384E+02 -0.42139968418E+00  0.75523546259E+02  0.91766092258E+02  0.50000000000E+02 0.  0.
<mgrwt>
<rscale>  0 0.52126861E+02</rscale>
<asrwt>0</asrwt>
<pdfrwt beam="1">  1       13 0.10000000E+01 0.52126861E+02</pdfrwt>
<pdfrwt beam="2">  1       22 0.11441643E+00 0.52126861E+02</pdfrwt>
<totfact> 0.11559234E+00</totfact>
</mgrwt>
</event>
<event>
 4    1  0.2471347E+000  0.5493086E+02  0.7957747E-01  0.1420426E+00
         13   -1    0    0    0    0  0.00000000000E+00  0.00000000000E+00  0.99999944174E+02  0.99999999994E+02  0.10566000000E+00 0. -1.
         22   -1    0    0    0    0 -0.00000000000E+00 -0.00000000000E+00 -0.18945079112E+02  0.18945079112E+02  0.00000000000E+00 0.  1.
         13    1    1    2    0    0  0.10321988519E+02  0.20269593272E+02  0.22126907581E+01  0.22854037342E+02  0.10566000000E+00 0.  1.
        996    1    1    2    0    0 -0.10321988519E+02 -0.20269593272E+02  0.78842174304E+02  0.96091041764E+02  0.50000000000E+02 0.  0.
<mgrwt>
<rscale>  0 0.54930864E+02</rscale>
<asrwt>0</asrwt>
<pdfrwt beam="1">  1       13 0.10000000E+01 0.54930864E+02</pdfrwt>
<pdfrwt beam="2">  1       22 0.18945102E+00 0.54930864E+02</pdfrwt>
<totfact> 0.50341339E-01</totfact>
</mgrwt>
</event>
<event>
 4    1  0.2471347E+000  0.5259876E+02  0.7957747E-01  0.1431808E+00
         13   -1    0    0    0    0  0.00000000000E+00  0.00000000000E+00  0.99999944181E+02  0.10000000000E+03  0.10566000000E+00 0. -1.
         22   -1    0    0    0    0 -0.00000000000E+00 -0.00000000000E+00 -0.14327013167E+02  0.14327013167E+02  0.00000000000E+00 0. -1.
         13    1    1    2    0    0 -0.11358869511E+01 -0.16289240296E+02  0.34031981420E+01  0.16680003304E+02  0.10566000000E+00 0.  1.
        996    1    1    2    0    0  0.11358869511E+01  0.16289240296E+02  0.82269732872E+02  0.97647009864E+02  0.50000000000E+02 0.  0.
<mgrwt>
<rscale>  0 0.52598760E+02</rscale>
<asrwt>0</asrwt>
<pdfrwt beam="1">  1       13 0.10000000E+01 0.52598760E+02</pdfrwt>
<pdfrwt beam="2">  1       22 0.14327037E+00 0.52598760E+02</pdfrwt>
<totfact> 0.81317522E-01</totfact>
</mgrwt>
</event>
<event>
 4    1  0.2471347E+000  0.5287383E+02  0.7957747E-01  0.1430430E+00
         13   -1    0    0    0    0  0.00000000000E+00  0.00000000000E+00  0.99999944179E+02  0.99999999999E+02  0.10566000000E+00 0. -1.
         22   -1    0    0    0    0 -0.00000000000E+00 -0.00000000000E+00 -0.13410764148E+02  0.13410764148E+02  0.00000000000E+00 0. -1.
         13    1    1    2    0    0 -0.77933645615E+01  0.15326618625E+02  0.86990347314E+01  0.19269824570E+02  0.10566000000E+00 0.  1.
        996    1    1    2    0    0  0.77933645615E+01 -0.15326618625E+02  0.77890145300E+02  0.94140939577E+02  0.50000000000E+02 0.  0.
<mgrwt>
<rscale>  0 0.52873829E+02</rscale>
<asrwt>0</asrwt>
<pdfrwt beam="1">  1       13 0.10000000E+01 0.52873829E+02</pdfrwt>
<pdfrwt beam="2">  1       22 0.13410788E+00 0.52873829E+02</pdfrwt>
<totfact> 0.90528446E-01</totfact>
</mgrwt>
</event>
<event>
 4    1  0.2471347E+000  0.5640829E+02  0.7957747E-01  0.1413554E+00
         13   -1    0    0    0    0  0.00000000000E+00  0.00000000000E+00  0.99999944182E+02  0.10000000000E+03  0.10566000000E+00 0. -1.
         22   -1    0    0    0    0 -0.00000000000E+00 -0.00000000000E+00 -0.62002200972E+02  0.62002200972E+02  0.00000000000E+00 0.  1.
         13    1    1    2    0    0  0.20359259854E+02  0.16352245459E+02 -0.50617642455E+02  0.56956582456E+02  0.10566000000E+00 0.  1.
        996    1    1    2    0    0 -0.20359259854E+02 -0.16352245459E+02  0.88615385664E+02  0.10504561852E+03  0.50000000000E+02 0.  0.
<mgrwt>
<rscale>  0 0.56408292E+02</rscale>
<asrwt>0</asrwt>
<pdfrwt beam="1">  1       13 0.10000000E+01 0.56408292E+02</pdfrwt>
<pdfrwt beam="2">  1       22 0.62002212E+00 0.56408292E+02</pdfrwt>
<totfact> 0.72945636E-02</totfact>
</mgrwt>
</event>
<event>
 4    1  0.2471347E+000  0.6175796E+02  0.7957747E-01  0.1390599E+00
         13   -1    0    0    0    0  0.00000000000E+00  0.00000000000E+00  0.99999944182E+02  0.10000000000E+03  0.10566000000E+00 0.  1.
         22   -1    0    0    0    0 -0.00000000000E+00 -0.00000000000E+00 -0.47143044060E+02  0.47143044060E+02  0.00000000000E+00 0. -1.
         13    1    1    2    0    0  0.36227643643E+02 -0.12660954254E+01 -0.27710930503E+02  0.45628412146E+02  0.10566000000E+00 0. -1.
        996    1    1    2    0    0 -0.36227643643E+02  0.12660954254E+01  0.80567830624E+02  0.10151463192E+03  0.50000000000E+02 0.  0.
<mgrwt>
<rscale>  0 0.61757956E+02</rscale>
<asrwt>0</asrwt>
<pdfrwt beam="1">  1       13 0.10000000E+01 0.61757956E+02</pdfrwt>
<pdfrwt beam="2">  1       22 0.47143059E+00 0.61757956E+02</pdfrwt>
<totfact> 0.86613449E-02</totfact>
</mgrwt>
</event>
<event>
 4    1  0.2471347E+000  0.5108817E+02  0.7957747E-01  0.1439559E+00
         13   -1    0    0    0    0  0.00000000000E+00  0.00000000000E+00  0.99999944180E+02  0.10000000000E+03  0.10566000000E+00 0. -1.
         22   -1    0    0    0    0 -0.00000000000E+00 -0.00000000000E+00 -0.98518202564E+01  0.98518202564E+01  0.00000000000E+00 0. -1.
         13    1    1    2    0    0  0.67539236556E+00  0.10466379470E+02  0.83325331465E+01  0.13395653278E+02  0.10566000000E+00 0.  1.
        996    1    1    2    0    0 -0.67539236556E+00 -0.10466379470E+02  0.81815590777E+02  0.96456166979E+02  0.50000000000E+02 0.  0.
<mgrwt>
<rscale>  0 0.51088171E+02</rscale>
<asrwt>0</asrwt>
<pdfrwt beam="1">  1       13 0.10000000E+01 0.51088171E+02</pdfrwt>
<pdfrwt beam="2">  1       22 0.98518454E-01 0.51088171E+02</pdfrwt>
<totfact> 0.14373539E+00</totfact>
</mgrwt>
</event>
<event>
 4    1  0.2471347E+000  0.5103312E+02  0.7957747E-01  0.1439848E+00
         13   -1    0    0    0    0  0.00000000000E+00  0.00000000000E+00  0.99999944176E+02  0.99999999996E+02  0.10566000000E+00 0. -1.
         22   -1    0    0    0    0 -0.00000000000E+00 -0.00000000000E+00 -0.99496736761E+01  0.99496736761E+01  0.00000000000E+00 0. -1.
         13    1    1    2    0    0  0.97651810535E+01  0.30033585652E+01  0.67028739049E+01  0.12219599269E+02  0.10566000000E+00 0.  1.
        996    1    1    2    0    0 -0.97651810535E+01 -0.30033585652E+01  0.83347396595E+02  0.97730074403E+02  0.50000000000E+02 0.  0.
<mgrwt>
<rscale>  0 0.51033116E+02</rscale>
<asrwt>0</asrwt>
<pdfrwt beam="1">  1       13 0.10000000E+01 0.51033116E+02</pdfrwt>
<pdfrwt beam="2">  1       22 0.99496988E-01 0.51033116E+02</pdfrwt>
<totfact> 0.14167933E+00</totfact>
</mgrwt>
</event>
<event>
 4    1  0.2471347E+000  0.5145858E+02  0.7957747E-01  0.1437629E+00
         13   -1    0    0    0    0  0.00000000000E+00  0.00000000000E+00  0.99999944178E+02  0.99999999998E+02  0.10566000000E+00 0.  1.
         22   -1    0    0    0    0 -0.00000000000E+00 -0.00000000000E+00 -0.14328154573E+02  0.14328154573E+02  0.00000000000E+00 0.  1.
         13    1    1    2    0    0  0.11346139464E+02  0.43875146318E+01 -0.23290765240E+01  0.12386320151E+02  0.10566000000E+00 0. -1.
        996    1    1    2    0    0 -0.11346139464E+02 -0.43875146318E+01  0.88000866129E+02  0.10194183442E+03  0.50000000000E+02 0.  0.
<mgrwt>
<rscale>  0 0.51458577E+02</rscale>
<asrwt>0</asrwt>
<pdfrwt beam="1">  1       13 0.10000000E+01 0.51458577E+02</pdfrwt>
<pdfrwt beam="2">  1       22 0.14328178E+00 0.51458577E+02</pdfrwt>
<totfact> 0.81114200E-01</totfact>
</mgrwt>
</event>
<event>
 4    1  0.2471347E+000  0.5585853E+02  0.7957747E-01  0.1416082E+00
         13   -1    0    0    0    0  0.00000000000E+00  0.00000000000E+00  0.99999944191E+02  0.10000000001E+03  0.10566000000E+00 0.  1.
         22   -1    0    0    0    0 -0.00000000000E+00 -0.00000000000E+00 -0.19277829962E+02  0.19277829962E+02  0.00000000000E+00 0. -1.
         13    1    1    2    0    0  0.19210198792E+02  0.15847514024E+02  0.53639015731E+01  0.25474654904E+02  0.10566000000E+00 0. -1.
        996    1    1    2    0    0 -0.19210198792E+02 -0.15847514024E+02  0.75358212655E+02  0.93803175069E+02  0.50000000000E+02 0.  0.
<mgrwt>
<rscale>  0 0.55858531E+02</rscale>
<asrwt>0</asrwt>
<pdfrwt beam="1">  1       13 0.10000000E+01 0.55858531E+02</pdfrwt>
<pdfrwt beam="2">  1       22 0.19277853E+00 0.55858531E+02</pdfrwt>
<totfact> 0.48833672E-01</totfact>
</mgrwt>
</event>
<event>
 4    1  0.2471347E+000  0.5264513E+02  0.7957747E-01  0.1431575E+00
         13   -1    0    0    0    0  0.00000000000E+00  0.00000000000E+00  0.99999944179E+02  0.99999999999E+02  0.10566000000E+00 0. -1.
         22   -1    0    0    0    0 -0.00000000000E+00 -0.00000000000E+00 -0.13283939255E+02  0.13283939255E+02  0.00000000000E+00 0.  1.
         13    1    1    2    0    0  0.14875613114E+02 -0.70870496071E+01  0.73451263362E+01  0.18040847613E+02  0.10566000000E+00 0.  1.
        996    1    1    2    0    0 -0.14875613114E+02  0.70870496071E+01  0.79370878588E+02  0.95243091642E+02  0.50000000000E+02 0.  0.
<mgrwt>
<rscale>  0 0.52645134E+02</rscale>
<asrwt>0</asrwt>
<pdfrwt beam="1">  1       13 0.10000000E+01 0.52645134E+02</pdfrwt>
<pdfrwt beam="2">  1       22 0.13283963E+00 0.52645134E+02</pdfrwt>
<totfact> 0.91863478E-01</totfact>
</mgrwt>
</event>
<event>
 4    1  0.2471347E+000  0.5222433E+02  0.7957747E-01  0.1433700E+00
         13   -1    0    0    0    0  0.00000000000E+00  0.00000000000E+00  0.99999944183E+02  0.10000000000E+03  0.10566000000E+00 0. -1.
         22   -1    0    0    0    0 -0.00000000000E+00 -0.00000000000E+00 -0.13343443800E+02  0.13343443800E+02  0.00000000000E+00 0. -1.
         13    1    1    2    0    0  0.66134720673E+01  0.13551499326E+02  0.40513727705E+01  0.15614286155E+02  0.10566000000E+00 0.  1.
        996    1    1    2    0    0 -0.66134720673E+01 -0.13551499326E+02  0.82605127613E+02  0.97729157648E+02  0.50000000000E+02 0.  0.
<mgrwt>
<rscale>  0 0.52224335E+02</rscale>
<asrwt>0</asrwt>
<pdfrwt beam="1">  1       13 0.10000000E+01 0.52224335E+02</pdfrwt>
<pdfrwt beam="2">  1       22 0.13343468E+00 0.52224335E+02</pdfrwt>
<totfact> 0.91131519E-01</totfact>
</mgrwt>
</event>
<event>
 4    1  0.2471347E+000  0.5165905E+02  0.7957747E-01  0.1436593E+00
         13   -1    0    0    0    0  0.00000000000E+00  0.00000000000E+00  0.99999944177E+02  0.99999999997E+02  0.10566000000E+00 0.  1.
         22   -1    0    0    0    0 -0.00000000000E+00 -0.00000000000E+00 -0.12691133792E+02  0.12691133792E+02  0.00000000000E+00 0.  1.
         13    1    1    2    0    0 -0.11921457519E+02  0.51513724940E+01  0.22598271448E+01  0.13182403829E+02  0.10566000000E+00 0. -1.
        996    1    1    2    0    0  0.11921457519E+02 -0.51513724940E+01  0.85048983241E+02  0.99508729960E+02  0.50000000000E+02 0.  0.
<mgrwt>
<rscale>  0 0.51659053E+02</rscale>
<asrwt>0</asrwt>
<pdfrwt beam="1">  1       13 0.10000000E+01 0.51659053E+02</pdfrwt>
<pdfrwt beam="2">  1       22 0.12691158E+00 0.51659053E+02</pdfrwt>
<totfact> 0.98501771E-01</totfact>
</mgrwt>
</event>
<event>
 4    1  0.2471347E+000  0.5152463E+02  0.7957747E-01  0.1437287E+00
         13   -1    0    0    0    0  0.00000000000E+00  0.00000000000E+00  0.99999944185E+02  0.10000000001E+03  0.10566000000E+00 0.  1.
         22   -1    0    0    0    0 -0.00000000000E+00 -0.00000000000E+00 -0.11408622569E+02  0.11408622569E+02  0.00000000000E+00 0.  1.
         13    1    1    2    0    0  0.76470822011E+01 -0.98137278815E+01  0.34637703641E+02  0.36804467102E+02  0.10566000000E+00 0. -1.
        996    1    1    2    0    0 -0.76470822011E+01  0.98137278815E+01  0.53953617975E+02  0.74604155472E+02  0.50000000000E+02 0.  0.
<mgrwt>
<rscale>  0 0.51524626E+02</rscale>
<asrwt>0</asrwt>
<pdfrwt beam="1">  1       13 0.10000000E+01 0.51524626E+02</pdfrwt>
<pdfrwt beam="2">  1       22 0.11408647E+00 0.51524626E+02</pdfrwt>
<totfact> 0.11593620E+00</totfact>
</mgrwt>
</event>
<event>
 4    1  0.2471347E+000  0.5116714E+02  0.7957747E-01  0.1439146E+00
         13   -1    0    0    0    0  0.00000000000E+00  0.00000000000E+00  0.99999944181E+02  0.10000000000E+03  0.10566000000E+00 0.  1.
         22   -1    0    0    0    0 -0.00000000000E+00 -0.00000000000E+00 -0.13971408953E+02  0.13971408953E+02  0.00000000000E+00 0.  1.
         13    1    1    2    0    0  0.19425082760E+01  0.10691259152E+02 -0.30117814010E+01  0.11276451210E+02  0.10566000000E+00 0. -1.
        996    1    1    2    0    0 -0.19425082760E+01 -0.10691259152E+02  0.89040316629E+02  0.10269495774E+03  0.50000000000E+02 0.  0.
<mgrwt>
<rscale>  0 0.51167141E+02</rscale>
<asrwt>0</asrwt>
<pdfrwt beam="1">  1       13 0.10000000E+01 0.51167141E+02</pdfrwt>
<pdfrwt beam="2">  1       22 0.13971433E+00 0.51167141E+02</pdfrwt>
<totfact> 0.84457939E-01</totfact>
</mgrwt>
</event>
<event>
 4    1  0.2471347E+000  0.5220423E+02  0.7957747E-01  0.1433803E+00
         13   -1    0    0    0    0  0.00000000000E+00  0.00000000000E+00  0.99999944183E+02  0.10000000000E+03  0.10566000000E+00 0.  1.
         22   -1    0    0    0    0 -0.00000000000E+00 -0.00000000000E+00 -0.63905944571E+02  0.63905944571E+02  0.00000000000E+00 0. -1.
         13    1    1    2    0    0  0.72399364439E+01  0.13147824130E+02 -0.56037102476E+02  0.58012498455E+02  0.10566000000E+00 0. -1.
        996    1    1    2    0    0 -0.72399364439E+01 -0.13147824130E+02  0.92131102088E+02  0.10589344612E+03  0.50000000000E+02 0.  0.
<mgrwt>
<rscale>  0 0.52204233E+02</rscale>
<asrwt>0</asrwt>
<pdfrwt beam="1">  1       13 0.10000000E+01 0.52204233E+02</pdfrwt>
<pdfrwt beam="2">  1       22 0.63905955E+00 0.52204233E+02</pdfrwt>
<totfact> 0.82987726E-02</totfact>
</mgrwt>
</event>
<event>
 4    1  0.2471347E+000  0.5328334E+02  0.7957747E-01  0.1428396E+00
         13   -1    0    0    0    0  0.00000000000E+00  0.00000000000E+00  0.99999944183E+02  0.10000000000E+03  0.10566000000E+00 0.  1.
         22   -1    0    0    0    0 -0.00000000000E+00 -0.00000000000E+00 -0.13067635987E+02  0.13067635987E+02  0.00000000000E+00 0.  1.
         13    1    1    2    0    0  0.14008383876E+02  0.11953241220E+02  0.16311590937E+02  0.24600690181E+02  0.10566000000E+00 0. -1.
        996    1    1    2    0    0 -0.14008383876E+02 -0.11953241220E+02  0.70620717260E+02  0.88466945809E+02  0.50000000000E+02 0.  0.
<mgrwt>
<rscale>  0 0.53283344E+02</rscale>
<asrwt>0</asrwt>
<pdfrwt beam="1">  1       13 0.10000000E+01 0.53283344E+02</pdfrwt>
<pdfrwt beam="2">  1       22 0.13067660E+00 0.53283344E+02</pdfrwt>
<totfact> 0.94410888E-01</totfact>
</mgrwt>
</event>
<event>
 4    1  0.2471347E+000  0.5131867E+02  0.7957747E-01  0.1438356E+00
         13   -1    0    0    0    0  0.00000000000E+00  0.00000000000E+00  0.99999944168E+02  0.99999999988E+02  0.10566000000E+00 0. -1.
         22   -1    0    0    0    0 -0.00000000000E+00 -0.00000000000E+00 -0.17756695828E+02  0.17756695828E+02  0.00000000000E+00 0.  1.
         13    1    1    2    0    0  0.11204407034E+02  0.28402030323E+01 -0.79196435007E+01  0.14012045085E+02  0.10566000000E+00 0.  1.
        996    1    1    2    0    0 -0.11204407034E+02 -0.28402030323E+01  0.90162891841E+02  0.10374465073E+03  0.50000000000E+02 0.  0.
<mgrwt>
<rscale>  0 0.51318666E+02</rscale>
<asrwt>0</asrwt>
<pdfrwt beam="1">  1       13 0.10000000E+01 0.51318666E+02</pdfrwt>
<pdfrwt beam="2">  1       22 0.17756719E+00 0.51318666E+02</pdfrwt>
<totfact> 0.56220349E-01</totfact>
</mgrwt>
</event>
<event>
 4    1  0.2471347E+000  0.7494068E+02  0.7957747E-01  0.1344055E+00
         13   -1    0    0    0    0  0.00000000000E+00  0.00000000000E+00  0.99999944178E+02  0.99999999999E+02  0.10566000000E+00 0.  1.
         22   -1    0    0    0    0 -0.00000000000E+00 -0.00000000000E+00 -0.43146916025E+02  0.43146916025E+02  0.00000000000E+00 0. -1.
         13    1    1    2    0    0  0.37516950446E+02 -0.41335023772E+02  0.31123547121E+02  0.63912378382E+02  0.10566000000E+00 0. -1.
        996    1    1    2    0    0 -0.37516950446E+02  0.41335023772E+02  0.25729481033E+02  0.79234537641E+02  0.50000000000E+02 0.  0.
<mgrwt>
<rscale>  0 0.74940682E+02</rscale>
<asrwt>0</asrwt>
<pdfrwt beam="1">  1       13 0.10000000E+01 0.74940682E+02</pdfrwt>
<pdfrwt beam="2">  1       22 0.43146932E+00 0.74940682E+02</pdfrwt>
<totfact> 0.10751137E-01</totfact>
</mgrwt>
</event>
<event>
 4    1  0.2471347E+000  0.5101074E+02  0.7957747E-01  0.1439965E+00
         13   -1    0    0    0    0  0.00000000000E+00  0.00000000000E+00  0.99999944182E+02  0.10000000000E+03  0.10566000000E+00 0.  1.
         22   -1    0    0    0    0 -0.00000000000E+00 -0.00000000000E+00 -0.16106431652E+02  0.16106431652E+02  0.00000000000E+00 0. -1.
         13    1    1    2    0    0  0.68631974350E+01  0.74157008710E+01 -0.67101796679E+01  0.12129871131E+02  0.10566000000E+00 0. -1.
        996    1    1    2    0    0 -0.68631974350E+01 -0.74157008710E+01  0.90603692198E+02  0.10397656052E+03  0.50000000000E+02 0.  0.
<mgrwt>
<rscale>  0 0.51010745E+02</rscale>
<asrwt>0</asrwt>
<pdfrwt beam="1">  1       13 0.10000000E+01 0.51010745E+02</pdfrwt>
<pdfrwt beam="2">  1       22 0.16106455E+00 0.51010745E+02</pdfrwt>
<totfact> 0.66630532E-01</totfact>
</mgrwt>
</event>
<event>
 4    1  0.2471347E+000  0.5110890E+02  0.7957747E-01  0.1439451E+00
         13   -1    0    0    0    0  0.00000000000E+00  0.00000000000E+00  0.99999944179E+02  0.99999999999E+02  0.10566000000E+00 0. -1.
         22   -1    0    0    0    0 -0.00000000000E+00 -0.00000000000E+00 -0.95200825381E+01  0.95200825381E+01  0.00000000000E+00 0.  1.
         13    1    1    2    0    0  0.28867917600E+01 -0.10187570618E+02  0.16327748257E+02  0.19460901544E+02  0.10566000000E+00 0.  1.
        996    1    1    2    0    0 -0.28867917600E+01  0.10187570618E+02  0.74152113384E+02  0.90059180993E+02  0.50000000000E+02 0.  0.
<mgrwt>
<rscale>  0 0.51108905E+02</rscale>
<asrwt>0</asrwt>
<pdfrwt beam="1">  1       13 0.10000000E+01 0.51108905E+02</pdfrwt>
<pdfrwt beam="2">  1       22 0.95201078E-01 0.51108905E+02</pdfrwt>
<totfact> 0.15098880E+00</totfact>
</mgrwt>
</event>
<event>
 4    1  0.2471347E+000  0.5104862E+02  0.7957747E-01  0.1439766E+00
         13   -1    0    0    0    0  0.00000000000E+00  0.00000000000E+00  0.99999944185E+02  0.10000000000E+03  0.10566000000E+00 0.  1.
         22   -1    0    0    0    0 -0.00000000000E+00 -0.00000000000E+00 -0.26900952464E+02  0.26900952464E+02  0.00000000000E+00 0. -1.
         13    1    1    2    0    0  0.38012285262E+01 -0.95661862962E+01 -0.18994842245E+02  0.21605009940E+02  0.10566000000E+00 0. -1.
        996    1    1    2    0    0 -0.38012285262E+01  0.95661862962E+01  0.92093833966E+02  0.10529594253E+03  0.50000000000E+02 0.  0.
<mgrwt>
<rscale>  0 0.51048617E+02</rscale>
<asrwt>0</asrwt>
<pdfrwt beam="1">  1       13 0.10000000E+01 0.51048617E+02</pdfrwt>
<pdfrwt beam="2">  1       22 0.26900973E+00 0.51048617E+02</pdfrwt>
<totfact> 0.25489026E-01</totfact>
</mgrwt>
</event>
<event>
 4    1  0.2471347E+000  0.5323018E+02  0.7957747E-01  0.1428659E+00
         13   -1    0    0    0    0  0.00000000000E+00  0.00000000000E+00  0.99999944182E+02  0.10000000000E+03  0.10566000000E+00 0. -1.
         22   -1    0    0    0    0 -0.00000000000E+00 -0.00000000000E+00 -0.17101663594E+02  0.17101663594E+02  0.00000000000E+00 0. -1.
         13    1    1    2    0    0  0.12916038332E+02  0.12908441525E+02 -0.37986545315E+00  0.18264921861E+02  0.10566000000E+00 0.  1.
        996    1    1    2    0    0 -0.12916038332E+02 -0.12908441525E+02  0.83278146040E+02  0.98836741735E+02  0.50000000000E+02 0.  0.
<mgrwt>
<rscale>  0 0.53230179E+02</rscale>
<asrwt>0</asrwt>
<pdfrwt beam="1">  1       13 0.10000000E+01 0.53230179E+02</pdfrwt>
<pdfrwt beam="2">  1       22 0.17101687E+00 0.53230179E+02</pdfrwt>
<totfact> 0.60307263E-01</totfact>
</mgrwt>
</event>
<event>
 4    1  0.2471347E+000  0.5619464E+02  0.7957747E-01  0.1414532E+00
         13   -1    0    0    0    0  0.00000000000E+00  0.00000000000E+00  0.99999944181E+02  0.10000000000E+03  0.10566000000E+00 0. -1.
         22   -1    0    0    0    0 -0.00000000000E+00 -0.00000000000E+00 -0.35318053678E+02  0.35318053678E+02  0.00000000000E+00 0.  1.
         13    1    1    2    0    0 -0.25574911294E+02  0.19394458990E+01 -0.20797929660E+02  0.33021244378E+02  0.10566000000E+00 0.  1.
        996    1    1    2    0    0  0.25574911294E+02 -0.19394458990E+01  0.85479820164E+02  0.10229680930E+03  0.50000000000E+02 0.  0.
<mgrwt>
<rscale>  0 0.56194640E+02</rscale>
<asrwt>0</asrwt>
<pdfrwt beam="1">  1       13 0.10000000E+01 0.56194640E+02</pdfrwt>
<pdfrwt beam="2">  1       22 0.35318072E+00 0.56194640E+02</pdfrwt>
<totfact> 0.15532236E-01</totfact>
</mgrwt>
</event>
<event>
 4    1  0.2471347E+000  0.5184493E+02  0.7957747E-01  0.1435637E+00
         13   -1    0    0    0    0  0.00000000000E+00  0.00000000000E+00  0.99999944184E+02  0.10000000000E+03  0.10566000000E+00 0. -1.
         22   -1    0    0    0    0 -0.00000000000E+00 -0.00000000000E+00 -0.48400505589E+02  0.48400505589E+02  0.00000000000E+00 0.  1.
         13    1    1    2    0    0  0.10687165138E+02  0.85838065768E+01 -0.40474898784E+02  0.42733193534E+02  0.10566000000E+00 0.  1.
        996    1    1    2    0    0 -0.10687165138E+02 -0.85838065768E+01  0.92074337379E+02  0.10566731206E+03  0.50000000000E+02 0.  0.
<mgrwt>
<rscale>  0 0.51844935E+02</rscale>
<asrwt>0</asrwt>
<pdfrwt beam="1">  1       13 0.10000000E+01 0.51844935E+02</pdfrwt>
<pdfrwt beam="2">  1       22 0.48400520E+00 0.51844935E+02</pdfrwt>
<totfact> 0.80452305E-02</totfact>
</mgrwt>
</event>
<event>
 4    1  0.2471347E+000  0.5354463E+02  0.7957747E-01  0.1427109E+00
         13   -1    0    0    0    0  0.00000000000E+00  0.00000000000E+00  0.99999944170E+02  0.99999999991E+02  0.10566000000E+00 0.  1.
         22   -1    0    0    0    0 -0.00000000000E+00 -0.00000000000E+00 -0.34999510252E+02  0.34999510252E+02  0.00000000000E+00 0. -1.
         13    1    1    2    0    0  0.19118060225E+02  0.12358070905E+01 -0.24258950624E+02  0.30911733943E+02  0.10566000000E+00 0. -1.
        996    1    1    2    0    0 -0.19118060225E+02 -0.12358070905E+01  0.89259384543E+02  0.10408777630E+03  0.50000000000E+02 0.  0.
<mgrwt>
<rscale>  0 0.53544630E+02</rscale>
<asrwt>0</asrwt>
<pdfrwt beam="1">  1       13 0.10000000E+01 0.53544630E+02</pdfrwt>
<pdfrwt beam="2">  1       22 0.34999528E+00 0.53544630E+02</pdfrwt>
<totfact> 0.15739560E-01</totfact>
</mgrwt>
</event>
<event>
 4    1  0.2471347E+000  0.5109390E+02  0.7957747E-01  0.1439529E+00
         13   -1    0    0    0    0  0.00000000000E+00  0.00000000000E+00  0.99999944176E+02  0.99999999996E+02  0.10566000000E+00 0. -1.
         22   -1    0    0    0    0 -0.00000000000E+00 -0.00000000000E+00 -0.14132832969E+02  0.14132832969E+02  0.00000000000E+00 0.  1.
         13    1    1    2    0    0 -0.58965046382E+01 -0.87073738051E+01 -0.35901583682E+01  0.11112494170E+02  0.10566000000E+00 0.  1.
        996    1    1    2    0    0  0.58965046382E+01  0.87073738051E+01  0.89457269575E+02  0.10302033879E+03  0.50000000000E+02 0.  0.
<mgrwt>
<rscale>  0 0.51093905E+02</rscale>
<asrwt>0</asrwt>
<pdfrwt beam="1">  1       13 0.10000000E+01 0.51093905E+02</pdfrwt>
<pdfrwt beam="2">  1       22 0.14132857E+00 0.51093905E+02</pdfrwt>
<totfact> 0.82885653E-01</totfact>
</mgrwt>
</event>
<event>
 4    1  0.2471347E+000  0.5391452E+02  0.7957747E-01  0.1425303E+00
         13   -1    0    0    0    0  0.00000000000E+00  0.00000000000E+00  0.99999944175E+02  0.99999999995E+02  0.10566000000E+00 0. -1.
         22   -1    0    0    0    0 -0.00000000000E+00 -0.00000000000E+00 -0.17118355561E+02  0.17118355561E+02  0.00000000000E+00 0.  1.
         13    1    1    2    0    0  0.19786548272E+02  0.39073966253E+01  0.24904505195E+01  0.20322124612E+02  0.10566000000E+00 0.  1.
        996    1    1    2    0    0 -0.19786548272E+02 -0.39073966253E+01  0.80391138095E+02  0.96796230944E+02  0.50000000000E+02 0.  0.
<mgrwt>
<rscale>  0 0.53914518E+02</rscale>
<asrwt>0</asrwt>
<pdfrwt beam="1">  1       13 0.10000000E+01 0.53914518E+02</pdfrwt>
<pdfrwt beam="2">  1       22 0.17118379E+00 0.53914518E+02</pdfrwt>
<totfact> 0.60281040E-01</totfact>
</mgrwt>
</event>
<event>
 4    1  0.2471347E+000  0.5423160E+02  0.7957747E-01  0.1423768E+00
         13   -1    0    0    0    0  0.00000000000E+00  0.00000000000E+00  0.99999944177E+02  0.99999999998E+02  0.10566000000E+00 0. -1.
         22   -1    0    0    0    0 -0.00000000000E+00 -0.00000000000E+00 -0.14153001333E+02  0.14153001333E+02  0.00000000000E+00 0. -1.
         13    1    1    2    0    0 -0.17748542876E+02 -0.11227436228E+02  0.23241750074E+02  0.31325009322E+02  0.10566000000E+00 0.  1.
        996    1    1    2    0    0  0.17748542876E+02  0.11227436228E+02  0.62605192770E+02  0.82827992009E+02  0.50000000000E+02 0.  0.
<mgrwt>
<rscale>  0 0.54231597E+02</rscale>
<asrwt>0</asrwt>
<pdfrwt beam="1">  1       13 0.10000000E+01 0.54231597E+02</pdfrwt>
<pdfrwt beam="2">  1       22 0.14153025E+00 0.54231597E+02</pdfrwt>
<totfact> 0.83231141E-01</totfact>
</mgrwt>
</event>
<event>
 4    1  0.2471347E+000  0.5177711E+02  0.7957747E-01  0.1435985E+00
         13   -1    0    0    0    0  0.00000000000E+00  0.00000000000E+00  0.99999944177E+02  0.99999999997E+02  0.10566000000E+00 0. -1.
         22   -1    0    0    0    0 -0.00000000000E+00 -0.00000000000E+00 -0.16669379902E+02  0.16669379902E+02  0.00000000000E+00 0. -1.
         13    1    1    2    0    0  0.13442704115E+02  0.40290340018E+00 -0.49450796451E+01  0.14329466208E+02  0.10566000000E+00 0.  1.
        996    1    1    2    0    0 -0.13442704115E+02 -0.40290340018E+00  0.88275643919E+02  0.10233991369E+03  0.50000000000E+02 0.  0.
<mgrwt>
<rscale>  0 0.51777105E+02</rscale>
<asrwt>0</asrwt>
<pdfrwt beam="1">  1       13 0.10000000E+01 0.51777105E+02</pdfrwt>
<pdfrwt beam="2">  1       22 0.16669403E+00 0.51777105E+02</pdfrwt>
<totfact> 0.62891050E-01</totfact>
</mgrwt>
</event>
<event>
 4    1  0.2471347E+000  0.5652536E+02  0.7957747E-01  0.1413020E+00
         13   -1    0    0    0    0  0.00000000000E+00  0.00000000000E+00  0.99999944179E+02  0.10000000000E+03  0.10566000000E+00 0.  1.
         22   -1    0    0    0    0 -0.00000000000E+00 -0.00000000000E+00 -0.22825145606E+02  0.22825145606E+02  0.00000000000E+00 0. -1.
         13    1    1    2    0    0  0.47186054102E+01  0.25939362550E+02 -0.96598037347E+00  0.26382949960E+02  0.10566000000E+00 0. -1.
        996    1    1    2    0    0 -0.47186054102E+01 -0.25939362550E+02  0.78140778947E+02  0.96442195645E+02  0.50000000000E+02 0.  0.
<mgrwt>
<rscale>  0 0.56525355E+02</rscale>
<asrwt>0</asrwt>
<pdfrwt beam="1">  1       13 0.10000000E+01 0.56525355E+02</pdfrwt>
<pdfrwt beam="2">  1       22 0.22825167E+00 0.56525355E+02</pdfrwt>
<totfact> 0.35479583E-01</totfact>
</mgrwt>
</event>
<event>
 4    1  0.2471347E+000  0.5117086E+02  0.7957747E-01  0.1439127E+00
         13   -1    0    0    0    0  0.00000000000E+00  0.00000000000E+00  0.99999944180E+02  0.10000000000E+03  0.10566000000E+00 0.  1.
         22   -1    0    0    0    0 -0.00000000000E+00 -0.00000000000E+00 -0.11528804870E+02  0.11528804870E+02  0.00000000000E+00 0. -1.
         13    1    1    2    0    0 -0.81531497192E+01  0.72099232860E+01  0.20223248958E+01  0.11070582918E+02  0.10566000000E+00 0. -1.
        996    1    1    2    0    0  0.81531497192E+01 -0.72099232860E+01  0.86448814414E+02  0.10045822195E+03  0.50000000000E+02 0.  0.
<mgrwt>
<rscale>  0 0.51170859E+02</rscale>
<asrwt>0</asrwt>
<pdfrwt beam="1">  1       13 0.10000000E+01 0.51170859E+02</pdfrwt>
<pdfrwt beam="2">  1       22 0.11528830E+00 0.51170859E+02</pdfrwt>
<totfact> 0.11402718E+00</totfact>
</mgrwt>
</event>
<event>
 4    1  0.2471347E+000  0.6790807E+02  0.7957747E-01  0.1367355E+00
         13   -1    0    0    0    0  0.00000000000E+00  0.00000000000E+00  0.99999944176E+02  0.99999999996E+02  0.10566000000E+00 0.  1.
         22   -1    0    0    0    0 -0.00000000000E+00 -0.00000000000E+00 -0.35256992843E+02  0.35256992843E+02  0.00000000000E+00 0. -1.
         13    1    1    2    0    0  0.44723420727E+02 -0.10550886880E+02  0.77461696079E+01  0.46599569560E+02  0.10566000000E+00 0. -1.
        996    1    1    2    0    0 -0.44723420727E+02  0.10550886880E+02  0.56996781725E+02  0.88657423280E+02  0.50000000000E+02 0.  0.
<mgrwt>
<rscale>  0 0.67908067E+02</rscale>
<asrwt>0</asrwt>
<pdfrwt beam="1">  1       13 0.10000000E+01 0.67908067E+02</pdfrwt>
<pdfrwt beam="2">  1       22 0.35257011E+00 0.67908067E+02</pdfrwt>
<totfact> 0.15735957E-01</totfact>
</mgrwt>
</event>
<event>
 4    1  0.2471347E+000  0.5119186E+02  0.7957747E-01  0.1439017E+00
         13   -1    0    0    0    0  0.00000000000E+00  0.00000000000E+00  0.99999944182E+02  0.10000000000E+03  0.10566000000E+00 0.  1.
         22   -1    0    0    0    0 -0.00000000000E+00 -0.00000000000E+00 -0.98228083650E+01  0.98228083650E+01  0.00000000000E+00 0.  1.
         13    1    1    2    0    0  0.55707747957E+01 -0.94643177841E+01  0.11046232702E+02  0.15576818156E+02  0.10566000000E+00 0. -1.
        996    1    1    2    0    0 -0.55707747957E+01  0.94643177841E+01  0.79130903115E+02  0.94245990210E+02  0.50000000000E+02 0.  0.
<mgrwt>
<rscale>  0 0.51191863E+02</rscale>
<asrwt>0</asrwt>
<pdfrwt beam="1">  1       13 0.10000000E+01 0.51191863E+02</pdfrwt>
<pdfrwt beam="2">  1       22 0.98228335E-01 0.51191863E+02</pdfrwt>
<totfact> 0.14438456E+00</totfact>
</mgrwt>
</event>
<event>
 4    1  0.2471347E+000  0.5164895E+02  0.7957747E-01  0.1436645E+00
         13   -1    0    0    0    0  0.00000000000E+00  0.00000000000E+00  0.99999944173E+02  0.99999999993E+02  0.10566000000E+00 0.  1.
         22   -1    0    0    0    0 -0.00000000000E+00 -0.00000000000E+00 -0.10647317230E+02  0.10647317230E+02  0.00000000000E+00 0.  1.
         13    1    1    2    0    0  0.79664129918E+01 -0.10205411501E+02  0.12110514316E+02  0.17728222723E+02  0.10566000000E+00 0. -1.
        996    1    1    2    0    0 -0.79664129918E+01  0.10205411501E+02  0.77242112627E+02  0.92919094501E+02  0.50000000000E+02 0.  0.
<mgrwt>
<rscale>  0 0.51648951E+02</rscale>
<asrwt>0</asrwt>
<pdfrwt beam="1">  1       13 0.10000000E+01 0.51648951E+02</pdfrwt>
<pdfrwt beam="2">  1       22 0.10647342E+00 0.51648951E+02</pdfrwt>
<totfact> 0.12852659E+00</totfact>
</mgrwt>
</event>
<event>
 4    1  0.2471347E+000  0.7421795E+02  0.7957747E-01  0.1346310E+00
         13   -1    0    0    0    0  0.00000000000E+00  0.00000000000E+00  0.99999944177E+02  0.99999999997E+02  0.10566000000E+00 0.  1.
         22   -1    0    0    0    0 -0.00000000000E+00 -0.00000000000E+00 -0.41645104737E+02  0.41645104737E+02  0.00000000000E+00 0. -1.
         13    1    1    2    0    0  0.54738093191E+02  0.34706307356E+01  0.24789957188E+02  0.60190175820E+02  0.10566000000E+00 0. -1.
        996    1    1    2    0    0 -0.54738093191E+02 -0.34706307356E+01  0.33564882251E+02  0.81454928914E+02  0.50000000000E+02 0.  0.
<mgrwt>
<rscale>  0 0.74217950E+02</rscale>
<asrwt>0</asrwt>
<pdfrwt beam="1">  1       13 0.10000000E+01 0.74217950E+02</pdfrwt>
<pdfrwt beam="2">  1       22 0.41645121E+00 0.74217950E+02</pdfrwt>
<totfact> 0.11582657E-01</totfact>
</mgrwt>
</event>
<event>
 4    1  0.2471347E+000  0.5995990E+02  0.7957747E-01  0.1398000E+00
         13   -1    0    0    0    0  0.00000000000E+00  0.00000000000E+00  0.99999944178E+02  0.99999999998E+02  0.10566000000E+00 0.  1.
         22   -1    0    0    0    0 -0.00000000000E+00 -0.00000000000E+00 -0.21815171778E+02  0.21815171778E+02  0.00000000000E+00 0.  1.
         13    1    1    2    0    0  0.17692458389E+02 -0.27967233068E+02  0.22777796047E+02  0.40174971887E+02  0.10566000000E+00 0. -1.
        996    1    1    2    0    0 -0.17692458389E+02  0.27967233068E+02  0.55406976353E+02  0.81640199889E+02  0.50000000000E+02 0.  0.
<mgrwt>
<rscale>  0 0.59959897E+02</rscale>
<asrwt>0</asrwt>
<pdfrwt beam="1">  1       13 0.10000000E+01 0.59959897E+02</pdfrwt>
<pdfrwt beam="2">  1       22 0.21815194E+00 0.59959897E+02</pdfrwt>
<totfact> 0.38927030E-01</totfact>
</mgrwt>
</event>
<event>
 4    1  0.2471347E+000  0.6141248E+02  0.7957747E-01  0.1391998E+00
         13   -1    0    0    0    0  0.00000000000E+00  0.00000000000E+00  0.99999944175E+02  0.99999999995E+02  0.10566000000E+00 0. -1.
         22   -1    0    0    0    0 -0.00000000000E+00 -0.00000000000E+00 -0.27820898564E+02  0.27820898564E+02  0.00000000000E+00 0.  1.
         13    1    1    2    0    0  0.75683724745E+01  0.34845552419E+02  0.37182602096E+01  0.35851491020E+02  0.10566000000E+00 0.  1.
        996    1    1    2    0    0 -0.75683724745E+01 -0.34845552419E+02  0.68460785402E+02  0.91969407539E+02  0.50000000000E+02 0.  0.
<mgrwt>
<rscale>  0 0.61412481E+02</rscale>
<asrwt>0</asrwt>
<pdfrwt beam="1">  1       13 0.10000000E+01 0.61412481E+02</pdfrwt>
<pdfrwt beam="2">  1       22 0.27820919E+00 0.61412481E+02</pdfrwt>
<totfact> 0.24202769E-01</totfact>
</mgrwt>
</event>
<event>
 4    1  0.2471347E+000  0.5229409E+02  0.7957747E-01  0.1433346E+00
         13   -1    0    0    0    0  0.00000000000E+00  0.00000000000E+00  0.99999944182E+02  0.10000000000E+03  0.10566000000E+00 0. -1.
         22   -1    0    0    0    0 -0.00000000000E+00 -0.00000000000E+00 -0.11455059756E+02  0.11455059756E+02  0.00000000000E+00 0. -1.
         13    1    1    2    0    0  0.48316086848E+01 -0.14537122383E+02  0.17887742787E+02  0.23551111985E+02  0.10566000000E+00 0.  1.
        996    1    1    2    0    0 -0.48316086848E+01  0.14537122383E+02  0.70657141639E+02  0.87903947774E+02  0.50000000000E+02 0.  0.
<mgrwt>
<rscale>  0 0.52294095E+02</rscale>
<asrwt>0</asrwt>
<pdfrwt beam="1">  1       13 0.10000000E+01 0.52294095E+02</pdfrwt>
<pdfrwt beam="2">  1       22 0.11455084E+00 0.52294095E+02</pdfrwt>
<totfact> 0.11543180E+00</totfact>
</mgrwt>
</event>
<event>
 4    1  0.2471347E+000  0.5168228E+02  0.7957747E-01  0.1436473E+00
         13   -1    0    0    0    0  0.00000000000E+00  0.00000000000E+00  0.99999944180E+02  0.10000000000E+03  0.10566000000E+00 0.  1.
         22   -1    0    0    0    0 -0.00000000000E+00 -0.00000000000E+00 -0.30662929059E+02  0.30662929059E+02  0.00000000000E+00 0. -1.
         13    1    1    2    0    0  0.13057336465E+02 -0.75071635896E+00 -0.22071290009E+02  0.25655615707E+02  0.10566000000E+00 0. -1.
        996    1    1    2    0    0 -0.13057336465E+02  0.75071635896E+00  0.91408305130E+02  0.10500731335E+03  0.50000000000E+02 0.  0.
<mgrwt>
<rscale>  0 0.51682276E+02</rscale>
<asrwt>0</asrwt>
<pdfrwt beam="1">  1       13 0.10000000E+01 0.51682276E+02</pdfrwt>
<pdfrwt beam="2">  1       22 0.30662948E+00 0.51682276E+02</pdfrwt>
<totfact> 0.19872651E-01</totfact>
</mgrwt>
</event>
<event>
 4    1  0.2471347E+000  0.5429444E+02  0.7957747E-01  0.1423465E+00
         13   -1    0    0    0    0  0.00000000000E+00  0.00000000000E+00  0.99999944178E+02  0.99999999998E+02  0.10566000000E+00 0.  1.
         22   -1    0    0    0    0 -0.00000000000E+00 -0.00000000000E+00 -0.29190969489E+02  0.29190969489E+02  0.00000000000E+00 0. -1.
         13    1    1    2    0    0  0.32892406218E+01  0.20906153101E+02 -0.16185801429E+02  0.26643529670E+02  0.10566000000E+00 0. -1.
        996    1    1    2    0    0 -0.32892406218E+01 -0.20906153101E+02  0.86994776117E+02  0.10254743982E+03  0.50000000000E+02 0.  0.
<mgrwt>
<rscale>  0 0.54294441E+02</rscale>
<asrwt>0</asrwt>
<pdfrwt beam="1">  1       13 0.10000000E+01 0.54294441E+02</pdfrwt>
<pdfrwt beam="2">  1       22 0.29190989E+00 0.54294441E+02</pdfrwt>
<totfact> 0.21864624E-01</totfact>
</mgrwt>
</event>
<event>
 4    1  0.2471347E+000  0.5120861E+02  0.7957747E-01  0.1438930E+00
         13   -1    0    0    0    0  0.00000000000E+00  0.00000000000E+00  0.99999944176E+02  0.99999999996E+02  0.10566000000E+00 0. -1.
         22   -1    0    0    0    0 -0.00000000000E+00 -0.00000000000E+00 -0.12609087469E+02  0.12609087469E+02  0.00000000000E+00 0. -1.
         13    1    1    2    0    0 -0.10974547463E+02  0.13714440544E+01  0.44369862618E+02  0.45727643976E+02  0.10566000000E+00 0.  1.
        996    1    1    2    0    0  0.10974547463E+02 -0.13714440544E+01  0.43020994089E+02  0.66881443489E+02  0.50000000000E+02 0.  0.
<mgrwt>
<rscale>  0 0.51208608E+02</rscale>
<asrwt>0</asrwt>
<pdfrwt beam="1">  1       13 0.10000000E+01 0.51208608E+02</pdfrwt>
<pdfrwt beam="2">  1       22 0.12609112E+00 0.51208608E+02</pdfrwt>
<totfact> 0.99404064E-01</totfact>
</mgrwt>
</event>
<event>
 4    1  0.2471347E+000  0.5220762E+02  0.7957747E-01  0.1433785E+00
         13   -1    0    0    0    0  0.00000000000E+00  0.00000000000E+00  0.99999944182E+02  0.10000000000E+03  0.10566000000E+00 0.  1.
         22   -1    0    0    0    0 -0.00000000000E+00 -0.00000000000E+00 -0.11366667230E+02  0.11366667230E+02  0.00000000000E+00 0.  1.
         13    1    1    2    0    0  0.91615008590E+01 -0.11903882470E+02  0.16375163178E+02  0.22221445700E+02  0.10566000000E+00 0. -1.
        996    1    1    2    0    0 -0.91615008590E+01  0.11903882470E+02  0.72258113774E+02  0.89145221532E+02  0.50000000000E+02 0.  0.
<mgrwt>
<rscale>  0 0.52207619E+02</rscale>
<asrwt>0</asrwt>
<pdfrwt beam="1">  1       13 0.10000000E+01 0.52207619E+02</pdfrwt>
<pdfrwt beam="2">  1       22 0.11366692E+00 0.52207619E+02</pdfrwt>
<totfact> 0.11676250E+00</totfact>
</mgrwt>
</event>
<event>
 4    1  0.2471347E+000  0.5165105E+02  0.7957747E-01  0.1436634E+00
         13   -1    0    0    0    0  0.00000000000E+00  0.00000000000E+00  0.99999944179E+02  0.99999999999E+02  0.10566000000E+00 0.  1.
         22   -1    0    0    0    0 -0.00000000000E+00 -0.00000000000E+00 -0.10959688777E+02  0.10959688777E+02  0.00000000000E+00 0.  1.
         13    1    1    2    0    0 -0.96266722437E+01 -0.86693592071E+01  0.92810609271E+01  0.15936745700E+02  0.10566000000E+00 0. -1.
        996    1    1    2    0    0  0.96266722437E+01  0.86693592071E+01  0.79759194475E+02  0.95022943076E+02  0.50000000000E+02 0.  0.
<mgrwt>
<rscale>  0 0.51651047E+02</rscale>
<asrwt>0</asrwt>
<pdfrwt beam="1">  1       13 0.10000000E+01 0.51651047E+02</pdfrwt>
<pdfrwt beam="2">  1       22 0.10959714E+00 0.51651047E+02</pdfrwt>
<totfact> 0.12314368E+00</totfact>
</mgrwt>
</event>
<event>
 4    1  0.2471347E+000  0.5122097E+02  0.7957747E-01  0.1438865E+00
         13   -1    0    0    0    0  0.00000000000E+00  0.00000000000E+00  0.99999944183E+02  0.10000000000E+03  0.10566000000E+00 0. -1.
         22   -1    0    0    0    0 -0.00000000000E+00 -0.00000000000E+00 -0.23243094029E+02  0.23243094029E+02  0.00000000000E+00 0.  1.
         13    1    1    2    0    0  0.38893866187E+01  0.10414411775E+02 -0.14693452929E+02  0.18425417876E+02  0.10566000000E+00 0.  1.
        996    1    1    2    0    0 -0.38893866187E+01 -0.10414411775E+02  0.91450303083E+02  0.10481767616E+03  0.50000000000E+02 0.  0.
<mgrwt>
<rscale>  0 0.51220965E+02</rscale>
<asrwt>0</asrwt>
<pdfrwt beam="1">  1       13 0.10000000E+01 0.51220965E+02</pdfrwt>
<pdfrwt beam="2">  1       22 0.23243115E+00 0.51220965E+02</pdfrwt>
<totfact> 0.33959234E-01</totfact>
</mgrwt>
</event>
<event>
 4    1  0.2471347E+000  0.6297736E+02  0.7957747E-01  0.1385745E+00
         13   -1    0    0    0    0  0.00000000000E+00  0.00000000000E+00  0.99999944186E+02  0.10000000001E+03  0.10566000000E+00 0. -1.
         22   -1    0    0    0    0 -0.00000000000E+00 -0.00000000000E+00 -0.26324154684E+02  0.26324154684E+02  0.00000000000E+00 0.  1.
         13    1    1    2    0    0  0.37636387687E+02  0.70462808959E+01  0.18193124292E+02  0.42392790521E+02  0.10566000000E+00 0.  1.
        996    1    1    2    0    0 -0.37636387687E+02 -0.70462808959E+01  0.55482665209E+02  0.83931364169E+02  0.50000000000E+02 0.  0.
<mgrwt>
<rscale>  0 0.62977359E+02</rscale>
<asrwt>0</asrwt>
<pdfrwt beam="1">  1       13 0.10000000E+01 0.62977359E+02</pdfrwt>
<pdfrwt beam="2">  1       22 0.26324175E+00 0.62977359E+02</pdfrwt>
<totfact> 0.27033347E-01</totfact>
</mgrwt>
</event>
<event>
 4    1  0.2471347E+000  0.5204308E+02  0.7957747E-01  0.1434623E+00
         13   -1    0    0    0    0  0.00000000000E+00  0.00000000000E+00  0.99999944179E+02  0.10000000000E+03  0.10566000000E+00 0.  1.
         22   -1    0    0    0    0 -0.00000000000E+00 -0.00000000000E+00 -0.15323587209E+02  0.15323587209E+02  0.00000000000E+00 0.  1.
         13    1    1    2    0    0  0.14307404320E+02 -0.19443332916E+01 -0.16395938381E+01  0.14532091464E+02  0.10566000000E+00 0. -1.
        996    1    1    2    0    0 -0.14307404320E+02  0.19443332916E+01  0.86315950809E+02  0.10079149574E+03  0.50000000000E+02 0.  0.
<mgrwt>
<rscale>  0 0.52043081E+02</rscale>
<asrwt>0</asrwt>
<pdfrwt beam="1">  1       13 0.10000000E+01 0.52043081E+02</pdfrwt>
<pdfrwt beam="2">  1       22 0.15323611E+00 0.52043081E+02</pdfrwt>
<totfact> 0.72658983E-01</totfact>
</mgrwt>
</event>
<event>
 4    1  0.2471347E+000  0.5100417E+02  0.7957747E-01  0.1439999E+00
         13   -1    0    0    0    0  0.00000000000E+00  0.00000000000E+00  0.99999944180E+02  0.10000000000E+03  0.10566000000E+00 0.  1.
         22   -1    0    0    0    0 -0.00000000000E+00 -0.00000000000E+00 -0.93359858729E+01  0.93359858729E+01  0.00000000000E+00 0. -1.
         13    1    1    2    0    0  0.87510893871E+01  0.49843504019E+01  0.13629974238E+02  0.16947350122E+02  0.10566000000E+00 0. -1.
        996    1    1    2    0    0 -0.87510893871E+01 -0.49843504019E+01  0.77033984069E+02  0.92388635751E+02  0.50000000000E+02 0.  0.
<mgrwt>
<rscale>  0 0.51004170E+02</rscale>
<asrwt>0</asrwt>
<pdfrwt beam="1">  1       13 0.10000000E+01 0.51004170E+02</pdfrwt>
<pdfrwt beam="2">  1       22 0.93360112E-01 0.51004170E+02</pdfrwt>
<totfact> 0.15521135E+00</totfact>
</mgrwt>
</event>
<event>
 4    1  0.2471347E+000  0.5247669E+02  0.7957747E-01  0.1432423E+00
         13   -1    0    0    0    0  0.00000000000E+00  0.00000000000E+00  0.99999944183E+02  0.10000000000E+03  0.10566000000E+00 0. -1.
         22   -1    0    0    0    0 -0.00000000000E+00 -0.00000000000E+00 -0.13931163262E+02  0.13931163262E+02  0.00000000000E+00 0.  1.
         13    1    1    2    0    0  0.91876077359E+01 -0.13015017824E+02  0.38456031596E+01  0.16389101640E+02  0.10566000000E+00 0.  1.
        996    1    1    2    0    0 -0.91876077359E+01  0.13015017824E+02  0.82223177762E+02  0.97542061625E+02  0.50000000000E+02 0.  0.
<mgrwt>
<rscale>  0 0.52476688E+02</rscale>
<asrwt>0</asrwt>
<pdfrwt beam="1">  1       13 0.10000000E+01 0.52476688E+02</pdfrwt>
<pdfrwt beam="2">  1       22 0.13931187E+00 0.52476688E+02</pdfrwt>
<totfact> 0.85088248E-01</totfact>
</mgrwt>
</event>
<event>
 4    1  0.2471347E+000  0.5334075E+02  0.7957747E-01  0.1428113E+00
         13   -1    0    0    0    0  0.00000000000E+00  0.00000000000E+00  0.99999944187E+02  0.10000000001E+03  0.10566000000E+00 0.  1.
         22   -1    0    0    0    0 -0.00000000000E+00 -0.00000000000E+00 -0.26985855569E+02  0.26985855569E+02  0.00000000000E+00 0. -1.
         13    1    1    2    0    0  0.25797091016E+01  0.18400564246E+02 -0.15127903846E+02  0.23960390282E+02  0.10566000000E+00 0. -1.
        996    1    1    2    0    0 -0.25797091016E+01 -0.18400564246E+02  0.88141992464E+02  0.10302546529E+03  0.50000000000E+02 0.  0.
<mgrwt>
<rscale>  0 0.53340750E+02</rscale>
<asrwt>0</asrwt>
<pdfrwt beam="1">  1       13 0.10000000E+01 0.53340750E+02</pdfrwt>
<pdfrwt beam="2">  1       22 0.26985876E+00 0.53340750E+02</pdfrwt>
<totfact> 0.25417977E-01</totfact>
</mgrwt>
</event>
<event>
 4    1  0.2471347E+000  0.5597950E+02  0.7957747E-01  0.1415523E+00
         13   -1    0    0    0    0  0.00000000000E+00  0.00000000000E+00  0.99999944173E+02  0.99999999993E+02  0.10566000000E+00 0.  1.
         22   -1    0    0    0    0 -0.00000000000E+00 -0.00000000000E+00 -0.20829669376E+02  0.20829669376E+02  0.00000000000E+00 0.  1.
         13    1    1    2    0    0  0.24994963425E+02  0.29927109457E+01  0.16736340875E+01  0.25229283195E+02  0.10566000000E+00 0. -1.
        996    1    1    2    0    0 -0.24994963425E+02 -0.29927109457E+01  0.77496640709E+02  0.95600386174E+02  0.50000000000E+02 0.  0.
<mgrwt>
<rscale>  0 0.55979501E+02</rscale>
<asrwt>0</asrwt>
<pdfrwt beam="1">  1       13 0.10000000E+01 0.55979501E+02</pdfrwt>
<pdfrwt beam="2">  1       22 0.20829691E+00 0.55979501E+02</pdfrwt>
<totfact> 0.42260361E-01</totfact>
</mgrwt>
</event>
<event>
 4    1  0.2471347E+000  0.5108571E+02  0.7957747E-01  0.1439572E+00
         13   -1    0    0    0    0  0.00000000000E+00  0.00000000000E+00  0.99999944184E+02  0.10000000000E+03  0.10566000000E+00 0. -1.
         22   -1    0    0    0    0 -0.00000000000E+00 -0.00000000000E+00 -0.12669922910E+02  0.12669922910E+02  0.00000000000E+00 0. -1.
         13    1    1    2    0    0  0.37087779571E+00  0.10469565346E+02 -0.11104729580E+01  0.10535353013E+02  0.10566000000E+00 0.  1.
        996    1    1    2    0    0 -0.37087779571E+00 -0.10469565346E+02  0.88440494233E+02  0.10213456990E+03  0.50000000000E+02 0.  0.
<mgrwt>
<rscale>  0 0.51085706E+02</rscale>
<asrwt>0</asrwt>
<pdfrwt beam="1">  1       13 0.10000000E+01 0.51085706E+02</pdfrwt>
<pdfrwt beam="2">  1       22 0.12669947E+00 0.51085706E+02</pdfrwt>
<totfact> 0.98633974E-01</totfact>
</mgrwt>
</event>
<event>
 4    1  0.2471347E+000  0.5158776E+02  0.7957747E-01  0.1436961E+00
         13   -1    0    0    0    0  0.00000000000E+00  0.00000000000E+00  0.99999944176E+02  0.99999999996E+02  0.10566000000E+00 0. -1.
         22   -1    0    0    0    0 -0.00000000000E+00 -0.00000000000E+00 -0.15408727384E+02  0.15408727384E+02  0.00000000000E+00 0.  1.
         13    1    1    2    0    0  0.93611724206E+01 -0.85828684780E+01 -0.36319150118E+01  0.13209812682E+02  0.10566000000E+00 0.  1.
        996    1    1    2    0    0 -0.93611724206E+01  0.85828684780E+01  0.88223131803E+02  0.10219891470E+03  0.50000000000E+02 0.  0.
<mgrwt>
<rscale>  0 0.51587762E+02</rscale>
<asrwt>0</asrwt>
<pdfrwt beam="1">  1       13 0.10000000E+01 0.51587762E+02</pdfrwt>
<pdfrwt beam="2">  1       22 0.15408751E+00 0.51587762E+02</pdfrwt>
<totfact> 0.71918803E-01</totfact>
</mgrwt>
</event>
<event>
 4    1  0.2471347E+000  0.5100150E+02  0.7957747E-01  0.1440013E+00
         13   -1    0    0    0    0  0.00000000000E+00  0.00000000000E+00  0.99999944184E+02  0.10000000000E+03  0.10566000000E+00 0. -1.
         22   -1    0    0    0    0 -0.00000000000E+00 -0.00000000000E+00 -0.94563338888E+01  0.94563338888E+01  0.00000000000E+00 0.  1.
         13    1    1    2    0    0 -0.77631689298E+01  0.63942597225E+01  0.10458596685E+02  0.14510229422E+02  0.10566000000E+00 0.  1.
        996    1    1    2    0    0  0.77631689298E+01 -0.63942597225E+01  0.80085013610E+02  0.94946104471E+02  0.50000000000E+02 0.  0.
<mgrwt>
<rscale>  0 0.51001503E+02</rscale>
<asrwt>0</asrwt>
<pdfrwt beam="1">  1       13 0.10000000E+01 0.51001503E+02</pdfrwt>
<pdfrwt beam="2">  1       22 0.94563592E-01 0.51001503E+02</pdfrwt>
<totfact> 0.15240385E+00</totfact>
</mgrwt>
</event>
<event>
 4    1  0.2471347E+000  0.5159186E+02  0.7957747E-01  0.1436940E+00
         13   -1    0    0    0    0  0.00000000000E+00  0.00000000000E+00  0.99999944179E+02  0.99999999999E+02  0.10566000000E+00 0.  1.
         22   -1    0    0    0    0 -0.00000000000E+00 -0.00000000000E+00 -0.16719334709E+02  0.16719334709E+02  0.00000000000E+00 0. -1.
         13    1    1    2    0    0 -0.12716669051E+02  0.79016200240E-01 -0.56429707263E+01  0.13913094479E+02  0.10566000000E+00 0. -1.
        996    1    1    2    0    0  0.12716669051E+02 -0.79016200240E-01  0.88923580196E+02  0.10280624023E+03  0.50000000000E+02 0.  0.
<mgrwt>
<rscale>  0 0.51591859E+02</rscale>
<asrwt>0</asrwt>
<pdfrwt beam="1">  1       13 0.10000000E+01 0.51591859E+02</pdfrwt>
<pdfrwt beam="2">  1       22 0.16719358E+00 0.51591859E+02</pdfrwt>
<totfact> 0.62541859E-01</totfact>
</mgrwt>
</event>
<event>
 4    1  0.2471347E+000  0.5125173E+02  0.7957747E-01  0.1438705E+00
         13   -1    0    0    0    0  0.00000000000E+00  0.00000000000E+00  0.99999944178E+02  0.99999999999E+02  0.10566000000E+00 0. -1.
         22   -1    0    0    0    0 -0.00000000000E+00 -0.00000000000E+00 -0.10768355318E+02  0.10768355318E+02  0.00000000000E+00 0. -1.
         13    1    1    2    0    0  0.10731549644E+02  0.34020102262E+01  0.53414859630E+01  0.12461238609E+02  0.10566000000E+00 0.  1.
        996    1    1    2    0    0 -0.10731549644E+02 -0.34020102262E+01  0.83890102897E+02  0.98307116708E+02  0.50000000000E+02 0.  0.
<mgrwt>
<rscale>  0 0.51251730E+02</rscale>
<asrwt>0</asrwt>
<pdfrwt beam="1">  1       13 0.10000000E+01 0.51251730E+02</pdfrwt>
<pdfrwt beam="2">  1       22 0.10768380E+00 0.51251730E+02</pdfrwt>
<totfact> 0.12628181E+00</totfact>
</mgrwt>
</event>
<event>
 4    1  0.2471347E+000  0.5420914E+02  0.7957747E-01  0.1423876E+00
         13   -1    0    0    0    0  0.00000000000E+00  0.00000000000E+00  0.99999944179E+02  0.99999999999E+02  0.10566000000E+00 0. -1.
         22   -1    0    0    0    0 -0.00000000000E+00 -0.00000000000E+00 -0.29902275574E+02  0.29902275574E+02  0.00000000000E+00 0.  1.
         13    1    1    2    0    0 -0.11257269548E+02  0.17660814513E+02 -0.17227928275E+02  0.27119055360E+02  0.10566000000E+00 0.  1.
        996    1    1    2    0    0  0.11257269548E+02 -0.17660814513E+02  0.87325596880E+02  0.10278322021E+03  0.50000000000E+02 0.  0.
<mgrwt>
<rscale>  0 0.54209137E+02</rscale>
<asrwt>0</asrwt>
<pdfrwt beam="1">  1       13 0.10000000E+01 0.54209137E+02</pdfrwt>
<pdfrwt beam="2">  1       22 0.29902295E+00 0.54209137E+02</pdfrwt>
<totfact> 0.20889626E-01</totfact>
</mgrwt>
</event>
<event>
 4    1  0.2471347E+000  0.5170777E+02  0.7957747E-01  0.1436342E+00
         13   -1    0    0    0    0  0.00000000000E+00  0.00000000000E+00  0.99999944179E+02  0.99999999999E+02  0.10566000000E+00 0.  1.
         22   -1    0    0    0    0 -0.00000000000E+00 -0.00000000000E+00 -0.11894141281E+02  0.11894141281E+02  0.00000000000E+00 0.  1.
         13    1    1    2    0    0  0.78549859990E+01  0.10582639487E+02  0.51655334939E+01  0.14155810251E+02  0.10566000000E+00 0. -1.
        996    1    1    2    0    0 -0.78549859990E+01 -0.10582639487E+02  0.82940269404E+02  0.97738331029E+02  0.50000000000E+02 0.  0.
<mgrwt>
<rscale>  0 0.51707766E+02</rscale>
<asrwt>0</asrwt>
<pdfrwt beam="1">  1       13 0.10000000E+01 0.51707766E+02</pdfrwt>
<pdfrwt beam="2">  1       22 0.11894166E+00 0.51707766E+02</pdfrwt>
<totfact> 0.10888909E+00</totfact>
</mgrwt>
</event>
<event>
 4    1  0.2471347E+000  0.5142569E+02  0.7957747E-01  0.1437800E+00
         13   -1    0    0    0    0  0.00000000000E+00  0.00000000000E+00  0.99999944178E+02  0.99999999998E+02  0.10566000000E+00 0.  1.
         22   -1    0    0    0    0 -0.00000000000E+00 -0.00000000000E+00 -0.17984343031E+02  0.17984343031E+02  0.00000000000E+00 0. -1.
         13    1    1    2    0    0 -0.11814577066E+02 -0.22400269280E+01 -0.79092740969E+01  0.14393391979E+02  0.10566000000E+00 0. -1.
        996    1    1    2    0    0  0.11814577066E+02  0.22400269280E+01  0.89924875244E+02  0.10359095105E+03  0.50000000000E+02 0.  0.
<mgrwt>
<rscale>  0 0.51425693E+02</rscale>
<asrwt>0</asrwt>
<pdfrwt beam="1">  1       13 0.10000000E+01 0.51425693E+02</pdfrwt>
<pdfrwt beam="2">  1       22 0.17984366E+00 0.51425693E+02</pdfrwt>
<totfact> 0.54966138E-01</totfact>
</mgrwt>
</event>
<event>
 4    1  0.2471347E+000  0.5196461E+02  0.7957747E-01  0.1435024E+00
         13   -1    0    0    0    0  0.00000000000E+00  0.00000000000E+00  0.99999944181E+02  0.10000000000E+03  0.10566000000E+00 0. -1.
         22   -1    0    0    0    0 -0.00000000000E+00 -0.00000000000E+00 -0.31435579539E+02  0.31435579539E+02  0.00000000000E+00 0.  1.
         13    1    1    2    0    0  0.12181644966E+02 -0.72061577179E+01 -0.22503653168E+02  0.26584709009E+02  0.10566000000E+00 0.  1.
        996    1    1    2    0    0 -0.12181644966E+02  0.72061577179E+01  0.91068017810E+02  0.10485087053E+03  0.50000000000E+02 0.  0.
<mgrwt>
<rscale>  0 0.51964615E+02</rscale>
<asrwt>0</asrwt>
<pdfrwt beam="1">  1       13 0.10000000E+01 0.51964615E+02</pdfrwt>
<pdfrwt beam="2">  1       22 0.31435599E+00 0.51964615E+02</pdfrwt>
<totfact> 0.18996886E-01</totfact>
</mgrwt>
</event>
<event>
 4    1  0.2471347E+000  0.5420501E+02  0.7957747E-01  0.1423896E+00
         13   -1    0    0    0    0  0.00000000000E+00  0.00000000000E+00  0.99999944183E+02  0.10000000000E+03  0.10566000000E+00 0. -1.
         22   -1    0    0    0    0 -0.00000000000E+00 -0.00000000000E+00 -0.71495677039E+02  0.71495677039E+02  0.00000000000E+00 0.  1.
         13    1    1    2    0    0 -0.18331784721E+02 -0.10105875217E+02 -0.62311271077E+02  0.65733467216E+02  0.10566000000E+00 0.  1.
        996    1    1    2    0    0  0.18331784721E+02  0.10105875217E+02  0.90815538221E+02  0.10576220983E+03  0.50000000000E+02 0.  0.
<mgrwt>
<rscale>  0 0.54205009E+02</rscale>
<asrwt>0</asrwt>
<pdfrwt beam="1">  1       13 0.10000000E+01 0.54205009E+02</pdfrwt>
<pdfrwt beam="2">  1       22 0.71495685E+00 0.54205009E+02</pdfrwt>
<totfact> 0.66756967E-02</totfact>
</mgrwt>
</event>
<event>
 4    1  0.2471347E+000  0.5434826E+02  0.7957747E-01  0.1423206E+00
         13   -1    0    0    0    0  0.00000000000E+00  0.00000000000E+00  0.99999944182E+02  0.10000000000E+03  0.10566000000E+00 0.  1.
         22   -1    0    0    0    0 -0.00000000000E+00 -0.00000000000E+00 -0.21997038935E+02  0.21997038935E+02  0.00000000000E+00 0. -1.
         13    1    1    2    0    0  0.15759329669E+02 -0.14330989037E+02 -0.58335684879E+01  0.22085637952E+02  0.10566000000E+00 0. -1.
        996    1    1    2    0    0 -0.15759329669E+02  0.14330989037E+02  0.83836473736E+02  0.99911400985E+02  0.50000000000E+02 0.  0.
<mgrwt>
<rscale>  0 0.54348263E+02</rscale>
<asrwt>0</asrwt>
<pdfrwt beam="1">  1       13 0.10000000E+01 0.54348263E+02</pdfrwt>
<pdfrwt beam="2">  1       22 0.21997061E+00 0.54348263E+02</pdfrwt>
<totfact> 0.37979128E-01</totfact>
</mgrwt>
</event>
<event>
 4    1  0.2471347E+000  0.5158163E+02  0.7957747E-01  0.1436993E+00
         13   -1    0    0    0    0  0.00000000000E+00  0.00000000000E+00  0.99999944184E+02  0.10000000000E+03  0.10566000000E+00 0. -1.
         22   -1    0    0    0    0 -0.00000000000E+00 -0.00000000000E+00 -0.23596527857E+02  0.23596527857E+02  0.00000000000E+00 0.  1.
         13    1    1    2    0    0 -0.11974582458E+02 -0.41562496944E+01 -0.14388159798E+02  0.19175383776E+02  0.10566000000E+00 0.  1.
        996    1    1    2    0    0  0.11974582458E+02  0.41562496944E+01  0.90791576125E+02  0.10442114408E+03  0.50000000000E+02 0.  0.
<mgrwt>
<rscale>  0 0.51581635E+02</rscale>
<asrwt>0</asrwt>
<pdfrwt beam="1">  1       13 0.10000000E+01 0.51581635E+02</pdfrwt>
<pdfrwt beam="2">  1       22 0.23596549E+00 0.51581635E+02</pdfrwt>
<totfact> 0.32994056E-01</totfact>
</mgrwt>
</event>
<event>
 4    1  0.2471347E+000  0.5221290E+02  0.7957747E-01  0.1433759E+00
         13   -1    0    0    0    0  0.00000000000E+00  0.00000000000E+00  0.99999944180E+02  0.10000000000E+03  0.10566000000E+00 0.  1.
         22   -1    0    0    0    0 -0.00000000000E+00 -0.00000000000E+00 -0.20573073908E+02  0.20573073908E+02  0.00000000000E+00 0. -1.
         13    1    1    2    0    0 -0.14996767165E+02  0.11330319875E+01 -0.92570043251E+01  0.17660409961E+02  0.10566000000E+00 0. -1.
        996    1    1    2    0    0  0.14996767165E+02 -0.11330319875E+01  0.88683874597E+02  0.10291266395E+03  0.50000000000E+02 0.  0.
<mgrwt>
<rscale>  0 0.52212899E+02</rscale>
<asrwt>0</asrwt>
<pdfrwt beam="1">  1       13 0.10000000E+01 0.52212899E+02</pdfrwt>
<pdfrwt beam="2">  1       22 0.20573096E+00 0.52212899E+02</pdfrwt>
<totfact> 0.42987029E-01</totfact>
</mgrwt>
</event>
<event>
 4    1  0.2471347E+000  0.6337559E+02  0.7957747E-01  0.1384188E+00
         13   -1    0    0    0    0  0.00000000000E+00  0.00000000000E+00  0.99999944177E+02  0.99999999997E+02  0.10566000000E+00 0. -1.
         22   -1    0    0    0    0 -0.00000000000E+00 -0.00000000000E+00 -0.42763998627E+02  0.42763998627E+02  0.00000000000E+00 0.  1.
         13    1    1    2    0    0  0.25518966147E+02  0.29415100917E+02 -0.19244512728E+02  0.43437636093E+02  0.10566000000E+00 0.  1.
        996    1    1    2    0    0 -0.25518966147E+02 -0.29415100917E+02  0.76480458279E+02  0.99326362531E+02  0.50000000000E+02 0.  0.
<mgrwt>
<rscale>  0 0.63375593E+02</rscale>
<asrwt>0</asrwt>
<pdfrwt beam="1">  1       13 0.10000000E+01 0.63375593E+02</pdfrwt>
<pdfrwt beam="2">  1       22 0.42764015E+00 0.63375593E+02</pdfrwt>
<totfact> 0.10896833E-01</totfact>
</mgrwt>
</event>
<event>
 4    1  0.2471347E+000  0.5332527E+02  0.7957747E-01  0.1428189E+00
         13   -1    0    0    0    0  0.00000000000E+00  0.00000000000E+00  0.99999944183E+02  0.10000000000E+03  0.10566000000E+00 0. -1.
         22   -1    0    0    0    0 -0.00000000000E+00 -0.00000000000E+00 -0.54283681760E+02  0.54283681760E+02  0.00000000000E+00 0.  1.
         13    1    1    2    0    0 -0.17919634507E+02  0.47403913775E+01 -0.45216538090E+02  0.48868508185E+02  0.10566000000E+00 0.  1.
        996    1    1    2    0    0  0.17919634507E+02 -0.47403913775E+01  0.90932800514E+02  0.10541517358E+03  0.50000000000E+02 0.  0.
<mgrwt>
<rscale>  0 0.53325272E+02</rscale>
<asrwt>0</asrwt>
<pdfrwt beam="1">  1       13 0.10000000E+01 0.53325272E+02</pdfrwt>
<pdfrwt beam="2">  1       22 0.54283695E+00 0.53325272E+02</pdfrwt>
<totfact> 0.60134800E-02</totfact>
</mgrwt>
</event>
<event>
 4    1  0.2471347E+000  0.5212020E+02  0.7957747E-01  0.1434230E+00
         13   -1    0    0    0    0  0.00000000000E+00  0.00000000000E+00  0.99999944180E+02  0.10000000000E+03  0.10566000000E+00 0.  1.
         22   -1    0    0    0    0 -0.00000000000E+00 -0.00000000000E+00 -0.24301383265E+02  0.24301383265E+02  0.00000000000E+00 0. -1.
         13    1    1    2    0    0  0.11850337961E+02  0.87226603044E+01 -0.14159945265E+02  0.20421325288E+02  0.10566000000E+00 0. -1.
        996    1    1    2    0    0 -0.11850337961E+02 -0.87226603044E+01  0.89858506180E+02  0.10388005798E+03  0.50000000000E+02 0.  0.
<mgrwt>
<rscale>  0 0.52120201E+02</rscale>
<asrwt>0</asrwt>
<pdfrwt beam="1">  1       13 0.10000000E+01 0.52120201E+02</pdfrwt>
<pdfrwt beam="2">  1       22 0.24301404E+00 0.52120201E+02</pdfrwt>
<totfact> 0.31173610E-01</totfact>
</mgrwt>
</event>
<event>
 4    1  0.2471347E+000  0.5107095E+02  0.7957747E-01  0.1439649E+00
         13   -1    0    0    0    0  0.00000000000E+00  0.00000000000E+00  0.99999944181E+02  0.10000000000E+03  0.10566000000E+00 0. -1.
         22   -1    0    0    0    0 -0.00000000000E+00 -0.00000000000E+00 -0.12738823809E+02  0.12738823809E+02  0.00000000000E+00 0.  1.
         13    1    1    2    0    0 -0.16206486166E+01  0.10276957854E+02 -0.13219481273E+01  0.10488139757E+02  0.10566000000E+00 0.  1.
        996    1    1    2    0    0  0.16206486166E+01 -0.10276957854E+02  0.88583068499E+02  0.10225068405E+03  0.50000000000E+02 0.  0.
<mgrwt>
<rscale>  0 0.51070954E+02</rscale>
<asrwt>0</asrwt>
<pdfrwt beam="1">  1       13 0.10000000E+01 0.51070954E+02</pdfrwt>
<pdfrwt beam="2">  1       22 0.12738848E+00 0.51070954E+02</pdfrwt>
<totfact> 0.97798876E-01</totfact>
</mgrwt>
</event>
<event>
 4    1  0.2471347E+000  0.5326976E+02  0.7957747E-01  0.1428463E+00
         13   -1    0    0    0    0  0.00000000000E+00  0.00000000000E+00  0.99999944182E+02  0.10000000000E+03  0.10566000000E+00 0.  1.
         22   -1    0    0    0    0 -0.00000000000E+00 -0.00000000000E+00 -0.14245883803E+02  0.14245883803E+02  0.00000000000E+00 0.  1.
         13    1    1    2    0    0  0.16576950303E+02 -0.79291826622E+01  0.40019494367E+02  0.44036783630E+02  0.10566000000E+00 0. -1.
        996    1    1    2    0    0 -0.16576950303E+02  0.79291826622E+01  0.45734566012E+02  0.70209100174E+02  0.50000000000E+02 0.  0.
<mgrwt>
<rscale>  0 0.53269759E+02</rscale>
<asrwt>0</asrwt>
<pdfrwt beam="1">  1       13 0.10000000E+01 0.53269759E+02</pdfrwt>
<pdfrwt beam="2">  1       22 0.14245908E+00 0.53269759E+02</pdfrwt>
<totfact> 0.82188383E-01</totfact>
</mgrwt>
</event>
<event>
 4    1  0.2471347E+000  0.5102291E+02  0.7957747E-01  0.1439901E+00
         13   -1    0    0    0    0  0.00000000000E+00  0.00000000000E+00  0.99999944178E+02  0.99999999999E+02  0.10566000000E+00 0. -1.
         22   -1    0    0    0    0 -0.00000000000E+00 -0.00000000000E+00 -0.14326383257E+02  0.14326383257E+02  0.00000000000E+00 0.  1.
         13    1    1    2    0    0 -0.38401128857E+01 -0.94122993968E+01 -0.41839462280E+01  0.10993380599E+02  0.10566000000E+00 0.  1.
        996    1    1    2    0    0  0.38401128857E+01  0.94122993968E+01  0.89857507150E+02  0.10333300266E+03  0.50000000000E+02 0.  0.
<mgrwt>
<rscale>  0 0.51022915E+02</rscale>
<asrwt>0</asrwt>
<pdfrwt beam="1">  1       13 0.10000000E+01 0.51022915E+02</pdfrwt>
<pdfrwt beam="2">  1       22 0.14326407E+00 0.51022915E+02</pdfrwt>
<totfact> 0.81055881E-01</totfact>
</mgrwt>
</event>
<event>
 4    1  0.2471347E+000  0.5679121E+02  0.7957747E-01  0.1411813E+00
         13   -1    0    0    0    0  0.00000000000E+00  0.00000000000E+00  0.99999944184E+02  0.10000000000E+03  0.10566000000E+00 0.  1.
         22   -1    0    0    0    0 -0.00000000000E+00 -0.00000000000E+00 -0.18748382322E+02  0.18748382322E+02  0.00000000000E+00 0. -1.
         13    1    1    2    0    0  0.18375044329E+02  0.19687529560E+02  0.12836108742E+02  0.29833168218E+02  0.10566000000E+00 0. -1.
        996    1    1    2    0    0 -0.18375044329E+02 -0.19687529560E+02  0.68415453119E+02  0.88915214107E+02  0.50000000000E+02 0.  0.
<mgrwt>
<rscale>  0 0.56791206E+02</rscale>
<asrwt>0</asrwt>
<pdfrwt beam="1">  1       13 0.10000000E+01 0.56791206E+02</pdfrwt>
<pdfrwt beam="2">  1       22 0.18748405E+00 0.56791206E+02</pdfrwt>
<totfact> 0.51474724E-01</totfact>
</mgrwt>
</event>
<event>
 4    1  0.2471347E+000  0.5324226E+02  0.7957747E-01  0.1428599E+00
         13   -1    0    0    0    0  0.00000000000E+00  0.00000000000E+00  0.99999944176E+02  0.99999999996E+02  0.10566000000E+00 0. -1.
         22   -1    0    0    0    0 -0.00000000000E+00 -0.00000000000E+00 -0.27244618214E+02  0.27244618214E+02  0.00000000000E+00 0.  1.
         13    1    1    2    0    0  0.17988675940E+02  0.33385908584E+01 -0.15628910765E+02  0.24062682035E+02  0.10566000000E+00 0.  1.
        996    1    1    2    0    0 -0.17988675940E+02 -0.33385908584E+01  0.88384236727E+02  0.10318193617E+03  0.50000000000E+02 0.  0.
<mgrwt>
<rscale>  0 0.53242264E+02</rscale>
<asrwt>0</asrwt>
<pdfrwt beam="1">  1       13 0.10000000E+01 0.53242264E+02</pdfrwt>
<pdfrwt beam="2">  1       22 0.27244639E+00 0.53242264E+02</pdfrwt>
<totfact> 0.24944639E-01</totfact>
</mgrwt>
</event>
<event>
 4    1  0.2471347E+000  0.6901934E+02  0.7957747E-01  0.1363460E+00
         13   -1    0    0    0    0  0.00000000000E+00  0.00000000000E+00  0.99999944176E+02  0.99999999996E+02  0.10566000000E+00 0. -1.
         22   -1    0    0    0    0 -0.00000000000E+00 -0.00000000000E+00 -0.54547431220E+02  0.54547431220E+02  0.00000000000E+00 0.  1.
         13    1    1    2    0    0 -0.44546710373E+02  0.16711050945E+02 -0.26816502178E+02  0.54615058197E+02  0.10566000000E+00 0.  1.
        996    1    1    2    0    0  0.44546710373E+02 -0.16711050945E+02  0.72269015134E+02  0.99932373019E+02  0.50000000000E+02 0.  0.
<mgrwt>
<rscale>  0 0.69019335E+02</rscale>
<asrwt>0</asrwt>
<pdfrwt beam="1">  1       13 0.10000000E+01 0.69019335E+02</pdfrwt>
<pdfrwt beam="2">  1       22 0.54547444E+00 0.69019335E+02</pdfrwt>
<totfact> 0.60017362E-02</totfact>
</mgrwt>
</event>
<event>
 4    1  0.2471347E+000  0.5106815E+02  0.7957747E-01  0.1439664E+00
         13   -1    0    0    0    0  0.00000000000E+00  0.00000000000E+00  0.99999944178E+02  0.99999999999E+02  0.10566000000E+00 0.  1.
         22   -1    0    0    0    0 -0.00000000000E+00 -0.00000000000E+00 -0.12564051347E+02  0.12564051347E+02  0.00000000000E+00 0. -1.
         13    1    1    2    0    0  0.85683911123E+01  0.58769816743E+01 -0.10036378243E+01  0.10439094442E+02  0.10566000000E+00 0. -1.
        996    1    1    2    0    0 -0.85683911123E+01 -0.58769816743E+01  0.88439530656E+02  0.10212495690E+03  0.50000000000E+02 0.  0.
<mgrwt>
<rscale>  0 0.51068153E+02</rscale>
<asrwt>0</asrwt>
<pdfrwt beam="1">  1       13 0.10000000E+01 0.51068153E+02</pdfrwt>
<pdfrwt beam="2">  1       22 0.12564076E+00 0.51068153E+02</pdfrwt>
<totfact> 0.99927926E-01</totfact>
</mgrwt>
</event>
<event>
 4    1  0.2471347E+000  0.5590104E+02  0.7957747E-01  0.1415885E+00
         13   -1    0    0    0    0  0.00000000000E+00  0.00000000000E+00  0.99999944167E+02  0.99999999987E+02  0.10566000000E+00 0. -1.
         22   -1    0    0    0    0 -0.00000000000E+00 -0.00000000000E+00 -0.17149012661E+02  0.17149012661E+02  0.00000000000E+00 0.  1.
         13    1    1    2    0    0 -0.17233853531E+02 -0.18108564678E+02  0.14685290101E+02  0.28993011772E+02  0.10566000000E+00 0.  1.
        996    1    1    2    0    0  0.17233853531E+02  0.18108564678E+02  0.68165641405E+02  0.88156000876E+02  0.50000000000E+02 0.  0.
<mgrwt>
<rscale>  0 0.55901036E+02</rscale>
<asrwt>0</asrwt>
<pdfrwt beam="1">  1       13 0.10000000E+01 0.55901036E+02</pdfrwt>
<pdfrwt beam="2">  1       22 0.17149036E+00 0.55901036E+02</pdfrwt>
<totfact> 0.60309122E-01</totfact>
</mgrwt>
</event>
<event>
 4    1  0.2471347E+000  0.5358234E+02  0.7957747E-01  0.1426925E+00
         13   -1    0    0    0    0  0.00000000000E+00  0.00000000000E+00  0.99999944186E+02  0.10000000001E+03  0.10566000000E+00 0. -1.
         22   -1    0    0    0    0 -0.00000000000E+00 -0.00000000000E+00 -0.36534675328E+02  0.36534675328E+02  0.00000000000E+00 0.  1.
         13    1    1    2    0    0 -0.73894375316E+01  0.17789412812E+02 -0.25935178682E+02  0.32306526470E+02  0.10566000000E+00 0.  1.
        996    1    1    2    0    0  0.73894375316E+01 -0.17789412812E+02  0.89400447540E+02  0.10422814886E+03  0.50000000000E+02 0.  0.
<mgrwt>
<rscale>  0 0.53582338E+02</rscale>
<asrwt>0</asrwt>
<pdfrwt beam="1">  1       13 0.10000000E+01 0.53582338E+02</pdfrwt>
<pdfrwt beam="2">  1       22 0.36534693E+00 0.53582338E+02</pdfrwt>
<totfact> 0.14600072E-01</totfact>
</mgrwt>
</event>
<event>
 4    1  0.2471347E+000  0.5099255E+02  0.7957747E-01  0.1440060E+00
         13   -1    0    0    0    0  0.00000000000E+00  0.00000000000E+00  0.99999944180E+02  0.10000000000E+03  0.10566000000E+00 0. -1.
         22   -1    0    0    0    0 -0.00000000000E+00 -0.00000000000E+00 -0.28531425624E+02  0.28531425624E+02  0.00000000000E+00 0.  1.
         13    1    1    2    0    0 -0.14386829084E+01  0.99081038661E+01 -0.20814273106E+02  0.23097304165E+02  0.10566000000E+00 0.  1.
        996    1    1    2    0    0  0.14386829084E+01 -0.99081038661E+01  0.92282791662E+02  0.10543412146E+03  0.50000000000E+02 0.  0.
<mgrwt>
<rscale>  0 0.50992552E+02</rscale>
<asrwt>0</asrwt>
<pdfrwt beam="1">  1       13 0.10000000E+01 0.50992552E+02</pdfrwt>
<pdfrwt beam="2">  1       22 0.28531446E+00 0.50992552E+02</pdfrwt>
<totfact> 0.22737882E-01</totfact>
</mgrwt>
</event>
<event>
 4    1  0.2471347E+000  0.6035367E+02  0.7957747E-01  0.1396354E+00
         13   -1    0    0    0    0  0.00000000000E+00  0.00000000000E+00  0.99999944183E+02  0.10000000000E+03  0.10566000000E+00 0.  1.
         22   -1    0    0    0    0 -0.00000000000E+00 -0.00000000000E+00 -0.51348980649E+02  0.51348980649E+02  0.00000000000E+00 0. -1.
         13    1    1    2    0    0  0.74133730693E+00  0.33793727426E+02 -0.34699408726E+02  0.48441983075E+02  0.10566000000E+00 0. -1.
        996    1    1    2    0    0 -0.74133730693E+00 -0.33793727426E+02  0.83350372260E+02  0.10290699758E+03  0.50000000000E+02 0.  0.
<mgrwt>
<rscale>  0 0.60353671E+02</rscale>
<asrwt>0</asrwt>
<pdfrwt beam="1">  1       13 0.10000000E+01 0.60353671E+02</pdfrwt>
<pdfrwt beam="2">  1       22 0.51348994E+00 0.60353671E+02</pdfrwt>
<totfact> 0.68723369E-02</totfact>
</mgrwt>
</event>
<event>
 4    1  0.2471347E+000  0.7619214E+02  0.7957747E-01  0.1340219E+00
         13   -1    0    0    0    0  0.00000000000E+00  0.00000000000E+00  0.99999944176E+02  0.99999999996E+02  0.10566000000E+00 0.  1.
         22   -1    0    0    0    0 -0.00000000000E+00 -0.00000000000E+00 -0.69710051629E+02  0.69710051629E+02  0.00000000000E+00 0. -1.
         13    1    1    2    0    0  0.22230672982E+02 -0.53019234804E+02 -0.36741344531E+02  0.68228876896E+02  0.10566000000E+00 0. -1.
        996    1    1    2    0    0 -0.22230672982E+02  0.53019234804E+02  0.67031237077E+02  0.10148117473E+03  0.50000000000E+02 0.  0.
<mgrwt>
<rscale>  0 0.76192139E+02</rscale>
<asrwt>0</asrwt>
<pdfrwt beam="1">  1       13 0.10000000E+01 0.76192139E+02</pdfrwt>
<pdfrwt beam="2">  1       22 0.69710060E+00 0.76192139E+02</pdfrwt>
<totfact> 0.76081733E-02</totfact>
</mgrwt>
</event>
<event>
 4    1  0.2471347E+000  0.5520964E+02  0.7957747E-01  0.1419110E+00
         13   -1    0    0    0    0  0.00000000000E+00  0.00000000000E+00  0.99999944187E+02  0.10000000001E+03  0.10566000000E+00 0.  1.
         22   -1    0    0    0    0 -0.00000000000E+00 -0.00000000000E+00 -0.17322318351E+02  0.17322318351E+02  0.00000000000E+00 0.  1.
         13    1    1    2    0    0  0.20744182842E+02 -0.10852797989E+02  0.86162668737E+01  0.24947055234E+02  0.10566000000E+00 0. -1.
        996    1    1    2    0    0 -0.20744182842E+02  0.10852797989E+02  0.74061358962E+02  0.92375263124E+02  0.50000000000E+02 0.  0.
<mgrwt>
<rscale>  0 0.55209640E+02</rscale>
<asrwt>0</asrwt>
<pdfrwt beam="1">  1       13 0.10000000E+01 0.55209640E+02</pdfrwt>
<pdfrwt beam="2">  1       22 0.17322341E+00 0.55209640E+02</pdfrwt>
<totfact> 0.59174969E-01</totfact>
</mgrwt>
</event>
<event>
 4    1  0.2471347E+000  0.5115348E+02  0.7957747E-01  0.1439217E+00
         13   -1    0    0    0    0  0.00000000000E+00  0.00000000000E+00  0.99999944177E+02  0.99999999998E+02  0.10566000000E+00 0.  1.
         22   -1    0    0    0    0 -0.00000000000E+00 -0.00000000000E+00 -0.97990623185E+01  0.97990623185E+01  0.00000000000E+00 0.  1.
         13    1    1    2    0    0  0.40889792139E+01 -0.99979627882E+01  0.10296477421E+02  0.14923391781E+02  0.10566000000E+00 0. -1.
        996    1    1    2    0    0 -0.40889792139E+01  0.99979627882E+01  0.79904404438E+02  0.94875670535E+02  0.50000000000E+02 0.  0.
<mgrwt>
<rscale>  0 0.51153485E+02</rscale>
<asrwt>0</asrwt>
<pdfrwt beam="1">  1       13 0.10000000E+01 0.51153485E+02</pdfrwt>
<pdfrwt beam="2">  1       22 0.97990875E-01 0.51153485E+02</pdfrwt>
<totfact> 0.14487528E+00</totfact>
</mgrwt>
</event>
<event>
 4    1  0.2471347E+000  0.5135879E+02  0.7957747E-01  0.1438147E+00
         13   -1    0    0    0    0  0.00000000000E+00  0.00000000000E+00  0.99999944175E+02  0.99999999996E+02  0.10566000000E+00 0.  1.
         22   -1    0    0    0    0 -0.00000000000E+00 -0.00000000000E+00 -0.10501879486E+02  0.10501879486E+02  0.00000000000E+00 0.  1.
         13    1    1    2    0    0 -0.12413028757E+01  0.11669826959E+02  0.81162294169E+01  0.14269198929E+02  0.10566000000E+00 0. -1.
        996    1    1    2    0    0  0.12413028757E+01 -0.11669826959E+02  0.81381835272E+02  0.96232680553E+02  0.50000000000E+02 0.  0.
<mgrwt>
<rscale>  0 0.51358794E+02</rscale>
<asrwt>0</asrwt>
<pdfrwt beam="1">  1       13 0.10000000E+01 0.51358794E+02</pdfrwt>
<pdfrwt beam="2">  1       22 0.10501904E+00 0.51358794E+02</pdfrwt>
<totfact> 0.13106254E+00</totfact>
</mgrwt>
</event>
<event>
 4    1  0.2471347E+000  0.5998213E+02  0.7957747E-01  0.1397907E+00
         13   -1    0    0    0    0  0.00000000000E+00  0.00000000000E+00  0.99999944181E+02  0.10000000000E+03  0.10566000000E+00 0. -1.
         22   -1    0    0    0    0 -0.00000000000E+00 -0.00000000000E+00 -0.25649351266E+02  0.25649351266E+02  0.00000000000E+00 0.  1.
         13    1    1    2    0    0  0.14638889443E+02  0.29724713637E+02  0.42759445582E+01  0.33408839412E+02  0.10566000000E+00 0.  1.
        996    1    1    2    0    0 -0.14638889443E+02 -0.29724713637E+02  0.70074648357E+02  0.92240511856E+02  0.50000000000E+02 0.  0.
<mgrwt>
<rscale>  0 0.59982128E+02</rscale>
<asrwt>0</asrwt>
<pdfrwt beam="1">  1       13 0.10000000E+01 0.59982128E+02</pdfrwt>
<pdfrwt beam="2">  1       22 0.25649372E+00 0.59982128E+02</pdfrwt>
<totfact> 0.28349264E-01</totfact>
</mgrwt>
</event>
<event>
 4    1  0.2471347E+000  0.5206894E+02  0.7957747E-01  0.1434491E+00
         13   -1    0    0    0    0  0.00000000000E+00  0.00000000000E+00  0.99999944175E+02  0.99999999995E+02  0.10566000000E+00 0. -1.
         22   -1    0    0    0    0 -0.00000000000E+00 -0.00000000000E+00 -0.23196221702E+02  0.23196221702E+02  0.00000000000E+00 0.  1.
         13    1    1    2    0    0  0.65295722399E+01 -0.12982269599E+02 -0.12928737064E+02  0.19450913697E+02  0.10566000000E+00 0.  1.
        996    1    1    2    0    0 -0.65295722399E+01  0.12982269599E+02  0.89732459536E+02  0.10374530800E+03  0.50000000000E+02 0.  0.
<mgrwt>
<rscale>  0 0.52068941E+02</rscale>
<asrwt>0</asrwt>
<pdfrwt beam="1">  1       13 0.10000000E+01 0.52068941E+02</pdfrwt>
<pdfrwt beam="2">  1       22 0.23196243E+00 0.52068941E+02</pdfrwt>
<totfact> 0.34141100E-01</totfact>
</mgrwt>
</event>
<event>
 4    1  0.2471347E+000  0.5513516E+02  0.7957747E-01  0.1419461E+00
         13   -1    0    0    0    0  0.00000000000E+00  0.00000000000E+00  0.99999944174E+02  0.99999999994E+02  0.10566000000E+00 0. -1.
         22   -1    0    0    0    0 -0.00000000000E+00 -0.00000000000E+00 -0.42754398840E+02  0.42754398840E+02  0.00000000000E+00 0.  1.
         13    1    1    2    0    0 -0.23161749937E+02 -0.18491407060E+01 -0.30975325729E+02  0.38721672866E+02  0.10566000000E+00 0.  1.
        996    1    1    2    0    0  0.23161749937E+02  0.18491407060E+01  0.88220871062E+02  0.10403272597E+03  0.50000000000E+02 0.  0.
<mgrwt>
<rscale>  0 0.55135161E+02</rscale>
<asrwt>0</asrwt>
<pdfrwt beam="1">  1       13 0.10000000E+01 0.55135161E+02</pdfrwt>
<pdfrwt beam="2">  1       22 0.42754415E+00 0.55135161E+02</pdfrwt>
<totfact> 0.10849188E-01</totfact>
</mgrwt>
</event>
<event>
 4    1  0.2471347E+000  0.5176178E+02  0.7957747E-01  0.1436064E+00
         13   -1    0    0    0    0  0.00000000000E+00  0.00000000000E+00  0.99999944171E+02  0.99999999991E+02  0.10566000000E+00 0. -1.
         22   -1    0    0    0    0 -0.00000000000E+00 -0.00000000000E+00 -0.69484965544E+02  0.69484965544E+02  0.00000000000E+00 0.  1.
         13    1    1    2    0    0 -0.13144393097E+02 -0.25508760622E+01 -0.62024141587E+02  0.63453032569E+02  0.10566000000E+00 0.  1.
        996    1    1    2    0    0  0.13144393097E+02  0.25508760622E+01  0.92539120214E+02  0.10603193297E+03  0.50000000000E+02 0.  0.
<mgrwt>
<rscale>  0 0.51761782E+02</rscale>
<asrwt>0</asrwt>
<pdfrwt beam="1">  1       13 0.10000000E+01 0.51761782E+02</pdfrwt>
<pdfrwt beam="2">  1       22 0.69484974E+00 0.51761782E+02</pdfrwt>
<totfact> 0.77204719E-02</totfact>
</mgrwt>
</event>
<event>
 4    1  0.2471347E+000  0.5140823E+02  0.7957747E-01  0.1437891E+00
         13   -1    0    0    0    0  0.00000000000E+00  0.00000000000E+00  0.99999944184E+02  0.10000000000E+03  0.10566000000E+00 0. -1.
         22   -1    0    0    0    0 -0.00000000000E+00 -0.00000000000E+00 -0.12048350323E+02  0.12048350323E+02  0.00000000000E+00 0. -1.
         13    1    1    2    0    0 -0.11854089384E+02  0.15120432187E+01  0.23247484758E+01  0.12174618242E+02  0.10566000000E+00 0.  1.
        996    1    1    2    0    0  0.11854089384E+02 -0.15120432187E+01  0.85626845385E+02  0.99873732084E+02  0.50000000000E+02 0.  0.
<mgrwt>
<rscale>  0 0.51408226E+02</rscale>
<asrwt>0</asrwt>
<pdfrwt beam="1">  1       13 0.10000000E+01 0.51408226E+02</pdfrwt>
<pdfrwt beam="2">  1       22 0.12048375E+00 0.51408226E+02</pdfrwt>
<totfact> 0.10669159E+00</totfact>
</mgrwt>
</event>
<event>
 4    1  0.2471347E+000  0.5114311E+02  0.7957747E-01  0.1439272E+00
         13   -1    0    0    0    0  0.00000000000E+00  0.00000000000E+00  0.99999944181E+02  0.10000000000E+03  0.10566000000E+00 0.  1.
         22   -1    0    0    0    0 -0.00000000000E+00 -0.00000000000E+00 -0.11769610699E+02  0.11769610699E+02  0.00000000000E+00 0. -1.
         13    1    1    2    0    0 -0.11927493932E+01 -0.10686217542E+02  0.11936848559E+01  0.10819147104E+02  0.10566000000E+00 0. -1.
        996    1    1    2    0    0  0.11927493932E+01  0.10686217542E+02  0.87036648626E+02  0.10095046360E+03  0.50000000000E+02 0.  0.
<mgrwt>
<rscale>  0 0.51143112E+02</rscale>
<asrwt>0</asrwt>
<pdfrwt beam="1">  1       13 0.10000000E+01 0.51143112E+02</pdfrwt>
<pdfrwt beam="2">  1       22 0.11769635E+00 0.51143112E+02</pdfrwt>
<totfact> 0.11050663E+00</totfact>
</mgrwt>
</event>
<event>
 4    1  0.2471347E+000  0.5395561E+02  0.7957747E-01  0.1425103E+00
         13   -1    0    0    0    0  0.00000000000E+00  0.00000000000E+00  0.99999944178E+02  0.99999999998E+02  0.10566000000E+00 0. -1.
         22   -1    0    0    0    0 -0.00000000000E+00 -0.00000000000E+00 -0.15379090854E+02  0.15379090854E+02  0.00000000000E+00 0.  1.
         13    1    1    2    0    0  0.11801125816E+02 -0.16490634229E+02  0.82983874091E+01  0.21910773273E+02  0.10566000000E+00 0.  1.
        996    1    1    2    0    0 -0.11801125816E+02  0.16490634229E+02  0.76322465915E+02  0.93468317579E+02  0.50000000000E+02 0.  0.
<mgrwt>
<rscale>  0 0.53955608E+02</rscale>
<asrwt>0</asrwt>
<pdfrwt beam="1">  1       13 0.10000000E+01 0.53955608E+02</pdfrwt>
<pdfrwt beam="2">  1       22 0.15379114E+00 0.53955608E+02</pdfrwt>
<totfact> 0.72493033E-01</totfact>
</mgrwt>
</event>
<event>
 4    1  0.2471347E+000  0.5136465E+02  0.7957747E-01  0.1438117E+00
         13   -1    0    0    0    0  0.00000000000E+00  0.00000000000E+00  0.99999944175E+02  0.99999999996E+02  0.10566000000E+00 0. -1.
         22   -1    0    0    0    0 -0.00000000000E+00 -0.00000000000E+00 -0.11105654905E+02  0.11105654905E+02  0.00000000000E+00 0. -1.
         13    1    1    2    0    0  0.11546276169E+02  0.22383893549E+01  0.50967167991E+01  0.12818524347E+02  0.10566000000E+00 0.  1.
        996    1    1    2    0    0 -0.11546276169E+02 -0.22383893549E+01  0.83797572471E+02  0.98287130553E+02  0.50000000000E+02 0.  0.
<mgrwt>
<rscale>  0 0.51364646E+02</rscale>
<asrwt>0</asrwt>
<pdfrwt beam="1">  1       13 0.10000000E+01 0.51364646E+02</pdfrwt>
<pdfrwt beam="2">  1       22 0.11105680E+00 0.51364646E+02</pdfrwt>
<totfact> 0.12066112E+00</totfact>
</mgrwt>
</event>
<event>
 4    1  0.2471347E+000  0.5130925E+02  0.7957747E-01  0.1438405E+00
         13   -1    0    0    0    0  0.00000000000E+00  0.00000000000E+00  0.99999944179E+02  0.99999999999E+02  0.10566000000E+00 0. -1.
         22   -1    0    0    0    0 -0.00000000000E+00 -0.00000000000E+00 -0.10497777073E+02  0.10497777073E+02  0.00000000000E+00 0. -1.
         13    1    1    2    0    0  0.11343711382E+02 -0.19898054244E+01  0.74272450581E+01  0.13704533802E+02  0.10566000000E+00 0.  1.
        996    1    1    2    0    0 -0.11343711382E+02  0.19898054244E+01  0.82074922048E+02  0.96793243270E+02  0.50000000000E+02 0.  0.
<mgrwt>
<rscale>  0 0.51309250E+02</rscale>
<asrwt>0</asrwt>
<pdfrwt beam="1">  1       13 0.10000000E+01 0.51309250E+02</pdfrwt>
<pdfrwt beam="2">  1       22 0.10497802E+00 0.51309250E+02</pdfrwt>
<totfact> 0.13112222E+00</totfact>
</mgrwt>
</event>
<event>
 4    1  0.2471347E+000  0.5389601E+02  0.7957747E-01  0.1425393E+00
         13   -1    0    0    0    0  0.00000000000E+00  0.00000000000E+00  0.99999944169E+02  0.99999999989E+02  0.10566000000E+00 0.  1.
         22   -1    0    0    0    0 -0.00000000000E+00 -0.00000000000E+00 -0.34665152275E+02  0.34665152275E+02  0.00000000000E+00 0. -1.
         13    1    1    2    0    0  0.17300107360E+02  0.10270626845E+02 -0.23390532767E+02  0.30853001112E+02  0.10566000000E+00 0. -1.
        996    1    1    2    0    0 -0.17300107360E+02 -0.10270626845E+02  0.88725324661E+02  0.10381215115E+03  0.50000000000E+02 0.  0.
<mgrwt>
<rscale>  0 0.53896006E+02</rscale>
<asrwt>0</asrwt>
<pdfrwt beam="1">  1       13 0.10000000E+01 0.53896006E+02</pdfrwt>
<pdfrwt beam="2">  1       22 0.34665171E+00 0.53896006E+02</pdfrwt>
<totfact> 0.16011325E-01</totfact>
</mgrwt>
</event>
<event>
 4    1  0.2471347E+000  0.5103984E+02  0.7957747E-01  0.1439812E+00
         13   -1    0    0    0    0  0.00000000000E+00  0.00000000000E+00  0.99999944180E+02  0.10000000000E+03  0.10566000000E+00 0.  1.
         22   -1    0    0    0    0 -0.00000000000E+00 -0.00000000000E+00 -0.10009321868E+02  0.10009321868E+02  0.00000000000E+00 0.  1.
         13    1    1    2    0    0  0.92223392654E+01  0.44736261091E+01  0.27348668480E+02  0.29206603770E+02  0.10566000000E+00 0. -1.
        996    1    1    2    0    0 -0.92223392654E+01 -0.44736261091E+01  0.62641953832E+02  0.80802718098E+02  0.50000000000E+02 0.  0.
<mgrwt>
<rscale>  0 0.51039836E+02</rscale>
<asrwt>0</asrwt>
<pdfrwt beam="1">  1       13 0.10000000E+01 0.51039836E+02</pdfrwt>
<pdfrwt beam="2">  1       22 0.10009347E+00 0.51039836E+02</pdfrwt>
<totfact> 0.14046146E+00</totfact>
</mgrwt>
</event>
<event>
 4    1  0.2471347E+000  0.5121748E+02  0.7957747E-01  0.1438883E+00
         13   -1    0    0    0    0  0.00000000000E+00  0.00000000000E+00  0.99999944178E+02  0.99999999998E+02  0.10566000000E+00 0. -1.
         22   -1    0    0    0    0 -0.00000000000E+00 -0.00000000000E+00 -0.20625215002E+02  0.20625215002E+02  0.00000000000E+00 0.  1.
         13    1    1    2    0    0 -0.71913821833E+01 -0.84566323501E+01 -0.11705109486E+02  0.16132307972E+02  0.10566000000E+00 0.  1.
        996    1    1    2    0    0  0.71913821833E+01  0.84566323501E+01  0.91079838662E+02  0.10449290703E+03  0.50000000000E+02 0.  0.
<mgrwt>
<rscale>  0 0.51217483E+02</rscale>
<asrwt>0</asrwt>
<pdfrwt beam="1">  1       13 0.10000000E+01 0.51217483E+02</pdfrwt>
<pdfrwt beam="2">  1       22 0.20625237E+00 0.51217483E+02</pdfrwt>
<totfact> 0.42706817E-01</totfact>
</mgrwt>
</event>
<event>
 4    1  0.2471347E+000  0.5297533E+02  0.7957747E-01  0.1429924E+00
         13   -1    0    0    0    0  0.00000000000E+00  0.00000000000E+00  0.99999944168E+02  0.99999999989E+02  0.10566000000E+00 0. -1.
         22   -1    0    0    0    0 -0.00000000000E+00 -0.00000000000E+00 -0.17930088829E+02  0.17930088829E+02  0.00000000000E+00 0.  1.
         13    1    1    2    0    0  0.11606280485E+02  0.13102667131E+02 -0.29553158467E+01  0.17751920697E+02  0.10566000000E+00 0.  1.
        996    1    1    2    0    0 -0.11606280485E+02 -0.13102667131E+02  0.85025171187E+02  0.10017816812E+03  0.50000000000E+02 0.  0.
<mgrwt>
<rscale>  0 0.52975330E+02</rscale>
<asrwt>0</asrwt>
<pdfrwt beam="1">  1       13 0.10000000E+01 0.52975330E+02</pdfrwt>
<pdfrwt beam="2">  1       22 0.17930112E+00 0.52975330E+02</pdfrwt>
<totfact> 0.55425941E-01</totfact>
</mgrwt>
</event>
<event>
 4    1  0.2471347E+000  0.5367005E+02  0.7957747E-01  0.1426495E+00
         13   -1    0    0    0    0  0.00000000000E+00  0.00000000000E+00  0.99999944179E+02  0.99999999999E+02  0.10566000000E+00 0. -1.
         22   -1    0    0    0    0 -0.00000000000E+00 -0.00000000000E+00 -0.62591187385E+02  0.62591187385E+02  0.00000000000E+00 0.  1.
         13    1    1    2    0    0  0.10996784773E+02 -0.16110398552E+02 -0.53542688633E+02  0.56985128647E+02  0.10566000000E+00 0.  1.
        996    1    1    2    0    0 -0.10996784773E+02  0.16110398552E+02  0.90951445427E+02  0.10560605874E+03  0.50000000000E+02 0.  0.
<mgrwt>
<rscale>  0 0.53670050E+02</rscale>
<asrwt>0</asrwt>
<pdfrwt beam="1">  1       13 0.10000000E+01 0.53670050E+02</pdfrwt>
<pdfrwt beam="2">  1       22 0.62591198E+00 0.53670050E+02</pdfrwt>
<totfact> 0.76395614E-02</totfact>
</mgrwt>
</event>
<event>
 4    1  0.2471347E+000  0.5334942E+02  0.7957747E-01  0.1428070E+00
         13   -1    0    0    0    0  0.00000000000E+00  0.00000000000E+00  0.99999944190E+02  0.10000000001E+03  0.10566000000E+00 0.  1.
         22   -1    0    0    0    0 -0.00000000000E+00 -0.00000000000E+00 -0.17961128958E+02  0.17961128958E+02  0.00000000000E+00 0.  1.
         13    1    1    2    0    0 -0.18379031198E+02 -0.28933949103E+01  0.55179548143E+02  0.58231900357E+02  0.10566000000E+00 0. -1.
        996    1    1    2    0    0  0.18379031198E+02  0.28933949103E+01  0.26859267089E+02  0.59729228611E+02  0.50000000000E+02 0.  0.
<mgrwt>
<rscale>  0 0.53349419E+02</rscale>
<asrwt>0</asrwt>
<pdfrwt beam="1">  1       13 0.10000000E+01 0.53349419E+02</pdfrwt>
<pdfrwt beam="2">  1       22 0.17961152E+00 0.53349419E+02</pdfrwt>
<totfact> 0.55292623E-01</totfact>
</mgrwt>
</event>
<event>
 4    1  0.2471347E+000  0.5242722E+02  0.7957747E-01  0.1432673E+00
         13   -1    0    0    0    0  0.00000000000E+00  0.00000000000E+00  0.99999944172E+02  0.99999999992E+02  0.10566000000E+00 0.  1.
         22   -1    0    0    0    0 -0.00000000000E+00 -0.00000000000E+00 -0.13110796254E+02  0.13110796254E+02  0.00000000000E+00 0. -1.
         13    1    1    2    0    0 -0.15366222294E+02 -0.35344517929E+01  0.63229555500E+01  0.16988350949E+02  0.10566000000E+00 0. -1.
        996    1    1    2    0    0  0.15366222294E+02  0.35344517929E+01  0.80566192368E+02  0.96122445297E+02  0.50000000000E+02 0.  0.
<mgrwt>
<rscale>  0 0.52427218E+02</rscale>
<asrwt>0</asrwt>
<pdfrwt beam="1">  1       13 0.10000000E+01 0.52427218E+02</pdfrwt>
<pdfrwt beam="2">  1       22 0.13110821E+00 0.52427218E+02</pdfrwt>
<totfact> 0.93749792E-01</totfact>
</mgrwt>
</event>
<event>
 4    1  0.2471347E+000  0.5512347E+02  0.7957747E-01  0.1419516E+00
         13   -1    0    0    0    0  0.00000000000E+00  0.00000000000E+00  0.99999944183E+02  0.10000000000E+03  0.10566000000E+00 0.  1.
         22   -1    0    0    0    0 -0.00000000000E+00 -0.00000000000E+00 -0.16026940712E+02  0.16026940712E+02  0.00000000000E+00 0. -1.
         13    1    1    2    0    0  0.22025787556E+02 -0.73117743056E+01  0.14594077455E+02  0.27415244331E+02  0.10566000000E+00 0. -1.
        996    1    1    2    0    0 -0.22025787556E+02  0.73117743056E+01  0.69378926016E+02  0.88611696384E+02  0.50000000000E+02 0.  0.
<mgrwt>
<rscale>  0 0.55123474E+02</rscale>
<asrwt>0</asrwt>
<pdfrwt beam="1">  1       13 0.10000000E+01 0.55123474E+02</pdfrwt>
<pdfrwt beam="2">  1       22 0.16026964E+00 0.55123474E+02</pdfrwt>
<totfact> 0.67736877E-01</totfact>
</mgrwt>
</event>
<event>
 4    1  0.2471347E+000  0.5155238E+02  0.7957747E-01  0.1437144E+00
         13   -1    0    0    0    0  0.00000000000E+00  0.00000000000E+00  0.99999944183E+02  0.10000000000E+03  0.10566000000E+00 0.  1.
         22   -1    0    0    0    0 -0.00000000000E+00 -0.00000000000E+00 -0.10601565833E+02  0.10601565833E+02  0.00000000000E+00 0. -1.
         13    1    1    2    0    0  0.21806141415E+01  0.12364979853E+02  0.10571640552E+02  0.16413974315E+02  0.10566000000E+00 0. -1.
        996    1    1    2    0    0 -0.21806141415E+01 -0.12364979853E+02  0.78826737797E+02  0.94187591521E+02  0.50000000000E+02 0.  0.
<mgrwt>
<rscale>  0 0.51552379E+02</rscale>
<asrwt>0</asrwt>
<pdfrwt beam="1">  1       13 0.10000000E+01 0.51552379E+02</pdfrwt>
<pdfrwt beam="2">  1       22 0.10601591E+00 0.51552379E+02</pdfrwt>
<totfact> 0.12931477E+00</totfact>
</mgrwt>
</event>
<event>
 4    1  0.2471347E+000  0.5658898E+02  0.7957747E-01  0.1412730E+00
         13   -1    0    0    0    0  0.00000000000E+00  0.00000000000E+00  0.99999944180E+02  0.10000000000E+03  0.10566000000E+00 0.  1.
         22   -1    0    0    0    0 -0.00000000000E+00 -0.00000000000E+00 -0.36573336273E+02  0.36573336273E+02  0.00000000000E+00 0. -1.
         13    1    1    2    0    0 -0.24384189243E+02 -0.10379027414E+02 -0.21769185064E+02  0.34296085454E+02  0.10566000000E+00 0. -1.
        996    1    1    2    0    0  0.24384189243E+02  0.10379027414E+02  0.85195792972E+02  0.10227725082E+03  0.50000000000E+02 0.  0.
<mgrwt>
<rscale>  0 0.56588982E+02</rscale>
<asrwt>0</asrwt>
<pdfrwt beam="1">  1       13 0.10000000E+01 0.56588982E+02</pdfrwt>
<pdfrwt beam="2">  1       22 0.36573354E+00 0.56588982E+02</pdfrwt>
<totfact> 0.14612304E-01</totfact>
</mgrwt>
</event>
<event>
 4    1  0.2471347E+000  0.5177443E+02  0.7957747E-01  0.1435999E+00
         13   -1    0    0    0    0  0.00000000000E+00  0.00000000000E+00  0.99999944175E+02  0.99999999995E+02  0.10566000000E+00 0. -1.
         22   -1    0    0    0    0 -0.00000000000E+00 -0.00000000000E+00 -0.12387191333E+02  0.12387191333E+02  0.00000000000E+00 0. -1.
         13    1    1    2    0    0  0.17397823409E+01 -0.13325360522E+02  0.39630145991E+01  0.14011021533E+02  0.10566000000E+00 0.  1.
        996    1    1    2    0    0 -0.17397823409E+01  0.13325360522E+02  0.83649738242E+02  0.98376169796E+02  0.50000000000E+02 0.  0.
<mgrwt>
<rscale>  0 0.51774435E+02</rscale>
<asrwt>0</asrwt>
<pdfrwt beam="1">  1       13 0.10000000E+01 0.51774435E+02</pdfrwt>
<pdfrwt beam="2">  1       22 0.12387216E+00 0.51774435E+02</pdfrwt>
<totfact> 0.10231171E+00</totfact>
</mgrwt>
</event>
<event>
 4    1  0.2471347E+000  0.5137673E+02  0.7957747E-01  0.1438054E+00
         13   -1    0    0    0    0  0.00000000000E+00  0.00000000000E+00  0.99999944176E+02  0.99999999997E+02  0.10566000000E+00 0.  1.
         22   -1    0    0    0    0 -0.00000000000E+00 -0.00000000000E+00 -0.12085438156E+02  0.12085438156E+02  0.00000000000E+00 0. -1.
         13    1    1    2    0    0  0.57774614287E+01 -0.10304834878E+02  0.20019434188E+01  0.11982805344E+02  0.10566000000E+00 0. -1.
        996    1    1    2    0    0 -0.57774614287E+01  0.10304834878E+02  0.85912562602E+02  0.10010263281E+03  0.50000000000E+02 0.  0.
<mgrwt>
<rscale>  0 0.51376733E+02</rscale>
<asrwt>0</asrwt>
<pdfrwt beam="1">  1       13 0.10000000E+01 0.51376733E+02</pdfrwt>
<pdfrwt beam="2">  1       22 0.12085463E+00 0.51376733E+02</pdfrwt>
<totfact> 0.10618214E+00</totfact>
</mgrwt>
</event>
<event>
 4    1  0.2471347E+000  0.5401291E+02  0.7957747E-01  0.1424825E+00
         13   -1    0    0    0    0  0.00000000000E+00  0.00000000000E+00  0.99999944177E+02  0.99999999998E+02  0.10566000000E+00 0.  1.
         22   -1    0    0    0    0 -0.00000000000E+00 -0.00000000000E+00 -0.35607252727E+02  0.35607252727E+02  0.00000000000E+00 0. -1.
         13    1    1    2    0    0 -0.20261649492E+02 -0.26191204519E+01 -0.24309179227E+02  0.31754394827E+02  0.10566000000E+00 0. -1.
        996    1    1    2    0    0  0.20261649492E+02  0.26191204519E+01  0.88701870677E+02  0.10385285790E+03  0.50000000000E+02 0.  0.
<mgrwt>
<rscale>  0 0.54012908E+02</rscale>
<asrwt>0</asrwt>
<pdfrwt beam="1">  1       13 0.10000000E+01 0.54012908E+02</pdfrwt>
<pdfrwt beam="2">  1       22 0.35607271E+00 0.54012908E+02</pdfrwt>
<totfact> 0.15280355E-01</totfact>
</mgrwt>
</event>
<event>
 4    1  0.2471347E+000  0.5589606E+02  0.7957747E-01  0.1415908E+00
         13   -1    0    0    0    0  0.00000000000E+00  0.00000000000E+00  0.99999944183E+02  0.10000000000E+03  0.10566000000E+00 0.  1.
         22   -1    0    0    0    0 -0.00000000000E+00 -0.00000000000E+00 -0.22838871632E+02  0.22838871632E+02  0.00000000000E+00 0. -1.
         13    1    1    2    0    0  0.24088361112E+01  0.24871000628E+02 -0.29433732928E+01  0.25160361166E+02  0.10566000000E+00 0. -1.
        996    1    1    2    0    0 -0.24088361112E+01 -0.24871000628E+02  0.80104445843E+02  0.97678510469E+02  0.50000000000E+02 0.  0.
<mgrwt>
<rscale>  0 0.55896057E+02</rscale>
<asrwt>0</asrwt>
<pdfrwt beam="1">  1       13 0.10000000E+01 0.55896057E+02</pdfrwt>
<pdfrwt beam="2">  1       22 0.22838893E+00 0.55896057E+02</pdfrwt>
<totfact> 0.35403932E-01</totfact>
</mgrwt>
</event>
<event>
 4    1  0.2471347E+000  0.5211402E+02  0.7957747E-01  0.1434262E+00
         13   -1    0    0    0    0  0.00000000000E+00  0.00000000000E+00  0.99999944178E+02  0.99999999998E+02  0.10566000000E+00 0. -1.
         22   -1    0    0    0    0 -0.00000000000E+00 -0.00000000000E+00 -0.16914207225E+02  0.16914207225E+02  0.00000000000E+00 0.  1.
         13    1    1    2    0    0 -0.98007318669E+01 -0.10946071123E+02 -0.41763387369E+01  0.15274939851E+02  0.10566000000E+00 0.  1.
        996    1    1    2    0    0  0.98007318669E+01  0.10946071123E+02  0.87262075690E+02  0.10163926737E+03  0.50000000000E+02 0.  0.
<mgrwt>
<rscale>  0 0.52114017E+02</rscale>
<asrwt>0</asrwt>
<pdfrwt beam="1">  1       13 0.10000000E+01 0.52114017E+02</pdfrwt>
<pdfrwt beam="2">  1       22 0.16914230E+00 0.52114017E+02</pdfrwt>
<totfact> 0.61352851E-01</totfact>
</mgrwt>
</event>
<event>
 4    1  0.2471347E+000  0.7039103E+02  0.7957747E-01  0.1358768E+00
         13   -1    0    0    0    0  0.00000000000E+00  0.00000000000E+00  0.99999944183E+02  0.10000000000E+03  0.10566000000E+00 0.  1.
         22   -1    0    0    0    0 -0.00000000000E+00 -0.00000000000E+00 -0.44440866741E+02  0.44440866741E+02  0.00000000000E+00 0. -1.
         13    1    1    2    0    0 -0.40136131594E+02 -0.29051482854E+02 -0.72833474517E+01  0.50079497097E+02  0.10566000000E+00 0. -1.
        996    1    1    2    0    0  0.40136131594E+02  0.29051482854E+02  0.62842424894E+02  0.94361369648E+02  0.50000000000E+02 0.  0.
<mgrwt>
<rscale>  0 0.70391034E+02</rscale>
<asrwt>0</asrwt>
<pdfrwt beam="1">  1       13 0.10000000E+01 0.70391034E+02</pdfrwt>
<pdfrwt beam="2">  1       22 0.44440882E+00 0.70391034E+02</pdfrwt>
<totfact> 0.10041151E-01</totfact>
</mgrwt>
</event>
<event>
 4    1  0.2471347E+000  0.5121976E+02  0.7957747E-01  0.1438871E+00
         13   -1    0    0    0    0  0.00000000000E+00  0.00000000000E+00  0.99999944178E+02  0.99999999999E+02  0.10566000000E+00 0.  1.
         22   -1    0    0    0    0 -0.00000000000E+00 -0.00000000000E+00 -0.16602961135E+02  0.16602961135E+02  0.00000000000E+00 0. -1.
         13    1    1    2    0    0  0.11102084216E+02 -0.45528376921E+00 -0.66920317136E+01  0.12971430520E+02  0.10566000000E+00 0. -1.
        996    1    1    2    0    0 -0.11102084216E+02  0.45528376921E+00  0.90089014757E+02  0.10363153061E+03  0.50000000000E+02 0.  0.
<mgrwt>
<rscale>  0 0.51219757E+02</rscale>
<asrwt>0</asrwt>
<pdfrwt beam="1">  1       13 0.10000000E+01 0.51219757E+02</pdfrwt>
<pdfrwt beam="2">  1       22 0.16602984E+00 0.51219757E+02</pdfrwt>
<totfact> 0.63258894E-01</totfact>
</mgrwt>
</event>
<event>
 4    1  0.2471347E+000  0.6007174E+02  0.7957747E-01  0.1397531E+00
         13   -1    0    0    0    0  0.00000000000E+00  0.00000000000E+00  0.99999944177E+02  0.99999999997E+02  0.10566000000E+00 0.  1.
         22   -1    0    0    0    0 -0.00000000000E+00 -0.00000000000E+00 -0.32857325614E+02  0.32857325614E+02  0.00000000000E+00 0. -1.
         13    1    1    2    0    0  0.33213708365E+02 -0.23375047303E+01 -0.10294922648E+02  0.34851268959E+02  0.10566000000E+00 0. -1.
        996    1    1    2    0    0 -0.33213708365E+02  0.23375047303E+01  0.77437541211E+02  0.98006056652E+02  0.50000000000E+02 0.  0.
<mgrwt>
<rscale>  0 0.60071743E+02</rscale>
<asrwt>0</asrwt>
<pdfrwt beam="1">  1       13 0.10000000E+01 0.60071743E+02</pdfrwt>
<pdfrwt beam="2">  1       22 0.32857344E+00 0.60071743E+02</pdfrwt>
<totfact> 0.17705206E-01</totfact>
</mgrwt>
</event>
<event>
 4    1  0.2471347E+000  0.5110850E+02  0.7957747E-01  0.1439453E+00
         13   -1    0    0    0    0  0.00000000000E+00  0.00000000000E+00  0.99999944177E+02  0.99999999998E+02  0.10566000000E+00 0.  1.
         22   -1    0    0    0    0 -0.00000000000E+00 -0.00000000000E+00 -0.22893549702E+02  0.22893549702E+02  0.00000000000E+00 0. -1.
         13    1    1    2    0    0  0.21614181814E+00  0.10584506782E+02 -0.14524198971E+02  0.17973369770E+02  0.10566000000E+00 0. -1.
        996    1    1    2    0    0 -0.21614181814E+00 -0.10584506782E+02  0.91630593447E+02  0.10492017993E+03  0.50000000000E+02 0.  0.
<mgrwt>
<rscale>  0 0.51108497E+02</rscale>
<asrwt>0</asrwt>
<pdfrwt beam="1">  1       13 0.10000000E+01 0.51108497E+02</pdfrwt>
<pdfrwt beam="2">  1       22 0.22893571E+00 0.51108497E+02</pdfrwt>
<totfact> 0.34967907E-01</totfact>
</mgrwt>
</event>
<event>
 4    1  0.2471347E+000  0.5137250E+02  0.7957747E-01  0.1438076E+00
         13   -1    0    0    0    0  0.00000000000E+00  0.00000000000E+00  0.99999944185E+02  0.10000000001E+03  0.10566000000E+00 0.  1.
         22   -1    0    0    0    0 -0.00000000000E+00 -0.00000000000E+00 -0.99995024181E+01  0.99995024181E+01  0.00000000000E+00 0.  1.
         13    1    1    2    0    0  0.11772510867E+02 -0.73619488488E+00  0.14777232410E+02  0.18907981298E+02  0.10566000000E+00 0. -1.
        996    1    1    2    0    0 -0.11772510867E+02  0.73619488488E+00  0.75223209356E+02  0.91091521125E+02  0.50000000000E+02 0.  0.
<mgrwt>
<rscale>  0 0.51372502E+02</rscale>
<asrwt>0</asrwt>
<pdfrwt beam="1">  1       13 0.10000000E+01 0.51372502E+02</pdfrwt>
<pdfrwt beam="2">  1       22 0.99995275E-01 0.51372502E+02</pdfrwt>
<totfact> 0.14077521E+00</totfact>
</mgrwt>
</event>
<event>
 4    1  0.2471347E+000  0.5113626E+02  0.7957747E-01  0.1439307E+00
         13   -1    0    0    0    0  0.00000000000E+00  0.00000000000E+00  0.99999944175E+02  0.99999999995E+02  0.10566000000E+00 0.  1.
         22   -1    0    0    0    0 -0.00000000000E+00 -0.00000000000E+00 -0.47485269958E+02  0.47485269958E+02  0.00000000000E+00 0. -1.
         13    1    1    2    0    0 -0.54346622867E+01  0.92402098552E+01 -0.40199291458E+02  0.41604221301E+02  0.10566000000E+00 0. -1.
        996    1    1    2    0    0  0.54346622867E+01 -0.92402098552E+01  0.92713965675E+02  0.10588104865E+03  0.50000000000E+02 0.  0.
<mgrwt>
<rscale>  0 0.51136259E+02</rscale>
<asrwt>0</asrwt>
<pdfrwt beam="1">  1       13 0.10000000E+01 0.51136259E+02</pdfrwt>
<pdfrwt beam="2">  1       22 0.47485285E+00 0.51136259E+02</pdfrwt>
<totfact> 0.84573819E-02</totfact>
</mgrwt>
</event>
<event>
 4    1  0.2471347E+000  0.5268365E+02  0.7957747E-01  0.1431382E+00
         13   -1    0    0    0    0  0.00000000000E+00  0.00000000000E+00  0.99999944181E+02  0.10000000000E+03  0.10566000000E+00 0.  1.
         22   -1    0    0    0    0 -0.00000000000E+00 -0.00000000000E+00 -0.15635896906E+02  0.15635896906E+02  0.00000000000E+00 0. -1.
         13    1    1    2    0    0  0.11757962423E+02  0.11718257608E+02  0.51384091387E+00  0.16608504997E+02  0.10566000000E+00 0. -1.
        996    1    1    2    0    0 -0.11757962423E+02 -0.11718257608E+02  0.83850206362E+02  0.99027391911E+02  0.50000000000E+02 0.  0.
<mgrwt>
<rscale>  0 0.52683653E+02</rscale>
<asrwt>0</asrwt>
<pdfrwt beam="1">  1       13 0.10000000E+01 0.52683653E+02</pdfrwt>
<pdfrwt beam="2">  1       22 0.15635920E+00 0.52683653E+02</pdfrwt>
<totfact> 0.70318002E-01</totfact>
</mgrwt>
</event>
<event>
 4    1  0.2471347E+000  0.5117530E+02  0.7957747E-01  0.1439103E+00
         13   -1    0    0    0    0  0.00000000000E+00  0.00000000000E+00  0.99999944179E+02  0.99999999999E+02  0.10566000000E+00 0.  1.
         22   -1    0    0    0    0 -0.00000000000E+00 -0.00000000000E+00 -0.54461529875E+02  0.54461529875E+02  0.00000000000E+00 0. -1.
         13    1    1    2    0    0  0.10696134826E+02  0.21222955818E+01 -0.47252335886E+02  0.48494389876E+02  0.10566000000E+00 0. -1.
        996    1    1    2    0    0 -0.10696134826E+02 -0.21222955818E+01  0.92790750189E+02  0.10596714000E+03  0.50000000000E+02 0.  0.
<mgrwt>
<rscale>  0 0.51175301E+02</rscale>
<asrwt>0</asrwt>
<pdfrwt beam="1">  1       13 0.10000000E+01 0.51175301E+02</pdfrwt>
<pdfrwt beam="2">  1       22 0.54461543E+00 0.51175301E+02</pdfrwt>
<totfact> 0.59833690E-02</totfact>
</mgrwt>
</event>
<event>
 4    1  0.2471347E+000  0.6516445E+02  0.7957747E-01  0.1377354E+00
         13   -1    0    0    0    0  0.00000000000E+00  0.00000000000E+00  0.99999944190E+02  0.10000000001E+03  0.10566000000E+00 0. -1.
         22   -1    0    0    0    0 -0.00000000000E+00 -0.00000000000E+00 -0.41335737197E+02  0.41335737197E+02  0.00000000000E+00 0.  1.
         13    1    1    2    0    0 -0.19117630984E+02 -0.37160761429E+02 -0.13677839760E+02  0.43971587065E+02  0.10566000000E+00 0.  1.
        996    1    1    2    0    0  0.19117630984E+02  0.37160761429E+02  0.72342046753E+02  0.97364150142E+02  0.50000000000E+02 0.  0.
<mgrwt>
<rscale>  0 0.65164454E+02</rscale>
<asrwt>0</asrwt>
<pdfrwt beam="1">  1       13 0.10000000E+01 0.65164454E+02</pdfrwt>
<pdfrwt beam="2">  1       22 0.41335754E+00 0.65164454E+02</pdfrwt>
<totfact> 0.11702548E-01</totfact>
</mgrwt>
</event>
<event>
 4    1  0.2471347E+000  0.5206533E+02  0.7957747E-01  0.1434510E+00
         13   -1    0    0    0    0  0.00000000000E+00  0.00000000000E+00  0.99999944176E+02  0.99999999996E+02  0.10566000000E+00 0. -1.
         22   -1    0    0    0    0 -0.00000000000E+00 -0.00000000000E+00 -0.14384453618E+02  0.14384453618E+02  0.00000000000E+00 0.  1.
         13    1    1    2    0    0 -0.88686769633E+01  0.11495421777E+02  0.40317841735E+00  0.14524870732E+02  0.10566000000E+00 0.  1.
        996    1    1    2    0    0  0.88686769633E+01 -0.11495421777E+02  0.85212312141E+02  0.99859582882E+02  0.50000000000E+02 0.  0.
<mgrwt>
<rscale>  0 0.52065326E+02</rscale>
<asrwt>0</asrwt>
<pdfrwt beam="1">  1       13 0.10000000E+01 0.52065326E+02</pdfrwt>
<pdfrwt beam="2">  1       22 0.14384478E+00 0.52065326E+02</pdfrwt>
<totfact> 0.80697676E-01</totfact>
</mgrwt>
</event>
<event>
 4    1  0.2471347E+000  0.5140909E+02  0.7957747E-01  0.1437886E+00
         13   -1    0    0    0    0  0.00000000000E+00  0.00000000000E+00  0.99999944175E+02  0.99999999995E+02  0.10566000000E+00 0.  1.
         22   -1    0    0    0    0 -0.00000000000E+00 -0.00000000000E+00 -0.28567554306E+02  0.28567554306E+02  0.00000000000E+00 0. -1.
         13    1    1    2    0    0 -0.63488479365E+01 -0.10128507087E+02 -0.20215479656E+02  0.23485555299E+02  0.10566000000E+00 0. -1.
        996    1    1    2    0    0  0.63488479365E+01  0.10128507087E+02  0.91647869525E+02  0.10508199900E+03  0.50000000000E+02 0.  0.
<mgrwt>
<rscale>  0 0.51409090E+02</rscale>
<asrwt>0</asrwt>
<pdfrwt beam="1">  1       13 0.10000000E+01 0.51409090E+02</pdfrwt>
<pdfrwt beam="2">  1       22 0.28567574E+00 0.51409090E+02</pdfrwt>
<totfact> 0.22696169E-01</totfact>
</mgrwt>
</event>
<event>
 4    1  0.2471347E+000  0.5240282E+02  0.7957747E-01  0.1432796E+00
         13   -1    0    0    0    0  0.00000000000E+00  0.00000000000E+00  0.99999944176E+02  0.99999999996E+02  0.10566000000E+00 0. -1.
         22   -1    0    0    0    0 -0.00000000000E+00 -0.00000000000E+00 -0.13083660004E+02  0.13083660004E+02  0.00000000000E+00 0. -1.
         13    1    1    2    0    0 -0.64853813285E+01 -0.14282680678E+02  0.62396659181E+01  0.16881935112E+02  0.10566000000E+00 0.  1.
        996    1    1    2    0    0  0.64853813285E+01  0.14282680678E+02  0.80676618254E+02  0.96201724887E+02  0.50000000000E+02 0.  0.
<mgrwt>
<rscale>  0 0.52402816E+02</rscale>
<asrwt>0</asrwt>
<pdfrwt beam="1">  1       13 0.10000000E+01 0.52402816E+02</pdfrwt>
<pdfrwt beam="2">  1       22 0.13083684E+00 0.52402816E+02</pdfrwt>
<totfact> 0.94052305E-01</totfact>
</mgrwt>
</event>
<event>
 4    1  0.2471347E+000  0.5194344E+02  0.7957747E-01  0.1435132E+00
         13   -1    0    0    0    0  0.00000000000E+00  0.00000000000E+00  0.99999944183E+02  0.10000000000E+03  0.10566000000E+00 0. -1.
         22   -1    0    0    0    0 -0.00000000000E+00 -0.00000000000E+00 -0.16295546657E+02  0.16295546657E+02  0.00000000000E+00 0.  1.
         13    1    1    2    0    0 -0.70038121195E+01  0.12209330786E+02 -0.37602178676E+01  0.14569541685E+02  0.10566000000E+00 0.  1.
        996    1    1    2    0    0  0.70038121195E+01 -0.12209330786E+02  0.87464615394E+02  0.10172600498E+03  0.50000000000E+02 0.  0.
<mgrwt>
<rscale>  0 0.51943442E+02</rscale>
<asrwt>0</asrwt>
<pdfrwt beam="1">  1       13 0.10000000E+01 0.51943442E+02</pdfrwt>
<pdfrwt beam="2">  1       22 0.16295570E+00 0.51943442E+02</pdfrwt>
<totfact> 0.65429631E-01</totfact>
</mgrwt>
</event>
<event>
 4    1  0.2471347E+000  0.5536849E+02  0.7957747E-01  0.1418364E+00
         13   -1    0    0    0    0  0.00000000000E+00  0.00000000000E+00  0.99999944180E+02  0.10000000000E+03  0.10566000000E+00 0.  1.
         22   -1    0    0    0    0 -0.00000000000E+00 -0.00000000000E+00 -0.50248277272E+02  0.50248277272E+02  0.00000000000E+00 0. -1.
         13    1    1    2    0    0  0.23405483949E+02  0.42252628049E+01 -0.38977403503E+02  0.45660909677E+02  0.10566000000E+00 0. -1.
        996    1    1    2    0    0 -0.23405483949E+02 -0.42252628049E+01  0.88729070411E+02  0.10458736760E+03  0.50000000000E+02 0.  0.
<mgrwt>
<rscale>  0 0.55368489E+02</rscale>
<asrwt>0</asrwt>
<pdfrwt beam="1">  1       13 0.10000000E+01 0.55368489E+02</pdfrwt>
<pdfrwt beam="2">  1       22 0.50248291E+00 0.55368489E+02</pdfrwt>
<totfact> 0.72723187E-02</totfact>
</mgrwt>
</event>
<event>
 4    1  0.2471347E+000  0.5335471E+02  0.7957747E-01  0.1428044E+00
         13   -1    0    0    0    0  0.00000000000E+00  0.00000000000E+00  0.99999944180E+02  0.10000000000E+03  0.10566000000E+00 0. -1.
         22   -1    0    0    0    0 -0.00000000000E+00 -0.00000000000E+00 -0.21262005999E+02  0.21262005999E+02  0.00000000000E+00 0.  1.
         13    1    1    2    0    0  0.18300617163E+02  0.34368812146E+01 -0.73187374670E+01  0.20007494176E+02  0.10566000000E+00 0.  1.
        996    1    1    2    0    0 -0.18300617163E+02 -0.34368812146E+01  0.86056675648E+02  0.10125451182E+03  0.50000000000E+02 0.  0.
<mgrwt>
<rscale>  0 0.53354707E+02</rscale>
<asrwt>0</asrwt>
<pdfrwt beam="1">  1       13 0.10000000E+01 0.53354707E+02</pdfrwt>
<pdfrwt beam="2">  1       22 0.21262028E+00 0.53354707E+02</pdfrwt>
<totfact> 0.40466314E-01</totfact>
</mgrwt>
</event>
<event>
 4    1  0.2471347E+000  0.6531281E+02  0.7957747E-01  0.1376799E+00
         13   -1    0    0    0    0  0.00000000000E+00  0.00000000000E+00  0.99999944185E+02  0.10000000001E+03  0.10566000000E+00 0. -1.
         22   -1    0    0    0    0 -0.00000000000E+00 -0.00000000000E+00 -0.80530811856E+02  0.80530811856E+02  0.00000000000E+00 0.  1.
         13    1    1    2    0    0 -0.32828845532E+02  0.26230338127E+02 -0.62754212993E+02  0.75523944214E+02  0.10566000000E+00 0.  1.
        996    1    1    2    0    0  0.32828845532E+02 -0.26230338127E+02  0.82223345322E+02  0.10500686765E+03  0.50000000000E+02 0.  0.
<mgrwt>
<rscale>  0 0.65312814E+02</rscale>
<asrwt>0</asrwt>
<pdfrwt beam="1">  1       13 0.10000000E+01 0.65312814E+02</pdfrwt>
<pdfrwt beam="2">  1       22 0.80530817E+00 0.65312814E+02</pdfrwt>
<totfact> 0.29390438E-02</totfact>
</mgrwt>
</event>
<event>
 4    1  0.2471347E+000  0.5244283E+02  0.7957747E-01  0.1432594E+00
         13   -1    0    0    0    0  0.00000000000E+00  0.00000000000E+00  0.99999944179E+02  0.99999999999E+02  0.10566000000E+00 0. -1.
         22   -1    0    0    0    0 -0.00000000000E+00 -0.00000000000E+00 -0.15977551617E+02  0.15977551617E+02  0.00000000000E+00 0.  1.
         13    1    1    2    0    0 -0.15816157382E+02 -0.31561392855E+00 -0.12505225093E+01  0.15869008068E+02  0.10566000000E+00 0.  1.
        996    1    1    2    0    0  0.15816157382E+02  0.31561392855E+00  0.85272915072E+02  0.10010854355E+03  0.50000000000E+02 0.  0.
<mgrwt>
<rscale>  0 0.52442830E+02</rscale>
<asrwt>0</asrwt>
<pdfrwt beam="1">  1       13 0.10000000E+01 0.52442830E+02</pdfrwt>
<pdfrwt beam="2">  1       22 0.15977575E+00 0.52442830E+02</pdfrwt>
<totfact> 0.67746408E-01</totfact>
</mgrwt>
</event>
<event>
 4    1  0.2471347E+000  0.6172985E+02  0.7957747E-01  0.1390712E+00
         13   -1    0    0    0    0  0.00000000000E+00  0.00000000000E+00  0.99999944187E+02  0.10000000001E+03  0.10566000000E+00 0.  1.
         22   -1    0    0    0    0 -0.00000000000E+00 -0.00000000000E+00 -0.47322933595E+02  0.47322933595E+02  0.00000000000E+00 0. -1.
         13    1    1    2    0    0 -0.32834460541E+02 -0.15247065056E+02 -0.27980126512E+02  0.45754490878E+02  0.10566000000E+00 0. -1.
        996    1    1    2    0    0  0.32834460541E+02  0.15247065056E+02  0.80657137103E+02  0.10156844272E+03  0.50000000000E+02 0.  0.
<mgrwt>
<rscale>  0 0.61729853E+02</rscale>
<asrwt>0</asrwt>
<pdfrwt beam="1">  1       13 0.10000000E+01 0.61729853E+02</pdfrwt>
<pdfrwt beam="2">  1       22 0.47322948E+00 0.61729853E+02</pdfrwt>
<totfact> 0.85763620E-02</totfact>
</mgrwt>
</event>
<event>
 4    1  0.2471347E+000  0.5492100E+02  0.7957747E-01  0.1420473E+00
         13   -1    0    0    0    0  0.00000000000E+00  0.00000000000E+00  0.99999944180E+02  0.10000000000E+03  0.10566000000E+00 0.  1.
         22   -1    0    0    0    0 -0.00000000000E+00 -0.00000000000E+00 -0.16002863662E+02  0.16002863662E+02  0.00000000000E+00 0.  1.
         13    1    1    2    0    0  0.53410815514E+01 -0.22085954980E+02  0.12785675781E+02  0.26072998077E+02  0.10566000000E+00 0. -1.
        996    1    1    2    0    0 -0.53410815514E+01  0.22085954980E+02  0.71211404736E+02  0.89929865585E+02  0.50000000000E+02 0.  0.
<mgrwt>
<rscale>  0 0.54921003E+02</rscale>
<asrwt>0</asrwt>
<pdfrwt beam="1">  1       13 0.10000000E+01 0.54921003E+02</pdfrwt>
<pdfrwt beam="2">  1       22 0.16002887E+00 0.54921003E+02</pdfrwt>
<totfact> 0.67885823E-01</totfact>
</mgrwt>
</event>
<event>
 4    1  0.2471347E+000  0.6858088E+02  0.7957747E-01  0.1364986E+00
         13   -1    0    0    0    0  0.00000000000E+00  0.00000000000E+00  0.99999944185E+02  0.10000000001E+03  0.10566000000E+00 0. -1.
         22   -1    0    0    0    0 -0.00000000000E+00 -0.00000000000E+00 -0.59383336494E+02  0.59383336494E+02  0.00000000000E+00 0.  1.
         13    1    1    2    0    0 -0.35991188197E+02  0.30132555404E+02 -0.34058669459E+02  0.57994315691E+02  0.10566000000E+00 0.  1.
        996    1    1    2    0    0  0.35991188197E+02 -0.30132555404E+02  0.74675277150E+02  0.10138902081E+03  0.50000000000E+02 0.  0.
<mgrwt>
<rscale>  0 0.68580876E+02</rscale>
<asrwt>0</asrwt>
<pdfrwt beam="1">  1       13 0.10000000E+01 0.68580876E+02</pdfrwt>
<pdfrwt beam="2">  1       22 0.59383348E+00 0.68580876E+02</pdfrwt>
<totfact> 0.61662386E-02</totfact>
</mgrwt>
</event>
<event>
 4    1  0.2471347E+000  0.5189636E+02  0.7957747E-01  0.1435373E+00
         13   -1    0    0    0    0  0.00000000000E+00  0.00000000000E+00  0.99999944178E+02  0.99999999998E+02  0.10566000000E+00 0.  1.
         22   -1    0    0    0    0 -0.00000000000E+00 -0.00000000000E+00 -0.12484700286E+02  0.12484700286E+02  0.00000000000E+00 0. -1.
         13    1    1    2    0    0  0.88524801089E+01 -0.10717551340E+02  0.45529839360E+01  0.14627820670E+02  0.10566000000E+00 0. -1.
        996    1    1    2    0    0 -0.88524801089E+01  0.10717551340E+02  0.82962259956E+02  0.97856879614E+02  0.50000000000E+02 0.  0.
<mgrwt>
<rscale>  0 0.51896361E+02</rscale>
<asrwt>0</asrwt>
<pdfrwt beam="1">  1       13 0.10000000E+01 0.51896361E+02</pdfrwt>
<pdfrwt beam="2">  1       22 0.12484725E+00 0.51896361E+02</pdfrwt>
<totfact> 0.10110255E+00</totfact>
</mgrwt>
</event>
<event>
 4    1  0.2471347E+000  0.5110319E+02  0.7957747E-01  0.1439480E+00
         13   -1    0    0    0    0  0.00000000000E+00  0.00000000000E+00  0.99999944183E+02  0.10000000000E+03  0.10566000000E+00 0.  1.
         22   -1    0    0    0    0 -0.00000000000E+00 -0.00000000000E+00 -0.33296463265E+02  0.33296463265E+02  0.00000000000E+00 0. -1.
         13    1    1    2    0    0 -0.10405544864E+02 -0.18057299782E+01 -0.25654237010E+02  0.27743234585E+02  0.10566000000E+00 0. -1.
        996    1    1    2    0    0  0.10405544864E+02  0.18057299782E+01  0.92357717927E+02  0.10555322868E+03  0.50000000000E+02 0.  0.
<mgrwt>
<rscale>  0 0.51103190E+02</rscale>
<asrwt>0</asrwt>
<pdfrwt beam="1">  1       13 0.10000000E+01 0.51103190E+02</pdfrwt>
<pdfrwt beam="2">  1       22 0.33296482E+00 0.51103190E+02</pdfrwt>
<totfact> 0.17128998E-01</totfact>
</mgrwt>
</event>
<event>
 4    1  0.2471347E+000  0.5489692E+02  0.7957747E-01  0.1420587E+00
         13   -1    0    0    0    0  0.00000000000E+00  0.00000000000E+00  0.99999944186E+02  0.10000000001E+03  0.10566000000E+00 0. -1.
         22   -1    0    0    0    0 -0.00000000000E+00 -0.00000000000E+00 -0.17587456570E+02  0.17587456570E+02  0.00000000000E+00 0.  1.
         13    1    1    2    0    0 -0.45885921981E+01  0.22194961859E+02  0.59029120621E+01  0.23420654242E+02  0.10566000000E+00 0.  1.
        996    1    1    2    0    0  0.45885921981E+01 -0.22194961859E+02  0.76509575554E+02  0.94166802334E+02  0.50000000000E+02 0.  0.
<mgrwt>
<rscale>  0 0.54896917E+02</rscale>
<asrwt>0</asrwt>
<pdfrwt beam="1">  1       13 0.10000000E+01 0.54896917E+02</pdfrwt>
<pdfrwt beam="2">  1       22 0.17587480E+00 0.54896917E+02</pdfrwt>
<totfact> 0.57569660E-01</totfact>
</mgrwt>
</event>
<event>
 4    1  0.2471347E+000  0.6221865E+02  0.7957747E-01  0.1388750E+00
         13   -1    0    0    0    0  0.00000000000E+00  0.00000000000E+00  0.99999944177E+02  0.99999999998E+02  0.10566000000E+00 0.  1.
         22   -1    0    0    0    0 -0.00000000000E+00 -0.00000000000E+00 -0.43876048693E+02  0.43876048693E+02  0.00000000000E+00 0. -1.
         13    1    1    2    0    0  0.70627898990E+01 -0.36349383996E+02 -0.22716577894E+02  0.43442085508E+02  0.10566000000E+00 0. -1.
        996    1    1    2    0    0 -0.70627898990E+01  0.36349383996E+02  0.78840473378E+02  0.10043396318E+03  0.50000000000E+02 0.  0.
<mgrwt>
<rscale>  0 0.62218652E+02</rscale>
<asrwt>0</asrwt>
<pdfrwt beam="1">  1       13 0.10000000E+01 0.62218652E+02</pdfrwt>
<pdfrwt beam="2">  1       22 0.43876064E+00 0.62218652E+02</pdfrwt>
<totfact> 0.10296142E-01</totfact>
</mgrwt>
</event>
<event>
 4    1  0.2471347E+000  0.5223408E+02  0.7957747E-01  0.1433651E+00
         13   -1    0    0    0    0  0.00000000000E+00  0.00000000000E+00  0.99999944175E+02  0.99999999995E+02  0.10566000000E+00 0.  1.
         22   -1    0    0    0    0 -0.00000000000E+00 -0.00000000000E+00 -0.21514473020E+02  0.21514473020E+02  0.00000000000E+00 0. -1.
         13    1    1    2    0    0 -0.13332264298E+02  0.71168459913E+01 -0.10449974074E+02  0.18374218089E+02  0.10566000000E+00 0. -1.
        996    1    1    2    0    0  0.13332264298E+02 -0.71168459913E+01  0.88935445229E+02  0.10314025493E+03  0.50000000000E+02 0.  0.
<mgrwt>
<rscale>  0 0.52234077E+02</rscale>
<asrwt>0</asrwt>
<pdfrwt beam="1">  1       13 0.10000000E+01 0.52234077E+02</pdfrwt>
<pdfrwt beam="2">  1       22 0.21514495E+00 0.52234077E+02</pdfrwt>
<totfact> 0.39489673E-01</totfact>
</mgrwt>
</event>
<event>
 4    1  0.2471347E+000  0.5128205E+02  0.7957747E-01  0.1438547E+00
         13   -1    0    0    0    0  0.00000000000E+00  0.00000000000E+00  0.99999944182E+02  0.10000000000E+03  0.10566000000E+00 0. -1.
         22   -1    0    0    0    0 -0.00000000000E+00 -0.00000000000E+00 -0.98235028603E+01  0.98235028603E+01  0.00000000000E+00 0. -1.
         13    1    1    2    0    0  0.66167812235E+01 -0.92772328965E+01  0.15753274323E+02  0.19442881986E+02  0.10566000000E+00 0.  1.
        996    1    1    2    0    0 -0.66167812235E+01  0.92772328965E+01  0.74423166999E+02  0.90380620877E+02  0.50000000000E+02 0.  0.
<mgrwt>
<rscale>  0 0.51282052E+02</rscale>
<asrwt>0</asrwt>
<pdfrwt beam="1">  1       13 0.10000000E+01 0.51282052E+02</pdfrwt>
<pdfrwt beam="2">  1       22 0.98235280E-01 0.51282052E+02</pdfrwt>
<totfact> 0.14440174E+00</totfact>
</mgrwt>
</event>
<event>
 4    1  0.2471347E+000  0.6819539E+02  0.7957747E-01  0.1366339E+00
         13   -1    0    0    0    0  0.00000000000E+00  0.00000000000E+00  0.99999944174E+02  0.99999999995E+02  0.10566000000E+00 0.  1.
         22   -1    0    0    0    0 -0.00000000000E+00 -0.00000000000E+00 -0.34295322611E+02  0.34295322611E+02  0.00000000000E+00 0.  1.
         13    1    1    2    0    0 -0.97654989343E+01  0.45334817522E+02  0.13162698991E+02  0.48206622553E+02  0.10566000000E+00 0. -1.
        996    1    1    2    0    0  0.97654989343E+01 -0.45334817522E+02  0.52541922572E+02  0.86088700053E+02  0.50000000000E+02 0.  0.
<mgrwt>
<rscale>  0 0.68195386E+02</rscale>
<asrwt>0</asrwt>
<pdfrwt beam="1">  1       13 0.10000000E+01 0.68195386E+02</pdfrwt>
<pdfrwt beam="2">  1       22 0.34295341E+00 0.68195386E+02</pdfrwt>
<totfact> 0.16529200E-01</totfact>
</mgrwt>
</event>
<event>
 4    1  0.2471347E+000  0.5754768E+02  0.7957747E-01  0.1408421E+00
         13   -1    0    0    0    0  0.00000000000E+00  0.00000000000E+00  0.99999944182E+02  0.10000000000E+03  0.10566000000E+00 0. -1.
         22   -1    0    0    0    0 -0.00000000000E+00 -0.00000000000E+00 -0.31602936271E+02  0.31602936271E+02  0.00000000000E+00 0.  1.
         13    1    1    2    0    0  0.57721962332E+01  0.27900133761E+02 -0.13484742514E+02  0.31521185859E+02  0.10566000000E+00 0.  1.
        996    1    1    2    0    0 -0.57721962332E+01 -0.27900133761E+02  0.81881750425E+02  0.10008175041E+03  0.50000000000E+02 0.  0.
<mgrwt>
<rscale>  0 0.57547682E+02</rscale>
<asrwt>0</asrwt>
<pdfrwt beam="1">  1       13 0.10000000E+01 0.57547682E+02</pdfrwt>
<pdfrwt beam="2">  1       22 0.31602955E+00 0.57547682E+02</pdfrwt>
<totfact> 0.18938119E-01</totfact>
</mgrwt>
</event>
<event>
 4    1  0.2471347E+000  0.5163287E+02  0.7957747E-01  0.1436728E+00
         13   -1    0    0    0    0  0.00000000000E+00  0.00000000000E+00  0.99999944177E+02  0.99999999997E+02  0.10566000000E+00 0.  1.
         22   -1    0    0    0    0 -0.00000000000E+00 -0.00000000000E+00 -0.10464284311E+02  0.10464284311E+02  0.00000000000E+00 0.  1.
         13    1    1    2    0    0  0.12444455433E+02  0.33299433700E+01  0.14718017296E+02  0.19559759483E+02  0.10566000000E+00 0. -1.
        996    1    1    2    0    0 -0.12444455433E+02 -0.33299433700E+01  0.74817642570E+02  0.90904524824E+02  0.50000000000E+02 0.  0.
<mgrwt>
<rscale>  0 0.51632867E+02</rscale>
<asrwt>0</asrwt>
<pdfrwt beam="1">  1       13 0.10000000E+01 0.51632867E+02</pdfrwt>
<pdfrwt beam="2">  1       22 0.10464309E+00 0.51632867E+02</pdfrwt>
<totfact> 0.13183974E+00</totfact>
</mgrwt>
</event>
<event>
 4    1  0.2471347E+000  0.5145906E+02  0.7957747E-01  0.1437627E+00
         13   -1    0    0    0    0  0.00000000000E+00  0.00000000000E+00  0.99999944180E+02  0.10000000000E+03  0.10566000000E+00 0. -1.
         22   -1    0    0    0    0 -0.00000000000E+00 -0.00000000000E+00 -0.10133200614E+02  0.10133200614E+02  0.00000000000E+00 0.  1.
         13    1    1    2    0    0  0.83246669225E+01 -0.88732405692E+01  0.18735701550E+02  0.22339922877E+02  0.10566000000E+00 0.  1.
        996    1    1    2    0    0 -0.83246669225E+01  0.88732405692E+01  0.71131042016E+02  0.87793277737E+02  0.50000000000E+02 0.  0.
<mgrwt>
<rscale>  0 0.51459056E+02</rscale>
<asrwt>0</asrwt>
<pdfrwt beam="1">  1       13 0.10000000E+01 0.51459056E+02</pdfrwt>
<pdfrwt beam="2">  1       22 0.10133226E+00 0.51459056E+02</pdfrwt>
<totfact> 0.13811760E+00</totfact>
</mgrwt>
</event>
<event>
 4    1  0.2471347E+000  0.5120790E+02  0.7957747E-01  0.1438933E+00
         13   -1    0    0    0    0  0.00000000000E+00  0.00000000000E+00  0.99999944182E+02  0.10000000000E+03  0.10566000000E+00 0.  1.
         22   -1    0    0    0    0 -0.00000000000E+00 -0.00000000000E+00 -0.50691309081E+02  0.50691309081E+02  0.00000000000E+00 0. -1.
         13    1    1    2    0    0 -0.13444196395E+00  0.11055827280E+02 -0.43396702798E+02  0.44783192933E+02  0.10566000000E+00 0. -1.
        996    1    1    2    0    0  0.13444196395E+00 -0.11055827280E+02  0.92705337899E+02  0.10590811615E+03  0.50000000000E+02 0.  0.
<mgrwt>
<rscale>  0 0.51207904E+02</rscale>
<asrwt>0</asrwt>
<pdfrwt beam="1">  1       13 0.10000000E+01 0.51207904E+02</pdfrwt>
<pdfrwt beam="2">  1       22 0.50691323E+00 0.51207904E+02</pdfrwt>
<totfact> 0.70880448E-02</totfact>
</mgrwt>
</event>
<event>
 4    1  0.2471347E+000  0.5246307E+02  0.7957747E-01  0.1432492E+00
         13   -1    0    0    0    0  0.00000000000E+00  0.00000000000E+00  0.99999944174E+02  0.99999999994E+02  0.10566000000E+00 0. -1.
         22   -1    0    0    0    0 -0.00000000000E+00 -0.00000000000E+00 -0.64616555630E+02  0.64616555630E+02  0.00000000000E+00 0.  1.
         13    1    1    2    0    0 -0.11850286234E+02 -0.10580381361E+02 -0.56565226786E+02  0.58753806677E+02  0.10566000000E+00 0.  1.
        996    1    1    2    0    0  0.11850286234E+02  0.10580381361E+02  0.91948615330E+02  0.10586274895E+03  0.50000000000E+02 0.  0.
<mgrwt>
<rscale>  0 0.52463070E+02</rscale>
<asrwt>0</asrwt>
<pdfrwt beam="1">  1       13 0.10000000E+01 0.52463070E+02</pdfrwt>
<pdfrwt beam="2">  1       22 0.64616566E+00 0.52463070E+02</pdfrwt>
<totfact> 0.85428271E-02</totfact>
</mgrwt>
</event>
<event>
 4    1  0.2471347E+000  0.5215001E+02  0.7957747E-01  0.1434078E+00
         13   -1    0    0    0    0  0.00000000000E+00  0.00000000000E+00  0.99999944175E+02  0.99999999996E+02  0.10566000000E+00 0. -1.
         22   -1    0    0    0    0 -0.00000000000E+00 -0.00000000000E+00 -0.13003004575E+02  0.13003004575E+02  0.00000000000E+00 0. -1.
         13    1    1    2    0    0 -0.45274004951E+01  0.14111225832E+02  0.46512975591E+01  0.15532861383E+02  0.10566000000E+00 0.  1.
        996    1    1    2    0    0  0.45274004951E+01 -0.14111225832E+02  0.82345642042E+02  0.97470143187E+02  0.50000000000E+02 0.  0.
<mgrwt>
<rscale>  0 0.52150015E+02</rscale>
<asrwt>0</asrwt>
<pdfrwt beam="1">  1       13 0.10000000E+01 0.52150015E+02</pdfrwt>
<pdfrwt beam="2">  1       22 0.13003029E+00 0.52150015E+02</pdfrwt>
<totfact> 0.94922696E-01</totfact>
</mgrwt>
</event>
<event>
 4    1  0.2471347E+000  0.7066199E+02  0.7957747E-01  0.1357856E+00
         13   -1    0    0    0    0  0.00000000000E+00  0.00000000000E+00  0.99999944177E+02  0.99999999997E+02  0.10566000000E+00 0. -1.
         22   -1    0    0    0    0 -0.00000000000E+00 -0.00000000000E+00 -0.40983135844E+02  0.40983135844E+02  0.00000000000E+00 0.  1.
         13    1    1    2    0    0 -0.33890408417E+01 -0.49815975781E+02  0.16369577628E+01  0.49958060767E+02  0.10566000000E+00 0.  1.
        996    1    1    2    0    0  0.33890408417E+01  0.49815975781E+02  0.57379850570E+02  0.91025075074E+02  0.50000000000E+02 0.  0.
<mgrwt>
<rscale>  0 0.70661991E+02</rscale>
<asrwt>0</asrwt>
<pdfrwt beam="1">  1       13 0.10000000E+01 0.70661991E+02</pdfrwt>
<pdfrwt beam="2">  1       22 0.40983152E+00 0.70661991E+02</pdfrwt>
<totfact> 0.11941673E-01</totfact>
</mgrwt>
</event>
<event>
 4    1  0.2471347E+000  0.5121743E+02  0.7957747E-01  0.1438884E+00
         13   -1    0    0    0    0  0.00000000000E+00  0.00000000000E+00  0.99999944185E+02  0.10000000001E+03  0.10566000000E+00 0. -1.
         22   -1    0    0    0    0 -0.00000000000E+00 -0.00000000000E+00 -0.10160828701E+02  0.10160828701E+02  0.00000000000E+00 0. -1.
         13    1    1    2    0    0 -0.10229655479E+02 -0.43103966300E+01  0.26316551117E+02  0.28562167233E+02  0.10566000000E+00 0.  1.
        996    1    1    2    0    0  0.10229655479E+02  0.43103966300E+01  0.63522564367E+02  0.81598661473E+02  0.50000000000E+02 0.  0.
<mgrwt>
<rscale>  0 0.51217432E+02</rscale>
<asrwt>0</asrwt>
<pdfrwt beam="1">  1       13 0.10000000E+01 0.51217432E+02</pdfrwt>
<pdfrwt beam="2">  1       22 0.10160854E+00 0.51217432E+02</pdfrwt>
<totfact> 0.13749174E+00</totfact>
</mgrwt>
</event>
<event>
 4    1  0.2471347E+000  0.5518691E+02  0.7957747E-01  0.1419217E+00
         13   -1    0    0    0    0  0.00000000000E+00  0.00000000000E+00  0.99999944177E+02  0.99999999997E+02  0.10566000000E+00 0. -1.
         22   -1    0    0    0    0 -0.00000000000E+00 -0.00000000000E+00 -0.15494910595E+02  0.15494910595E+02  0.00000000000E+00 0.  1.
         13    1    1    2    0    0 -0.23352516115E+02 -0.50522983335E+00  0.21619594581E+02  0.31827869862E+02  0.10566000000E+00 0.  1.
        996    1    1    2    0    0  0.23352516115E+02  0.50522983335E+00  0.62885439001E+02  0.83667040729E+02  0.50000000000E+02 0.  0.
<mgrwt>
<rscale>  0 0.55186912E+02</rscale>
<asrwt>0</asrwt>
<pdfrwt beam="1">  1       13 0.10000000E+01 0.55186912E+02</pdfrwt>
<pdfrwt beam="2">  1       22 0.15494934E+00 0.55186912E+02</pdfrwt>
<totfact> 0.71750566E-01</totfact>
</mgrwt>
</event>
<event>
 4    1  0.2471347E+000  0.5463634E+02  0.7957747E-01  0.1421827E+00
         13   -1    0    0    0    0  0.00000000000E+00  0.00000000000E+00  0.99999944187E+02  0.10000000001E+03  0.10566000000E+00 0. -1.
         22   -1    0    0    0    0 -0.00000000000E+00 -0.00000000000E+00 -0.78448873966E+02  0.78448873966E+02  0.00000000000E+00 0.  1.
         13    1    1    2    0    0 -0.18408757618E+02 -0.12093258598E+02 -0.69144400119E+02  0.72567819951E+02  0.10566000000E+00 0.  1.
        996    1    1    2    0    0  0.18408757618E+02  0.12093258598E+02  0.90695470340E+02  0.10588105402E+03  0.50000000000E+02 0.  0.
<mgrwt>
<rscale>  0 0.54636336E+02</rscale>
<asrwt>0</asrwt>
<pdfrwt beam="1">  1       13 0.10000000E+01 0.54636336E+02</pdfrwt>
<pdfrwt beam="2">  1       22 0.78448880E+00 0.54636336E+02</pdfrwt>
<totfact> 0.35608592E-02</totfact>
</mgrwt>
</event>
<event>
 4    1  0.2471347E+000  0.5210952E+02  0.7957747E-01  0.1434284E+00
         13   -1    0    0    0    0  0.00000000000E+00  0.00000000000E+00  0.99999944187E+02  0.10000000001E+03  0.10566000000E+00 0.  1.
         22   -1    0    0    0    0 -0.00000000000E+00 -0.00000000000E+00 -0.11301161262E+02  0.11301161262E+02  0.00000000000E+00 0.  1.
         13    1    1    2    0    0 -0.40913819974E+01  0.14094786015E+02  0.14495005088E+02  0.20628105487E+02  0.10566000000E+00 0. -1.
        996    1    1    2    0    0  0.40913819974E+01 -0.14094786015E+02  0.74203777837E+02  0.90673055782E+02  0.50000000000E+02 0.  0.
<mgrwt>
<rscale>  0 0.52109523E+02</rscale>
<asrwt>0</asrwt>
<pdfrwt beam="1">  1       13 0.10000000E+01 0.52109523E+02</pdfrwt>
<pdfrwt beam="2">  1       22 0.11301186E+00 0.52109523E+02</pdfrwt>
<totfact> 0.11775403E+00</totfact>
</mgrwt>
</event>
<event>
 4    1  0.2471347E+000  0.5457958E+02  0.7957747E-01  0.1422098E+00
         13   -1    0    0    0    0  0.00000000000E+00  0.00000000000E+00  0.99999944176E+02  0.99999999996E+02  0.10566000000E+00 0.  1.
         22   -1    0    0    0    0 -0.00000000000E+00 -0.00000000000E+00 -0.20572694359E+02  0.20572694359E+02  0.00000000000E+00 0.  1.
         13    1    1    2    0    0 -0.15635964990E+02  0.15311662260E+02 -0.26083274799E+01  0.22039622016E+02  0.10566000000E+00 0. -1.
        996    1    1    2    0    0  0.15635964990E+02 -0.15311662260E+02  0.82035577296E+02  0.98533072339E+02  0.50000000000E+02 0.  0.
<mgrwt>
<rscale>  0 0.54579579E+02</rscale>
<asrwt>0</asrwt>
<pdfrwt beam="1">  1       13 0.10000000E+01 0.54579579E+02</pdfrwt>
<pdfrwt beam="2">  1       22 0.20572717E+00 0.54579579E+02</pdfrwt>
<totfact> 0.43163927E-01</totfact>
</mgrwt>
</event>
<event>
 4    1  0.2471347E+000  0.6718997E+02  0.7957747E-01  0.1369918E+00
         13   -1    0    0    0    0  0.00000000000E+00  0.00000000000E+00  0.99999944176E+02  0.99999999996E+02  0.10566000000E+00 0. -1.
         22   -1    0    0    0    0 -0.00000000000E+00 -0.00000000000E+00 -0.41876453097E+02  0.41876453097E+02  0.00000000000E+00 0.  1.
         13    1    1    2    0    0  0.24224279196E+02 -0.37784598159E+02 -0.10224586398E+02  0.46033084751E+02  0.10566000000E+00 0.  1.
        996    1    1    2    0    0 -0.24224279196E+02  0.37784598159E+02  0.68348077476E+02  0.95843368343E+02  0.50000000000E+02 0.  0.
<mgrwt>
<rscale>  0 0.67189966E+02</rscale>
<asrwt>0</asrwt>
<pdfrwt beam="1">  1       13 0.10000000E+01 0.67189966E+02</pdfrwt>
<pdfrwt beam="2">  1       22 0.41876469E+00 0.67189966E+02</pdfrwt>
<totfact> 0.11409870E-01</totfact>
</mgrwt>
</event>
<event>
 4    1  0.2471347E+000  0.5813456E+02  0.7957747E-01  0.1405831E+00
         13   -1    0    0    0    0  0.00000000000E+00  0.00000000000E+00  0.99999944177E+02  0.99999999997E+02  0.10566000000E+00 0. -1.
         22   -1    0    0    0    0 -0.00000000000E+00 -0.00000000000E+00 -0.45050941783E+02  0.45050941783E+02  0.00000000000E+00 0.  1.
         13    1    1    2    0    0 -0.22486281543E+02  0.19338940234E+02 -0.29953449791E+02  0.42152672340E+02  0.10566000000E+00 0.  1.
        996    1    1    2    0    0  0.22486281543E+02 -0.19338940234E+02  0.84902452184E+02  0.10289826944E+03  0.50000000000E+02 0.  0.
<mgrwt>
<rscale>  0 0.58134563E+02</rscale>
<asrwt>0</asrwt>
<pdfrwt beam="1">  1       13 0.10000000E+01 0.58134563E+02</pdfrwt>
<pdfrwt beam="2">  1       22 0.45050957E+00 0.58134563E+02</pdfrwt>
<totfact> 0.96695644E-02</totfact>
</mgrwt>
</event>
<event>
 4    1  0.2471347E+000  0.5229261E+02  0.7957747E-01  0.1433354E+00
         13   -1    0    0    0    0  0.00000000000E+00  0.00000000000E+00  0.99999944174E+02  0.99999999994E+02  0.10566000000E+00 0.  1.
         22   -1    0    0    0    0 -0.00000000000E+00 -0.00000000000E+00 -0.18400282047E+02  0.18400282047E+02  0.00000000000E+00 0.  1.
         13    1    1    2    0    0  0.12973982681E+02 -0.81358900298E+01 -0.59442428233E+01  0.16427480633E+02  0.10566000000E+00 0. -1.
        996    1    1    2    0    0 -0.12973982681E+02  0.81358900298E+01  0.87543904950E+02  0.10197280141E+03  0.50000000000E+02 0.  0.
<mgrwt>
<rscale>  0 0.52292609E+02</rscale>
<asrwt>0</asrwt>
<pdfrwt beam="1">  1       13 0.10000000E+01 0.52292609E+02</pdfrwt>
<pdfrwt beam="2">  1       22 0.18400305E+00 0.52292609E+02</pdfrwt>
<totfact> 0.52835871E-01</totfact>
</mgrwt>
</event>
<event>
 4    1  0.2471347E+000  0.5276601E+02  0.7957747E-01  0.1430969E+00
         13   -1    0    0    0    0  0.00000000000E+00  0.00000000000E+00  0.99999944185E+02  0.10000000001E+03  0.10566000000E+00 0. -1.
         22   -1    0    0    0    0 -0.00000000000E+00 -0.00000000000E+00 -0.12366318433E+02  0.12366318433E+02  0.00000000000E+00 0. -1.
         13    1    1    2    0    0 -0.87059525626E+01 -0.14438067028E+02  0.14846110460E+02  0.22464851420E+02  0.10566000000E+00 0.  1.
        996    1    1    2    0    0  0.87059525626E+01  0.14438067028E+02  0.72787515292E+02  0.89901467018E+02  0.50000000000E+02 0.  0.
<mgrwt>
<rscale>  0 0.52766006E+02</rscale>
<asrwt>0</asrwt>
<pdfrwt beam="1">  1       13 0.10000000E+01 0.52766006E+02</pdfrwt>
<pdfrwt beam="2">  1       22 0.12366343E+00 0.52766006E+02</pdfrwt>
<totfact> 0.10280287E+00</totfact>
</mgrwt>
</event>
<event>
 4    1  0.2471347E+000  0.5099444E+02  0.7957747E-01  0.1440050E+00
         13   -1    0    0    0    0  0.00000000000E+00  0.00000000000E+00  0.99999944181E+02  0.10000000000E+03  0.10566000000E+00 0. -1.
         22   -1    0    0    0    0 -0.00000000000E+00 -0.00000000000E+00 -0.10436307590E+02  0.10436307590E+02  0.00000000000E+00 0. -1.
         13    1    1    2    0    0  0.84729714700E+01  0.53517942210E+01  0.39220677418E+01  0.10762282580E+02  0.10566000000E+00 0.  1.
        996    1    1    2    0    0 -0.84729714700E+01 -0.53517942210E+01  0.85641568850E+02  0.99674025011E+02  0.50000000000E+02 0.  0.
<mgrwt>
<rscale>  0 0.50994440E+02</rscale>
<asrwt>0</asrwt>
<pdfrwt beam="1">  1       13 0.10000000E+01 0.50994440E+02</pdfrwt>
<pdfrwt beam="2">  1       22 0.10436333E+00 0.50994440E+02</pdfrwt>
<totfact> 0.13215627E+00</totfact>
</mgrwt>
</event>
<event>
 4    1  0.2471347E+000  0.5347314E+02  0.7957747E-01  0.1427461E+00
         13   -1    0    0    0    0  0.00000000000E+00  0.00000000000E+00  0.99999944180E+02  0.10000000000E+03  0.10566000000E+00 0.  1.
         22   -1    0    0    0    0 -0.00000000000E+00 -0.00000000000E+00 -0.45095855324E+02  0.45095855324E+02  0.00000000000E+00 0. -1.
         13    1    1    2    0    0 -0.18827641320E+02 -0.22128056736E+01 -0.35394679566E+02  0.40151850421E+02  0.10566000000E+00 0. -1.
        996    1    1    2    0    0  0.18827641320E+02  0.22128056736E+01  0.90298768422E+02  0.10494400490E+03  0.50000000000E+02 0.  0.
<mgrwt>
<rscale>  0 0.53473139E+02</rscale>
<asrwt>0</asrwt>
<pdfrwt beam="1">  1       13 0.10000000E+01 0.53473139E+02</pdfrwt>
<pdfrwt beam="2">  1       22 0.45095871E+00 0.53473139E+02</pdfrwt>
<totfact> 0.96221742E-02</totfact>
</mgrwt>
</event>
<event>
 4    1  0.2471347E+000  0.5150984E+02  0.7957747E-01  0.1437364E+00
         13   -1    0    0    0    0  0.00000000000E+00  0.00000000000E+00  0.99999944186E+02  0.10000000001E+03  0.10566000000E+00 0. -1.
         22   -1    0    0    0    0 -0.00000000000E+00 -0.00000000000E+00 -0.13739625681E+02  0.13739625681E+02  0.00000000000E+00 0.  1.
         13    1    1    2    0    0 -0.68586922187E-01 -0.12379777308E+02 -0.98893774746E+00  0.12419853150E+02  0.10566000000E+00 0.  1.
        996    1    1    2    0    0  0.68586922187E-01  0.12379777308E+02  0.87249256253E+02  0.10131977254E+03  0.50000000000E+02 0.  0.
<mgrwt>
<rscale>  0 0.51509840E+02</rscale>
<asrwt>0</asrwt>
<pdfrwt beam="1">  1       13 0.10000000E+01 0.51509840E+02</pdfrwt>
<pdfrwt beam="2">  1       22 0.13739650E+00 0.51509840E+02</pdfrwt>
<totfact> 0.86832461E-01</totfact>
</mgrwt>
</event>
<event>
 4    1  0.2471347E+000  0.5471478E+02  0.7957747E-01  0.1421453E+00
         13   -1    0    0    0    0  0.00000000000E+00  0.00000000000E+00  0.99999944181E+02  0.10000000000E+03  0.10566000000E+00 0.  1.
         22   -1    0    0    0    0 -0.00000000000E+00 -0.00000000000E+00 -0.14982168420E+02  0.14982168420E+02  0.00000000000E+00 0. -1.
         13    1    1    2    0    0  0.44823656221E+00  0.22214990129E+02  0.18979266659E+02  0.29222088040E+02  0.10566000000E+00 0. -1.
        996    1    1    2    0    0 -0.44823656221E+00 -0.22214990129E+02  0.66038509102E+02  0.85760080380E+02  0.50000000000E+02 0.  0.
<mgrwt>
<rscale>  0 0.54714776E+02</rscale>
<asrwt>0</asrwt>
<pdfrwt beam="1">  1       13 0.10000000E+01 0.54714776E+02</pdfrwt>
<pdfrwt beam="2">  1       22 0.14982192E+00 0.54714776E+02</pdfrwt>
<totfact> 0.75850055E-01</totfact>
</mgrwt>
</event>
<event>
 4    1  0.2471347E+000  0.6742745E+02  0.7957747E-01  0.1369066E+00
         13   -1    0    0    0    0  0.00000000000E+00  0.00000000000E+00  0.99999944181E+02  0.10000000000E+03  0.10566000000E+00 0. -1.
         22   -1    0    0    0    0 -0.00000000000E+00 -0.00000000000E+00 -0.46236051205E+02  0.46236051205E+02  0.00000000000E+00 0. -1.
         13    1    1    2    0    0  0.45115734051E+02  0.33213410903E+01 -0.17152965697E+02  0.48380741642E+02  0.10566000000E+00 0.  1.
        996    1    1    2    0    0 -0.45115734051E+02 -0.33213410903E+01  0.70916858673E+02  0.97855309563E+02  0.50000000000E+02 0.  0.
<mgrwt>
<rscale>  0 0.67427448E+02</rscale>
<asrwt>0</asrwt>
<pdfrwt beam="1">  1       13 0.10000000E+01 0.67427448E+02</pdfrwt>
<pdfrwt beam="2">  1       22 0.46236066E+00 0.67427448E+02</pdfrwt>
<totfact> 0.91204724E-02</totfact>
</mgrwt>
</event>
<event>
 4    1  0.2471347E+000  0.5147945E+02  0.7957747E-01  0.1437521E+00
         13   -1    0    0    0    0  0.00000000000E+00  0.00000000000E+00  0.99999944182E+02  0.10000000000E+03  0.10566000000E+00 0. -1.
         22   -1    0    0    0    0 -0.00000000000E+00 -0.00000000000E+00 -0.11970067037E+02  0.11970067037E+02  0.00000000000E+00 0. -1.
         13    1    1    2    0    0  0.11459923464E+02 -0.43364028499E+01  0.30723517502E+01  0.12632685573E+02  0.10566000000E+00 0.  1.
        996    1    1    2    0    0 -0.11459923464E+02  0.43364028499E+01  0.84957525394E+02  0.99337381467E+02  0.50000000000E+02 0.  0.
<mgrwt>
<rscale>  0 0.51479454E+02</rscale>
<asrwt>0</asrwt>
<pdfrwt beam="1">  1       13 0.10000000E+01 0.51479454E+02</pdfrwt>
<pdfrwt beam="2">  1       22 0.11970092E+00 0.51479454E+02</pdfrwt>
<totfact> 0.10777957E+00</totfact>
</mgrwt>
</event>
<event>
 4    1  0.2471347E+000  0.5152907E+02  0.7957747E-01  0.1437264E+00
         13   -1    0    0    0    0  0.00000000000E+00  0.00000000000E+00  0.99999944189E+02  0.10000000001E+03  0.10566000000E+00 0. -1.
         22   -1    0    0    0    0 -0.00000000000E+00 -0.00000000000E+00 -0.17873837106E+02  0.17873837106E+02  0.00000000000E+00 0.  1.
         13    1    1    2    0    0  0.12439745311E+02  0.70521231344E+00 -0.74619371402E+01  0.14523644781E+02  0.10566000000E+00 0.  1.
        996    1    1    2    0    0 -0.12439745311E+02 -0.70521231344E+00  0.89588044223E+02  0.10335019233E+03  0.50000000000E+02 0.  0.
<mgrwt>
<rscale>  0 0.51529065E+02</rscale>
<asrwt>0</asrwt>
<pdfrwt beam="1">  1       13 0.10000000E+01 0.51529065E+02</pdfrwt>
<pdfrwt beam="2">  1       22 0.17873860E+00 0.51529065E+02</pdfrwt>
<totfact> 0.55586771E-01</totfact>
</mgrwt>
</event>
<event>
 4    1  0.2471347E+000  0.5364892E+02  0.7957747E-01  0.1426598E+00
         13   -1    0    0    0    0  0.00000000000E+00  0.00000000000E+00  0.99999944179E+02  0.99999999999E+02  0.10566000000E+00 0. -1.
         22   -1    0    0    0    0 -0.00000000000E+00 -0.00000000000E+00 -0.14919653657E+02  0.14919653657E+02  0.00000000000E+00 0.  1.
         13    1    1    2    0    0  0.88445137432E+01 -0.17319970002E+02  0.80499349003E+01  0.21048026039E+02  0.10566000000E+00 0.  1.
        996    1    1    2    0    0 -0.88445137432E+01  0.17319970002E+02  0.77030355621E+02  0.93871627617E+02  0.50000000000E+02 0.  0.
<mgrwt>
<rscale>  0 0.53648922E+02</rscale>
<asrwt>0</asrwt>
<pdfrwt beam="1">  1       13 0.10000000E+01 0.53648922E+02</pdfrwt>
<pdfrwt beam="2">  1       22 0.14919677E+00 0.53648922E+02</pdfrwt>
<totfact> 0.76220757E-01</totfact>
</mgrwt>
</event>
<event>
 4    1  0.2471347E+000  0.5451502E+02  0.7957747E-01  0.1422406E+00
         13   -1    0    0    0    0  0.00000000000E+00  0.00000000000E+00  0.99999944175E+02  0.99999999995E+02  0.10566000000E+00 0. -1.
         22   -1    0    0    0    0 -0.00000000000E+00 -0.00000000000E+00 -0.15604705445E+02  0.15604705445E+02  0.00000000000E+00 0.  1.
         13    1    1    2    0    0 -0.12080134309E+02  0.18054294640E+02  0.11500036362E+02  0.24579446704E+02  0.10566000000E+00 0.  1.
        996    1    1    2    0    0  0.12080134309E+02 -0.18054294640E+02  0.72895202368E+02  0.91025258737E+02  0.50000000000E+02 0.  0.
<mgrwt>
<rscale>  0 0.54515018E+02</rscale>
<asrwt>0</asrwt>
<pdfrwt beam="1">  1       13 0.10000000E+01 0.54515018E+02</pdfrwt>
<pdfrwt beam="2">  1       22 0.15604729E+00 0.54515018E+02</pdfrwt>
<totfact> 0.70808001E-01</totfact>
</mgrwt>
</event>
<event>
 4    1  0.2471347E+000  0.5621990E+02  0.7957747E-01  0.1414416E+00
         13   -1    0    0    0    0  0.00000000000E+00  0.00000000000E+00  0.99999944178E+02  0.99999999998E+02  0.10566000000E+00 0. -1.
         22   -1    0    0    0    0 -0.00000000000E+00 -0.00000000000E+00 -0.27887489360E+02  0.27887489360E+02  0.00000000000E+00 0.  1.
         13    1    1    2    0    0  0.24808143560E+02  0.67255530575E+01 -0.10660868406E+02  0.27827007206E+02  0.10566000000E+00 0.  1.
        996    1    1    2    0    0 -0.24808143560E+02 -0.67255530575E+01  0.82773323225E+02  0.10006048215E+03  0.50000000000E+02 0.  0.
<mgrwt>
<rscale>  0 0.56219899E+02</rscale>
<asrwt>0</asrwt>
<pdfrwt beam="1">  1       13 0.10000000E+01 0.56219899E+02</pdfrwt>
<pdfrwt beam="2">  1       22 0.27887509E+00 0.56219899E+02</pdfrwt>
<totfact> 0.23933768E-01</totfact>
</mgrwt>
</event>
<event>
 4    1  0.2471347E+000  0.5321580E+02  0.7957747E-01  0.1428730E+00
         13   -1    0    0    0    0  0.00000000000E+00  0.00000000000E+00  0.99999944178E+02  0.99999999998E+02  0.10566000000E+00 0. -1.
         22   -1    0    0    0    0 -0.00000000000E+00 -0.00000000000E+00 -0.13362707929E+02  0.13362707929E+02  0.00000000000E+00 0. -1.
         13    1    1    2    0    0 -0.93808280058E+01 -0.15617994985E+02  0.33650315629E+02  0.38265867394E+02  0.10566000000E+00 0.  1.
        996    1    1    2    0    0  0.93808280058E+01  0.15617994985E+02  0.52986920620E+02  0.75096840534E+02  0.50000000000E+02 0.  0.
<mgrwt>
<rscale>  0 0.53215803E+02</rscale>
<asrwt>0</asrwt>
<pdfrwt beam="1">  1       13 0.10000000E+01 0.53215803E+02</pdfrwt>
<pdfrwt beam="2">  1       22 0.13362732E+00 0.53215803E+02</pdfrwt>
<totfact> 0.91113012E-01</totfact>
</mgrwt>
</event>
<event>
 4    1  0.2471347E+000  0.5716010E+02  0.7957747E-01  0.1410151E+00
         13   -1    0    0    0    0  0.00000000000E+00  0.00000000000E+00  0.99999944171E+02  0.99999999991E+02  0.10566000000E+00 0. -1.
         22   -1    0    0    0    0 -0.00000000000E+00 -0.00000000000E+00 -0.18359501378E+02  0.18359501378E+02  0.00000000000E+00 0. -1.
         13    1    1    2    0    0  0.21562837085E+02  0.17387383293E+02  0.19180793990E+02  0.33692596562E+02  0.10566000000E+00 0.  1.
        996    1    1    2    0    0 -0.21562837085E+02 -0.17387383293E+02  0.62459648803E+02  0.84666904807E+02  0.50000000000E+02 0.  0.
<mgrwt>
<rscale>  0 0.57160100E+02</rscale>
<asrwt>0</asrwt>
<pdfrwt beam="1">  1       13 0.10000000E+01 0.57160100E+02</pdfrwt>
<pdfrwt beam="2">  1       22 0.18359524E+00 0.57160100E+02</pdfrwt>
<totfact> 0.53507683E-01</totfact>
</mgrwt>
</event>
<event>
 4    1  0.2471347E+000  0.5114502E+02  0.7957747E-01  0.1439262E+00
         13   -1    0    0    0    0  0.00000000000E+00  0.00000000000E+00  0.99999944175E+02  0.99999999995E+02  0.10566000000E+00 0.  1.
         22   -1    0    0    0    0 -0.00000000000E+00 -0.00000000000E+00 -0.12519534243E+02  0.12519534243E+02  0.00000000000E+00 0. -1.
         13    1    1    2    0    0 -0.99376753155E+01  0.41298613907E+01 -0.47749674834E+00  0.10772757909E+02  0.10566000000E+00 0. -1.
        996    1    1    2    0    0  0.99376753155E+01 -0.41298613907E+01  0.87957906681E+02  0.10174677633E+03  0.50000000000E+02 0.  0.
<mgrwt>
<rscale>  0 0.51145021E+02</rscale>
<asrwt>0</asrwt>
<pdfrwt beam="1">  1       13 0.10000000E+01 0.51145021E+02</pdfrwt>
<pdfrwt beam="2">  1       22 0.12519559E+00 0.51145021E+02</pdfrwt>
<totfact> 0.10049815E+00</totfact>
</mgrwt>
</event>
<event>
 4    1  0.2471347E+000  0.5209745E+02  0.7957747E-01  0.1434346E+00
         13   -1    0    0    0    0  0.00000000000E+00  0.00000000000E+00  0.99999944177E+02  0.99999999997E+02  0.10566000000E+00 0. -1.
         22   -1    0    0    0    0 -0.00000000000E+00 -0.00000000000E+00 -0.11239963788E+02  0.11239963788E+02  0.00000000000E+00 0. -1.
         13    1    1    2    0    0 -0.40188301492E+01  0.14071011830E+02  0.24208643968E+02  0.28288053600E+02  0.10566000000E+00 0.  1.
        996    1    1    2    0    0  0.40188301492E+01 -0.14071011830E+02  0.64551336421E+02  0.82951910185E+02  0.50000000000E+02 0.  0.
<mgrwt>
<rscale>  0 0.52097451E+02</rscale>
<asrwt>0</asrwt>
<pdfrwt beam="1">  1       13 0.10000000E+01 0.52097451E+02</pdfrwt>
<pdfrwt beam="2">  1       22 0.11239989E+00 0.52097451E+02</pdfrwt>
<totfact> 0.11871315E+00</totfact>
</mgrwt>
</event>
<event>
 4    1  0.2471347E+000  0.5445797E+02  0.7957747E-01  0.1422680E+00
         13   -1    0    0    0    0  0.00000000000E+00  0.00000000000E+00  0.99999944180E+02  0.10000000000E+03  0.10566000000E+00 0.  1.
         22   -1    0    0    0    0 -0.00000000000E+00 -0.00000000000E+00 -0.14952728220E+02  0.14952728220E+02  0.00000000000E+00 0. -1.
         13    1    1    2    0    0 -0.15713121213E+02  0.14790803851E+02  0.15251045548E+02  0.26424905131E+02  0.10566000000E+00 0. -1.
        996    1    1    2    0    0  0.15713121213E+02 -0.14790803851E+02  0.69796170412E+02  0.88527823090E+02  0.50000000000E+02 0.  0.
<mgrwt>
<rscale>  0 0.54457966E+02</rscale>
<asrwt>0</asrwt>
<pdfrwt beam="1">  1       13 0.10000000E+01 0.54457966E+02</pdfrwt>
<pdfrwt beam="2">  1       22 0.14952752E+00 0.54457966E+02</pdfrwt>
<totfact> 0.76061089E-01</totfact>
</mgrwt>
</event>
<event>
 4    1  0.2471347E+000  0.5174816E+02  0.7957747E-01  0.1436134E+00
         13   -1    0    0    0    0  0.00000000000E+00  0.00000000000E+00  0.99999944178E+02  0.99999999998E+02  0.10566000000E+00 0. -1.
         22   -1    0    0    0    0 -0.00000000000E+00 -0.00000000000E+00 -0.14752544052E+02  0.14752544052E+02  0.00000000000E+00 0.  1.
         13    1    1    2    0    0 -0.27343745348E+01 -0.13053541694E+02 -0.18269304910E+01  0.13461819859E+02  0.10566000000E+00 0.  1.
        996    1    1    2    0    0  0.27343745348E+01  0.13053541694E+02  0.87074330617E+02  0.10129072419E+03  0.50000000000E+02 0.  0.
<mgrwt>
<rscale>  0 0.51748157E+02</rscale>
<asrwt>0</asrwt>
<pdfrwt beam="1">  1       13 0.10000000E+01 0.51748157E+02</pdfrwt>
<pdfrwt beam="2">  1       22 0.14752568E+00 0.51748157E+02</pdfrwt>
<totfact> 0.77359739E-01</totfact>
</mgrwt>
</event>
<event>
 4    1  0.2471347E+000  0.5177333E+02  0.7957747E-01  0.1436005E+00
         13   -1    0    0    0    0  0.00000000000E+00  0.00000000000E+00  0.99999944171E+02  0.99999999991E+02  0.10566000000E+00 0. -1.
         22   -1    0    0    0    0 -0.00000000000E+00 -0.00000000000E+00 -0.11469249981E+02  0.11469249981E+02  0.00000000000E+00 0. -1.
         13    1    1    2    0    0 -0.10589682629E+02  0.82666091211E+01  0.77161352053E+01  0.15492840640E+02  0.10566000000E+00 0.  1.
        996    1    1    2    0    0  0.10589682629E+02 -0.82666091211E+01  0.80814558985E+02  0.95976409333E+02  0.50000000000E+02 0.  0.
<mgrwt>
<rscale>  0 0.51773335E+02</rscale>
<asrwt>0</asrwt>
<pdfrwt beam="1">  1       13 0.10000000E+01 0.51773335E+02</pdfrwt>
<pdfrwt beam="2">  1       22 0.11469275E+00 0.51773335E+02</pdfrwt>
<totfact> 0.11508029E+00</totfact>
</mgrwt>
</event>
<event>
 4    1  0.2471347E+000  0.5111635E+02  0.7957747E-01  0.1439412E+00
         13   -1    0    0    0    0  0.00000000000E+00  0.00000000000E+00  0.99999944183E+02  0.10000000000E+03  0.10566000000E+00 0. -1.
         22   -1    0    0    0    0 -0.00000000000E+00 -0.00000000000E+00 -0.36482781691E+02  0.36482781691E+02  0.00000000000E+00 0.  1.
         13    1    1    2    0    0  0.76816926310E+01  0.73397878940E+01 -0.28944053242E+02  0.30832616984E+02  0.10566000000E+00 0.  1.
        996    1    1    2    0    0 -0.76816926310E+01 -0.73397878940E+01  0.92461215734E+02  0.10565016471E+03  0.50000000000E+02 0.  0.
<mgrwt>
<rscale>  0 0.51116347E+02</rscale>
<asrwt>0</asrwt>
<pdfrwt beam="1">  1       13 0.10000000E+01 0.51116347E+02</pdfrwt>
<pdfrwt beam="2">  1       22 0.36482799E+00 0.51116347E+02</pdfrwt>
<totfact> 0.14602347E-01</totfact>
</mgrwt>
</event>
<event>
 4    1  0.2471347E+000  0.5740200E+02  0.7957747E-01  0.1409069E+00
         13   -1    0    0    0    0  0.00000000000E+00  0.00000000000E+00  0.99999944181E+02  0.10000000000E+03  0.10566000000E+00 0.  1.
         22   -1    0    0    0    0 -0.00000000000E+00 -0.00000000000E+00 -0.18539314991E+02  0.18539314991E+02  0.00000000000E+00 0. -1.
         13    1    1    2    0    0 -0.24954340984E+02 -0.13125186762E+02  0.33099275912E+02  0.43480603623E+02  0.10566000000E+00 0. -1.
        996    1    1    2    0    0  0.24954340984E+02  0.13125186762E+02  0.48361353278E+02  0.75058711369E+02  0.50000000000E+02 0.  0.
<mgrwt>
<rscale>  0 0.57402001E+02</rscale>
<asrwt>0</asrwt>
<pdfrwt beam="1">  1       13 0.10000000E+01 0.57402001E+02</pdfrwt>
<pdfrwt beam="2">  1       22 0.18539338E+00 0.57402001E+02</pdfrwt>
<totfact> 0.52591036E-01</totfact>
</mgrwt>
</event>
<event>
 4    1  0.2471347E+000  0.5646808E+02  0.7957747E-01  0.1413281E+00
         13   -1    0    0    0    0  0.00000000000E+00  0.00000000000E+00  0.99999944174E+02  0.99999999994E+02  0.10566000000E+00 0.  1.
         22   -1    0    0    0    0 -0.00000000000E+00 -0.00000000000E+00 -0.17103564894E+02  0.17103564894E+02  0.00000000000E+00 0.  1.
         13    1    1    2    0    0  0.23047996428E+01 -0.26140618173E+02  0.26738414555E+02  0.37464623271E+02  0.10566000000E+00 0. -1.
        996    1    1    2    0    0 -0.23047996428E+01  0.26140618173E+02  0.56157964725E+02  0.79638941617E+02  0.50000000000E+02 0.  0.
<mgrwt>
<rscale>  0 0.56468080E+02</rscale>
<asrwt>0</asrwt>
<pdfrwt beam="1">  1       13 0.10000000E+01 0.56468080E+02</pdfrwt>
<pdfrwt beam="2">  1       22 0.17103588E+00 0.56468080E+02</pdfrwt>
<totfact> 0.60652589E-01</totfact>
</mgrwt>
</event>
<event>
 4    1  0.2471347E+000  0.5262152E+02  0.7957747E-01  0.1431694E+00
         13   -1    0    0    0    0  0.00000000000E+00  0.00000000000E+00  0.99999944179E+02  0.99999999999E+02  0.10566000000E+00 0. -1.
         22   -1    0    0    0    0 -0.00000000000E+00 -0.00000000000E+00 -0.13573364996E+02  0.13573364996E+02  0.00000000000E+00 0.  1.
         13    1    1    2    0    0  0.43524140553E+01 -0.15813935734E+02  0.60072851846E+01  0.17467762044E+02  0.10566000000E+00 0.  1.
        996    1    1    2    0    0 -0.43524140553E+01  0.15813935734E+02  0.80419293998E+02  0.96105602951E+02  0.50000000000E+02 0.  0.
<mgrwt>
<rscale>  0 0.52621517E+02</rscale>
<asrwt>0</asrwt>
<pdfrwt beam="1">  1       13 0.10000000E+01 0.52621517E+02</pdfrwt>
<pdfrwt beam="2">  1       22 0.13573389E+00 0.52621517E+02</pdfrwt>
<totfact> 0.88754758E-01</totfact>
</mgrwt>
</event>
<event>
 4    1  0.2471347E+000  0.5562772E+02  0.7957747E-01  0.1417153E+00
         13   -1    0    0    0    0  0.00000000000E+00  0.00000000000E+00  0.99999944173E+02  0.99999999993E+02  0.10566000000E+00 0. -1.
         22   -1    0    0    0    0 -0.00000000000E+00 -0.00000000000E+00 -0.27344658755E+02  0.27344658755E+02  0.00000000000E+00 0.  1.
         13    1    1    2    0    0 -0.23984862640E+02  0.43783675555E+01 -0.11107952094E+02  0.26792564306E+02  0.10566000000E+00 0.  1.
        996    1    1    2    0    0  0.23984862640E+02 -0.43783675555E+01  0.83763237512E+02  0.10055209444E+03  0.50000000000E+02 0.  0.
<mgrwt>
<rscale>  0 0.55627725E+02</rscale>
<asrwt>0</asrwt>
<pdfrwt beam="1">  1       13 0.10000000E+01 0.55627725E+02</pdfrwt>
<pdfrwt beam="2">  1       22 0.27344679E+00 0.55627725E+02</pdfrwt>
<totfact> 0.24848961E-01</totfact>
</mgrwt>
</event>
<event>
 4    1  0.2471347E+000  0.5317230E+02  0.7957747E-01  0.1428945E+00
         13   -1    0    0    0    0  0.00000000000E+00  0.00000000000E+00  0.99999944181E+02  0.10000000000E+03  0.10566000000E+00 0.  1.
         22   -1    0    0    0    0 -0.00000000000E+00 -0.00000000000E+00 -0.16460926297E+02  0.16460926297E+02  0.00000000000E+00 0. -1.
         13    1    1    2    0    0  0.17718701519E+02  0.36526022155E+01  0.79991938311E+00  0.18109249612E+02  0.10566000000E+00 0. -1.
        996    1    1    2    0    0 -0.17718701519E+02 -0.36526022155E+01  0.82739098500E+02  0.98351676687E+02  0.50000000000E+02 0.  0.
<mgrwt>
<rscale>  0 0.53172304E+02</rscale>
<asrwt>0</asrwt>
<pdfrwt beam="1">  1       13 0.10000000E+01 0.53172304E+02</pdfrwt>
<pdfrwt beam="2">  1       22 0.16460950E+00 0.53172304E+02</pdfrwt>
<totfact> 0.64452985E-01</totfact>
</mgrwt>
</event>
<event>
 4    1  0.2471347E+000  0.5183400E+02  0.7957747E-01  0.1435693E+00
         13   -1    0    0    0    0  0.00000000000E+00  0.00000000000E+00  0.99999944181E+02  0.10000000000E+03  0.10566000000E+00 0. -1.
         22   -1    0    0    0    0 -0.00000000000E+00 -0.00000000000E+00 -0.63932633873E+02  0.63932633873E+02  0.00000000000E+00 0.  1.
         13    1    1    2    0    0  0.63958099686E+01  0.12077123905E+02 -0.56343543044E+02  0.57977317235E+02  0.10566000000E+00 0.  1.
        996    1    1    2    0    0 -0.63958099686E+01 -0.12077123905E+02  0.92410853352E+02  0.10595531664E+03  0.50000000000E+02 0.  0.
<mgrwt>
<rscale>  0 0.51833998E+02</rscale>
<asrwt>0</asrwt>
<pdfrwt beam="1">  1       13 0.10000000E+01 0.51833998E+02</pdfrwt>
<pdfrwt beam="2">  1       22 0.63932644E+00 0.51833998E+02</pdfrwt>
<totfact> 0.83093002E-02</totfact>
</mgrwt>
</event>
<event>
 4    1  0.2471347E+000  0.5115698E+02  0.7957747E-01  0.1439199E+00
         13   -1    0    0    0    0  0.00000000000E+00  0.00000000000E+00  0.99999944186E+02  0.10000000001E+03  0.10566000000E+00 0.  1.
         22   -1    0    0    0    0 -0.00000000000E+00 -0.00000000000E+00 -0.32641214795E+02  0.32641214795E+02  0.00000000000E+00 0. -1.
         13    1    1    2    0    0  0.24133124209E+01  0.10545757241E+02 -0.24899830383E+02  0.27148660921E+02  0.10566000000E+00 0. -1.
        996    1    1    2    0    0 -0.24133124209E+01 -0.10545757241E+02  0.92258559775E+02  0.10549255388E+03  0.50000000000E+02 0.  0.
<mgrwt>
<rscale>  0 0.51156985E+02</rscale>
<asrwt>0</asrwt>
<pdfrwt beam="1">  1       13 0.10000000E+01 0.51156985E+02</pdfrwt>
<pdfrwt beam="2">  1       22 0.32641234E+00 0.51156985E+02</pdfrwt>
<totfact> 0.17741225E-01</totfact>
</mgrwt>
</event>
<event>
 4    1  0.2471347E+000  0.5112568E+02  0.7957747E-01  0.1439363E+00
         13   -1    0    0    0    0  0.00000000000E+00  0.00000000000E+00  0.99999944172E+02  0.99999999992E+02  0.10566000000E+00 0.  1.
         22   -1    0    0    0    0 -0.00000000000E+00 -0.00000000000E+00 -0.30442366854E+02  0.30442366854E+02  0.00000000000E+00 0. -1.
         13    1    1    2    0    0 -0.76863487338E+01  0.73996690716E+01 -0.22634393687E+02  0.25023229225E+02  0.10566000000E+00 0. -1.
        996    1    1    2    0    0  0.76863487338E+01 -0.73996690716E+01  0.92191971004E+02  0.10541913762E+03  0.50000000000E+02 0.  0.
<mgrwt>
<rscale>  0 0.51125679E+02</rscale>
<asrwt>0</asrwt>
<pdfrwt beam="1">  1       13 0.10000000E+01 0.51125679E+02</pdfrwt>
<pdfrwt beam="2">  1       22 0.30442386E+00 0.51125679E+02</pdfrwt>
<totfact> 0.20124262E-01</totfact>
</mgrwt>
</event>
<event>
 4    1  0.2471347E+000  0.5177708E+02  0.7957747E-01  0.1435986E+00
         13   -1    0    0    0    0  0.00000000000E+00  0.00000000000E+00  0.99999944177E+02  0.99999999997E+02  0.10566000000E+00 0. -1.
         22   -1    0    0    0    0 -0.00000000000E+00 -0.00000000000E+00 -0.11425486902E+02  0.11425486902E+02  0.00000000000E+00 0.  1.
         13    1    1    2    0    0  0.10571881060E+02  0.83127240962E+01  0.79982314499E+01  0.15647649070E+02  0.10566000000E+00 0.  1.
        996    1    1    2    0    0 -0.10571881060E+02 -0.83127240962E+01  0.80576225825E+02  0.95777837829E+02  0.50000000000E+02 0.  0.
<mgrwt>
<rscale>  0 0.51777080E+02</rscale>
<asrwt>0</asrwt>
<pdfrwt beam="1">  1       13 0.10000000E+01 0.51777080E+02</pdfrwt>
<pdfrwt beam="2">  1       22 0.11425512E+00 0.51777080E+02</pdfrwt>
<totfact> 0.11574579E+00</totfact>
</mgrwt>
</event>
<event>
 4    1  0.2471347E+000  0.5104990E+02  0.7957747E-01  0.1439760E+00
         13   -1    0    0    0    0  0.00000000000E+00  0.00000000000E+00  0.99999944182E+02  0.10000000000E+03  0.10566000000E+00 0.  1.
         22   -1    0    0    0    0 -0.00000000000E+00 -0.00000000000E+00 -0.10035023076E+02  0.10035023076E+02  0.00000000000E+00 0.  1.
         13    1    1    2    0    0 -0.39258754857E+01 -0.95225834687E+01  0.64504285081E+01  0.12153653205E+02  0.10566000000E+00 0. -1.
        996    1    1    2    0    0  0.39258754857E+01  0.95225834687E+01  0.83514492598E+02  0.97881369873E+02  0.50000000000E+02 0.  0.
<mgrwt>
<rscale>  0 0.51049898E+02</rscale>
<asrwt>0</asrwt>
<pdfrwt beam="1">  1       13 0.10000000E+01 0.51049898E+02</pdfrwt>
<pdfrwt beam="2">  1       22 0.10035048E+00 0.51049898E+02</pdfrwt>
<totfact> 0.13994405E+00</totfact>
</mgrwt>
</event>
<event>
 4    1  0.2471347E+000  0.5116062E+02  0.7957747E-01  0.1439180E+00
         13   -1    0    0    0    0  0.00000000000E+00  0.00000000000E+00  0.99999944180E+02  0.10000000000E+03  0.10566000000E+00 0.  1.
         22   -1    0    0    0    0 -0.00000000000E+00 -0.00000000000E+00 -0.96193143755E+01  0.96193143755E+01  0.00000000000E+00 0.  1.
         13    1    1    2    0    0  0.38789401922E+01  0.10117466359E+02  0.17195877282E+02  0.20325320713E+02  0.10566000000E+00 0. -1.
        996    1    1    2    0    0 -0.38789401922E+01 -0.10117466359E+02  0.73184752522E+02  0.89293993662E+02  0.50000000000E+02 0.  0.
<mgrwt>
<rscale>  0 0.51160623E+02</rscale>
<asrwt>0</asrwt>
<pdfrwt beam="1">  1       13 0.10000000E+01 0.51160623E+02</pdfrwt>
<pdfrwt beam="2">  1       22 0.96193396E-01 0.51160623E+02</pdfrwt>
<totfact> 0.14878331E+00</totfact>
</mgrwt>
</event>
<event>
 4    1  0.2471347E+000  0.5286690E+02  0.7957747E-01  0.1430464E+00
         13   -1    0    0    0    0  0.00000000000E+00  0.00000000000E+00  0.99999944182E+02  0.10000000000E+03  0.10566000000E+00 0. -1.
         22   -1    0    0    0    0 -0.00000000000E+00 -0.00000000000E+00 -0.12579972954E+02  0.12579972954E+02  0.00000000000E+00 0.  1.
         13    1    1    2    0    0  0.11575790939E+02 -0.12685051665E+02  0.14285067975E+02  0.22337945356E+02  0.10566000000E+00 0.  1.
        996    1    1    2    0    0 -0.11575790939E+02  0.12685051665E+02  0.73134903253E+02  0.90242027600E+02  0.50000000000E+02 0.  0.
<mgrwt>
<rscale>  0 0.52866903E+02</rscale>
<asrwt>0</asrwt>
<pdfrwt beam="1">  1       13 0.10000000E+01 0.52866903E+02</pdfrwt>
<pdfrwt beam="2">  1       22 0.12579997E+00 0.52866903E+02</pdfrwt>
<totfact> 0.10012583E+00</totfact>
</mgrwt>
</event>
<event>
 4    1  0.2471347E+000  0.5416578E+02  0.7957747E-01  0.1424086E+00
         13   -1    0    0    0    0  0.00000000000E+00  0.00000000000E+00  0.99999944184E+02  0.10000000000E+03  0.10566000000E+00 0.  1.
         22   -1    0    0    0    0 -0.00000000000E+00 -0.00000000000E+00 -0.22465136482E+02  0.22465136482E+02  0.00000000000E+00 0. -1.
         13    1    1    2    0    0  0.17056525699E+02 -0.11958517359E+02 -0.70771468572E+01  0.22000644945E+02  0.10566000000E+00 0. -1.
        996    1    1    2    0    0 -0.17056525699E+02  0.11958517359E+02  0.84611954559E+02  0.10046449154E+03  0.50000000000E+02 0.  0.
<mgrwt>
<rscale>  0 0.54165775E+02</rscale>
<asrwt>0</asrwt>
<pdfrwt beam="1">  1       13 0.10000000E+01 0.54165775E+02</pdfrwt>
<pdfrwt beam="2">  1       22 0.22465158E+00 0.54165775E+02</pdfrwt>
<totfact> 0.36455799E-01</totfact>
</mgrwt>
</event>
<event>
 4    1  0.2471347E+000  0.5115858E+02  0.7957747E-01  0.1439191E+00
         13   -1    0    0    0    0  0.00000000000E+00  0.00000000000E+00  0.99999944182E+02  0.10000000000E+03  0.10566000000E+00 0. -1.
         22   -1    0    0    0    0 -0.00000000000E+00 -0.00000000000E+00 -0.12469700745E+02  0.12469700745E+02  0.00000000000E+00 0. -1.
         13    1    1    2    0    0  0.72328974664E+01  0.80551432028E+01 -0.29536854129E+00  0.10830445253E+02  0.10566000000E+00 0.  1.
        996    1    1    2    0    0 -0.72328974664E+01 -0.80551432028E+01  0.87825611978E+02  0.10163925549E+03  0.50000000000E+02 0.  0.
<mgrwt>
<rscale>  0 0.51158578E+02</rscale>
<asrwt>0</asrwt>
<pdfrwt beam="1">  1       13 0.10000000E+01 0.51158578E+02</pdfrwt>
<pdfrwt beam="2">  1       22 0.12469725E+00 0.51158578E+02</pdfrwt>
<totfact> 0.10112548E+00</totfact>
</mgrwt>
</event>
<event>
 4    1  0.2471347E+000  0.5181528E+02  0.7957747E-01  0.1435789E+00
         13   -1    0    0    0    0  0.00000000000E+00  0.00000000000E+00  0.99999944173E+02  0.99999999993E+02  0.10566000000E+00 0. -1.
         22   -1    0    0    0    0 -0.00000000000E+00 -0.00000000000E+00 -0.10871450674E+02  0.10871450674E+02  0.00000000000E+00 0. -1.
         13    1    1    2    0    0 -0.11028219580E+02  0.79499189985E+01  0.24677578598E+02  0.28174756231E+02  0.10566000000E+00 0.  1.
        996    1    1    2    0    0  0.11028219580E+02 -0.79499189985E+01  0.64450914900E+02  0.82696694436E+02  0.50000000000E+02 0.  0.
<mgrwt>
<rscale>  0 0.51815276E+02</rscale>
<asrwt>0</asrwt>
<pdfrwt beam="1">  1       13 0.10000000E+01 0.51815276E+02</pdfrwt>
<pdfrwt beam="2">  1       22 0.10871476E+00 0.51815276E+02</pdfrwt>
<totfact> 0.12467787E+00</totfact>
</mgrwt>
</event>
<event>
 4    1  0.2471347E+000  0.5994375E+02  0.7957747E-01  0.1398068E+00
         13   -1    0    0    0    0  0.00000000000E+00  0.00000000000E+00  0.99999944188E+02  0.10000000001E+03  0.10566000000E+00 0. -1.
         22   -1    0    0    0    0 -0.00000000000E+00 -0.00000000000E+00 -0.63579481828E+02  0.63579481828E+02  0.00000000000E+00 0.  1.
         13    1    1    2    0    0  0.20268808571E+02  0.26123334933E+02 -0.49068245656E+02  0.59168886458E+02  0.10566000000E+00 0.  1.
        996    1    1    2    0    0 -0.20268808571E+02 -0.26123334933E+02  0.85488708016E+02  0.10441059538E+03  0.50000000000E+02 0.  0.
<mgrwt>
<rscale>  0 0.59943751E+02</rscale>
<asrwt>0</asrwt>
<pdfrwt beam="1">  1       13 0.10000000E+01 0.59943751E+02</pdfrwt>
<pdfrwt beam="2">  1       22 0.63579492E+00 0.59943751E+02</pdfrwt>
<totfact> 0.81626130E-02</totfact>
</mgrwt>
</event>
<event>
 4    1  0.2471347E+000  0.5545319E+02  0.7957747E-01  0.1417968E+00
         13   -1    0    0    0    0  0.00000000000E+00  0.00000000000E+00  0.99999944186E+02  0.10000000001E+03  0.10566000000E+00 0. -1.
         22   -1    0    0    0    0 -0.00000000000E+00 -0.00000000000E+00 -0.21174740775E+02  0.21174740775E+02  0.00000000000E+00 0.  1.
         13    1    1    2    0    0  0.22531444328E+02 -0.82091702921E+01 -0.97337259901E+00  0.24000314137E+02  0.10566000000E+00 0.  1.
        996    1    1    2    0    0 -0.22531444328E+02  0.82091702921E+01  0.79798576011E+02  0.97174426645E+02  0.50000000000E+02 0.  0.
<mgrwt>
<rscale>  0 0.55453192E+02</rscale>
<asrwt>0</asrwt>
<pdfrwt beam="1">  1       13 0.10000000E+01 0.55453192E+02</pdfrwt>
<pdfrwt beam="2">  1       22 0.21174763E+00 0.55453192E+02</pdfrwt>
<totfact> 0.40926699E-01</totfact>
</mgrwt>
</event>
<event>
 4    1  0.2471347E+000  0.5129363E+02  0.7957747E-01  0.1438486E+00
         13   -1    0    0    0    0  0.00000000000E+00  0.00000000000E+00  0.99999944178E+02  0.99999999999E+02  0.10566000000E+00 0. -1.
         22   -1    0    0    0    0 -0.00000000000E+00 -0.00000000000E+00 -0.10918485077E+02  0.10918485077E+02  0.00000000000E+00 0. -1.
         13    1    1    2    0    0 -0.10151041652E+02 -0.52907863661E+01  0.32942972309E+02  0.34875301512E+02  0.10566000000E+00 0.  1.
        996    1    1    2    0    0  0.10151041652E+02  0.52907863661E+01  0.56138486793E+02  0.76043183563E+02  0.50000000000E+02 0.  0.
<mgrwt>
<rscale>  0 0.51293626E+02</rscale>
<asrwt>0</asrwt>
<pdfrwt beam="1">  1       13 0.10000000E+01 0.51293626E+02</pdfrwt>
<pdfrwt beam="2">  1       22 0.10918510E+00 0.51293626E+02</pdfrwt>
<totfact> 0.12373091E+00</totfact>
</mgrwt>
</event>
<event>
 4    1  0.2471347E+000  0.5147858E+02  0.7957747E-01  0.1437526E+00
         13   -1    0    0    0    0  0.00000000000E+00  0.00000000000E+00  0.99999944174E+02  0.99999999994E+02  0.10566000000E+00 0.  1.
         22   -1    0    0    0    0 -0.00000000000E+00 -0.00000000000E+00 -0.17410575264E+02  0.17410575264E+02  0.00000000000E+00 0.  1.
         13    1    1    2    0    0  0.74125213081E+01 -0.97518608387E+01 -0.69821647262E+01  0.14099859938E+02  0.10566000000E+00 0. -1.
        996    1    1    2    0    0 -0.74125213081E+01  0.97518608387E+01  0.89571533636E+02  0.10331071532E+03  0.50000000000E+02 0.  0.
<mgrwt>
<rscale>  0 0.51478581E+02</rscale>
<asrwt>0</asrwt>
<pdfrwt beam="1">  1       13 0.10000000E+01 0.51478581E+02</pdfrwt>
<pdfrwt beam="2">  1       22 0.17410598E+00 0.51478581E+02</pdfrwt>
<totfact> 0.58238227E-01</totfact>
</mgrwt>
</event>
<event>
 4    1  0.2471347E+000  0.5359535E+02  0.7957747E-01  0.1426861E+00
         13   -1    0    0    0    0  0.00000000000E+00  0.00000000000E+00  0.99999944178E+02  0.99999999998E+02  0.10566000000E+00 0. -1.
         22   -1    0    0    0    0 -0.00000000000E+00 -0.00000000000E+00 -0.31008838699E+02  0.31008838699E+02  0.00000000000E+00 0.  1.
         13    1    1    2    0    0  0.13802047178E+02 -0.13489432377E+02 -0.19574724847E+02  0.27488948853E+02  0.10566000000E+00 0.  1.
        996    1    1    2    0    0 -0.13802047178E+02  0.13489432377E+02  0.88565830326E+02  0.10351988984E+03  0.50000000000E+02 0.  0.
<mgrwt>
<rscale>  0 0.53595348E+02</rscale>
<asrwt>0</asrwt>
<pdfrwt beam="1">  1       13 0.10000000E+01 0.53595348E+02</pdfrwt>
<pdfrwt beam="2">  1       22 0.31008858E+00 0.53595348E+02</pdfrwt>
<totfact> 0.19514699E-01</totfact>
</mgrwt>
</event>
<event>
 4    1  0.2471347E+000  0.5151065E+02  0.7957747E-01  0.1437360E+00
         13   -1    0    0    0    0  0.00000000000E+00  0.00000000000E+00  0.99999944172E+02  0.99999999992E+02  0.10566000000E+00 0.  1.
         22   -1    0    0    0    0 -0.00000000000E+00 -0.00000000000E+00 -0.16043633581E+02  0.16043633581E+02  0.00000000000E+00 0. -1.
         13    1    1    2    0    0 -0.84724307220E+01  0.90313528061E+01 -0.49148714242E+01  0.13323458297E+02  0.10566000000E+00 0. -1.
        996    1    1    2    0    0  0.84724307220E+01 -0.90313528061E+01  0.88871182015E+02  0.10272017528E+03  0.50000000000E+02 0.  0.
<mgrwt>
<rscale>  0 0.51510653E+02</rscale>
<asrwt>0</asrwt>
<pdfrwt beam="1">  1       13 0.10000000E+01 0.51510653E+02</pdfrwt>
<pdfrwt beam="2">  1       22 0.16043657E+00 0.51510653E+02</pdfrwt>
<totfact> 0.67145299E-01</totfact>
</mgrwt>
</event>
<event>
 4    1  0.2471347E+000  0.5263714E+02  0.7957747E-01  0.1431615E+00
         13   -1    0    0    0    0  0.00000000000E+00  0.00000000000E+00  0.99999944176E+02  0.99999999996E+02  0.10566000000E+00 0.  1.
         22   -1    0    0    0    0 -0.00000000000E+00 -0.00000000000E+00 -0.12032906763E+02  0.12032906763E+02  0.00000000000E+00 0.  1.
         13    1    1    2    0    0  0.47449516012E+01  0.15752890771E+02  0.25485268879E+02  0.30334439623E+02  0.10566000000E+00 0. -1.
        996    1    1    2    0    0 -0.47449516012E+01 -0.15752890771E+02  0.62481768533E+02  0.81698467136E+02  0.50000000000E+02 0.  0.
<mgrwt>
<rscale>  0 0.52637136E+02</rscale>
<asrwt>0</asrwt>
<pdfrwt beam="1">  1       13 0.10000000E+01 0.52637136E+02</pdfrwt>
<pdfrwt beam="2">  1       22 0.12032931E+00 0.52637136E+02</pdfrwt>
<totfact> 0.10719516E+00</totfact>
</mgrwt>
</event>
<event>
 4    1  0.2471347E+000  0.5373174E+02  0.7957747E-01  0.1426194E+00
         13   -1    0    0    0    0  0.00000000000E+00  0.00000000000E+00  0.99999944175E+02  0.99999999995E+02  0.10566000000E+00 0.  1.
         22   -1    0    0    0    0 -0.00000000000E+00 -0.00000000000E+00 -0.16325013285E+02  0.16325013285E+02  0.00000000000E+00 0.  1.
         13    1    1    2    0    0  0.18518580344E+02 -0.66454483391E+01  0.37680523087E+01  0.20032702859E+02  0.10566000000E+00 0. -1.
        996    1    1    2    0    0 -0.18518580344E+02  0.66454483391E+01  0.79906878582E+02  0.96292310421E+02  0.50000000000E+02 0.  0.
<mgrwt>
<rscale>  0 0.53731739E+02</rscale>
<asrwt>0</asrwt>
<pdfrwt beam="1">  1       13 0.10000000E+01 0.53731739E+02</pdfrwt>
<pdfrwt beam="2">  1       22 0.16325037E+00 0.53731739E+02</pdfrwt>
<totfact> 0.65452812E-01</totfact>
</mgrwt>
</event>
<event>
 4    1  0.2471347E+000  0.5187592E+02  0.7957747E-01  0.1435478E+00
         13   -1    0    0    0    0  0.00000000000E+00  0.00000000000E+00  0.99999944178E+02  0.99999999998E+02  0.10566000000E+00 0.  1.
         22   -1    0    0    0    0 -0.00000000000E+00 -0.00000000000E+00 -0.23853550351E+02  0.23853550351E+02  0.00000000000E+00 0. -1.
         13    1    1    2    0    0  0.94799989566E+01 -0.10061822403E+02 -0.14108250107E+02  0.19752583006E+02  0.10566000000E+00 0. -1.
        996    1    1    2    0    0 -0.94799989566E+01  0.10061822403E+02  0.90254643933E+02  0.10410096734E+03  0.50000000000E+02 0.  0.
<mgrwt>
<rscale>  0 0.51875916E+02</rscale>
<asrwt>0</asrwt>
<pdfrwt beam="1">  1       13 0.10000000E+01 0.51875916E+02</pdfrwt>
<pdfrwt beam="2">  1       22 0.23853572E+00 0.51875916E+02</pdfrwt>
<totfact> 0.32318136E-01</totfact>
</mgrwt>
</event>
<event>
 4    1  0.2471347E+000  0.5181623E+02  0.7957747E-01  0.1435784E+00
         13   -1    0    0    0    0  0.00000000000E+00  0.00000000000E+00  0.99999944179E+02  0.99999999999E+02  0.10566000000E+00 0.  1.
         22   -1    0    0    0    0 -0.00000000000E+00 -0.00000000000E+00 -0.13148232723E+02  0.13148232723E+02  0.00000000000E+00 0.  1.
         13    1    1    2    0    0 -0.12983493536E+02  0.40435954331E+01  0.20269581595E+01  0.13749236046E+02  0.10566000000E+00 0. -1.
        996    1    1    2    0    0  0.12983493536E+02 -0.40435954331E+01  0.84824753296E+02  0.99398996676E+02  0.50000000000E+02 0.  0.
<mgrwt>
<rscale>  0 0.51816231E+02</rscale>
<asrwt>0</asrwt>
<pdfrwt beam="1">  1       13 0.10000000E+01 0.51816231E+02</pdfrwt>
<pdfrwt beam="2">  1       22 0.13148257E+00 0.51816231E+02</pdfrwt>
<totfact> 0.93205386E-01</totfact>
</mgrwt>
</event>
<event>
 4    1  0.2471347E+000  0.5183089E+02  0.7957747E-01  0.1435709E+00
         13   -1    0    0    0    0  0.00000000000E+00  0.00000000000E+00  0.99999944172E+02  0.99999999992E+02  0.10566000000E+00 0.  1.
         22   -1    0    0    0    0 -0.00000000000E+00 -0.00000000000E+00 -0.18939478921E+02  0.18939478921E+02  0.00000000000E+00 0. -1.
         13    1    1    2    0    0 -0.59832528335E+01  0.12273609104E+02 -0.80504135105E+01  0.15851218144E+02  0.10566000000E+00 0. -1.
        996    1    1    2    0    0  0.59832528335E+01 -0.12273609104E+02  0.89110878761E+02  0.10308826077E+03  0.50000000000E+02 0.  0.
<mgrwt>
<rscale>  0 0.51830886E+02</rscale>
<asrwt>0</asrwt>
<pdfrwt beam="1">  1       13 0.10000000E+01 0.51830886E+02</pdfrwt>
<pdfrwt beam="2">  1       22 0.18939502E+00 0.51830886E+02</pdfrwt>
<totfact> 0.50089324E-01</totfact>
</mgrwt>
</event>
<event>
 4    1  0.2471347E+000  0.5418814E+02  0.7957747E-01  0.1423978E+00
         13   -1    0    0    0    0  0.00000000000E+00  0.00000000000E+00  0.99999944177E+02  0.99999999997E+02  0.10566000000E+00 0.  1.
         22   -1    0    0    0    0 -0.00000000000E+00 -0.00000000000E+00 -0.14126177343E+02  0.14126177343E+02  0.00000000000E+00 0. -1.
         13    1    1    2    0    0  0.20599124396E+02  0.34684368610E+01  0.21407057502E+02  0.29910320210E+02  0.10566000000E+00 0. -1.
        996    1    1    2    0    0 -0.20599124396E+02 -0.34684368610E+01  0.64466709331E+02  0.84215857130E+02  0.50000000000E+02 0.  0.
<mgrwt>
<rscale>  0 0.54188135E+02</rscale>
<asrwt>0</asrwt>
<pdfrwt beam="1">  1       13 0.10000000E+01 0.54188135E+02</pdfrwt>
<pdfrwt beam="2">  1       22 0.14126201E+00 0.54188135E+02</pdfrwt>
<totfact> 0.83481445E-01</totfact>
</mgrwt>
</event>
<event>
 4    1  0.2471347E+000  0.5391835E+02  0.7957747E-01  0.1425284E+00
         13   -1    0    0    0    0  0.00000000000E+00  0.00000000000E+00  0.99999944184E+02  0.10000000000E+03  0.10566000000E+00 0. -1.
         22   -1    0    0    0    0 -0.00000000000E+00 -0.00000000000E+00 -0.17203642862E+02  0.17203642862E+02  0.00000000000E+00 0.  1.
         13    1    1    2    0    0  0.17517413298E+02  0.10016436062E+02  0.22887557099E+01  0.20308577665E+02  0.10566000000E+00 0.  1.
        996    1    1    2    0    0 -0.17517413298E+02 -0.10016436062E+02  0.80507545612E+02  0.96895065202E+02  0.50000000000E+02 0.  0.
<mgrwt>
<rscale>  0 0.53918353E+02</rscale>
<asrwt>0</asrwt>
<pdfrwt beam="1">  1       13 0.10000000E+01 0.53918353E+02</pdfrwt>
<pdfrwt beam="2">  1       22 0.17203666E+00 0.53918353E+02</pdfrwt>
<totfact> 0.59756349E-01</totfact>
</mgrwt>
</event>
<event>
 4    1  0.2471347E+000  0.8552605E+02  0.7957747E-01  0.1314063E+00
         13   -1    0    0    0    0  0.00000000000E+00  0.00000000000E+00  0.99999944187E+02  0.10000000001E+03  0.10566000000E+00 0.  1.
         22   -1    0    0    0    0 -0.00000000000E+00 -0.00000000000E+00 -0.69917381434E+02  0.69917381434E+02  0.00000000000E+00 0. -1.
         13    1    1    2    0    0 -0.17775633382E+02  0.67072591647E+02 -0.18157650426E+02  0.71724592194E+02  0.10566000000E+00 0. -1.
        996    1    1    2    0    0  0.17775633382E+02 -0.67072591647E+02  0.48240213179E+02  0.98192789246E+02  0.50000000000E+02 0.  0.
<mgrwt>
<rscale>  0 0.85526053E+02</rscale>
<asrwt>0</asrwt>
<pdfrwt beam="1">  1       13 0.10000000E+01 0.85526053E+02</pdfrwt>
<pdfrwt beam="2">  1       22 0.69917390E+00 0.85526053E+02</pdfrwt>
<totfact> 0.75036556E-02</totfact>
</mgrwt>
</event>
<event>
 4    1  0.2471347E+000  0.5333246E+02  0.7957747E-01  0.1428153E+00
         13   -1    0    0    0    0  0.00000000000E+00  0.00000000000E+00  0.99999944181E+02  0.10000000000E+03  0.10566000000E+00 0. -1.
         22   -1    0    0    0    0 -0.00000000000E+00 -0.00000000000E+00 -0.16985156429E+02  0.16985156429E+02  0.00000000000E+00 0.  1.
         13    1    1    2    0    0  0.86992822830E+01  0.16391284505E+02  0.29055219575E+00  0.18559291597E+02  0.10566000000E+00 0.  1.
        996    1    1    2    0    0 -0.86992822830E+01 -0.16391284505E+02  0.82724235556E+02  0.98425864834E+02  0.50000000000E+02 0.  0.
<mgrwt>
<rscale>  0 0.53332464E+02</rscale>
<asrwt>0</asrwt>
<pdfrwt beam="1">  1       13 0.10000000E+01 0.53332464E+02</pdfrwt>
<pdfrwt beam="2">  1       22 0.16985180E+00 0.53332464E+02</pdfrwt>
<totfact> 0.61046931E-01</totfact>
</mgrwt>
</event>
<event>
 4    1  0.2471347E+000  0.6003797E+02  0.7957747E-01  0.1397672E+00
         13   -1    0    0    0    0  0.00000000000E+00  0.00000000000E+00  0.99999944174E+02  0.99999999994E+02  0.10566000000E+00 0. -1.
         22   -1    0    0    0    0 -0.00000000000E+00 -0.00000000000E+00 -0.24746510227E+02  0.24746510227E+02  0.00000000000E+00 0. -1.
         13    1    1    2    0    0 -0.30442172652E+02 -0.13335358105E+02  0.72203809914E+01  0.34010332507E+02  0.10566000000E+00 0.  1.
        996    1    1    2    0    0  0.30442172652E+02  0.13335358105E+02  0.68033052956E+02  0.90736177713E+02  0.50000000000E+02 0.  0.
<mgrwt>
<rscale>  0 0.60037968E+02</rscale>
<asrwt>0</asrwt>
<pdfrwt beam="1">  1       13 0.10000000E+01 0.60037968E+02</pdfrwt>
<pdfrwt beam="2">  1       22 0.24746531E+00 0.60037968E+02</pdfrwt>
<totfact> 0.30431835E-01</totfact>
</mgrwt>
</event>
<event>
 4    1  0.2471347E+000  0.5128272E+02  0.7957747E-01  0.1438543E+00
         13   -1    0    0    0    0  0.00000000000E+00  0.00000000000E+00  0.99999944178E+02  0.99999999998E+02  0.10566000000E+00 0.  1.
         22   -1    0    0    0    0 -0.00000000000E+00 -0.00000000000E+00 -0.10436036397E+02  0.10436036397E+02  0.00000000000E+00 0.  1.
         13    1    1    2    0    0 -0.60118140745E+01  0.96837959603E+01  0.28497100280E+02  0.30692241708E+02  0.10566000000E+00 0. -1.
        996    1    1    2    0    0  0.60118140745E+01 -0.96837959603E+01  0.61066807501E+02  0.79743794687E+02  0.50000000000E+02 0.  0.
<mgrwt>
<rscale>  0 0.51282724E+02</rscale>
<asrwt>0</asrwt>
<pdfrwt beam="1">  1       13 0.10000000E+01 0.51282724E+02</pdfrwt>
<pdfrwt beam="2">  1       22 0.10436061E+00 0.51282724E+02</pdfrwt>
<totfact> 0.13225276E+00</totfact>
</mgrwt>
</event>
<event>
 4    1  0.2471347E+000  0.5258254E+02  0.7957747E-01  0.1431890E+00
         13   -1    0    0    0    0  0.00000000000E+00  0.00000000000E+00  0.99999944177E+02  0.99999999997E+02  0.10566000000E+00 0.  1.
         22   -1    0    0    0    0 -0.00000000000E+00 -0.00000000000E+00 -0.23599005992E+02  0.23599005992E+02  0.00000000000E+00 0. -1.
         13    1    1    2    0    0 -0.16089641583E+02 -0.24589821377E+01 -0.12356049487E+02  0.20435417353E+02  0.10566000000E+00 0. -1.
        996    1    1    2    0    0  0.16089641583E+02  0.24589821377E+01  0.88756987673E+02  0.10316358864E+03  0.50000000000E+02 0.  0.
<mgrwt>
<rscale>  0 0.52582537E+02</rscale>
<asrwt>0</asrwt>
<pdfrwt beam="1">  1       13 0.10000000E+01 0.52582537E+02</pdfrwt>
<pdfrwt beam="2">  1       22 0.23599027E+00 0.52582537E+02</pdfrwt>
<totfact> 0.33041208E-01</totfact>
</mgrwt>
</event>
<event>
 4    1  0.2471347E+000  0.5700576E+02  0.7957747E-01  0.1410845E+00
         13   -1    0    0    0    0  0.00000000000E+00  0.00000000000E+00  0.99999944186E+02  0.10000000001E+03  0.10566000000E+00 0.  1.
         22   -1    0    0    0    0 -0.00000000000E+00 -0.00000000000E+00 -0.49864144731E+02  0.49864144731E+02  0.00000000000E+00 0. -1.
         13    1    1    2    0    0  0.27271920953E+02  0.24287052189E+01 -0.36822394904E+02  0.45886340146E+02  0.10566000000E+00 0. -1.
        996    1    1    2    0    0 -0.27271920953E+02 -0.24287052189E+01  0.86958194358E+02  0.10397780459E+03  0.50000000000E+02 0.  0.
<mgrwt>
<rscale>  0 0.57005757E+02</rscale>
<asrwt>0</asrwt>
<pdfrwt beam="1">  1       13 0.10000000E+01 0.57005757E+02</pdfrwt>
<pdfrwt beam="2">  1       22 0.49864159E+00 0.57005757E+02</pdfrwt>
<totfact> 0.74327093E-02</totfact>
</mgrwt>
</event>
<event>
 4    1  0.2471347E+000  0.7165040E+02  0.7957747E-01  0.1354569E+00
         13   -1    0    0    0    0  0.00000000000E+00  0.00000000000E+00  0.99999944174E+02  0.99999999995E+02  0.10566000000E+00 0.  1.
         22   -1    0    0    0    0 -0.00000000000E+00 -0.00000000000E+00 -0.59826077031E+02  0.59826077031E+02  0.00000000000E+00 0. -1.
         13    1    1    2    0    0  0.49517960777E+01 -0.51080906750E+02 -0.30074728729E+02  0.59483441318E+02  0.10566000000E+00 0. -1.
        996    1    1    2    0    0 -0.49517960777E+01  0.51080906750E+02  0.70248595872E+02  0.10034263571E+03  0.50000000000E+02 0.  0.
<mgrwt>
<rscale>  0 0.71650397E+02</rscale>
<asrwt>0</asrwt>
<pdfrwt beam="1">  1       13 0.10000000E+01 0.71650397E+02</pdfrwt>
<pdfrwt beam="2">  1       22 0.59826088E+00 0.71650397E+02</pdfrwt>
<totfact> 0.63109032E-02</totfact>
</mgrwt>
</event>
<event>
 4    1  0.2471347E+000  0.5106660E+02  0.7957747E-01  0.1439672E+00
         13   -1    0    0    0    0  0.00000000000E+00  0.00000000000E+00  0.99999944178E+02  0.99999999998E+02  0.10566000000E+00 0.  1.
         22   -1    0    0    0    0 -0.00000000000E+00 -0.00000000000E+00 -0.18012732113E+02  0.18012732113E+02  0.00000000000E+00 0. -1.
         13    1    1    2    0    0  0.84415851598E+01 -0.60446314257E+01 -0.89565542315E+01  0.13712365107E+02  0.10566000000E+00 0. -1.
        996    1    1    2    0    0 -0.84415851598E+01  0.60446314257E+01  0.90943766296E+02  0.10430036700E+03  0.50000000000E+02 0.  0.
<mgrwt>
<rscale>  0 0.51066603E+02</rscale>
<asrwt>0</asrwt>
<pdfrwt beam="1">  1       13 0.10000000E+01 0.51066603E+02</pdfrwt>
<pdfrwt beam="2">  1       22 0.18012755E+00 0.51066603E+02</pdfrwt>
<totfact> 0.54773253E-01</totfact>
</mgrwt>
</event>
<event>
 4    1  0.2471347E+000  0.6082942E+02  0.7957747E-01  0.1394384E+00
         13   -1    0    0    0    0  0.00000000000E+00  0.00000000000E+00  0.99999944173E+02  0.99999999994E+02  0.10566000000E+00 0. -1.
         22   -1    0    0    0    0 -0.00000000000E+00 -0.00000000000E+00 -0.41701678454E+02  0.41701678454E+02  0.00000000000E+00 0. -1.
         13    1    1    2    0    0 -0.17481165035E+02 -0.29910326704E+02 -0.21943625006E+02  0.41009177229E+02  0.10566000000E+00 0.  1.
        996    1    1    2    0    0  0.17481165035E+02  0.29910326704E+02  0.80241890725E+02  0.10069250122E+03  0.50000000000E+02 0.  0.
<mgrwt>
<rscale>  0 0.60829424E+02</rscale>
<asrwt>0</asrwt>
<pdfrwt beam="1">  1       13 0.10000000E+01 0.60829424E+02</pdfrwt>
<pdfrwt beam="2">  1       22 0.41701695E+00 0.60829424E+02</pdfrwt>
<totfact> 0.11466022E-01</totfact>
</mgrwt>
</event>
<event>
 4    1  0.2471347E+000  0.5493173E+02  0.7957747E-01  0.1420422E+00
         13   -1    0    0    0    0  0.00000000000E+00  0.00000000000E+00  0.99999944182E+02  0.10000000000E+03  0.10566000000E+00 0.  1.
         22   -1    0    0    0    0 -0.00000000000E+00 -0.00000000000E+00 -0.23622085919E+02  0.23622085919E+02  0.00000000000E+00 0. -1.
         13    1    1    2    0    0 -0.13558353306E+01 -0.22708084260E+02 -0.69769574947E+01  0.23794631329E+02  0.10566000000E+00 0. -1.
        996    1    1    2    0    0  0.13558353306E+01  0.22708084260E+02  0.83354815758E+02  0.99827454592E+02  0.50000000000E+02 0.  0.
<mgrwt>
<rscale>  0 0.54931734E+02</rscale>
<asrwt>0</asrwt>
<pdfrwt beam="1">  1       13 0.10000000E+01 0.54931734E+02</pdfrwt>
<pdfrwt beam="2">  1       22 0.23622107E+00 0.54931734E+02</pdfrwt>
<totfact> 0.33100491E-01</totfact>
</mgrwt>
</event>
<event>
 4    1  0.2471347E+000  0.5265045E+02  0.7957747E-01  0.1431548E+00
         13   -1    0    0    0    0  0.00000000000E+00  0.00000000000E+00  0.99999944178E+02  0.99999999998E+02  0.10566000000E+00 0. -1.
         22   -1    0    0    0    0 -0.00000000000E+00 -0.00000000000E+00 -0.23053286327E+02  0.23053286327E+02  0.00000000000E+00 0.  1.
         13    1    1    2    0    0 -0.91880849498E+01 -0.13698493851E+02 -0.11509689891E+02  0.20113521926E+02  0.10566000000E+00 0.  1.
        996    1    1    2    0    0  0.91880849498E+01  0.13698493851E+02  0.88456347742E+02  0.10293976440E+03  0.50000000000E+02 0.  0.
<mgrwt>
<rscale>  0 0.52650448E+02</rscale>
<asrwt>0</asrwt>
<pdfrwt beam="1">  1       13 0.10000000E+01 0.52650448E+02</pdfrwt>
<pdfrwt beam="2">  1       22 0.23053308E+00 0.52650448E+02</pdfrwt>
<totfact> 0.34587385E-01</totfact>
</mgrwt>
</event>
<event>
 4    1  0.2471347E+000  0.5151526E+02  0.7957747E-01  0.1437336E+00
         13   -1    0    0    0    0  0.00000000000E+00  0.00000000000E+00  0.99999944179E+02  0.99999999999E+02  0.10566000000E+00 0.  1.
         22   -1    0    0    0    0 -0.00000000000E+00 -0.00000000000E+00 -0.10339901745E+02  0.10339901745E+02  0.00000000000E+00 0. -1.
         13    1    1    2    0    0 -0.14887514970E+01  0.12312824086E+02  0.22568502835E+02  0.25752097046E+02  0.10566000000E+00 0. -1.
        996    1    1    2    0    0  0.14887514970E+01 -0.12312824086E+02  0.67091539598E+02  0.84587804698E+02  0.50000000000E+02 0.  0.
<mgrwt>
<rscale>  0 0.51515260E+02</rscale>
<asrwt>0</asrwt>
<pdfrwt beam="1">  1       13 0.10000000E+01 0.51515260E+02</pdfrwt>
<pdfrwt beam="2">  1       22 0.10339927E+00 0.51515260E+02</pdfrwt>
<totfact> 0.13413030E+00</totfact>
</mgrwt>
</event>
<event>
 4    1  0.2471347E+000  0.5142815E+02  0.7957747E-01  0.1437787E+00
         13   -1    0    0    0    0  0.00000000000E+00  0.00000000000E+00  0.99999944185E+02  0.10000000001E+03  0.10566000000E+00 0.  1.
         22   -1    0    0    0    0 -0.00000000000E+00 -0.00000000000E+00 -0.13631855559E+02  0.13631855559E+02  0.00000000000E+00 0.  1.
         13    1    1    2    0    0 -0.86378684418E+01  0.83810225997E+01 -0.11824235094E+01  0.12093948918E+02  0.10566000000E+00 0. -1.
        996    1    1    2    0    0  0.86378684418E+01 -0.83810225997E+01  0.87550512135E+02  0.10153790665E+03  0.50000000000E+02 0.  0.
<mgrwt>
<rscale>  0 0.51428147E+02</rscale>
<asrwt>0</asrwt>
<pdfrwt beam="1">  1       13 0.10000000E+01 0.51428147E+02</pdfrwt>
<pdfrwt beam="2">  1       22 0.13631880E+00 0.51428147E+02</pdfrwt>
<totfact> 0.87922073E-01</totfact>
</mgrwt>
</event>
<event>
 4    1  0.2471347E+000  0.5109971E+02  0.7957747E-01  0.1439499E+00
         13   -1    0    0    0    0  0.00000000000E+00  0.00000000000E+00  0.99999944177E+02  0.99999999997E+02  0.10566000000E+00 0.  1.
         22   -1    0    0    0    0 -0.00000000000E+00 -0.00000000000E+00 -0.15282324200E+02  0.15282324200E+02  0.00000000000E+00 0. -1.
         13    1    1    2    0    0  0.94319212145E+01 -0.47137773085E+01 -0.52775310319E+01  0.11791706074E+02  0.10566000000E+00 0. -1.
        996    1    1    2    0    0 -0.94319212145E+01  0.47137773085E+01  0.89995151009E+02  0.10349061812E+03  0.50000000000E+02 0.  0.
<mgrwt>
<rscale>  0 0.51099715E+02</rscale>
<asrwt>0</asrwt>
<pdfrwt beam="1">  1       13 0.10000000E+01 0.51099715E+02</pdfrwt>
<pdfrwt beam="2">  1       22 0.15282348E+00 0.51099715E+02</pdfrwt>
<totfact> 0.72847878E-01</totfact>
</mgrwt>
</event>
<event>
 4    1  0.2471347E+000  0.5138800E+02  0.7957747E-01  0.1437996E+00
         13   -1    0    0    0    0  0.00000000000E+00  0.00000000000E+00  0.99999944180E+02  0.10000000000E+03  0.10566000000E+00 0.  1.
         22   -1    0    0    0    0 -0.00000000000E+00 -0.00000000000E+00 -0.10273565361E+02  0.10273565361E+02  0.00000000000E+00 0.  1.
         13    1    1    2    0    0 -0.78209587139E+01  0.89196107948E+01  0.10510197640E+02  0.15849361829E+02  0.10566000000E+00 0. -1.
        996    1    1    2    0    0  0.78209587139E+01 -0.89196107948E+01  0.79216181180E+02  0.94424203532E+02  0.50000000000E+02 0.  0.
<mgrwt>
<rscale>  0 0.51388003E+02</rscale>
<asrwt>0</asrwt>
<pdfrwt beam="1">  1       13 0.10000000E+01 0.51388003E+02</pdfrwt>
<pdfrwt beam="2">  1       22 0.10273590E+00 0.51388003E+02</pdfrwt>
<totfact> 0.13535546E+00</totfact>
</mgrwt>
</event>
<event>
 4    1  0.2471347E+000  0.5250329E+02  0.7957747E-01  0.1432289E+00
         13   -1    0    0    0    0  0.00000000000E+00  0.00000000000E+00  0.99999944177E+02  0.99999999997E+02  0.10566000000E+00 0.  1.
         22   -1    0    0    0    0 -0.00000000000E+00 -0.00000000000E+00 -0.12420313257E+02  0.12420313257E+02  0.00000000000E+00 0.  1.
         13    1    1    2    0    0  0.11682220188E+02 -0.10959979221E+02  0.10483961594E+02  0.19144712790E+02  0.10566000000E+00 0. -1.
        996    1    1    2    0    0 -0.11682220188E+02  0.10959979221E+02  0.77095669326E+02  0.93275600464E+02  0.50000000000E+02 0.  0.
<mgrwt>
<rscale>  0 0.52503290E+02</rscale>
<asrwt>0</asrwt>
<pdfrwt beam="1">  1       13 0.10000000E+01 0.52503290E+02</pdfrwt>
<pdfrwt beam="2">  1       22 0.12420338E+00 0.52503290E+02</pdfrwt>
<totfact> 0.10205280E+00</totfact>
</mgrwt>
</event>
<event>
 4    1  0.2471347E+000  0.5136271E+02  0.7957747E-01  0.1438127E+00
         13   -1    0    0    0    0  0.00000000000E+00  0.00000000000E+00  0.99999944177E+02  0.99999999997E+02  0.10566000000E+00 0.  1.
         22   -1    0    0    0    0 -0.00000000000E+00 -0.00000000000E+00 -0.99980951842E+01  0.99980951842E+01  0.00000000000E+00 0.  1.
         13    1    1    2    0    0 -0.10892099279E+02  0.44147302739E+01  0.19550040767E+02  0.22811026459E+02  0.10566000000E+00 0. -1.
        996    1    1    2    0    0  0.10892099279E+02 -0.44147302739E+01  0.70451808225E+02  0.87187068722E+02  0.50000000000E+02 0.  0.
<mgrwt>
<rscale>  0 0.51362707E+02</rscale>
<asrwt>0</asrwt>
<pdfrwt beam="1">  1       13 0.10000000E+01 0.51362707E+02</pdfrwt>
<pdfrwt beam="2">  1       22 0.99981203E-01 0.51362707E+02</pdfrwt>
<totfact> 0.14080056E+00</totfact>
</mgrwt>
</event>
<event>
 4    1  0.2471347E+000  0.5260201E+02  0.7957747E-01  0.1431792E+00
         13   -1    0    0    0    0  0.00000000000E+00  0.00000000000E+00  0.99999944174E+02  0.99999999994E+02  0.10566000000E+00 0. -1.
         22   -1    0    0    0    0 -0.00000000000E+00 -0.00000000000E+00 -0.12770797800E+02  0.12770797800E+02  0.00000000000E+00 0. -1.
         13    1    1    2    0    0 -0.13641836914E+02  0.89928494262E+01  0.94539140621E+01  0.18877465675E+02  0.10566000000E+00 0.  1.
        996    1    1    2    0    0  0.13641836914E+02 -0.89928494262E+01  0.77775232312E+02  0.93893332119E+02  0.50000000000E+02 0.  0.
<mgrwt>
<rscale>  0 0.52602006E+02</rscale>
<asrwt>0</asrwt>
<pdfrwt beam="1">  1       13 0.10000000E+01 0.52602006E+02</pdfrwt>
<pdfrwt beam="2">  1       22 0.12770822E+00 0.52602006E+02</pdfrwt>
<totfact> 0.97743130E-01</totfact>
</mgrwt>
</event>
<event>
 4    1  0.2471347E+000  0.5115803E+02  0.7957747E-01  0.1439194E+00
         13   -1    0    0    0    0  0.00000000000E+00  0.00000000000E+00  0.99999944177E+02  0.99999999997E+02  0.10566000000E+00 0.  1.
         22   -1    0    0    0    0 -0.00000000000E+00 -0.00000000000E+00 -0.20869163399E+02  0.20869163399E+02  0.00000000000E+00 0. -1.
         13    1    1    2    0    0  0.86529571090E+01  0.65015738256E+01 -0.12124142848E+02  0.16252696170E+02  0.10566000000E+00 0. -1.
        996    1    1    2    0    0 -0.86529571090E+01 -0.65015738256E+01  0.91254923626E+02  0.10461646723E+03  0.50000000000E+02 0.  0.
<mgrwt>
<rscale>  0 0.51158031E+02</rscale>
<asrwt>0</asrwt>
<pdfrwt beam="1">  1       13 0.10000000E+01 0.51158031E+02</pdfrwt>
<pdfrwt beam="2">  1       22 0.20869185E+00 0.51158031E+02</pdfrwt>
<totfact> 0.41764696E-01</totfact>
</mgrwt>
</event>
<event>
 4    1  0.2471347E+000  0.5206019E+02  0.7957747E-01  0.1434536E+00
         13   -1    0    0    0    0  0.00000000000E+00  0.00000000000E+00  0.99999944180E+02  0.10000000000E+03  0.10566000000E+00 0.  1.
         22   -1    0    0    0    0 -0.00000000000E+00 -0.00000000000E+00 -0.12939251440E+02  0.12939251440E+02  0.00000000000E+00 0.  1.
         13    1    1    2    0    0 -0.13706846499E+02  0.47313559187E+01  0.42271843706E+01  0.15104423906E+02  0.10566000000E+00 0. -1.
        996    1    1    2    0    0  0.13706846499E+02 -0.47313559187E+01  0.82833508369E+02  0.97834827534E+02  0.50000000000E+02 0.  0.
<mgrwt>
<rscale>  0 0.52060190E+02</rscale>
<asrwt>0</asrwt>
<pdfrwt beam="1">  1       13 0.10000000E+01 0.52060190E+02</pdfrwt>
<pdfrwt beam="2">  1       22 0.12939276E+00 0.52060190E+02</pdfrwt>
<totfact> 0.95641443E-01</totfact>
</mgrwt>
</event>
<event>
 4    1  0.2471347E+000  0.5304902E+02  0.7957747E-01  0.1429557E+00
         13   -1    0    0    0    0  0.00000000000E+00  0.00000000000E+00  0.99999944181E+02  0.10000000000E+03  0.10566000000E+00 0. -1.
         22   -1    0    0    0    0 -0.00000000000E+00 -0.00000000000E+00 -0.47267296094E+02  0.47267296094E+02  0.00000000000E+00 0.  1.
         13    1    1    2    0    0  0.10183368590E+02 -0.14508516304E+02 -0.38131883613E+02  0.42050561864E+02  0.10566000000E+00 0.  1.
        996    1    1    2    0    0 -0.10183368590E+02  0.14508516304E+02  0.90864531700E+02  0.10521673423E+03  0.50000000000E+02 0.  0.
<mgrwt>
<rscale>  0 0.53049015E+02</rscale>
<asrwt>0</asrwt>
<pdfrwt beam="1">  1       13 0.10000000E+01 0.53049015E+02</pdfrwt>
<pdfrwt beam="2">  1       22 0.47267311E+00 0.53049015E+02</pdfrwt>
<totfact> 0.85671696E-02</totfact>
</mgrwt>
</event>
<event>
 4    1  0.2471347E+000  0.5457771E+02  0.7957747E-01  0.1422107E+00
         13   -1    0    0    0    0  0.00000000000E+00  0.00000000000E+00  0.99999944178E+02  0.99999999998E+02  0.10566000000E+00 0.  1.
         22   -1    0    0    0    0 -0.00000000000E+00 -0.00000000000E+00 -0.17553416988E+02  0.17553416988E+02  0.00000000000E+00 0. -1.
         13    1    1    2    0    0 -0.19805995254E+02 -0.92977751264E+01  0.44018506958E+01  0.22318457023E+02  0.10566000000E+00 0. -1.
        996    1    1    2    0    0  0.19805995254E+02  0.92977751264E+01  0.78044676494E+02  0.95234959964E+02  0.50000000000E+02 0.  0.
<mgrwt>
<rscale>  0 0.54577707E+02</rscale>
<asrwt>0</asrwt>
<pdfrwt beam="1">  1       13 0.10000000E+01 0.54577707E+02</pdfrwt>
<pdfrwt beam="2">  1       22 0.17553440E+00 0.54577707E+02</pdfrwt>
<totfact> 0.57735017E-01</totfact>
</mgrwt>
</event>
<event>
 4    1  0.2471347E+000  0.5127150E+02  0.7957747E-01  0.1438602E+00
         13   -1    0    0    0    0  0.00000000000E+00  0.00000000000E+00  0.99999944177E+02  0.99999999997E+02  0.10566000000E+00 0. -1.
         22   -1    0    0    0    0 -0.00000000000E+00 -0.00000000000E+00 -0.27961832686E+02  0.27961832686E+02  0.00000000000E+00 0.  1.
         13    1    1    2    0    0 -0.53619797748E+01 -0.10000781092E+02 -0.19776779566E+02  0.22801285569E+02  0.10566000000E+00 0.  1.
        996    1    1    2    0    0  0.53619797748E+01  0.10000781092E+02  0.91814891057E+02  0.10516054711E+03  0.50000000000E+02 0.  0.
<mgrwt>
<rscale>  0 0.51271497E+02</rscale>
<asrwt>0</asrwt>
<pdfrwt beam="1">  1       13 0.10000000E+01 0.51271497E+02</pdfrwt>
<pdfrwt beam="2">  1       22 0.27961853E+00 0.51271497E+02</pdfrwt>
<totfact> 0.23648483E-01</totfact>
</mgrwt>
</event>
<event>
 4    1  0.2471347E+000  0.5706360E+02  0.7957747E-01  0.1410585E+00
         13   -1    0    0    0    0  0.00000000000E+00  0.00000000000E+00  0.99999944176E+02  0.99999999996E+02  0.10566000000E+00 0. -1.
         22   -1    0    0    0    0 -0.00000000000E+00 -0.00000000000E+00 -0.59405451559E+02  0.59405451559E+02  0.00000000000E+00 0.  1.
         13    1    1    2    0    0  0.42146265852E+01  0.27175197699E+02 -0.47240380957E+02  0.54661862429E+02  0.10566000000E+00 0.  1.
        996    1    1    2    0    0 -0.42146265852E+01 -0.27175197699E+02  0.87834873574E+02  0.10474358913E+03  0.50000000000E+02 0.  0.
<mgrwt>
<rscale>  0 0.57063600E+02</rscale>
<asrwt>0</asrwt>
<pdfrwt beam="1">  1       13 0.10000000E+01 0.57063600E+02</pdfrwt>
<pdfrwt beam="2">  1       22 0.59405463E+00 0.57063600E+02</pdfrwt>
<totfact> 0.61641711E-02</totfact>
</mgrwt>
</event>
<event>
 4    1  0.2471347E+000  0.5636738E+02  0.7957747E-01  0.1413741E+00
         13   -1    0    0    0    0  0.00000000000E+00  0.00000000000E+00  0.99999944176E+02  0.99999999996E+02  0.10566000000E+00 0. -1.
         22   -1    0    0    0    0 -0.00000000000E+00 -0.00000000000E+00 -0.17535661663E+02  0.17535661663E+02  0.00000000000E+00 0. -1.
         13    1    1    2    0    0  0.15894889743E+02 -0.20606663009E+02  0.16708785274E+02  0.30926958300E+02  0.10566000000E+00 0.  1.
        996    1    1    2    0    0 -0.15894889743E+02  0.20606663009E+02  0.65755497239E+02  0.86608703359E+02  0.50000000000E+02 0.  0.
<mgrwt>
<rscale>  0 0.56367385E+02</rscale>
<asrwt>0</asrwt>
<pdfrwt beam="1">  1       13 0.10000000E+01 0.56367385E+02</pdfrwt>
<pdfrwt beam="2">  1       22 0.17535685E+00 0.56367385E+02</pdfrwt>
<totfact> 0.58023587E-01</totfact>
</mgrwt>
</event>
<event>
 4    1  0.2471347E+000  0.5160744E+02  0.7957747E-01  0.1436859E+00
         13   -1    0    0    0    0  0.00000000000E+00  0.00000000000E+00  0.99999944187E+02  0.10000000001E+03  0.10566000000E+00 0.  1.
         22   -1    0    0    0    0 -0.00000000000E+00 -0.00000000000E+00 -0.11495391608E+02  0.11495391608E+02  0.00000000000E+00 0.  1.
         13    1    1    2    0    0 -0.87694918050E+01  0.92964329385E+01  0.58571251143E+01  0.14058617661E+02  0.10566000000E+00 0. -1.
        996    1    1    2    0    0  0.87694918050E+01 -0.92964329385E+01  0.82647427465E+02  0.97436773953E+02  0.50000000000E+02 0.  0.
<mgrwt>
<rscale>  0 0.51607438E+02</rscale>
<asrwt>0</asrwt>
<pdfrwt beam="1">  1       13 0.10000000E+01 0.51607438E+02</pdfrwt>
<pdfrwt beam="2">  1       22 0.11495416E+00 0.51607438E+02</pdfrwt>
<totfact> 0.11464251E+00</totfact>
</mgrwt>
</event>
<event>
 4    1  0.2471347E+000  0.5204999E+02  0.7957747E-01  0.1434588E+00
         13   -1    0    0    0    0  0.00000000000E+00  0.00000000000E+00  0.99999944178E+02  0.99999999998E+02  0.10566000000E+00 0.  1.
         22   -1    0    0    0    0 -0.00000000000E+00 -0.00000000000E+00 -0.13807550162E+02  0.13807550162E+02  0.00000000000E+00 0. -1.
         13    1    1    2    0    0  0.18995800327E+01 -0.14338532648E+02  0.16920245101E+01  0.14562830556E+02  0.10566000000E+00 0. -1.
        996    1    1    2    0    0 -0.18995800327E+01  0.14338532648E+02  0.84500369505E+02  0.99244719604E+02  0.50000000000E+02 0.  0.
<mgrwt>
<rscale>  0 0.52049994E+02</rscale>
<asrwt>0</asrwt>
<pdfrwt beam="1">  1       13 0.10000000E+01 0.52049994E+02</pdfrwt>
<pdfrwt beam="2">  1       22 0.13807574E+00 0.52049994E+02</pdfrwt>
<totfact> 0.86244588E-01</totfact>
</mgrwt>
</event>
<event>
 4    1  0.2471347E+000  0.5176851E+02  0.7957747E-01  0.1436030E+00
         13   -1    0    0    0    0  0.00000000000E+00  0.00000000000E+00  0.99999944182E+02  0.10000000000E+03  0.10566000000E+00 0. -1.
         22   -1    0    0    0    0 -0.00000000000E+00 -0.00000000000E+00 -0.28750584515E+02  0.28750584515E+02  0.00000000000E+00 0.  1.
         13    1    1    2    0    0  0.68703229208E+00 -0.13398007094E+02 -0.19856457409E+02  0.23963903529E+02  0.10566000000E+00 0.  1.
        996    1    1    2    0    0 -0.68703229208E+00  0.13398007094E+02  0.91105817077E+02  0.10478668099E+03  0.50000000000E+02 0.  0.
<mgrwt>
<rscale>  0 0.51768510E+02</rscale>
<asrwt>0</asrwt>
<pdfrwt beam="1">  1       13 0.10000000E+01 0.51768510E+02</pdfrwt>
<pdfrwt beam="2">  1       22 0.28750604E+00 0.51768510E+02</pdfrwt>
<totfact> 0.22431559E-01</totfact>
</mgrwt>
</event>
<event>
 4    1  0.2471347E+000  0.5164402E+02  0.7957747E-01  0.1436671E+00
         13   -1    0    0    0    0  0.00000000000E+00  0.00000000000E+00  0.99999944173E+02  0.99999999993E+02  0.10566000000E+00 0. -1.
         22   -1    0    0    0    0 -0.00000000000E+00 -0.00000000000E+00 -0.21995061271E+02  0.21995061271E+02  0.00000000000E+00 0. -1.
         13    1    1    2    0    0 -0.14471940268E+01 -0.12845629920E+02 -0.12378225704E+02  0.17897938826E+02  0.10566000000E+00 0.  1.
        996    1    1    2    0    0  0.14471940268E+01  0.12845629920E+02  0.90383108606E+02  0.10409712244E+03  0.50000000000E+02 0.  0.
<mgrwt>
<rscale>  0 0.51644018E+02</rscale>
<asrwt>0</asrwt>
<pdfrwt beam="1">  1       13 0.10000000E+01 0.51644018E+02</pdfrwt>
<pdfrwt beam="2">  1       22 0.21995083E+00 0.51644018E+02</pdfrwt>
<totfact> 0.37814297E-01</totfact>
</mgrwt>
</event>
<event>
 4    1  0.2471347E+000  0.5385881E+02  0.7957747E-01  0.1425574E+00
         13   -1    0    0    0    0  0.00000000000E+00  0.00000000000E+00  0.99999944178E+02  0.99999999998E+02  0.10566000000E+00 0. -1.
         22   -1    0    0    0    0 -0.00000000000E+00 -0.00000000000E+00 -0.13650539808E+02  0.13650539808E+02  0.00000000000E+00 0.  1.
         13    1    1    2    0    0  0.17383222132E+02  0.99295146801E+01  0.24423609216E+02  0.31579986141E+02  0.10566000000E+00 0.  1.
        996    1    1    2    0    0 -0.17383222132E+02 -0.99295146801E+01  0.61925795154E+02  0.82070553666E+02  0.50000000000E+02 0.  0.
<mgrwt>
<rscale>  0 0.53858812E+02</rscale>
<asrwt>0</asrwt>
<pdfrwt beam="1">  1       13 0.10000000E+01 0.53858812E+02</pdfrwt>
<pdfrwt beam="2">  1       22 0.13650564E+00 0.53858812E+02</pdfrwt>
<totfact> 0.88177285E-01</totfact>
</mgrwt>
</event>
<event>
 4    1  0.2471347E+000  0.5535160E+02  0.7957747E-01  0.1418443E+00
         13   -1    0    0    0    0  0.00000000000E+00  0.00000000000E+00  0.99999944181E+02  0.10000000000E+03  0.10566000000E+00 0. -1.
         22   -1    0    0    0    0 -0.00000000000E+00 -0.00000000000E+00 -0.16508278302E+02  0.16508278302E+02  0.00000000000E+00 0.  1.
         13    1    1    2    0    0  0.89370233626E+01 -0.21998386256E+02  0.38245186824E+02  0.45016717602E+02  0.10566000000E+00 0.  1.
        996    1    1    2    0    0 -0.89370233626E+01  0.21998386256E+02  0.45246479055E+02  0.71491560700E+02  0.50000000000E+02 0.  0.
<mgrwt>
<rscale>  0 0.55351598E+02</rscale>
<asrwt>0</asrwt>
<pdfrwt beam="1">  1       13 0.10000000E+01 0.55351598E+02</pdfrwt>
<pdfrwt beam="2">  1       22 0.16508302E+00 0.55351598E+02</pdfrwt>
<totfact> 0.64395642E-01</totfact>
</mgrwt>
</event>
<event>
 4    1  0.2471347E+000  0.5377148E+02  0.7957747E-01  0.1426000E+00
         13   -1    0    0    0    0  0.00000000000E+00  0.00000000000E+00  0.99999944176E+02  0.99999999996E+02  0.10566000000E+00 0.  1.
         22   -1    0    0    0    0 -0.00000000000E+00 -0.00000000000E+00 -0.14357007484E+02  0.14357007484E+02  0.00000000000E+00 0.  1.
         13    1    1    2    0    0  0.19698349170E+02 -0.18296016472E+01  0.11883455133E+02  0.23078129737E+02  0.10566000000E+00 0. -1.
        996    1    1    2    0    0 -0.19698349170E+02  0.18296016472E+01  0.73759481559E+02  0.91278877743E+02  0.50000000000E+02 0.  0.
<mgrwt>
<rscale>  0 0.53771483E+02</rscale>
<asrwt>0</asrwt>
<pdfrwt beam="1">  1       13 0.10000000E+01 0.53771483E+02</pdfrwt>
<pdfrwt beam="2">  1       22 0.14357031E+00 0.53771483E+02</pdfrwt>
<totfact> 0.81232913E-01</totfact>
</mgrwt>
</event>
<event>
 4    1  0.2471347E+000  0.5151572E+02  0.7957747E-01  0.1437333E+00
         13   -1    0    0    0    0  0.00000000000E+00  0.00000000000E+00  0.99999944175E+02  0.99999999996E+02  0.10566000000E+00 0. -1.
         22   -1    0    0    0    0 -0.00000000000E+00 -0.00000000000E+00 -0.24985367201E+02  0.24985367201E+02  0.00000000000E+00 0. -1.
         13    1    1    2    0    0  0.12269582216E+02 -0.18240665109E+01  0.72344680605E+02  0.73400503011E+02  0.10566000000E+00 0.  1.
        996    1    1    2    0    0 -0.12269582216E+02  0.18240665109E+01  0.26698963695E+01  0.51584864185E+02  0.50000000000E+02 0.  0.
<mgrwt>
<rscale>  0 0.51515724E+02</rscale>
<asrwt>0</asrwt>
<pdfrwt beam="1">  1       13 0.10000000E+01 0.51515724E+02</pdfrwt>
<pdfrwt beam="2">  1       22 0.24985388E+00 0.51515724E+02</pdfrwt>
<totfact> 0.29490736E-01</totfact>
</mgrwt>
</event>
<event>
 4    1  0.2471347E+000  0.5411420E+02  0.7957747E-01  0.1424335E+00
         13   -1    0    0    0    0  0.00000000000E+00  0.00000000000E+00  0.99999944174E+02  0.99999999994E+02  0.10566000000E+00 0.  1.
         22   -1    0    0    0    0 -0.00000000000E+00 -0.00000000000E+00 -0.28393324632E+02  0.28393324632E+02  0.00000000000E+00 0. -1.
         13    1    1    2    0    0  0.19944588087E+02  0.55280957973E+01 -0.15492247002E+02  0.25852800976E+02  0.10566000000E+00 0. -1.
        996    1    1    2    0    0 -0.19944588087E+02 -0.55280957973E+01  0.87098866544E+02  0.10254052365E+03  0.50000000000E+02 0.  0.
<mgrwt>
<rscale>  0 0.54114198E+02</rscale>
<asrwt>0</asrwt>
<pdfrwt beam="1">  1       13 0.10000000E+01 0.54114198E+02</pdfrwt>
<pdfrwt beam="2">  1       22 0.28393345E+00 0.54114198E+02</pdfrwt>
<totfact> 0.23050399E-01</totfact>
</mgrwt>
</event>
<event>
 4    1  0.2471347E+000  0.5379369E+02  0.7957747E-01  0.1425891E+00
         13   -1    0    0    0    0  0.00000000000E+00  0.00000000000E+00  0.99999944174E+02  0.99999999994E+02  0.10566000000E+00 0.  1.
         22   -1    0    0    0    0 -0.00000000000E+00 -0.00000000000E+00 -0.13595840582E+02  0.13595840582E+02  0.00000000000E+00 0.  1.
         13    1    1    2    0    0 -0.16056816731E+02  0.11659306103E+02  0.20617363225E+02  0.28615513497E+02  0.10566000000E+00 0. -1.
        996    1    1    2    0    0  0.16056816731E+02 -0.11659306103E+02  0.65786740367E+02  0.84980327079E+02  0.50000000000E+02 0.  0.
<mgrwt>
<rscale>  0 0.53793687E+02</rscale>
<asrwt>0</asrwt>
<pdfrwt beam="1">  1       13 0.10000000E+01 0.53793687E+02</pdfrwt>
<pdfrwt beam="2">  1       22 0.13595865E+00 0.53793687E+02</pdfrwt>
<totfact> 0.88735386E-01</totfact>
</mgrwt>
</event>
<event>
 4    1  0.2471347E+000  0.5124589E+02  0.7957747E-01  0.1438735E+00
         13   -1    0    0    0    0  0.00000000000E+00  0.00000000000E+00  0.99999944184E+02  0.10000000000E+03  0.10566000000E+00 0. -1.
         22   -1    0    0    0    0 -0.00000000000E+00 -0.00000000000E+00 -0.14980890140E+02  0.14980890140E+02  0.00000000000E+00 0. -1.
         13    1    1    2    0    0 -0.11179864306E+02 -0.10732026523E+01 -0.42822459798E+01  0.12020396187E+02  0.10566000000E+00 0.  1.
        996    1    1    2    0    0  0.11179864306E+02  0.10732026523E+01  0.89301300024E+02  0.10296049396E+03  0.50000000000E+02 0.  0.
<mgrwt>
<rscale>  0 0.51245889E+02</rscale>
<asrwt>0</asrwt>
<pdfrwt beam="1">  1       13 0.10000000E+01 0.51245889E+02</pdfrwt>
<pdfrwt beam="2">  1       22 0.14980914E+00 0.51245889E+02</pdfrwt>
<totfact> 0.75335260E-01</totfact>
</mgrwt>
</event>
<event>
 4    1  0.2471347E+000  0.5219545E+02  0.7957747E-01  0.1433847E+00
         13   -1    0    0    0    0  0.00000000000E+00  0.00000000000E+00  0.99999944177E+02  0.99999999997E+02  0.10566000000E+00 0. -1.
         22   -1    0    0    0    0 -0.00000000000E+00 -0.00000000000E+00 -0.12741537950E+02  0.12741537950E+02  0.00000000000E+00 0. -1.
         13    1    1    2    0    0 -0.22927191122E+01  0.14802303804E+02  0.59417291900E+01  0.16114591792E+02  0.10566000000E+00 0.  1.
        996    1    1    2    0    0  0.22927191122E+01 -0.14802303804E+02  0.81316677037E+02  0.96626946155E+02  0.50000000000E+02 0.  0.
<mgrwt>
<rscale>  0 0.52195448E+02</rscale>
<asrwt>0</asrwt>
<pdfrwt beam="1">  1       13 0.10000000E+01 0.52195448E+02</pdfrwt>
<pdfrwt beam="2">  1       22 0.12741562E+00 0.52195448E+02</pdfrwt>
<totfact> 0.98008384E-01</totfact>
</mgrwt>
</event>
<event>
 4    1  0.2471347E+000  0.5616206E+02  0.7957747E-01  0.1414682E+00
         13   -1    0    0    0    0  0.00000000000E+00  0.00000000000E+00  0.99999944176E+02  0.99999999996E+02  0.10566000000E+00 0. -1.
         22   -1    0    0    0    0 -0.00000000000E+00 -0.00000000000E+00 -0.16747025952E+02  0.16747025952E+02  0.00000000000E+00 0.  1.
         13    1    1    2    0    0 -0.25081276092E+02  0.50106055024E+01  0.23321663708E+02  0.34613404052E+02  0.10566000000E+00 0.  1.
        996    1    1    2    0    0  0.25081276092E+02 -0.50106055024E+01  0.59931254515E+02  0.82133621896E+02  0.50000000000E+02 0.  0.
<mgrwt>
<rscale>  0 0.56162056E+02</rscale>
<asrwt>0</asrwt>
<pdfrwt beam="1">  1       13 0.10000000E+01 0.56162056E+02</pdfrwt>
<pdfrwt beam="2">  1       22 0.16747049E+00 0.56162056E+02</pdfrwt>
<totfact> 0.62899427E-01</totfact>
</mgrwt>
</event>
<event>
 4    1  0.2471347E+000  0.5599780E+02  0.7957747E-01  0.1415438E+00
         13   -1    0    0    0    0  0.00000000000E+00  0.00000000000E+00  0.99999944186E+02  0.10000000001E+03  0.10566000000E+00 0. -1.
         22   -1    0    0    0    0 -0.00000000000E+00 -0.00000000000E+00 -0.19333224856E+02  0.19333224856E+02  0.00000000000E+00 0.  1.
         13    1    1    2    0    0 -0.17600173686E+02  0.18055134065E+02  0.58552173114E+01  0.25885299181E+02  0.10566000000E+00 0.  1.
        996    1    1    2    0    0  0.17600173686E+02 -0.18055134065E+02  0.74811502018E+02  0.93447925681E+02  0.50000000000E+02 0.  0.
<mgrwt>
<rscale>  0 0.55997803E+02</rscale>
<asrwt>0</asrwt>
<pdfrwt beam="1">  1       13 0.10000000E+01 0.55997803E+02</pdfrwt>
<pdfrwt beam="2">  1       22 0.19333247E+00 0.55997803E+02</pdfrwt>
<totfact> 0.48587246E-01</totfact>
</mgrwt>
</event>
<event>
 4    1  0.2471347E+000  0.6472924E+02  0.7957747E-01  0.1378993E+00
         13   -1    0    0    0    0  0.00000000000E+00  0.00000000000E+00  0.99999944177E+02  0.99999999997E+02  0.10566000000E+00 0.  1.
         22   -1    0    0    0    0 -0.00000000000E+00 -0.00000000000E+00 -0.46932035955E+02  0.46932035955E+02  0.00000000000E+00 0. -1.
         13    1    1    2    0    0 -0.22895878273E+01  0.41044275172E+02 -0.22956818301E+02  0.47083982493E+02  0.10566000000E+00 0. -1.
        996    1    1    2    0    0  0.22895878273E+01 -0.41044275172E+02  0.76024726523E+02  0.99848053460E+02  0.50000000000E+02 0.  0.
<mgrwt>
<rscale>  0 0.64729242E+02</rscale>
<asrwt>0</asrwt>
<pdfrwt beam="1">  1       13 0.10000000E+01 0.64729242E+02</pdfrwt>
<pdfrwt beam="2">  1       22 0.46932051E+00 0.64729242E+02</pdfrwt>
<totfact> 0.87730479E-02</totfact>
</mgrwt>
</event>
<event>
 4    1  0.2471347E+000  0.6252029E+02  0.7957747E-01  0.1387550E+00
         13   -1    0    0    0    0  0.00000000000E+00  0.00000000000E+00  0.99999944183E+02  0.10000000000E+03  0.10566000000E+00 0. -1.
         22   -1    0    0    0    0 -0.00000000000E+00 -0.00000000000E+00 -0.31779712778E+02  0.31779712778E+02  0.00000000000E+00 0. -1.
         13    1    1    2    0    0 -0.19474368608E+02  0.32086372382E+02 -0.22153364928E+01  0.37599271338E+02  0.10566000000E+00 0.  1.
        996    1    1    2    0    0  0.19474368608E+02 -0.32086372382E+02  0.70435567898E+02  0.94180441443E+02  0.50000000000E+02 0.  0.
<mgrwt>
<rscale>  0 0.62520287E+02</rscale>
<asrwt>0</asrwt>
<pdfrwt beam="1">  1       13 0.10000000E+01 0.62520287E+02</pdfrwt>
<pdfrwt beam="2">  1       22 0.31779732E+00 0.62520287E+02</pdfrwt>
<totfact> 0.18845568E-01</totfact>
</mgrwt>
</event>
<event>
 4    1  0.2471347E+000  0.5112658E+02  0.7957747E-01  0.1439358E+00
         13   -1    0    0    0    0  0.00000000000E+00  0.00000000000E+00  0.99999944182E+02  0.10000000000E+03  0.10566000000E+00 0. -1.
         22   -1    0    0    0    0 -0.00000000000E+00 -0.00000000000E+00 -0.18761033170E+02  0.18761033170E+02  0.00000000000E+00 0.  1.
         13    1    1    2    0    0 -0.94141475119E+01  0.50300026138E+01 -0.97079872949E+01  0.14428557829E+02  0.10566000000E+00 0.  1.
        996    1    1    2    0    0  0.94141475119E+01 -0.50300026138E+01  0.90946898306E+02  0.10433247534E+03  0.50000000000E+02 0.  0.
<mgrwt>
<rscale>  0 0.51126579E+02</rscale>
<asrwt>0</asrwt>
<pdfrwt beam="1">  1       13 0.10000000E+01 0.51126579E+02</pdfrwt>
<pdfrwt beam="2">  1       22 0.18761056E+00 0.51126579E+02</pdfrwt>
<totfact> 0.50895156E-01</totfact>
</mgrwt>
</event>
<event>
 4    1  0.2471347E+000  0.5105724E+02  0.7957747E-01  0.1439721E+00
         13   -1    0    0    0    0  0.00000000000E+00  0.00000000000E+00  0.99999944180E+02  0.10000000000E+03  0.10566000000E+00 0.  1.
         22   -1    0    0    0    0 -0.00000000000E+00 -0.00000000000E+00 -0.10964794385E+02  0.10964794385E+02  0.00000000000E+00 0.  1.
         13    1    1    2    0    0 -0.61622937164E+01 -0.82986951099E+01  0.27355185281E+01  0.10692821425E+02  0.10566000000E+00 0. -1.
        996    1    1    2    0    0  0.61622937164E+01  0.82986951099E+01  0.86299631267E+02  0.10027197296E+03  0.50000000000E+02 0.  0.
<mgrwt>
<rscale>  0 0.51057244E+02</rscale>
<asrwt>0</asrwt>
<pdfrwt beam="1">  1       13 0.10000000E+01 0.51057244E+02</pdfrwt>
<pdfrwt beam="2">  1       22 0.10964819E+00 0.51057244E+02</pdfrwt>
<totfact> 0.12288731E+00</totfact>
</mgrwt>
</event>
<event>
 4    1  0.2471347E+000  0.5169016E+02  0.7957747E-01  0.1436433E+00
         13   -1    0    0    0    0  0.00000000000E+00  0.00000000000E+00  0.99999944176E+02  0.99999999997E+02  0.10566000000E+00 0.  1.
         22   -1    0    0    0    0 -0.00000000000E+00 -0.00000000000E+00 -0.10584551779E+02  0.10584551779E+02  0.00000000000E+00 0. -1.
         13    1    1    2    0    0 -0.11626902850E+02  0.60570618587E+01  0.14277217055E+02  0.19383574467E+02  0.10566000000E+00 0. -1.
        996    1    1    2    0    0  0.11626902850E+02 -0.60570618587E+01  0.75138175342E+02  0.91200977308E+02  0.50000000000E+02 0.  0.
<mgrwt>
<rscale>  0 0.51690162E+02</rscale>
<asrwt>0</asrwt>
<pdfrwt beam="1">  1       13 0.10000000E+01 0.51690162E+02</pdfrwt>
<pdfrwt beam="2">  1       22 0.10584577E+00 0.51690162E+02</pdfrwt>
<totfact> 0.12966292E+00</totfact>
</mgrwt>
</event>
<event>
 4    1  0.2471347E+000  0.5478676E+02  0.7957747E-01  0.1421110E+00
         13   -1    0    0    0    0  0.00000000000E+00  0.00000000000E+00  0.99999944179E+02  0.99999999999E+02  0.10566000000E+00 0.  1.
         22   -1    0    0    0    0 -0.00000000000E+00 -0.00000000000E+00 -0.34552351996E+02  0.34552351996E+02  0.00000000000E+00 0. -1.
         13    1    1    2    0    0  0.19887479875E+02 -0.10299354756E+02 -0.21977839786E+02  0.31378737544E+02  0.10566000000E+00 0. -1.
        996    1    1    2    0    0 -0.19887479875E+02  0.10299354756E+02  0.87425431968E+02  0.10317361445E+03  0.50000000000E+02 0.  0.
<mgrwt>
<rscale>  0 0.54786755E+02</rscale>
<asrwt>0</asrwt>
<pdfrwt beam="1">  1       13 0.10000000E+01 0.54786755E+02</pdfrwt>
<pdfrwt beam="2">  1       22 0.34552370E+00 0.54786755E+02</pdfrwt>
<totfact> 0.16117344E-01</totfact>
</mgrwt>
</event>
<event>
 4    1  0.2471347E+000  0.5201727E+02  0.7957747E-01  0.1434755E+00
         13   -1    0    0    0    0  0.00000000000E+00  0.00000000000E+00  0.99999944180E+02  0.10000000000E+03  0.10566000000E+00 0. -1.
         22   -1    0    0    0    0 -0.00000000000E+00 -0.00000000000E+00 -0.42516025216E+02  0.42516025216E+02  0.00000000000E+00 0.  1.
         13    1    1    2    0    0  0.13680093053E+02  0.43186949237E+01 -0.34209363132E+02  0.37095656912E+02  0.10566000000E+00 0.  1.
        996    1    1    2    0    0 -0.13680093053E+02 -0.43186949237E+01  0.91693282096E+02  0.10542036830E+03  0.50000000000E+02 0.  0.
<mgrwt>
<rscale>  0 0.52017267E+02</rscale>
<asrwt>0</asrwt>
<pdfrwt beam="1">  1       13 0.10000000E+01 0.52017267E+02</pdfrwt>
<pdfrwt beam="2">  1       22 0.42516041E+00 0.52017267E+02</pdfrwt>
<totfact> 0.10955128E-01</totfact>
</mgrwt>
</event>
<event>
 4    1  0.2471347E+000  0.6923269E+02  0.7957747E-01  0.1362722E+00
         13   -1    0    0    0    0  0.00000000000E+00  0.00000000000E+00  0.99999944184E+02  0.10000000000E+03  0.10566000000E+00 0. -1.
         22   -1    0    0    0    0 -0.00000000000E+00 -0.00000000000E+00 -0.37873371152E+02  0.37873371152E+02  0.00000000000E+00 0.  1.
         13    1    1    2    0    0 -0.16433948917E+02  0.44978781586E+02  0.50614953061E+01  0.48153871794E+02  0.10566000000E+00 0.  1.
        996    1    1    2    0    0  0.16433948917E+02 -0.44978781586E+02  0.57065077725E+02  0.89719499362E+02  0.50000000000E+02 0.  0.
<mgrwt>
<rscale>  0 0.69232691E+02</rscale>
<asrwt>0</asrwt>
<pdfrwt beam="1">  1       13 0.10000000E+01 0.69232691E+02</pdfrwt>
<pdfrwt beam="2">  1       22 0.37873389E+00 0.69232691E+02</pdfrwt>
<totfact> 0.13857201E-01</totfact>
</mgrwt>
</event>
<event>
 4    1  0.2471347E+000  0.5373239E+02  0.7957747E-01  0.1426190E+00
         13   -1    0    0    0    0  0.00000000000E+00  0.00000000000E+00  0.99999944174E+02  0.99999999995E+02  0.10566000000E+00 0. -1.
         22   -1    0    0    0    0 -0.00000000000E+00 -0.00000000000E+00 -0.28494526732E+02  0.28494526732E+02  0.00000000000E+00 0.  1.
         13    1    1    2    0    0  0.19429289056E+02 -0.31099946379E+01 -0.16301110658E+02  0.25552039304E+02  0.10566000000E+00 0.  1.
        996    1    1    2    0    0 -0.19429289056E+02  0.31099946379E+01  0.87806528100E+02  0.10294248742E+03  0.50000000000E+02 0.  0.
<mgrwt>
<rscale>  0 0.53732386E+02</rscale>
<asrwt>0</asrwt>
<pdfrwt beam="1">  1       13 0.10000000E+01 0.53732386E+02</pdfrwt>
<pdfrwt beam="2">  1       22 0.28494547E+00 0.53732386E+02</pdfrwt>
<totfact> 0.22881301E-01</totfact>
</mgrwt>
</event>
<event>
 4    1  0.2471347E+000  0.5263451E+02  0.7957747E-01  0.1431628E+00
         13   -1    0    0    0    0  0.00000000000E+00  0.00000000000E+00  0.99999944176E+02  0.99999999997E+02  0.10566000000E+00 0.  1.
         22   -1    0    0    0    0 -0.00000000000E+00 -0.00000000000E+00 -0.14288563447E+02  0.14288563447E+02  0.00000000000E+00 0.  1.
         13    1    1    2    0    0  0.11974158896E+02  0.11269925934E+02  0.37245251819E+01  0.16860455619E+02  0.10566000000E+00 0. -1.
        996    1    1    2    0    0 -0.11974158896E+02 -0.11269925934E+02  0.81986855547E+02  0.97428107825E+02  0.50000000000E+02 0.  0.
<mgrwt>
<rscale>  0 0.52634511E+02</rscale>
<asrwt>0</asrwt>
<pdfrwt beam="1">  1       13 0.10000000E+01 0.52634511E+02</pdfrwt>
<pdfrwt beam="2">  1       22 0.14288587E+00 0.52634511E+02</pdfrwt>
<totfact> 0.81681578E-01</totfact>
</mgrwt>
</event>
<event>
 4    1  0.2471347E+000  0.5415971E+02  0.7957747E-01  0.1424115E+00
         13   -1    0    0    0    0  0.00000000000E+00  0.00000000000E+00  0.99999944184E+02  0.10000000000E+03  0.10566000000E+00 0. -1.
         22   -1    0    0    0    0 -0.00000000000E+00 -0.00000000000E+00 -0.27932210583E+02  0.27932210583E+02  0.00000000000E+00 0.  1.
         13    1    1    2    0    0 -0.99217728255E-02 -0.20815236563E+02 -0.14816249448E+02  0.25550079909E+02  0.10566000000E+00 0.  1.
        996    1    1    2    0    0  0.99217728255E-02  0.20815236563E+02  0.86883983050E+02  0.10238213068E+03  0.50000000000E+02 0.  0.
<mgrwt>
<rscale>  0 0.54159710E+02</rscale>
<asrwt>0</asrwt>
<pdfrwt beam="1">  1       13 0.10000000E+01 0.54159710E+02</pdfrwt>
<pdfrwt beam="2">  1       22 0.27932231E+00 0.54159710E+02</pdfrwt>
<totfact> 0.23793581E-01</totfact>
</mgrwt>
</event>
<event>
 4    1  0.2471347E+000  0.5186509E+02  0.7957747E-01  0.1435534E+00
         13   -1    0    0    0    0  0.00000000000E+00  0.00000000000E+00  0.99999944174E+02  0.99999999994E+02  0.10566000000E+00 0.  1.
         22   -1    0    0    0    0 -0.00000000000E+00 -0.00000000000E+00 -0.12895767745E+02  0.12895767745E+02  0.00000000000E+00 0.  1.
         13    1    1    2    0    0 -0.48470096779E+01 -0.12903276623E+02  0.30335273471E+01  0.14113876244E+02  0.10566000000E+00 0. -1.
        996    1    1    2    0    0  0.48470096779E+01  0.12903276623E+02  0.84070649082E+02  0.98781891496E+02  0.50000000000E+02 0.  0.
<mgrwt>
<rscale>  0 0.51865095E+02</rscale>
<asrwt>0</asrwt>
<pdfrwt beam="1">  1       13 0.10000000E+01 0.51865095E+02</pdfrwt>
<pdfrwt beam="2">  1       22 0.12895792E+00 0.51865095E+02</pdfrwt>
<totfact> 0.96108074E-01</totfact>
</mgrwt>
</event>
<event>
 4    1  0.2471347E+000  0.5102357E+02  0.7957747E-01  0.1439898E+00
         13   -1    0    0    0    0  0.00000000000E+00  0.00000000000E+00  0.99999944181E+02  0.10000000000E+03  0.10566000000E+00 0.  1.
         22   -1    0    0    0    0 -0.00000000000E+00 -0.00000000000E+00 -0.13244779227E+02  0.13244779227E+02  0.00000000000E+00 0.  1.
         13    1    1    2    0    0  0.92371227185E+01  0.42520963928E+01  0.48283264895E+02  0.49342573836E+02  0.10566000000E+00 0. -1.
        996    1    1    2    0    0 -0.92371227185E+01 -0.42520963928E+01  0.38471900060E+02  0.63902205393E+02  0.50000000000E+02 0.  0.
<mgrwt>
<rscale>  0 0.51023571E+02</rscale>
<asrwt>0</asrwt>
<pdfrwt beam="1">  1       13 0.10000000E+01 0.51023571E+02</pdfrwt>
<pdfrwt beam="2">  1       22 0.13244803E+00 0.51023571E+02</pdfrwt>
<totfact> 0.91972831E-01</totfact>
</mgrwt>
</event>
<event>
 4    1  0.2471347E+000  0.5208775E+02  0.7957747E-01  0.1434395E+00
         13   -1    0    0    0    0  0.00000000000E+00  0.00000000000E+00  0.99999944178E+02  0.99999999998E+02  0.10566000000E+00 0. -1.
         22   -1    0    0    0    0 -0.00000000000E+00 -0.00000000000E+00 -0.11957347445E+02  0.11957347445E+02  0.00000000000E+00 0. -1.
         13    1    1    2    0    0 -0.59052135079E+01 -0.13351499655E+02  0.85482925311E+01  0.16917995119E+02  0.10566000000E+00 0.  1.
        996    1    1    2    0    0  0.59052135079E+01  0.13351499655E+02  0.79494304202E+02  0.95039352324E+02  0.50000000000E+02 0.  0.
<mgrwt>
<rscale>  0 0.52087754E+02</rscale>
<asrwt>0</asrwt>
<pdfrwt beam="1">  1       13 0.10000000E+01 0.52087754E+02</pdfrwt>
<pdfrwt beam="2">  1       22 0.11957372E+00 0.52087754E+02</pdfrwt>
<totfact> 0.10810272E+00</totfact>
</mgrwt>
</event>
<event>
 4    1  0.2471347E+000  0.5178880E+02  0.7957747E-01  0.1435925E+00
         13   -1    0    0    0    0  0.00000000000E+00  0.00000000000E+00  0.99999944174E+02  0.99999999994E+02  0.10566000000E+00 0. -1.
         22   -1    0    0    0    0 -0.00000000000E+00 -0.00000000000E+00 -0.57317029176E+02  0.57317029176E+02  0.00000000000E+00 0.  1.
         13    1    1    2    0    0  0.12811658024E+02 -0.42357623636E+01 -0.49650388525E+02  0.51451457791E+02  0.10566000000E+00 0.  1.
        996    1    1    2    0    0 -0.12811658024E+02  0.42357623636E+01  0.92333303523E+02  0.10586557138E+03  0.50000000000E+02 0.  0.
<mgrwt>
<rscale>  0 0.51788804E+02</rscale>
<asrwt>0</asrwt>
<pdfrwt beam="1">  1       13 0.10000000E+01 0.51788804E+02</pdfrwt>
<pdfrwt beam="2">  1       22 0.57317041E+00 0.51788804E+02</pdfrwt>
<totfact> 0.57800679E-02</totfact>
</mgrwt>
</event>
<event>
 4    1  0.2471347E+000  0.5120279E+02  0.7957747E-01  0.1438960E+00
         13   -1    0    0    0    0  0.00000000000E+00  0.00000000000E+00  0.99999944173E+02  0.99999999993E+02  0.10566000000E+00 0. -1.
         22   -1    0    0    0    0 -0.00000000000E+00 -0.00000000000E+00 -0.20800666077E+02  0.20800666077E+02  0.00000000000E+00 0.  1.
         13    1    1    2    0    0  0.17761962246E+01 -0.10889003112E+02 -0.11943634586E+02  0.16259976413E+02  0.10566000000E+00 0.  1.
        996    1    1    2    0    0 -0.17761962246E+01  0.10889003112E+02  0.91142912682E+02  0.10454068966E+03  0.50000000000E+02 0.  0.
<mgrwt>
<rscale>  0 0.51202786E+02</rscale>
<asrwt>0</asrwt>
<pdfrwt beam="1">  1       13 0.10000000E+01 0.51202786E+02</pdfrwt>
<pdfrwt beam="2">  1       22 0.20800688E+00 0.51202786E+02</pdfrwt>
<totfact> 0.42028472E-01</totfact>
</mgrwt>
</event>
<event>
 4    1  0.2471347E+000  0.5185437E+02  0.7957747E-01  0.1435589E+00
         13   -1    0    0    0    0  0.00000000000E+00  0.00000000000E+00  0.99999944178E+02  0.99999999998E+02  0.10566000000E+00 0.  1.
         22   -1    0    0    0    0 -0.00000000000E+00 -0.00000000000E+00 -0.27912250404E+02  0.27912250404E+02  0.00000000000E+00 0.  1.
         13    1    1    2    0    0 -0.85759415099E+01  0.10739115025E+02  0.74737078274E+02  0.75990245408E+02  0.10566000000E+00 0. -1.
        996    1    1    2    0    0  0.85759415099E+01 -0.10739115025E+02 -0.26493844997E+01  0.51922004993E+02  0.50000000000E+02 0.  0.
<mgrwt>
<rscale>  0 0.51854367E+02</rscale>
<asrwt>0</asrwt>
<pdfrwt beam="1">  1       13 0.10000000E+01 0.51854367E+02</pdfrwt>
<pdfrwt beam="2">  1       22 0.27912271E+00 0.51854367E+02</pdfrwt>
<totfact> 0.23749812E-01</totfact>
</mgrwt>
</event>
<event>
 4    1  0.2471347E+000  0.5752628E+02  0.7957747E-01  0.1408516E+00
         13   -1    0    0    0    0  0.00000000000E+00  0.00000000000E+00  0.99999944173E+02  0.99999999993E+02  0.10566000000E+00 0.  1.
         22   -1    0    0    0    0 -0.00000000000E+00 -0.00000000000E+00 -0.35149460047E+02  0.35149460047E+02  0.00000000000E+00 0. -1.
         13    1    1    2    0    0  0.24391584817E+02 -0.14639798765E+02 -0.18456450814E+02  0.33910541996E+02  0.10566000000E+00 0. -1.
        996    1    1    2    0    0 -0.24391584817E+02  0.14639798765E+02  0.83306934940E+02  0.10123891804E+03  0.50000000000E+02 0.  0.
<mgrwt>
<rscale>  0 0.57526282E+02</rscale>
<asrwt>0</asrwt>
<pdfrwt beam="1">  1       13 0.10000000E+01 0.57526282E+02</pdfrwt>
<pdfrwt beam="2">  1       22 0.35149478E+00 0.57526282E+02</pdfrwt>
<totfact> 0.15682478E-01</totfact>
</mgrwt>
</event>
<event>
 4    1  0.2471347E+000  0.7160217E+02  0.7957747E-01  0.1354728E+00
         13   -1    0    0    0    0  0.00000000000E+00  0.00000000000E+00  0.99999944175E+02  0.99999999995E+02  0.10566000000E+00 0. -1.
         22   -1    0    0    0    0 -0.00000000000E+00 -0.00000000000E+00 -0.58536042943E+02  0.58536042943E+02  0.00000000000E+00 0.  1.
         13    1    1    2    0    0  0.50680901809E+02  0.76365230500E+01 -0.28316517779E+02  0.58555158916E+02  0.10566000000E+00 0.  1.
        996    1    1    2    0    0 -0.50680901809E+02 -0.76365230500E+01  0.69780419012E+02  0.99980884022E+02  0.50000000000E+02 0.  0.
<mgrwt>
<rscale>  0 0.71602167E+02</rscale>
<asrwt>0</asrwt>
<pdfrwt beam="1">  1       13 0.10000000E+01 0.71602167E+02</pdfrwt>
<pdfrwt beam="2">  1       22 0.58536055E+00 0.71602167E+02</pdfrwt>
<totfact> 0.59464552E-02</totfact>
</mgrwt>
</event>
<event>
 4    1  0.2471347E+000  0.5114376E+02  0.7957747E-01  0.1439268E+00
         13   -1    0    0    0    0  0.00000000000E+00  0.00000000000E+00  0.99999944178E+02  0.99999999998E+02  0.10566000000E+00 0.  1.
         22   -1    0    0    0    0 -0.00000000000E+00 -0.00000000000E+00 -0.98109058658E+01  0.98109058658E+01  0.00000000000E+00 0.  1.
         13    1    1    2    0    0  0.12331670241E+01 -0.10684747728E+02  0.99143614098E+01  0.14628405967E+02  0.10566000000E+00 0. -1.
        996    1    1    2    0    0 -0.12331670241E+01  0.10684747728E+02  0.80274676903E+02  0.95182499898E+02  0.50000000000E+02 0.  0.
<mgrwt>
<rscale>  0 0.51143763E+02</rscale>
<asrwt>0</asrwt>
<pdfrwt beam="1">  1       13 0.10000000E+01 0.51143763E+02</pdfrwt>
<pdfrwt beam="2">  1       22 0.98109310E-01 0.51143763E+02</pdfrwt>
<totfact> 0.14461996E+00</totfact>
</mgrwt>
</event>
<event>
 4    1  0.2471347E+000  0.5781002E+02  0.7957747E-01  0.1407259E+00
         13   -1    0    0    0    0  0.00000000000E+00  0.00000000000E+00  0.99999944174E+02  0.99999999994E+02  0.10566000000E+00 0. -1.
         22   -1    0    0    0    0 -0.00000000000E+00 -0.00000000000E+00 -0.33279866305E+02  0.33279866305E+02  0.00000000000E+00 0. -1.
         13    1    1    2    0    0  0.11729076595E+02 -0.26541042507E+02 -0.15401197679E+02  0.32851274391E+02  0.10566000000E+00 0.  1.
        996    1    1    2    0    0 -0.11729076595E+02  0.26541042507E+02  0.82121275548E+02  0.10042859191E+03  0.50000000000E+02 0.  0.
<mgrwt>
<rscale>  0 0.57810018E+02</rscale>
<asrwt>0</asrwt>
<pdfrwt beam="1">  1       13 0.10000000E+01 0.57810018E+02</pdfrwt>
<pdfrwt beam="2">  1       22 0.33279885E+00 0.57810018E+02</pdfrwt>
<totfact> 0.17268867E-01</totfact>
</mgrwt>
</event>
<event>
 4    1  0.2471347E+000  0.5774344E+02  0.7957747E-01  0.1407553E+00
         13   -1    0    0    0    0  0.00000000000E+00  0.00000000000E+00  0.99999944181E+02  0.10000000000E+03  0.10566000000E+00 0.  1.
         22   -1    0    0    0    0 -0.00000000000E+00 -0.00000000000E+00 -0.41532906416E+02  0.41532906416E+02  0.00000000000E+00 0. -1.
         13    1    1    2    0    0  0.28385517162E+02 -0.53448000954E+01 -0.26235248266E+02  0.39020557251E+02  0.10566000000E+00 0. -1.
        996    1    1    2    0    0 -0.28385517162E+02  0.53448000954E+01  0.84702286031E+02  0.10251234917E+03  0.50000000000E+02 0.  0.
<mgrwt>
<rscale>  0 0.57743437E+02</rscale>
<asrwt>0</asrwt>
<pdfrwt beam="1">  1       13 0.10000000E+01 0.57743437E+02</pdfrwt>
<pdfrwt beam="2">  1       22 0.41532923E+00 0.57743437E+02</pdfrwt>
<totfact> 0.11538325E-01</totfact>
</mgrwt>
</event>
<event>
 4    1  0.2471347E+000  0.5756424E+02  0.7957747E-01  0.1408347E+00
         13   -1    0    0    0    0  0.00000000000E+00  0.00000000000E+00  0.99999944171E+02  0.99999999991E+02  0.10566000000E+00 0.  1.
         22   -1    0    0    0    0 -0.00000000000E+00 -0.00000000000E+00 -0.21077923803E+02  0.21077923803E+02  0.00000000000E+00 0. -1.
         13    1    1    2    0    0 -0.18484046367E+02  0.21725137710E+02  0.77852911929E+01  0.29567947200E+02  0.10566000000E+00 0. -1.
        996    1    1    2    0    0  0.18484046367E+02 -0.21725137710E+02  0.71136729175E+02  0.91509976594E+02  0.50000000000E+02 0.  0.
<mgrwt>
<rscale>  0 0.57564239E+02</rscale>
<asrwt>0</asrwt>
<pdfrwt beam="1">  1       13 0.10000000E+01 0.57564239E+02</pdfrwt>
<pdfrwt beam="2">  1       22 0.21077946E+00 0.57564239E+02</pdfrwt>
<totfact> 0.41424567E-01</totfact>
</mgrwt>
</event>
<event>
 4    1  0.2471347E+000  0.5116781E+02  0.7957747E-01  0.1439143E+00
         13   -1    0    0    0    0  0.00000000000E+00  0.00000000000E+00  0.99999944187E+02  0.10000000001E+03  0.10566000000E+00 0. -1.
         22   -1    0    0    0    0 -0.00000000000E+00 -0.00000000000E+00 -0.18042189094E+02  0.18042189094E+02  0.00000000000E+00 0.  1.
         13    1    1    2    0    0  0.87856271727E+01 -0.63998144842E+01 -0.87123955437E+01  0.13930609118E+02  0.10566000000E+00 0.  1.
        996    1    1    2    0    0 -0.87856271727E+01  0.63998144842E+01  0.90670150636E+02  0.10411157998E+03  0.50000000000E+02 0.  0.
<mgrwt>
<rscale>  0 0.51167811E+02</rscale>
<asrwt>0</asrwt>
<pdfrwt beam="1">  1       13 0.10000000E+01 0.51167811E+02</pdfrwt>
<pdfrwt beam="2">  1       22 0.18042212E+00 0.51167811E+02</pdfrwt>
<totfact> 0.54623620E-01</totfact>
</mgrwt>
</event>
<event>
 4    1  0.2471347E+000  0.5393896E+02  0.7957747E-01  0.1425184E+00
         13   -1    0    0    0    0  0.00000000000E+00  0.00000000000E+00  0.99999944173E+02  0.99999999993E+02  0.10566000000E+00 0.  1.
         22   -1    0    0    0    0 -0.00000000000E+00 -0.00000000000E+00 -0.26251606500E+02  0.26251606500E+02  0.00000000000E+00 0. -1.
         13    1    1    2    0    0  0.15566770854E+02 -0.12926218078E+02 -0.13036594810E+02  0.24070218879E+02  0.10566000000E+00 0. -1.
        996    1    1    2    0    0 -0.15566770854E+02  0.12926218078E+02  0.86784932483E+02  0.10218138761E+03  0.50000000000E+02 0.  0.
<mgrwt>
<rscale>  0 0.53938961E+02</rscale>
<asrwt>0</asrwt>
<pdfrwt beam="1">  1       13 0.10000000E+01 0.53938961E+02</pdfrwt>
<pdfrwt beam="2">  1       22 0.26251627E+00 0.53938961E+02</pdfrwt>
<totfact> 0.26855154E-01</totfact>
</mgrwt>
</event>
<event>
 4    1  0.2471347E+000  0.6837687E+02  0.7957747E-01  0.1365701E+00
         13   -1    0    0    0    0  0.00000000000E+00  0.00000000000E+00  0.99999944178E+02  0.99999999998E+02  0.10566000000E+00 0. -1.
         22   -1    0    0    0    0 -0.00000000000E+00 -0.00000000000E+00 -0.43617338239E+02  0.43617338239E+02  0.00000000000E+00 0.  1.
         13    1    1    2    0    0  0.18607197159E+02 -0.42768782389E+02 -0.10673771629E+02  0.47847017649E+02  0.10566000000E+00 0.  1.
        996    1    1    2    0    0 -0.18607197159E+02  0.42768782389E+02  0.67056377567E+02  0.95770320588E+02  0.50000000000E+02 0.  0.
<mgrwt>
<rscale>  0 0.68376871E+02</rscale>
<asrwt>0</asrwt>
<pdfrwt beam="1">  1       13 0.10000000E+01 0.68376871E+02</pdfrwt>
<pdfrwt beam="2">  1       22 0.43617354E+00 0.68376871E+02</pdfrwt>
<totfact> 0.10465275E-01</totfact>
</mgrwt>
</event>
<event>
 4    1  0.2471347E+000  0.5141476E+02  0.7957747E-01  0.1437857E+00
         13   -1    0    0    0    0  0.00000000000E+00  0.00000000000E+00  0.99999944176E+02  0.99999999996E+02  0.10566000000E+00 0. -1.
         22   -1    0    0    0    0 -0.00000000000E+00 -0.00000000000E+00 -0.12107658165E+02  0.12107658165E+02  0.00000000000E+00 0. -1.
         13    1    1    2    0    0 -0.94093501449E+01 -0.74122889151E+01  0.22067845852E+01  0.12180269264E+02  0.10566000000E+00 0.  1.
        996    1    1    2    0    0  0.94093501449E+01  0.74122889151E+01  0.85685501426E+02  0.99927388897E+02  0.50000000000E+02 0.  0.
<mgrwt>
<rscale>  0 0.51414763E+02</rscale>
<asrwt>0</asrwt>
<pdfrwt beam="1">  1       13 0.10000000E+01 0.51414763E+02</pdfrwt>
<pdfrwt beam="2">  1       22 0.12107683E+00 0.51414763E+02</pdfrwt>
<totfact> 0.10589215E+00</totfact>
</mgrwt>
</event>
<event>
 4    1  0.2471347E+000  0.5348749E+02  0.7957747E-01  0.1427390E+00
         13   -1    0    0    0    0  0.00000000000E+00  0.00000000000E+00  0.99999944178E+02  0.99999999998E+02  0.10566000000E+00 0. -1.
         22   -1    0    0    0    0 -0.00000000000E+00 -0.00000000000E+00 -0.13380385181E+02  0.13380385181E+02  0.00000000000E+00 0. -1.
         13    1    1    2    0    0  0.14101597513E+02  0.12730122508E+02  0.16313852073E+02  0.25041246075E+02  0.10566000000E+00 0.  1.
        996    1    1    2    0    0 -0.14101597513E+02 -0.12730122508E+02  0.70305706925E+02  0.88339139104E+02  0.50000000000E+02 0.  0.
<mgrwt>
<rscale>  0 0.53487485E+02</rscale>
<asrwt>0</asrwt>
<pdfrwt beam="1">  1       13 0.10000000E+01 0.53487485E+02</pdfrwt>
<pdfrwt beam="2">  1       22 0.13380409E+00 0.53487485E+02</pdfrwt>
<totfact> 0.90972781E-01</totfact>
</mgrwt>
</event>
<event>
 4    1  0.2471347E+000  0.5149196E+02  0.7957747E-01  0.1437457E+00
         13   -1    0    0    0    0  0.00000000000E+00  0.00000000000E+00  0.99999944173E+02  0.99999999993E+02  0.10566000000E+00 0.  1.
         22   -1    0    0    0    0 -0.00000000000E+00 -0.00000000000E+00 -0.25136205081E+02  0.25136205081E+02  0.00000000000E+00 0. -1.
         13    1    1    2    0    0 -0.93328114372E+01  0.80200178362E+01 -0.16307100154E+02  0.20429261731E+02  0.10566000000E+00 0. -1.
        996    1    1    2    0    0  0.93328114372E+01 -0.80200178362E+01  0.91170839246E+02  0.10470694334E+03  0.50000000000E+02 0.  0.
<mgrwt>
<rscale>  0 0.51491961E+02</rscale>
<asrwt>0</asrwt>
<pdfrwt beam="1">  1       13 0.10000000E+01 0.51491961E+02</pdfrwt>
<pdfrwt beam="2">  1       22 0.25136226E+00 0.51491961E+02</pdfrwt>
<totfact> 0.29142583E-01</totfact>
</mgrwt>
</event>
<event>
 4    1  0.2471347E+000  0.5147823E+02  0.7957747E-01  0.1437528E+00
         13   -1    0    0    0    0  0.00000000000E+00  0.00000000000E+00  0.99999944172E+02  0.99999999992E+02  0.10566000000E+00 0. -1.
         22   -1    0    0    0    0 -0.00000000000E+00 -0.00000000000E+00 -0.23229471544E+02  0.23229471544E+02  0.00000000000E+00 0.  1.
         13    1    1    2    0    0  0.17661487007E+00  0.12246514438E+02 -0.14169961587E+02  0.18729850082E+02  0.10566000000E+00 0.  1.
        996    1    1    2    0    0 -0.17661487007E+00 -0.12246514438E+02  0.90940434216E+02  0.10449962145E+03  0.50000000000E+02 0.  0.
<mgrwt>
<rscale>  0 0.51478231E+02</rscale>
<asrwt>0</asrwt>
<pdfrwt beam="1">  1       13 0.10000000E+01 0.51478231E+02</pdfrwt>
<pdfrwt beam="2">  1       22 0.23229493E+00 0.51478231E+02</pdfrwt>
<totfact> 0.34012651E-01</totfact>
</mgrwt>
</event>
<event>
 4    1  0.2471347E+000  0.5243395E+02  0.7957747E-01  0.1432639E+00
         13   -1    0    0    0    0  0.00000000000E+00  0.00000000000E+00  0.99999944173E+02  0.99999999993E+02  0.10566000000E+00 0. -1.
         22   -1    0    0    0    0 -0.00000000000E+00 -0.00000000000E+00 -0.71661251838E+02  0.71661251838E+02  0.00000000000E+00 0.  1.
         13    1    1    2    0    0 -0.12325181225E+02  0.98696221907E+01 -0.63758042675E+02  0.65684234823E+02  0.10566000000E+00 0.  1.
        996    1    1    2    0    0  0.12325181225E+02 -0.98696221907E+01  0.92096735010E+02  0.10597701701E+03  0.50000000000E+02 0.  0.
<mgrwt>
<rscale>  0 0.52433954E+02</rscale>
<asrwt>0</asrwt>
<pdfrwt beam="1">  1       13 0.10000000E+01 0.52433954E+02</pdfrwt>
<pdfrwt beam="2">  1       22 0.71661260E+00 0.52433954E+02</pdfrwt>
<totfact> 0.65869670E-02</totfact>
</mgrwt>
</event>
<event>
 4    1  0.2471347E+000  0.5179954E+02  0.7957747E-01  0.1435870E+00
         13   -1    0    0    0    0  0.00000000000E+00  0.00000000000E+00  0.99999944183E+02  0.10000000000E+03  0.10566000000E+00 0.  1.
         22   -1    0    0    0    0 -0.00000000000E+00 -0.00000000000E+00 -0.13988299307E+02  0.13988299307E+02  0.00000000000E+00 0. -1.
         13    1    1    2    0    0  0.13527248715E+02 -0.45326515974E+00 -0.55767912544E-01  0.13535367790E+02  0.10566000000E+00 0. -1.
        996    1    1    2    0    0 -0.13527248715E+02  0.45326515974E+00  0.86067412788E+02  0.10045293152E+03  0.50000000000E+02 0.  0.
<mgrwt>
<rscale>  0 0.51799536E+02</rscale>
<asrwt>0</asrwt>
<pdfrwt beam="1">  1       13 0.10000000E+01 0.51799536E+02</pdfrwt>
<pdfrwt beam="2">  1       22 0.13988323E+00 0.51799536E+02</pdfrwt>
<totfact> 0.84406213E-01</totfact>
</mgrwt>
</event>
<event>
 4    1  0.2471347E+000  0.7130497E+02  0.7957747E-01  0.1355711E+00
         13   -1    0    0    0    0  0.00000000000E+00  0.00000000000E+00  0.99999944172E+02  0.99999999993E+02  0.10566000000E+00 0. -1.
         22   -1    0    0    0    0 -0.00000000000E+00 -0.00000000000E+00 -0.39134911705E+02  0.39134911705E+02  0.00000000000E+00 0.  1.
         13    1    1    2    0    0  0.49051156149E+02  0.13355995185E+02  0.10698188326E+02  0.51950562311E+02  0.10566000000E+00 0.  1.
        996    1    1    2    0    0 -0.49051156149E+02 -0.13355995185E+02  0.50166844142E+02  0.87184349387E+02  0.50000000000E+02 0.  0.
<mgrwt>
<rscale>  0 0.71304968E+02</rscale>
<asrwt>0</asrwt>
<pdfrwt beam="1">  1       13 0.10000000E+01 0.71304968E+02</pdfrwt>
<pdfrwt beam="2">  1       22 0.39134929E+00 0.71304968E+02</pdfrwt>
<totfact> 0.13059691E-01</totfact>
</mgrwt>
</event>
