<event>
 5    1  0.1688215E-008  0.3784563E+03  0.7957747E-01  0.3457908E+00
         13   -1    0    0    0    0  0.00000000000E+00  0.00000000000E+00  0.14999999963E+04  0.15000000000E+04  0.10566000000E+00 0.  1.
        994   -1    0    0    0    0 -0.00000000000E+00 -0.00000000000E+00  0.11368683772E-12  0.17120000000E+03  0.17120000000E+03 0.  0.
         13    1    1    2    0    0  0.51336693970E+02  0.34992197206E+02  0.29283153411E+03  0.29934967604E+03  0.10566000000E+00 0.  1.
        994    1    1    2    0    0 -0.61549430241E+02 -0.35626705389E+02  0.22100716064E+02  0.18669621354E+03  0.17120000000E+03 0.  0.
        998    1    1    2    0    0  0.10212736271E+02  0.63450818310E+00  0.11850677461E+04  0.11851541104E+04  0.10000000000E+02 0.  1.
</event>
<event>
 5    1  0.1688215E-008  0.3834678E+03  0.7957747E-01  0.3436197E+00
         13   -1    0    0    0    0  0.00000000000E+00  0.00000000000E+00  0.14999999963E+04  0.15000000000E+04  0.10566000000E+00 0. -1.
        994   -1    0    0    0    0 -0.00000000000E+00 -0.00000000000E+00  0.11368683772E-12  0.17120000000E+03  0.17120000000E+03 0.  0.
         13    1    1    2    0    0  0.28803956337E+02 -0.36922953040E+01  0.16892488571E+03  0.17140282705E+03  0.10566000000E+00 0. -1.
        994    1    1    2    0    0 -0.21180940958E+02  0.56664217032E+01  0.39832532798E+01  0.17264427851E+03  0.17120000000E+03 0.  0.
        998    1    1    2    0    0 -0.76230153792E+01 -0.19741263993E+01  0.13270918573E+04  0.13271528944E+04  0.10000000000E+02 0. -1.
</event>
<event>
 5    1  0.1688215E-008  0.3684504E+03  0.7957747E-01  0.3503043E+00
         13   -1    0    0    0    0  0.00000000000E+00  0.00000000000E+00  0.14999999963E+04  0.15000000000E+04  0.10566000000E+00 0.  1.
        994   -1    0    0    0    0 -0.00000000000E+00 -0.00000000000E+00  0.11368683772E-12  0.17120000000E+03  0.17120000000E+03 0.  0.
         13    1    1    2    0    0 -0.46191910404E+02 -0.38541423835E+01  0.10452938870E+03  0.11434575316E+03  0.10566000000E+00 0.  1.
        994    1    1    2    0    0  0.23465694760E+02  0.92467962495E+01  0.12336826036E+02  0.17348711580E+03  0.17120000000E+03 0.  0.
        998    1    1    2    0    0  0.22726215644E+02 -0.53926538660E+01  0.13831337815E+04  0.13833671310E+04  0.10000000000E+02 0.  1.
</event>
<event>
 5    1  0.1688215E-008  0.3827453E+03  0.7957747E-01  0.3439291E+00
         13   -1    0    0    0    0  0.00000000000E+00  0.00000000000E+00  0.14999999963E+04  0.15000000000E+04  0.10566000000E+00 0. -1.
        994   -1    0    0    0    0 -0.00000000000E+00 -0.00000000000E+00  0.11368683772E-12  0.17120000000E+03  0.17120000000E+03 0.  0.
         13    1    1    2    0    0 -0.56279955685E+01 -0.29885471078E+02  0.16946142904E+03  0.17216853026E+03  0.10566000000E+00 0. -1.
        994    1    1    2    0    0  0.90034902114E+01  0.14862039007E+02  0.37546677921E+01  0.17212054081E+03  0.17120000000E+03 0.  0.
        998    1    1    2    0    0 -0.33754946429E+01  0.15023432071E+02  0.13267838994E+04  0.13269109289E+04  0.10000000000E+02 0. -1.
</event>
<event>
 5    1  0.1688215E-008  0.3849123E+03  0.7957747E-01  0.3430044E+00
         13   -1    0    0    0    0  0.00000000000E+00  0.00000000000E+00  0.14999999963E+04  0.15000000000E+04  0.10566000000E+00 0.  1.
        994   -1    0    0    0    0 -0.00000000000E+00 -0.00000000000E+00  0.11368683772E-12  0.17120000000E+03  0.17120000000E+03 0.  0.
         13    1    1    2    0    0  0.20764859846E+01 -0.15120175934E+02  0.81358191281E+02  0.82777400097E+02  0.10566000000E+00 0.  1.
        994    1    1    2    0    0  0.29176911276E+00 -0.11818528504E+02  0.21335711783E+01  0.17162096280E+03  0.17120000000E+03 0.  0.
        998    1    1    2    0    0 -0.23682550974E+01  0.26938704437E+02  0.14165082338E+04  0.14168016371E+04  0.10000000000E+02 0.  1.
</event>
<event>
 5    1  0.1688215E-008  0.3821495E+03  0.7957747E-01  0.3441852E+00
         13   -1    0    0    0    0  0.00000000000E+00  0.00000000000E+00  0.14999999963E+04  0.15000000000E+04  0.10566000000E+00 0.  1.
        994   -1    0    0    0    0 -0.00000000000E+00 -0.00000000000E+00  0.11368683772E-12  0.17120000000E+03  0.17120000000E+03 0.  0.
         13    1    1    2    0    0  0.10475601347E+03  0.20136510540E+02  0.26500102057E+03  0.28566563231E+03  0.10566000000E+00 0.  1.
        994    1    1    2    0    0 -0.10193094428E+03 -0.15989275538E+02  0.57515461431E+02  0.20799769864E+03  0.17120000000E+03 0.  0.
        998    1    1    2    0    0 -0.28250691893E+01 -0.41472350011E+01  0.11774835143E+04  0.11775366691E+04  0.10000000000E+02 0.  1.
</event>
<event>
 5    1  0.1688215E-008  0.3858594E+03  0.7957747E-01  0.3426035E+00
         13   -1    0    0    0    0  0.00000000000E+00  0.00000000000E+00  0.14999999963E+04  0.15000000000E+04  0.10566000000E+00 0. -1.
        994   -1    0    0    0    0 -0.00000000000E+00 -0.00000000000E+00  0.11368683772E-12  0.17120000000E+03  0.17120000000E+03 0.  0.
         13    1    1    2    0    0 -0.63797208271E+01  0.93719180276E+01  0.53367863243E+02  0.54558900983E+02  0.10566000000E+00 0. -1.
        994    1    1    2    0    0  0.18396998288E+02  0.11606493149E+01  0.23192005391E+01  0.17220515481E+03  0.17120000000E+03 0.  0.
        998    1    1    2    0    0 -0.12017277461E+02 -0.10532567343E+02  0.14443129325E+04  0.14444359442E+04  0.10000000000E+02 0. -1.
</event>
<event>
 5    1  0.1688215E-008  0.3700426E+03  0.7957747E-01  0.3495695E+00
         13   -1    0    0    0    0  0.00000000000E+00  0.00000000000E+00  0.14999999963E+04  0.15000000000E+04  0.10566000000E+00 0.  1.
        994   -1    0    0    0    0 -0.00000000000E+00 -0.00000000000E+00  0.11368683772E-12  0.17120000000E+03  0.17120000000E+03 0.  0.
         13    1    1    2    0    0 -0.24420598178E+02 -0.45494586563E+02  0.11001900698E+03  0.12153318922E+03  0.10566000000E+00 0.  1.
        994    1    1    2    0    0  0.16741923583E+02  0.48980723786E+02  0.20389335863E+02  0.18001268934E+03  0.17120000000E+03 0.  0.
        998    1    1    2    0    0  0.76786745952E+01 -0.34861372230E+01  0.13695916534E+04  0.13696541214E+04  0.10000000000E+02 0.  1.
</event>
<event>
 5    1  0.1688215E-008  0.3805497E+03  0.7957747E-01  0.3448768E+00
         13   -1    0    0    0    0  0.00000000000E+00  0.00000000000E+00  0.14999999963E+04  0.15000000000E+04  0.10566000000E+00 0. -1.
        994   -1    0    0    0    0 -0.00000000000E+00 -0.00000000000E+00  0.11368683772E-12  0.17120000000E+03  0.17120000000E+03 0.  0.
         13    1    1    2    0    0  0.16753214827E+02 -0.54091116076E+01  0.36452510625E+02  0.40481173282E+02  0.10566000000E+00 0. -1.
        994    1    1    2    0    0 -0.28070482259E+02  0.93433988767E+01  0.67819924382E+01  0.17386974003E+03  0.17120000000E+03 0.  0.
        998    1    1    2    0    0  0.11317267432E+02 -0.39342872691E+01  0.14567654932E+04  0.14568490867E+04  0.10000000000E+02 0. -1.
</event>
<event>
 5    1  0.1688215E-008  0.3834916E+03  0.7957747E-01  0.3436095E+00
         13   -1    0    0    0    0  0.00000000000E+00  0.00000000000E+00  0.14999999963E+04  0.15000000000E+04  0.10566000000E+00 0. -1.
        994   -1    0    0    0    0 -0.00000000000E+00 -0.00000000000E+00  0.11368683772E-12  0.17120000000E+03  0.17120000000E+03 0.  0.
         13    1    1    2    0    0  0.89191503040E+01  0.13044082113E+02  0.49818133042E+02  0.52264298179E+02  0.10566000000E+00 0. -1.
        994    1    1    2    0    0 -0.70551682637E+01 -0.17935069527E+02  0.36094039141E+01  0.17231920936E+03  0.17120000000E+03 0.  0.
        998    1    1    2    0    0 -0.18639820403E+01  0.48909874141E+01  0.14465724593E+04  0.14466164925E+04  0.10000000000E+02 0. -1.
</event>
<event>
 5    1  0.1688215E-008  0.3715318E+03  0.7957747E-01  0.3488880E+00
         13   -1    0    0    0    0  0.00000000000E+00  0.00000000000E+00  0.14999999963E+04  0.15000000000E+04  0.10566000000E+00 0.  1.
        994   -1    0    0    0    0 -0.00000000000E+00 -0.00000000000E+00  0.11368683772E-12  0.17120000000E+03  0.17120000000E+03 0.  0.
         13    1    1    2    0    0 -0.13196734934E+02 -0.80834803698E+01  0.10293448784E+02  0.18586627443E+02  0.10566000000E+00 0.  1.
        994    1    1    2    0    0  0.11887193125E+02  0.69398416099E+01  0.91225214111E+01  0.17199455561E+03  0.17120000000E+03 0.  0.
        998    1    1    2    0    0  0.13095418082E+01  0.11436387599E+01  0.14805840261E+04  0.14806188169E+04  0.10000000000E+02 0.  1.
</event>
<event>
 5    1  0.1688215E-008  0.3927253E+03  0.7957747E-01  0.3397555E+00
         13   -1    0    0    0    0  0.00000000000E+00  0.00000000000E+00  0.14999999963E+04  0.15000000000E+04  0.10566000000E+00 0. -1.
        994   -1    0    0    0    0 -0.00000000000E+00 -0.00000000000E+00  0.11368683772E-12  0.17120000000E+03  0.17120000000E+03 0.  0.
         13    1    1    2    0    0  0.10506473077E+03  0.31544394940E+02  0.35953237252E+03  0.37589517762E+03  0.10566000000E+00 0. -1.
        994    1    1    2    0    0 -0.27874033266E+02  0.78185616108E+02  0.50205798777E+02  0.19677401893E+03  0.17120000000E+03 0.  0.
        998    1    1    2    0    0 -0.77190697505E+02 -0.10973001105E+03  0.10902618250E+04  0.10985308034E+04  0.10000000000E+02 0. -1.
</event>
<event>
 5    1  0.1688215E-008  0.3815658E+03  0.7957747E-01  0.3444369E+00
         13   -1    0    0    0    0  0.00000000000E+00  0.00000000000E+00  0.14999999963E+04  0.15000000000E+04  0.10566000000E+00 0.  1.
        994   -1    0    0    0    0 -0.00000000000E+00 -0.00000000000E+00  0.11368683772E-12  0.17120000000E+03  0.17120000000E+03 0.  0.
         13    1    1    2    0    0 -0.13657013888E+02 -0.45660484795E+00  0.27659465187E+02  0.30850926968E+02  0.10566000000E+00 0.  1.
        994    1    1    2    0    0 -0.27562465355E+01  0.81322244457E+01  0.35900461948E+01  0.17145278767E+03  0.17120000000E+03 0.  0.
        998    1    1    2    0    0  0.16413260424E+02 -0.76756195977E+01  0.14687504849E+04  0.14688962854E+04  0.10000000000E+02 0.  1.
</event>
<event>
 5    1  0.1688215E-008  0.3848645E+03  0.7957747E-01  0.3430247E+00
         13   -1    0    0    0    0  0.00000000000E+00  0.00000000000E+00  0.14999999963E+04  0.15000000000E+04  0.10566000000E+00 0. -1.
        994   -1    0    0    0    0 -0.00000000000E+00 -0.00000000000E+00  0.11368683772E-12  0.17120000000E+03  0.17120000000E+03 0.  0.
         13    1    1    2    0    0  0.47063457926E+01  0.12585772699E+02 -0.40140053139E+01  0.14024078146E+02  0.10566000000E+00 0. -1.
        994    1    1    2    0    0 -0.10506721815E+02 -0.13591544846E+02  0.20115016602E+02  0.17323156522E+03  0.17120000000E+03 0.  0.
        998    1    1    2    0    0  0.58003760223E+01  0.10057721465E+01  0.14838989850E+04  0.14839443566E+04  0.10000000000E+02 0. -1.
</event>
<event>
 5    1  0.1688215E-008  0.3792351E+03  0.7957747E-01  0.3454496E+00
         13   -1    0    0    0    0  0.00000000000E+00  0.00000000000E+00  0.14999999963E+04  0.15000000000E+04  0.10566000000E+00 0.  1.
        994   -1    0    0    0    0 -0.00000000000E+00 -0.00000000000E+00  0.11368683772E-12  0.17120000000E+03  0.17120000000E+03 0.  0.
         13    1    1    2    0    0 -0.14975585908E+02 -0.34769906142E+01  0.24629459131E+02  0.29034101642E+02  0.10566000000E+00 0.  1.
        994    1    1    2    0    0  0.38542664536E+01  0.81970821460E+01  0.47947577966E+01  0.17150649325E+03  0.17120000000E+03 0.  0.
        998    1    1    2    0    0  0.11121319455E+02 -0.47200915318E+01  0.14705757794E+04  0.14706594051E+04  0.10000000000E+02 0.  1.
</event>
<event>
 5    1  0.1688215E-008  0.3811295E+03  0.7957747E-01  0.3446255E+00
         13   -1    0    0    0    0  0.00000000000E+00  0.00000000000E+00  0.14999999963E+04  0.15000000000E+04  0.10566000000E+00 0. -1.
        994   -1    0    0    0    0 -0.00000000000E+00 -0.00000000000E+00  0.11368683772E-12  0.17120000000E+03  0.17120000000E+03 0.  0.
         13    1    1    2    0    0  0.17088682894E+02 -0.93585802021E+01  0.53614209873E+02  0.57044726056E+02  0.10566000000E+00 0. -1.
        994    1    1    2    0    0 -0.10488970939E+02 -0.82522835467E+01  0.41575354005E+01  0.17176974063E+03  0.17120000000E+03 0.  0.
        998    1    1    2    0    0 -0.65997119548E+01  0.17610863749E+02  0.14422282510E+04  0.14423855333E+04  0.10000000000E+02 0. -1.
</event>
<event>
 5    1  0.1688215E-008  0.3858218E+03  0.7957747E-01  0.3426194E+00
         13   -1    0    0    0    0  0.00000000000E+00  0.00000000000E+00  0.14999999963E+04  0.15000000000E+04  0.10566000000E+00 0.  1.
        994   -1    0    0    0    0 -0.00000000000E+00 -0.00000000000E+00  0.11368683772E-12  0.17120000000E+03  0.17120000000E+03 0.  0.
         13    1    1    2    0    0 -0.11644919134E+02 -0.56213701256E+01  0.70228288978E+02  0.71408876763E+02  0.10566000000E+00 0.  1.
        994    1    1    2    0    0  0.77423333168E+01 -0.16342653706E+01  0.14280699917E+01  0.17138872172E+03  0.17120000000E+03 0.  0.
        998    1    1    2    0    0  0.39025858170E+01  0.72556354963E+01  0.14283436373E+04  0.14284024015E+04  0.10000000000E+02 0.  1.
</event>
<event>
 5    1  0.1688215E-008  0.3752560E+03  0.7957747E-01  0.3472079E+00
         13   -1    0    0    0    0  0.00000000000E+00  0.00000000000E+00  0.14999999963E+04  0.15000000000E+04  0.10566000000E+00 0. -1.
        994   -1    0    0    0    0 -0.00000000000E+00 -0.00000000000E+00  0.11368683772E-12  0.17120000000E+03  0.17120000000E+03 0.  0.
         13    1    1    2    0    0 -0.23578715374E+02  0.59809691961E+02  0.29960027713E+03  0.30642045019E+03  0.10566000000E+00 0. -1.
        994    1    1    2    0    0  0.27705393326E+02 -0.35223751258E+02  0.13398742943E+02  0.17747469618E+03  0.17120000000E+03 0.  0.
        998    1    1    2    0    0 -0.41266779513E+01 -0.24585940703E+02  0.11870009762E+04  0.11873048536E+04  0.10000000000E+02 0. -1.
</event>
<event>
 5    1  0.1688215E-008  0.3765525E+03  0.7957747E-01  0.3466308E+00
         13   -1    0    0    0    0  0.00000000000E+00  0.00000000000E+00  0.14999999963E+04  0.15000000000E+04  0.10566000000E+00 0.  1.
        994   -1    0    0    0    0 -0.00000000000E+00 -0.00000000000E+00  0.11368683772E-12  0.17120000000E+03  0.17120000000E+03 0.  0.
         13    1    1    2    0    0  0.28283357915E+02 -0.14529301515E+02  0.88226252816E+02  0.93781297642E+02  0.10566000000E+00 0.  1.
        994    1    1    2    0    0 -0.39395726566E+01  0.86320908059E+01  0.61881451870E+01  0.17157437561E+03  0.17120000000E+03 0.  0.
        998    1    1    2    0    0 -0.24343785258E+02  0.58972107092E+01  0.14055855983E+04  0.14058443267E+04  0.10000000000E+02 0.  1.
</event>
<event>
 5    1  0.1688215E-008  0.3858561E+03  0.7957747E-01  0.3426050E+00
         13   -1    0    0    0    0  0.00000000000E+00  0.00000000000E+00  0.14999999963E+04  0.15000000000E+04  0.10566000000E+00 0.  1.
        994   -1    0    0    0    0 -0.00000000000E+00 -0.00000000000E+00  0.11368683772E-12  0.17120000000E+03  0.17120000000E+03 0.  0.
         13    1    1    2    0    0  0.12754688487E+01  0.33536317913E+02  0.20200076959E+02  0.39170980497E+02  0.10566000000E+00 0.  1.
        994    1    1    2    0    0 -0.17037984770E+01 -0.37820726783E+02  0.24908122126E+02  0.17709648458E+03  0.17120000000E+03 0.  0.
        998    1    1    2    0    0  0.42832962828E+00  0.42844088704E+01  0.14548917972E+04  0.14549325349E+04  0.10000000000E+02 0.  1.
</event>
<event>
 5    1  0.1688215E-008  0.3711211E+03  0.7957747E-01  0.3490754E+00
         13   -1    0    0    0    0  0.00000000000E+00  0.00000000000E+00  0.14999999963E+04  0.15000000000E+04  0.10566000000E+00 0. -1.
        994   -1    0    0    0    0 -0.00000000000E+00 -0.00000000000E+00  0.11368683772E-12  0.17120000000E+03  0.17120000000E+03 0.  0.
         13    1    1    2    0    0  0.79265206682E+02  0.57595123651E+02  0.51926338665E+03  0.52842657687E+03  0.10566000000E+00 0. -1.
        994    1    1    2    0    0 -0.13612604112E+03  0.35451462172E+02  0.80263468908E+02  0.23566664949E+03  0.17120000000E+03 0.  0.
        998    1    1    2    0    0  0.56860834441E+02 -0.93046585823E+02  0.90047314072E+03  0.90710677364E+03  0.10000000000E+02 0. -1.
</event>
<event>
 5    1  0.1688215E-008  0.3840440E+03  0.7957747E-01  0.3433737E+00
         13   -1    0    0    0    0  0.00000000000E+00  0.00000000000E+00  0.14999999963E+04  0.15000000000E+04  0.10566000000E+00 0.  1.
        994   -1    0    0    0    0 -0.00000000000E+00 -0.00000000000E+00  0.11368683772E-12  0.17120000000E+03  0.17120000000E+03 0.  0.
         13    1    1    2    0    0  0.95600099459E+01  0.18150504311E+02  0.10934292580E+03  0.11125071319E+03  0.10566000000E+00 0.  1.
        994    1    1    2    0    0 -0.31483138373E+01  0.14284106309E+01  0.21449592764E+01  0.17124833747E+03  0.17120000000E+03 0.  0.
        998    1    1    2    0    0 -0.64116961087E+01 -0.19578914942E+02  0.13885121112E+04  0.13887009493E+04  0.10000000000E+02 0.  1.
</event>
<event>
 5    1  0.1688215E-008  0.3942102E+03  0.7957747E-01  0.3391526E+00
         13   -1    0    0    0    0  0.00000000000E+00  0.00000000000E+00  0.14999999963E+04  0.15000000000E+04  0.10566000000E+00 0.  1.
        994   -1    0    0    0    0 -0.00000000000E+00 -0.00000000000E+00  0.11368683772E-12  0.17120000000E+03  0.17120000000E+03 0.  0.
         13    1    1    2    0    0  0.64288718758E+02  0.39533833124E+02  0.11745888019E+03  0.13961576924E+03  0.10566000000E+00 0.  1.
        994    1    1    2    0    0 -0.32840907994E+02 -0.25004595326E+01  0.28522265975E+02  0.17665711758E+03  0.17120000000E+03 0.  0.
        998    1    1    2    0    0 -0.31447810764E+02 -0.37033373592E+02  0.13540188501E+04  0.13549271132E+04  0.10000000000E+02 0.  1.
</event>
<event>
 5    1  0.1688215E-008  0.3706045E+03  0.7957747E-01  0.3493117E+00
         13   -1    0    0    0    0  0.00000000000E+00  0.00000000000E+00  0.14999999963E+04  0.15000000000E+04  0.10566000000E+00 0.  1.
        994   -1    0    0    0    0 -0.00000000000E+00 -0.00000000000E+00  0.11368683772E-12  0.17120000000E+03  0.17120000000E+03 0.  0.
         13    1    1    2    0    0  0.87040134930E+02  0.49406349642E+02  0.56829287025E+03  0.57703879420E+03  0.10566000000E+00 0.  1.
        994    1    1    2    0    0 -0.76677838016E+02  0.44167233706E+02  0.39220489683E+02  0.19666703381E+03  0.17120000000E+03 0.  0.
        998    1    1    2    0    0 -0.10362296914E+02 -0.93573583348E+02  0.89248663635E+03  0.89749417199E+03  0.10000000000E+02 0.  1.
</event>
<event>
 5    1  0.1688215E-008  0.3858442E+03  0.7957747E-01  0.3426100E+00
         13   -1    0    0    0    0  0.00000000000E+00  0.00000000000E+00  0.14999999963E+04  0.15000000000E+04  0.10566000000E+00 0.  1.
        994   -1    0    0    0    0 -0.00000000000E+00 -0.00000000000E+00  0.11368683772E-12  0.17120000000E+03  0.17120000000E+03 0.  0.
         13    1    1    2    0    0  0.25816196240E+01 -0.11927126205E+02  0.64364184769E+02  0.65510919276E+02  0.10566000000E+00 0.  1.
        994    1    1    2    0    0 -0.41235130733E+01  0.22920139074E+01  0.12845855120E+01  0.17126980717E+03  0.17120000000E+03 0.  0.
        998    1    1    2    0    0  0.15418934493E+01  0.96351122975E+01  0.14343512260E+04  0.14344192736E+04  0.10000000000E+02 0.  1.
</event>
<event>
 5    1  0.1688215E-008  0.3851669E+03  0.7957747E-01  0.3428965E+00
         13   -1    0    0    0    0  0.00000000000E+00  0.00000000000E+00  0.14999999963E+04  0.15000000000E+04  0.10566000000E+00 0. -1.
        994   -1    0    0    0    0 -0.00000000000E+00 -0.00000000000E+00  0.11368683772E-12  0.17120000000E+03  0.17120000000E+03 0.  0.
         13    1    1    2    0    0 -0.81372636282E+01 -0.13877776475E+02  0.82777541812E+02  0.84326391668E+02  0.10566000000E+00 0. -1.
        994    1    1    2    0    0  0.28093141555E+01  0.12424629911E+02  0.20808102356E+01  0.17168585686E+03  0.17120000000E+03 0.  0.
        998    1    1    2    0    0  0.53279494727E+01  0.14531465644E+01  0.14151416442E+04  0.14151877515E+04  0.10000000000E+02 0. -1.
</event>
<event>
 5    1  0.1688215E-008  0.3856761E+03  0.7957747E-01  0.3426810E+00
         13   -1    0    0    0    0  0.00000000000E+00  0.00000000000E+00  0.14999999963E+04  0.15000000000E+04  0.10566000000E+00 0.  1.
        994   -1    0    0    0    0 -0.00000000000E+00 -0.00000000000E+00  0.11368683772E-12  0.17120000000E+03  0.17120000000E+03 0.  0.
         13    1    1    2    0    0 -0.89242850336E+01 -0.13437981300E+02  0.96181515248E+02  0.97524957033E+02  0.10566000000E+00 0.  1.
        994    1    1    2    0    0  0.98205195122E+01  0.13025266989E+02  0.21685344827E+01  0.17198907734E+03  0.17120000000E+03 0.  0.
        998    1    1    2    0    0 -0.89623447863E+00  0.41271431119E+00  0.14016499465E+04  0.14016859656E+04  0.10000000000E+02 0.  1.
</event>
<event>
 5    1  0.1688215E-008  0.3829337E+03  0.7957747E-01  0.3438483E+00
         13   -1    0    0    0    0  0.00000000000E+00  0.00000000000E+00  0.14999999963E+04  0.15000000000E+04  0.10566000000E+00 0.  1.
        994   -1    0    0    0    0 -0.00000000000E+00 -0.00000000000E+00  0.11368683772E-12  0.17120000000E+03  0.17120000000E+03 0.  0.
         13    1    1    2    0    0  0.19873523977E+02 -0.16534793209E+02  0.12709609077E+03  0.12969881956E+03  0.10566000000E+00 0.  1.
        994    1    1    2    0    0 -0.13851914809E+02  0.40387186118E+01  0.33490602453E+01  0.17183958507E+03  0.17120000000E+03 0.  0.
        998    1    1    2    0    0 -0.60216091673E+01  0.12496074597E+02  0.13695548453E+04  0.13696615954E+04  0.10000000000E+02 0.  1.
</event>
<event>
 5    1  0.1688215E-008  0.3844827E+03  0.7957747E-01  0.3431869E+00
         13   -1    0    0    0    0  0.00000000000E+00  0.00000000000E+00  0.14999999963E+04  0.15000000000E+04  0.10566000000E+00 0. -1.
        994   -1    0    0    0    0 -0.00000000000E+00 -0.00000000000E+00  0.11368683772E-12  0.17120000000E+03  0.17120000000E+03 0.  0.
         13    1    1    2    0    0  0.59041229652E+01  0.14871283408E+02  0.73657462865E+02  0.75375372224E+02  0.10566000000E+00 0. -1.
        994    1    1    2    0    0 -0.58757953037E+01  0.54960540089E+01  0.21004508976E+01  0.17140181876E+03  0.17120000000E+03 0.  0.
        998    1    1    2    0    0 -0.28327661476E-01 -0.20367337417E+02  0.14242420825E+04  0.14244228090E+04  0.10000000000E+02 0. -1.
</event>
<event>
 5    1  0.1688215E-008  0.3813587E+03  0.7957747E-01  0.3445264E+00
         13   -1    0    0    0    0  0.00000000000E+00  0.00000000000E+00  0.14999999963E+04  0.15000000000E+04  0.10566000000E+00 0.  1.
        994   -1    0    0    0    0 -0.00000000000E+00 -0.00000000000E+00  0.11368683772E-12  0.17120000000E+03  0.17120000000E+03 0.  0.
         13    1    1    2    0    0 -0.24009521244E+02  0.22715309696E+02  0.18570049111E+03  0.18861899684E+03  0.10566000000E+00 0.  1.
        994    1    1    2    0    0  0.10113949176E+02  0.12431756394E+02  0.43040760605E+01  0.17200234186E+03  0.17120000000E+03 0.  0.
        998    1    1    2    0    0  0.13895572068E+02 -0.35147066090E+02  0.13099954291E+04  0.13105786613E+04  0.10000000000E+02 0.  1.
</event>
<event>
 5    1  0.1688215E-008  0.3721141E+03  0.7957747E-01  0.3486231E+00
         13   -1    0    0    0    0  0.00000000000E+00  0.00000000000E+00  0.14999999963E+04  0.15000000000E+04  0.10566000000E+00 0.  1.
        994   -1    0    0    0    0 -0.00000000000E+00 -0.00000000000E+00  0.11368683772E-12  0.17120000000E+03  0.17120000000E+03 0.  0.
         13    1    1    2    0    0 -0.12723244298E+02 -0.31664241628E+01  0.65905727910E+01  0.14674944674E+02  0.10566000000E+00 0.  1.
        994    1    1    2    0    0  0.22487771831E+02  0.96632119522E+00  0.99092512150E+01  0.17295741360E+03  0.17120000000E+03 0.  0.
        998    1    1    2    0    0 -0.97645275333E+01  0.22001029676E+01  0.14835001723E+04  0.14835676417E+04  0.10000000000E+02 0.  1.
</event>
<event>
 5    1  0.1688215E-008  0.3839394E+03  0.7957747E-01  0.3434183E+00
         13   -1    0    0    0    0  0.00000000000E+00  0.00000000000E+00  0.14999999963E+04  0.15000000000E+04  0.10566000000E+00 0.  1.
        994   -1    0    0    0    0 -0.00000000000E+00 -0.00000000000E+00  0.11368683772E-12  0.17120000000E+03  0.17120000000E+03 0.  0.
         13    1    1    2    0    0 -0.11703985127E+02 -0.15500848498E+02  0.94174736825E+02  0.96156912347E+02  0.10566000000E+00 0.  1.
        994    1    1    2    0    0 -0.10091375416E+01  0.15048184325E+01  0.21684530897E+01  0.17122331917E+03  0.17120000000E+03 0.  0.
        998    1    1    2    0    0  0.12713122669E+02  0.13996030066E+02  0.14036568064E+04  0.14038197685E+04  0.10000000000E+02 0.  1.
</event>
<event>
 5    1  0.2119453E-008  0.3848381E+03  0.7957747E-01  0.3430359E+00
         13   -1    0    0    0    0  0.00000000000E+00  0.00000000000E+00  0.14999999963E+04  0.15000000000E+04  0.10566000000E+00 0.  1.
        994   -1    0    0    0    0 -0.00000000000E+00 -0.00000000000E+00  0.11368683772E-12  0.17120000000E+03  0.17120000000E+03 0.  0.
         13    1    1    2    0    0  0.10286255378E+02 -0.12273935573E+02  0.80112003838E+02  0.81697006476E+02  0.10566000000E+00 0.  1.
        994    1    1    2    0    0  0.12745671037E+01  0.20800254800E+01  0.17301310550E+01  0.17122612061E+03  0.17120000000E+03 0.  0.
        998    1    1    2    0    0 -0.11560822482E+02  0.10193910093E+02  0.14181578614E+04  0.14182768729E+04  0.10000000000E+02 0.  1.
</event>
<event>
 5    1  0.1688215E-008  0.3830805E+03  0.7957747E-01  0.3437854E+00
         13   -1    0    0    0    0  0.00000000000E+00  0.00000000000E+00  0.14999999963E+04  0.15000000000E+04  0.10566000000E+00 0.  1.
        994   -1    0    0    0    0 -0.00000000000E+00 -0.00000000000E+00  0.11368683772E-12  0.17120000000E+03  0.17120000000E+03 0.  0.
         13    1    1    2    0    0 -0.13361838163E+02 -0.11277195958E+02  0.52550907815E+02  0.55383417591E+02  0.10566000000E+00 0.  1.
        994    1    1    2    0    0  0.26345745817E+02  0.21811472155E+02  0.64670956779E+01  0.17470289627E+03  0.17120000000E+03 0.  0.
        998    1    1    2    0    0 -0.12983907654E+02 -0.10534276196E+02  0.14409819928E+04  0.14411136861E+04  0.10000000000E+02 0.  1.
</event>
<event>
 5    1  0.1688215E-008  0.3780781E+03  0.7957747E-01  0.3459570E+00
         13   -1    0    0    0    0  0.00000000000E+00  0.00000000000E+00  0.14999999963E+04  0.15000000000E+04  0.10566000000E+00 0.  1.
        994   -1    0    0    0    0 -0.00000000000E+00 -0.00000000000E+00  0.11368683772E-12  0.17120000000E+03  0.17120000000E+03 0.  0.
         13    1    1    2    0    0 -0.14462226746E+03 -0.31387340872E+02  0.84730966709E+03  0.86013629648E+03  0.10566000000E+00 0.  1.
        994    1    1    2    0    0  0.14722668537E+03  0.19590039752E+02  0.83319314117E+02  0.24147673728E+03  0.17120000000E+03 0.  0.
        998    1    1    2    0    0 -0.26044179171E+01  0.11797301120E+02  0.56937101507E+03  0.56958696624E+03  0.10000000000E+02 0.  1.
</event>
<event>
 5    1  0.1688215E-008  0.3731540E+03  0.7957747E-01  0.3481520E+00
         13   -1    0    0    0    0  0.00000000000E+00  0.00000000000E+00  0.14999999963E+04  0.15000000000E+04  0.10566000000E+00 0. -1.
        994   -1    0    0    0    0 -0.00000000000E+00 -0.00000000000E+00  0.11368683772E-12  0.17120000000E+03  0.17120000000E+03 0.  0.
         13    1    1    2    0    0  0.48779809470E+02  0.24913849248E+02  0.19260294395E+03  0.20024004315E+03  0.10566000000E+00 0. -1.
        994    1    1    2    0    0 -0.17323393014E+02 -0.41076284993E+02  0.14458184668E+02  0.17749884574E+03  0.17120000000E+03 0.  0.
        998    1    1    2    0    0 -0.31456416456E+02  0.16162435745E+02  0.12929388677E+04  0.12934611111E+04  0.10000000000E+02 0.  1.
</event>
<event>
 5    1  0.1688215E-008  0.3780585E+03  0.7957747E-01  0.3459656E+00
         13   -1    0    0    0    0  0.00000000000E+00  0.00000000000E+00  0.14999999963E+04  0.15000000000E+04  0.10566000000E+00 0.  1.
        994   -1    0    0    0    0 -0.00000000000E+00 -0.00000000000E+00  0.11368683772E-12  0.17120000000E+03  0.17120000000E+03 0.  0.
         13    1    1    2    0    0 -0.15184996803E+01  0.10731287224E+02  0.93850828491E+01  0.14337269994E+02  0.10566000000E+00 0.  1.
        994    1    1    2    0    0  0.10107798690E+02  0.35811239748E+01  0.55034240182E+01  0.17162377376E+03  0.17120000000E+03 0.  0.
        998    1    1    2    0    0 -0.85892990100E+01 -0.14312411199E+02  0.14851114894E+04  0.14852389562E+04  0.10000000000E+02 0.  1.
</event>
<event>
 5    1  0.1688215E-008  0.3811798E+03  0.7957747E-01  0.3446037E+00
         13   -1    0    0    0    0  0.00000000000E+00  0.00000000000E+00  0.14999999963E+04  0.15000000000E+04  0.10566000000E+00 0.  1.
        994   -1    0    0    0    0 -0.00000000000E+00 -0.00000000000E+00  0.11368683772E-12  0.17120000000E+03  0.17120000000E+03 0.  0.
         13    1    1    2    0    0 -0.25780443589E+02 -0.25295680288E+02  0.17719530482E+03  0.18083885071E+03  0.10566000000E+00 0.  1.
        994    1    1    2    0    0  0.16282231589E+02  0.19829960441E+02  0.57340726021E+01  0.17320698019E+03  0.17120000000E+03 0.  0.
        998    1    1    2    0    0  0.94982120002E+01  0.54657198473E+01  0.13170706189E+04  0.13171541691E+04  0.10000000000E+02 0.  1.
</event>
<event>
 5    1  0.1688215E-008  0.3822361E+03  0.7957747E-01  0.3441480E+00
         13   -1    0    0    0    0  0.00000000000E+00  0.00000000000E+00  0.14999999963E+04  0.15000000000E+04  0.10566000000E+00 0.  1.
        994   -1    0    0    0    0 -0.00000000000E+00 -0.00000000000E+00  0.11368683772E-12  0.17120000000E+03  0.17120000000E+03 0.  0.
         13    1    1    2    0    0 -0.27413191754E+02 -0.16570544747E+02  0.18671503598E+03  0.18944281950E+03  0.10566000000E+00 0.  1.
        994    1    1    2    0    0  0.12878451330E+02 -0.67403786502E+01  0.37100709934E+01  0.17185602067E+03  0.17120000000E+03 0.  0.
        998    1    1    2    0    0  0.14534740423E+02  0.23310923397E+02  0.13095748893E+04  0.13099011598E+04  0.10000000000E+02 0.  1.
</event>
<event>
 5    1  0.1688215E-008  0.3832066E+03  0.7957747E-01  0.3437314E+00
         13   -1    0    0    0    0  0.00000000000E+00  0.00000000000E+00  0.14999999963E+04  0.15000000000E+04  0.10566000000E+00 0. -1.
        994   -1    0    0    0    0 -0.00000000000E+00 -0.00000000000E+00  0.11368683772E-12  0.17120000000E+03  0.17120000000E+03 0.  0.
         13    1    1    2    0    0  0.99098003231E+01 -0.64595945250E+01  0.26328318034E+02  0.28863852799E+02  0.10566000000E+00 0. -1.
        994    1    1    2    0    0 -0.12377192918E+02  0.66778150212E+01  0.31776894389E+01  0.17180607041E+03  0.17120000000E+03 0.  0.
        998    1    1    2    0    0  0.24673925950E+01 -0.21822049620E+00  0.14704939888E+04  0.14705300768E+04  0.10000000000E+02 0. -1.
</event>
<event>
 5    1  0.1688215E-008  0.3837071E+03  0.7957747E-01  0.3435174E+00
         13   -1    0    0    0    0  0.00000000000E+00  0.00000000000E+00  0.14999999963E+04  0.15000000000E+04  0.10566000000E+00 0.  1.
        994   -1    0    0    0    0 -0.00000000000E+00 -0.00000000000E+00  0.11368683772E-12  0.17120000000E+03  0.17120000000E+03 0.  0.
         13    1    1    2    0    0  0.11053354262E+02  0.56188564307E+00  0.28312115010E+02  0.30398673923E+02  0.10566000000E+00 0.  1.
        994    1    1    2    0    0  0.12104728715E+02  0.11452415222E+02  0.31909990560E+01  0.17203867224E+03  0.17120000000E+03 0.  0.
        998    1    1    2    0    0 -0.23158082977E+02 -0.12014300865E+02  0.14684968822E+04  0.14687626538E+04  0.10000000000E+02 0.  1.
</event>
<event>
 5    1  0.1688215E-008  0.3118707E+03  0.7957747E-01  0.3814756E+00
         13   -1    0    0    0    0  0.00000000000E+00  0.00000000000E+00  0.14999999963E+04  0.15000000000E+04  0.10566000000E+00 0.  1.
        994   -1    0    0    0    0 -0.00000000000E+00 -0.00000000000E+00  0.11368683772E-12  0.17120000000E+03  0.17120000000E+03 0.  0.
         13    1    1    2    0    0 -0.18560541606E+03 -0.70712568425E+01  0.85367908819E+03  0.87365174407E+03  0.10566000000E+00 0.  1.
        994    1    1    2    0    0  0.10889663710E+03  0.89033854807E+01  0.68151471946E+02  0.21422374045E+03  0.17120000000E+03 0.  0.
        998    1    1    2    0    0  0.76708778952E+02 -0.18321286382E+01  0.57816943615E+03  0.58332451548E+03  0.10000000000E+02 0.  1.
</event>
<event>
 5    1  0.1688215E-008  0.3843555E+03  0.7957747E-01  0.3432410E+00
         13   -1    0    0    0    0  0.00000000000E+00  0.00000000000E+00  0.14999999963E+04  0.15000000000E+04  0.10566000000E+00 0.  1.
        994   -1    0    0    0    0 -0.00000000000E+00 -0.00000000000E+00  0.11368683772E-12  0.17120000000E+03  0.17120000000E+03 0.  0.
         13    1    1    2    0    0 -0.75283891067E+01  0.16203633938E+02  0.84236636618E+02  0.86110722376E+02  0.10566000000E+00 0.  1.
        994    1    1    2    0    0 -0.18399772231E+01 -0.81956169159E+01  0.21830104423E+01  0.17141983312E+03  0.17120000000E+03 0.  0.
        998    1    1    2    0    0  0.93683663298E+01 -0.80080170218E+01  0.14135803492E+04  0.14136694445E+04  0.10000000000E+02 0.  1.
</event>
<event>
 5    1  0.1688215E-008  0.3809943E+03  0.7957747E-01  0.3446840E+00
         13   -1    0    0    0    0  0.00000000000E+00  0.00000000000E+00  0.14999999963E+04  0.15000000000E+04  0.10566000000E+00 0. -1.
        994   -1    0    0    0    0 -0.00000000000E+00 -0.00000000000E+00  0.11368683772E-12  0.17120000000E+03  0.17120000000E+03 0.  0.
         13    1    1    2    0    0  0.13024075180E+02  0.16458679539E+02  0.56814747191E+02  0.60567659100E+02  0.10566000000E+00 0. -1.
        994    1    1    2    0    0 -0.80411676830E+01 -0.24322417354E+02  0.58216871868E+01  0.17320384639E+03  0.17120000000E+03 0.  0.
        998    1    1    2    0    0 -0.49829074970E+01  0.78637378154E+01  0.14373635619E+04  0.14374284945E+04  0.10000000000E+02 0. -1.
</event>
<event>
 5    1  0.1688215E-008  0.3764043E+03  0.7957747E-01  0.3466966E+00
         13   -1    0    0    0    0  0.00000000000E+00  0.00000000000E+00  0.14999999963E+04  0.15000000000E+04  0.10566000000E+00 0.  1.
        994   -1    0    0    0    0 -0.00000000000E+00 -0.00000000000E+00  0.11368683772E-12  0.17120000000E+03  0.17120000000E+03 0.  0.
         13    1    1    2    0    0 -0.39611084466E+02  0.16298734708E+02  0.14852744863E+03  0.15458040279E+03  0.10566000000E+00 0.  1.
        994    1    1    2    0    0  0.33743081778E+02  0.40197597279E+01  0.98760342557E+01  0.17481913536E+03  0.17120000000E+03 0.  0.
        998    1    1    2    0    0  0.58680026878E+01 -0.20318494435E+02  0.13415965134E+04  0.13418004618E+04  0.10000000000E+02 0.  1.
</event>
<event>
 5    1  0.1688215E-008  0.3850203E+03  0.7957747E-01  0.3429586E+00
         13   -1    0    0    0    0  0.00000000000E+00  0.00000000000E+00  0.14999999963E+04  0.15000000000E+04  0.10566000000E+00 0. -1.
        994   -1    0    0    0    0 -0.00000000000E+00 -0.00000000000E+00  0.11368683772E-12  0.17120000000E+03  0.17120000000E+03 0.  0.
         13    1    1    2    0    0 -0.16361615088E+02 -0.31663641758E+01  0.84122908229E+02  0.85757816922E+02  0.10566000000E+00 0. -1.
        994    1    1    2    0    0  0.12761585931E+02  0.51752010071E+01  0.22439073594E+01  0.17176762181E+03  0.17120000000E+03 0.  0.
        998    1    1    2    0    0  0.36000291571E+01 -0.20088368313E+01  0.14136331807E+04  0.14136745613E+04  0.10000000000E+02 0. -1.
</event>
<event>
 5    1  0.1688215E-008  0.3715130E+03  0.7957747E-01  0.3488966E+00
         13   -1    0    0    0    0  0.00000000000E+00  0.00000000000E+00  0.14999999963E+04  0.15000000000E+04  0.10566000000E+00 0. -1.
        994   -1    0    0    0    0 -0.00000000000E+00 -0.00000000000E+00  0.11368683772E-12  0.17120000000E+03  0.17120000000E+03 0.  0.
         13    1    1    2    0    0  0.92391946708E+01  0.23725646277E+02  0.34971314990E+02  0.43258213620E+02  0.10566000000E+00 0. -1.
        994    1    1    2    0    0  0.82755648823E+01 -0.19744172903E+02  0.10058418011E+02  0.17282629751E+03  0.17120000000E+03 0.  0.
        998    1    1    2    0    0 -0.17514759553E+02 -0.39814733740E+01  0.14549702633E+04  0.14551154889E+04  0.10000000000E+02 0. -1.
</event>
<event>
 5    1  0.2389251E-008  0.3860312E+03  0.7957747E-01  0.3425310E+00
         13   -1    0    0    0    0  0.00000000000E+00  0.00000000000E+00  0.14999999963E+04  0.15000000000E+04  0.10566000000E+00 0. -1.
        994   -1    0    0    0    0 -0.00000000000E+00 -0.00000000000E+00  0.11368683772E-12  0.17120000000E+03  0.17120000000E+03 0.  0.
         13    1    1    2    0    0  0.12055392554E+00  0.11088938573E+02  0.56680083004E+02  0.57754844518E+02  0.10566000000E+00 0. -1.
        994    1    1    2    0    0 -0.16406642252E+01 -0.47925052732E+01  0.12031253151E+01  0.17127915050E+03  0.17120000000E+03 0.  0.
        998    1    1    2    0    0  0.15201102997E+01 -0.62964332996E+01  0.14421167880E+04  0.14421660050E+04  0.10000000000E+02 0. -1.
</event>
<event>
 5    1  0.1688215E-008  0.3764066E+03  0.7957747E-01  0.3466956E+00
         13   -1    0    0    0    0  0.00000000000E+00  0.00000000000E+00  0.14999999963E+04  0.15000000000E+04  0.10566000000E+00 0.  1.
        994   -1    0    0    0    0 -0.00000000000E+00 -0.00000000000E+00  0.11368683772E-12  0.17120000000E+03  0.17120000000E+03 0.  0.
         13    1    1    2    0    0  0.10196934453E+03  0.41833108668E+02  0.31458017635E+03  0.33332934873E+03  0.10566000000E+00 0.  1.
        994    1    1    2    0    0 -0.10764640775E+03 -0.41325378315E+02  0.63591749912E+02  0.21598353329E+03  0.17120000000E+03 0.  0.
        998    1    1    2    0    0  0.56770632184E+01 -0.50773035249E+00  0.11218280700E+04  0.11218871180E+04  0.10000000000E+02 0.  0.
</event>
<event>
 5    1  0.1688215E-008  0.3855204E+03  0.7957747E-01  0.3427468E+00
         13   -1    0    0    0    0  0.00000000000E+00  0.00000000000E+00  0.14999999963E+04  0.15000000000E+04  0.10566000000E+00 0.  1.
        994   -1    0    0    0    0 -0.00000000000E+00 -0.00000000000E+00  0.11368683772E-12  0.17120000000E+03  0.17120000000E+03 0.  0.
         13    1    1    2    0    0 -0.52509827939E+01 -0.15159437183E+02  0.88901990645E+02  0.90338012269E+02  0.10566000000E+00 0.  1.
        994    1    1    2    0    0  0.97924441992E+01  0.15427851558E+02  0.24690057473E+01  0.17219014651E+03  0.17120000000E+03 0.  0.
        998    1    1    2    0    0 -0.45414614053E+01 -0.26841437536E+00  0.14086289999E+04  0.14086718412E+04  0.10000000000E+02 0.  1.
</event>
<event>
 5    1  0.1688215E-008  0.3824644E+03  0.7957747E-01  0.3440498E+00
         13   -1    0    0    0    0  0.00000000000E+00  0.00000000000E+00  0.14999999963E+04  0.15000000000E+04  0.10566000000E+00 0. -1.
        994   -1    0    0    0    0 -0.00000000000E+00 -0.00000000000E+00  0.11368683772E-12  0.17120000000E+03  0.17120000000E+03 0.  0.
         13    1    1    2    0    0  0.14417565478E+01  0.10709015089E+02  0.19307655360E+02  0.22125966322E+02  0.10566000000E+00 0. -1.
        994    1    1    2    0    0 -0.43525141297E+01 -0.24236910196E+01  0.29765682607E+01  0.17129833220E+03  0.17120000000E+03 0.  0.
        998    1    1    2    0    0  0.29107575819E+01 -0.82853240698E+01  0.14777157727E+04  0.14777757015E+04  0.10000000000E+02 0. -1.
</event>
<event>
 5    1  0.1688215E-008  0.3802516E+03  0.7957747E-01  0.3450064E+00
         13   -1    0    0    0    0  0.00000000000E+00  0.00000000000E+00  0.14999999963E+04  0.15000000000E+04  0.10566000000E+00 0.  1.
        994   -1    0    0    0    0 -0.00000000000E+00 -0.00000000000E+00  0.11368683772E-12  0.17120000000E+03  0.17120000000E+03 0.  0.
         13    1    1    2    0    0 -0.24491261646E+02 -0.55373208412E+01  0.68206276255E+02  0.72681435758E+02  0.10566000000E+00 0.  1.
        994    1    1    2    0    0  0.40952175837E+02  0.21678344781E+02  0.11211107466E+02  0.17771370310E+03  0.17120000000E+03 0.  0.
        998    1    1    2    0    0 -0.16460914191E+02 -0.16141023940E+02  0.14205826126E+04  0.14208048611E+04  0.10000000000E+02 0.  1.
</event>
<event>
 5    1  0.1688215E-008  0.3773830E+03  0.7957747E-01  0.3462633E+00
         13   -1    0    0    0    0  0.00000000000E+00  0.00000000000E+00  0.14999999963E+04  0.15000000000E+04  0.10566000000E+00 0.  1.
        994   -1    0    0    0    0 -0.00000000000E+00 -0.00000000000E+00  0.11368683772E-12  0.17120000000E+03  0.17120000000E+03 0.  0.
         13    1    1    2    0    0  0.40806579047E+01 -0.50470314452E+02  0.20154679431E+03  0.20781007163E+03  0.10566000000E+00 0.  1.
        994    1    1    2    0    0 -0.84037507785E+01  0.51232509451E+02  0.14603740340E+02  0.17949401740E+03  0.17120000000E+03 0.  0.
        998    1    1    2    0    0  0.43230928737E+01 -0.76219499840E+00  0.12838494616E+04  0.12838959110E+04  0.10000000000E+02 0.  1.
</event>
<event>
 5    1  0.1688215E-008  0.3781027E+03  0.7957747E-01  0.3459462E+00
         13   -1    0    0    0    0  0.00000000000E+00  0.00000000000E+00  0.14999999963E+04  0.15000000000E+04  0.10566000000E+00 0.  1.
        994   -1    0    0    0    0 -0.00000000000E+00 -0.00000000000E+00  0.11368683772E-12  0.17120000000E+03  0.17120000000E+03 0.  0.
         13    1    1    2    0    0  0.66183350071E+01  0.25670604338E+02  0.65840531348E+02  0.70977242955E+02  0.10566000000E+00 0.  1.
        994    1    1    2    0    0  0.26167371964E+00 -0.22441093988E+02  0.67901698136E+01  0.17279819900E+03  0.17120000000E+03 0.  0.
        998    1    1    2    0    0 -0.68800087268E+01 -0.32295103504E+01  0.14273692951E+04  0.14274245580E+04  0.10000000000E+02 0.  1.
</event>
<event>
 5    1  0.1688215E-008  0.3834946E+03  0.7957747E-01  0.3436082E+00
         13   -1    0    0    0    0  0.00000000000E+00  0.00000000000E+00  0.14999999963E+04  0.15000000000E+04  0.10566000000E+00 0. -1.
        994   -1    0    0    0    0 -0.00000000000E+00 -0.00000000000E+00  0.11368683772E-12  0.17120000000E+03  0.17120000000E+03 0.  0.
         13    1    1    2    0    0 -0.12118805692E+02 -0.53870036461E+01  0.36950898358E+02  0.39258952013E+02  0.10566000000E+00 0. -1.
        994    1    1    2    0    0  0.13437272112E+01  0.77856555854E+01  0.25857170676E+01  0.17140171519E+03  0.17120000000E+03 0.  0.
        998    1    1    2    0    0  0.10775078481E+02 -0.23986519393E+01  0.14604633809E+04  0.14605393328E+04  0.10000000000E+02 0. -1.
</event>
<event>
 5    1  0.1688215E-008  0.3841586E+03  0.7957747E-01  0.3433248E+00
         13   -1    0    0    0    0  0.00000000000E+00  0.00000000000E+00  0.14999999963E+04  0.15000000000E+04  0.10566000000E+00 0. -1.
        994   -1    0    0    0    0 -0.00000000000E+00 -0.00000000000E+00  0.11368683772E-12  0.17120000000E+03  0.17120000000E+03 0.  0.
         13    1    1    2    0    0  0.73926276352E+01 -0.22760353471E+02  0.11859236235E+03  0.12098282607E+03  0.10566000000E+00 0. -1.
        994    1    1    2    0    0  0.12998049534E+02  0.43462044326E+02  0.88643915212E+01  0.17732996370E+03  0.17120000000E+03 0.  0.
        998    1    1    2    0    0 -0.20390677169E+02 -0.20701690855E+02  0.13725432424E+04  0.13728872102E+04  0.10000000000E+02 0. -1.
</event>
<event>
 5    1  0.1688215E-008  0.3714555E+03  0.7957747E-01  0.3489228E+00
         13   -1    0    0    0    0  0.00000000000E+00  0.00000000000E+00  0.14999999963E+04  0.15000000000E+04  0.10566000000E+00 0.  1.
        994   -1    0    0    0    0 -0.00000000000E+00 -0.00000000000E+00  0.11368683772E-12  0.17120000000E+03  0.17120000000E+03 0.  0.
         13    1    1    2    0    0 -0.34710125817E+02  0.35181203011E+02  0.14228110116E+03  0.15062016064E+03  0.10566000000E+00 0.  1.
        994    1    1    2    0    0  0.19691133054E+02 -0.18761782714E+02  0.11059460974E+02  0.17369944412E+03  0.17120000000E+03 0.  0.
        998    1    1    2    0    0  0.15018992763E+02 -0.16419420297E+02  0.13466594341E+04  0.13468803952E+04  0.10000000000E+02 0.  1.
</event>
<event>
 5    1  0.1688215E-008  0.3122823E+03  0.7957747E-01  0.3812057E+00
         13   -1    0    0    0    0  0.00000000000E+00  0.00000000000E+00  0.14999999963E+04  0.15000000000E+04  0.10566000000E+00 0. -1.
        994   -1    0    0    0    0 -0.00000000000E+00 -0.00000000000E+00  0.11368683772E-12  0.17120000000E+03  0.17120000000E+03 0.  0.
         13    1    1    2    0    0  0.11327556798E+03 -0.13189551462E+03  0.82061959061E+03  0.83883508793E+03  0.10566000000E+00 0. -1.
        994    1    1    2    0    0 -0.76494194385E+02  0.99706620557E+02  0.73945700862E+02  0.22487814174E+03  0.17120000000E+03 0.  0.
        998    1    1    2    0    0 -0.36781373592E+02  0.32188894065E+02  0.60543470481E+03  0.60748677033E+03  0.10000000000E+02 0.  1.
</event>
<event>
 5    1  0.1688215E-008  0.3850117E+03  0.7957747E-01  0.3429623E+00
         13   -1    0    0    0    0  0.00000000000E+00  0.00000000000E+00  0.14999999963E+04  0.15000000000E+04  0.10566000000E+00 0. -1.
        994   -1    0    0    0    0 -0.00000000000E+00 -0.00000000000E+00  0.11368683772E-12  0.17120000000E+03  0.17120000000E+03 0.  0.
         13    1    1    2    0    0  0.40348043973E+01 -0.15227052095E+02  0.80327129682E+02  0.81857203037E+02  0.10566000000E+00 0. -1.
        994    1    1    2    0    0 -0.24124104264E+01  0.27515082598E+01  0.16683658410E+01  0.17124723054E+03  0.17120000000E+03 0.  0.
        998    1    1    2    0    0 -0.16223939709E+01  0.12475543835E+02  0.14180045008E+04  0.14180955664E+04  0.10000000000E+02 0. -1.
</event>
<event>
 5    1  0.1688215E-008  0.3844609E+03  0.7957747E-01  0.3431962E+00
         13   -1    0    0    0    0  0.00000000000E+00  0.00000000000E+00  0.14999999963E+04  0.15000000000E+04  0.10566000000E+00 0. -1.
        994   -1    0    0    0    0 -0.00000000000E+00 -0.00000000000E+00  0.11368683772E-12  0.17120000000E+03  0.17120000000E+03 0.  0.
         13    1    1    2    0    0 -0.37497394120E+01  0.12300760033E+02  0.43131203807E+02  0.45007567685E+02  0.10566000000E+00 0. -1.
        994    1    1    2    0    0 -0.36487708352E+01 -0.10674790718E+02  0.23173901692E+01  0.17158693127E+03  0.17120000000E+03 0.  0.
        998    1    1    2    0    0  0.73985102472E+01 -0.16259693154E+01  0.14545514023E+04  0.14546055010E+04  0.10000000000E+02 0. -1.
</event>
<event>
 5    1  0.1688215E-008  0.3852715E+03  0.7957747E-01  0.3428521E+00
         13   -1    0    0    0    0  0.00000000000E+00  0.00000000000E+00  0.14999999963E+04  0.15000000000E+04  0.10566000000E+00 0. -1.
        994   -1    0    0    0    0 -0.00000000000E+00 -0.00000000000E+00  0.11368683772E-12  0.17120000000E+03  0.17120000000E+03 0.  0.
         13    1    1    2    0    0  0.12808019501E+02 -0.56865470901E+01  0.64209433166E+02  0.65720960529E+02  0.10566000000E+00 0. -1.
        994    1    1    2    0    0 -0.13649028654E+02  0.16023544255E+01  0.21162009945E+01  0.17176373840E+03  0.17120000000E+03 0.  0.
        998    1    1    2    0    0  0.84100915224E+00  0.40841926646E+01  0.14336743621E+04  0.14337153011E+04  0.10000000000E+02 0. -1.
</event>
<event>
 5    1  0.1688215E-008  0.3829333E+03  0.7957747E-01  0.3438485E+00
         13   -1    0    0    0    0  0.00000000000E+00  0.00000000000E+00  0.14999999963E+04  0.15000000000E+04  0.10566000000E+00 0. -1.
        994   -1    0    0    0    0 -0.00000000000E+00 -0.00000000000E+00  0.11368683772E-12  0.17120000000E+03  0.17120000000E+03 0.  0.
         13    1    1    2    0    0  0.24585773216E+02 -0.90726452490E+00  0.10364622509E+03  0.10652621514E+03  0.10566000000E+00 0. -1.
        994    1    1    2    0    0 -0.28651904686E+02  0.86269440493E+01  0.56297345375E+01  0.17388642764E+03  0.17120000000E+03 0.  0.
        998    1    1    2    0    0  0.40661314698E+01 -0.77196795244E+01  0.13907240367E+04  0.13907873572E+04  0.10000000000E+02 0. -1.
</event>
<event>
 5    1  0.1688215E-008  0.3759848E+03  0.7957747E-01  0.3468830E+00
         13   -1    0    0    0    0  0.00000000000E+00  0.00000000000E+00  0.14999999963E+04  0.15000000000E+04  0.10566000000E+00 0. -1.
        994   -1    0    0    0    0 -0.00000000000E+00 -0.00000000000E+00  0.11368683772E-12  0.17120000000E+03  0.17120000000E+03 0.  0.
         13    1    1    2    0    0 -0.17010487753E+02 -0.30835976257E+01  0.41085267432E+01  0.17769536403E+02  0.10566000000E+00 0. -1.
        994    1    1    2    0    0  0.19868004257E+02 -0.68796501084E-02  0.15549817488E+02  0.17304905219E+03  0.17120000000E+03 0.  0.
        998    1    1    2    0    0 -0.28575165031E+01  0.30904772758E+01  0.14803416520E+04  0.14803814114E+04  0.10000000000E+02 0. -1.
</event>
<event>
 5    1  0.1688215E-008  0.3768879E+03  0.7957747E-01  0.3464822E+00
         13   -1    0    0    0    0  0.00000000000E+00  0.00000000000E+00  0.14999999963E+04  0.15000000000E+04  0.10566000000E+00 0.  1.
        994   -1    0    0    0    0 -0.00000000000E+00 -0.00000000000E+00  0.11368683772E-12  0.17120000000E+03  0.17120000000E+03 0.  0.
         13    1    1    2    0    0 -0.13667563254E+02 -0.15096161875E+02  0.76595659947E+01  0.21757217283E+02  0.10566000000E+00 0.  1.
        994    1    1    2    0    0  0.10761502836E+02  0.15422771502E+02  0.15896262491E+02  0.17296185413E+03  0.17120000000E+03 0.  0.
        998    1    1    2    0    0  0.29060604180E+01 -0.32660962663E+00  0.14764441678E+04  0.14764809286E+04  0.10000000000E+02 0.  1.
</event>
<event>
 5    1  0.1688215E-008  0.3834574E+03  0.7957747E-01  0.3436241E+00
         13   -1    0    0    0    0  0.00000000000E+00  0.00000000000E+00  0.14999999963E+04  0.15000000000E+04  0.10566000000E+00 0.  1.
        994   -1    0    0    0    0 -0.00000000000E+00 -0.00000000000E+00  0.11368683772E-12  0.17120000000E+03  0.17120000000E+03 0.  0.
         13    1    1    2    0    0 -0.79222337062E+00 -0.25024980984E+02  0.14362351721E+03  0.14578958520E+03  0.10566000000E+00 0.  1.
        994    1    1    2    0    0  0.57802422126E+01  0.27710684479E+01  0.25337655652E+01  0.17133869962E+03  0.17120000000E+03 0.  0.
        998    1    1    2    0    0 -0.49880188420E+01  0.22253912536E+02  0.13538427135E+04  0.13540717152E+04  0.10000000000E+02 0.  1.
</event>
<event>
 5    1  0.1688215E-008  0.3858921E+03  0.7957747E-01  0.3425898E+00
         13   -1    0    0    0    0  0.00000000000E+00  0.00000000000E+00  0.14999999963E+04  0.15000000000E+04  0.10566000000E+00 0.  1.
        994   -1    0    0    0    0 -0.00000000000E+00 -0.00000000000E+00  0.11368683772E-12  0.17120000000E+03  0.17120000000E+03 0.  0.
         13    1    1    2    0    0  0.42605282950E+01  0.11663254129E+02  0.72706085665E+02  0.73758861535E+02  0.10566000000E+00 0.  1.
        994    1    1    2    0    0  0.12264112111E+02  0.36460328317E+00  0.16816836340E+01  0.17164734033E+03  0.17120000000E+03 0.  0.
        998    1    1    2    0    0 -0.16524640406E+02 -0.12027857412E+02  0.14256122270E+04  0.14257937981E+04  0.10000000000E+02 0.  1.
</event>
<event>
 5    1  0.1688215E-008  0.3745644E+03  0.7957747E-01  0.3475173E+00
         13   -1    0    0    0    0  0.00000000000E+00  0.00000000000E+00  0.14999999963E+04  0.15000000000E+04  0.10566000000E+00 0.  1.
        994   -1    0    0    0    0 -0.00000000000E+00 -0.00000000000E+00  0.11368683772E-12  0.17120000000E+03  0.17120000000E+03 0.  0.
         13    1    1    2    0    0 -0.59480205048E+01 -0.83606522516E+02  0.40941093172E+03  0.41790280177E+03  0.10566000000E+00 0.  1.
        994    1    1    2    0    0  0.23086157487E+02  0.71306393057E+02  0.26273336237E+02  0.18872546345E+03  0.17120000000E+03 0.  0.
        998    1    1    2    0    0 -0.17138136982E+02  0.12300129458E+02  0.10643157283E+04  0.10645717348E+04  0.10000000000E+02 0.  1.
</event>
<event>
 5    1  0.1688215E-008  0.3760868E+03  0.7957747E-01  0.3468376E+00
         13   -1    0    0    0    0  0.00000000000E+00  0.00000000000E+00  0.14999999963E+04  0.15000000000E+04  0.10566000000E+00 0.  1.
        994   -1    0    0    0    0 -0.00000000000E+00 -0.00000000000E+00  0.11368683772E-12  0.17120000000E+03  0.17120000000E+03 0.  0.
         13    1    1    2    0    0  0.15632251924E+02 -0.83729154252E+02  0.48686022687E+03  0.49425482319E+03  0.10566000000E+00 0.  1.
        994    1    1    2    0    0 -0.20205234889E+02  0.64935914338E+02  0.21949623184E+02  0.18551590348E+03  0.17120000000E+03 0.  0.
        998    1    1    2    0    0  0.45729829651E+01  0.18793239914E+02  0.99119014622E+03  0.99142927333E+03  0.10000000000E+02 0.  1.
</event>
<event>
 5    1  0.1688215E-008  0.3787537E+03  0.7957747E-01  0.3456603E+00
         13   -1    0    0    0    0  0.00000000000E+00  0.00000000000E+00  0.14999999963E+04  0.15000000000E+04  0.10566000000E+00 0. -1.
        994   -1    0    0    0    0 -0.00000000000E+00 -0.00000000000E+00  0.11368683772E-12  0.17120000000E+03  0.17120000000E+03 0.  0.
         13    1    1    2    0    0 -0.73815306445E+02 -0.10373381195E+02  0.44648809294E+03  0.45266757649E+03  0.10566000000E+00 0. -1.
        994    1    1    2    0    0  0.69216782858E+02 -0.66040015084E+01  0.21167156675E+02  0.18598942009E+03  0.17120000000E+03 0.  0.
        998    1    1    2    0    0  0.45985235869E+01  0.16977382704E+02  0.10323447467E+04  0.10325430034E+04  0.10000000000E+02 0. -1.
</event>
<event>
 5    1  0.1688215E-008  0.3693706E+03  0.7957747E-01  0.3498789E+00
         13   -1    0    0    0    0  0.00000000000E+00  0.00000000000E+00  0.14999999963E+04  0.15000000000E+04  0.10566000000E+00 0.  1.
        994   -1    0    0    0    0 -0.00000000000E+00 -0.00000000000E+00  0.11368683772E-12  0.17120000000E+03  0.17120000000E+03 0.  0.
         13    1    1    2    0    0  0.21655966271E+02 -0.81324252107E+01  0.23282616053E+02  0.32820856010E+02  0.10566000000E+00 0.  1.
        994    1    1    2    0    0 -0.20973912778E+02  0.18744543160E+02  0.12345192089E+02  0.17393420217E+03  0.17120000000E+03 0.  0.
        998    1    1    2    0    0 -0.68205349306E+00 -0.10612117949E+02  0.14643721881E+04  0.14644449418E+04  0.10000000000E+02 0.  1.
</event>
<event>
 5    1  0.1688215E-008  0.3776048E+03  0.7957747E-01  0.3461655E+00
         13   -1    0    0    0    0  0.00000000000E+00  0.00000000000E+00  0.14999999963E+04  0.15000000000E+04  0.10566000000E+00 0. -1.
        994   -1    0    0    0    0 -0.00000000000E+00 -0.00000000000E+00  0.11368683772E-12  0.17120000000E+03  0.17120000000E+03 0.  0.
         13    1    1    2    0    0 -0.89089987000E+01 -0.41671173324E+02  0.15680336192E+03  0.16249049947E+03  0.10566000000E+00 0. -1.
        994    1    1    2    0    0  0.89229540495E+01  0.35888293794E+02  0.99692580084E+01  0.17543208043E+03  0.17120000000E+03 0.  0.
        998    1    1    2    0    0 -0.13955349510E-01  0.57828795298E+01  0.13332273763E+04  0.13332774201E+04  0.10000000000E+02 0. -1.
</event>
<event>
 5    1  0.1688215E-008  0.3721820E+03  0.7957747E-01  0.3485923E+00
         13   -1    0    0    0    0  0.00000000000E+00  0.00000000000E+00  0.14999999963E+04  0.15000000000E+04  0.10566000000E+00 0. -1.
        994   -1    0    0    0    0 -0.00000000000E+00 -0.00000000000E+00  0.11368683772E-12  0.17120000000E+03  0.17120000000E+03 0.  0.
         13    1    1    2    0    0  0.18795565888E+02 -0.66151640877E+02  0.16896880973E+03  0.18242747248E+03  0.10566000000E+00 0. -1.
        994    1    1    2    0    0 -0.30958350473E+02  0.64789361985E+02  0.30490842028E+02  0.18813615372E+03  0.17120000000E+03 0.  0.
        998    1    1    2    0    0  0.12162784585E+02  0.13622788917E+01  0.13005403445E+04  0.13006363738E+04  0.10000000000E+02 0. -1.
</event>
<event>
 5    1  0.1688215E-008  0.3855192E+03  0.7957747E-01  0.3427473E+00
         13   -1    0    0    0    0  0.00000000000E+00  0.00000000000E+00  0.14999999963E+04  0.15000000000E+04  0.10566000000E+00 0.  1.
        994   -1    0    0    0    0 -0.00000000000E+00 -0.00000000000E+00  0.11368683772E-12  0.17120000000E+03  0.17120000000E+03 0.  0.
         13    1    1    2    0    0  0.61001604381E+01  0.12846360143E+02  0.77215638470E+02  0.78514373936E+02  0.10566000000E+00 0.  1.
        994    1    1    2    0    0  0.90394480601E+01 -0.87676014018E+01  0.18933926335E+01  0.17167296640E+03  0.17120000000E+03 0.  0.
        998    1    1    2    0    0 -0.15139608498E+02 -0.40787587411E+01  0.14208909652E+04  0.14210126597E+04  0.10000000000E+02 0.  1.
</event>
<event>
 5    1  0.1688215E-008  0.3808647E+03  0.7957747E-01  0.3447402E+00
         13   -1    0    0    0    0  0.00000000000E+00  0.00000000000E+00  0.14999999963E+04  0.15000000000E+04  0.10566000000E+00 0. -1.
        994   -1    0    0    0    0 -0.00000000000E+00 -0.00000000000E+00  0.11368683772E-12  0.17120000000E+03  0.17120000000E+03 0.  0.
         13    1    1    2    0    0  0.29943996953E+02 -0.65685024085E+01  0.12103849082E+03  0.12486038444E+03  0.10566000000E+00 0. -1.
        994    1    1    2    0    0 -0.23384122123E+02  0.99270708963E+01  0.58515309557E+01  0.17317345154E+03  0.17120000000E+03 0.  0.
        998    1    1    2    0    0 -0.65598748298E+01 -0.33585684878E+01  0.13731099745E+04  0.13731661640E+04  0.10000000000E+02 0. -1.
</event>
<event>
 5    1  0.1688215E-008  0.3779135E+03  0.7957747E-01  0.3460294E+00
         13   -1    0    0    0    0  0.00000000000E+00  0.00000000000E+00  0.14999999963E+04  0.15000000000E+04  0.10566000000E+00 0. -1.
        994   -1    0    0    0    0 -0.00000000000E+00 -0.00000000000E+00  0.11368683772E-12  0.17120000000E+03  0.17120000000E+03 0.  0.
         13    1    1    2    0    0 -0.10049028784E+02 -0.78776893322E+01  0.13474204263E+02  0.18563574906E+02  0.10566000000E+00 0. -1.
        994    1    1    2    0    0 -0.10463184309E+01  0.13617597199E+02  0.58182729305E+01  0.17184244538E+03  0.17120000000E+03 0.  0.
        998    1    1    2    0    0  0.11095347214E+02 -0.57399078664E+01  0.14807075191E+04  0.14807939797E+04  0.10000000000E+02 0. -1.
</event>
<event>
 5    1  0.1688215E-008  0.3776005E+03  0.7957747E-01  0.3461673E+00
         13   -1    0    0    0    0  0.00000000000E+00  0.00000000000E+00  0.14999999963E+04  0.15000000000E+04  0.10566000000E+00 0.  1.
        994   -1    0    0    0    0 -0.00000000000E+00 -0.00000000000E+00  0.11368683772E-12  0.17120000000E+03  0.17120000000E+03 0.  0.
         13    1    1    2    0    0  0.54181084268E+02 -0.12647075848E+01  0.28670442956E+03  0.29178181998E+03  0.10566000000E+00 0.  1.
        994    1    1    2    0    0 -0.24770816611E+02  0.14857632849E+02  0.81658849534E+01  0.17381157696E+03  0.17120000000E+03 0.  0.
        998    1    1    2    0    0 -0.29410267656E+02 -0.13592925265E+02  0.12051296818E+04  0.12056066031E+04  0.10000000000E+02 0.  1.
</event>
<event>
 5    1  0.1688215E-008  0.3849844E+03  0.7957747E-01  0.3429738E+00
         13   -1    0    0    0    0  0.00000000000E+00  0.00000000000E+00  0.14999999963E+04  0.15000000000E+04  0.10566000000E+00 0. -1.
        994   -1    0    0    0    0 -0.00000000000E+00 -0.00000000000E+00  0.11368683772E-12  0.17120000000E+03  0.17120000000E+03 0.  0.
         13    1    1    2    0    0  0.10404963848E+02  0.13327422113E+02  0.85909345561E+02  0.87557468394E+02  0.10566000000E+00 0. -1.
        994    1    1    2    0    0 -0.58130449266E+01 -0.12183091950E+02  0.22373960412E+01  0.17174593201E+03  0.17120000000E+03 0.  0.
        998    1    1    2    0    0 -0.45919189209E+01 -0.11443301633E+01  0.14118532547E+04  0.14118965996E+04  0.10000000000E+02 0. -1.
</event>
<event>
 5    1  0.1688215E-008  0.3777683E+03  0.7957747E-01  0.3460934E+00
         13   -1    0    0    0    0  0.00000000000E+00  0.00000000000E+00  0.14999999963E+04  0.15000000000E+04  0.10566000000E+00 0.  1.
        994   -1    0    0    0    0 -0.00000000000E+00 -0.00000000000E+00  0.11368683772E-12  0.17120000000E+03  0.17120000000E+03 0.  0.
         13    1    1    2    0    0 -0.26085524452E+02  0.62501784089E+01  0.63785632321E+02  0.69196368190E+02  0.10566000000E+00 0.  1.
        994    1    1    2    0    0  0.26042197919E+02 -0.96896410673E+01  0.78685389798E+01  0.17361866006E+03  0.17120000000E+03 0.  0.
        998    1    1    2    0    0  0.43326532505E-01  0.34394626585E+01  0.14283458250E+04  0.14283849717E+04  0.10000000000E+02 0.  1.
</event>
<event>
 5    1  0.1688215E-008  0.3815148E+03  0.7957747E-01  0.3444589E+00
         13   -1    0    0    0    0  0.00000000000E+00  0.00000000000E+00  0.14999999963E+04  0.15000000000E+04  0.10566000000E+00 0. -1.
        994   -1    0    0    0    0 -0.00000000000E+00 -0.00000000000E+00  0.11368683772E-12  0.17120000000E+03  0.17120000000E+03 0.  0.
         13    1    1    2    0    0  0.35324509464E+01  0.11874874178E+02  0.21647120409E+02  0.24941929205E+02  0.10566000000E+00 0. -1.
        994    1    1    2    0    0 -0.18883915953E+02  0.28926060466E+00  0.45577387425E+01  0.17229886516E+03  0.17120000000E+03 0.  0.
        998    1    1    2    0    0  0.15351465006E+02 -0.12164134782E+02  0.14737951371E+04  0.14739592056E+04  0.10000000000E+02 0. -1.
</event>
<event>
 5    1  0.1688215E-008  0.3849762E+03  0.7957747E-01  0.3429773E+00
         13   -1    0    0    0    0  0.00000000000E+00  0.00000000000E+00  0.14999999963E+04  0.15000000000E+04  0.10566000000E+00 0. -1.
        994   -1    0    0    0    0 -0.00000000000E+00 -0.00000000000E+00  0.11368683772E-12  0.17120000000E+03  0.17120000000E+03 0.  0.
         13    1    1    2    0    0  0.93169172253E+01 -0.12685616633E+02  0.73001248555E+02  0.74678800677E+02  0.10566000000E+00 0. -1.
        994    1    1    2    0    0 -0.40837950365E+01  0.16010884509E+02  0.25404432597E+01  0.17201430073E+03  0.17120000000E+03 0.  0.
        998    1    1    2    0    0 -0.52331221888E+01 -0.33252678764E+01  0.14244583045E+04  0.14245068986E+04  0.10000000000E+02 0. -1.
</event>
<event>
 5    1  0.1688215E-008  0.3761298E+03  0.7957747E-01  0.3468185E+00
         13   -1    0    0    0    0  0.00000000000E+00  0.00000000000E+00  0.14999999963E+04  0.15000000000E+04  0.10566000000E+00 0.  1.
        994   -1    0    0    0    0 -0.00000000000E+00 -0.00000000000E+00  0.11368683772E-12  0.17120000000E+03  0.17120000000E+03 0.  0.
         13    1    1    2    0    0 -0.86616610151E+01  0.12961783916E+02  0.17607980932E+02  0.23517745860E+02  0.10566000000E+00 0.  1.
        994    1    1    2    0    0 -0.18736324330E+01 -0.51943418579E+01  0.62029673379E+01  0.17140130831E+03  0.17120000000E+03 0.  0.
        998    1    1    2    0    0  0.10535293448E+02 -0.77674420581E+01  0.14761890480E+04  0.14762809458E+04  0.10000000000E+02 0.  1.
</event>
<event>
 5    1  0.1688215E-008  0.3839705E+03  0.7957747E-01  0.3434050E+00
         13   -1    0    0    0    0  0.00000000000E+00  0.00000000000E+00  0.14999999963E+04  0.15000000000E+04  0.10566000000E+00 0.  1.
        994   -1    0    0    0    0 -0.00000000000E+00 -0.00000000000E+00  0.11368683772E-12  0.17120000000E+03  0.17120000000E+03 0.  0.
         13    1    1    2    0    0 -0.61697082399E+01 -0.95837904125E+01  0.29554768187E+02  0.31676644788E+02  0.10566000000E+00 0.  1.
        994    1    1    2    0    0  0.47119630793E+01  0.79444243572E+01  0.24236923325E+01  0.17146612132E+03  0.17120000000E+03 0.  0.
        998    1    1    2    0    0  0.14577451605E+01  0.16393660552E+01  0.14680215358E+04  0.14680572339E+04  0.10000000000E+02 0.  1.
</event>
<event>
 5    1  0.1688215E-008  0.3778695E+03  0.7957747E-01  0.3460488E+00
         13   -1    0    0    0    0  0.00000000000E+00  0.00000000000E+00  0.14999999963E+04  0.15000000000E+04  0.10566000000E+00 0.  1.
        994   -1    0    0    0    0 -0.00000000000E+00 -0.00000000000E+00  0.11368683772E-12  0.17120000000E+03  0.17120000000E+03 0.  0.
         13    1    1    2    0    0  0.16643124253E+02 -0.25475263666E+02  0.85539979221E+02  0.90791419490E+02  0.10566000000E+00 0.  1.
        994    1    1    2    0    0 -0.10733587023E+02  0.19942854800E+02  0.69412180408E+01  0.17283098060E+03  0.17120000000E+03 0.  0.
        998    1    1    2    0    0 -0.59095372297E+01  0.55324088664E+01  0.14075187990E+04  0.14075775999E+04  0.10000000000E+02 0.  1.
</event>
<event>
 5    1  0.1688215E-008  0.3782923E+03  0.7957747E-01  0.3458628E+00
         13   -1    0    0    0    0  0.00000000000E+00  0.00000000000E+00  0.14999999963E+04  0.15000000000E+04  0.10566000000E+00 0.  1.
        994   -1    0    0    0    0 -0.00000000000E+00 -0.00000000000E+00  0.11368683772E-12  0.17120000000E+03  0.17120000000E+03 0.  0.
         13    1    1    2    0    0 -0.43598844486E+01  0.11429750282E+02  0.13250593461E+02  0.18034333229E+02  0.10566000000E+00 0.  1.
        994    1    1    2    0    0 -0.69690677364E+01  0.47645826031E+01  0.52373144423E+01  0.17148801304E+03  0.17120000000E+03 0.  0.
        998    1    1    2    0    0  0.11328952185E+02 -0.16194332885E+02  0.14815120884E+04  0.14816776537E+04  0.10000000000E+02 0.  1.
</event>
<event>
 5    1  0.1688215E-008  0.3738819E+03  0.7957747E-01  0.3478238E+00
         13   -1    0    0    0    0  0.00000000000E+00  0.00000000000E+00  0.14999999963E+04  0.15000000000E+04  0.10566000000E+00 0. -1.
        994   -1    0    0    0    0 -0.00000000000E+00 -0.00000000000E+00  0.11368683772E-12  0.17120000000E+03  0.17120000000E+03 0.  0.
         13    1    1    2    0    0 -0.17211004560E+02 -0.12209685880E+03  0.61915555265E+03  0.63131408281E+03  0.10566000000E+00 0. -1.
        994    1    1    2    0    0  0.40300428622E+01  0.66401926582E+02  0.28861729442E+02  0.18592443768E+03  0.17120000000E+03 0.  0.
        998    1    1    2    0    0  0.13180961698E+02  0.55694932219E+02  0.85198271418E+03  0.85396147951E+03  0.10000000000E+02 0. -1.
</event>
<event>
 5    1  0.1688215E-008  0.3748447E+03  0.7957747E-01  0.3473918E+00
         13   -1    0    0    0    0  0.00000000000E+00  0.00000000000E+00  0.14999999963E+04  0.15000000000E+04  0.10566000000E+00 0. -1.
        994   -1    0    0    0    0 -0.00000000000E+00 -0.00000000000E+00  0.11368683772E-12  0.17120000000E+03  0.17120000000E+03 0.  0.
         13    1    1    2    0    0 -0.94650297520E+01 -0.10590641420E+02  0.11818078024E+02  0.18477732710E+02  0.10566000000E+00 0. -1.
        994    1    1    2    0    0  0.96383169582E+01  0.10157431891E+02  0.74255996182E+01  0.17193210900E+03  0.17120000000E+03 0.  0.
        998    1    1    2    0    0 -0.17328720626E+00  0.43320952850E+00  0.14807563186E+04  0.14807901583E+04  0.10000000000E+02 0. -1.
</event>
<event>
 5    1  0.1688215E-008  0.3708854E+03  0.7957747E-01  0.3491831E+00
         13   -1    0    0    0    0  0.00000000000E+00  0.00000000000E+00  0.14999999963E+04  0.15000000000E+04  0.10566000000E+00 0.  1.
        994   -1    0    0    0    0 -0.00000000000E+00 -0.00000000000E+00  0.11368683772E-12  0.17120000000E+03  0.17120000000E+03 0.  0.
         13    1    1    2    0    0 -0.11876921399E+02  0.40958853631E+02  0.75164126605E+02  0.86419592947E+02  0.10566000000E+00 0.  1.
        994    1    1    2    0    0 -0.13766879494E+02 -0.34965943811E+02  0.16376233486E+02  0.17603910140E+03  0.17120000000E+03 0.  0.
        998    1    1    2    0    0  0.25643800893E+02 -0.59929098207E+01  0.14084596362E+04  0.14087413057E+04  0.10000000000E+02 0.  1.
</event>
<event>
 5    1  0.1688215E-008  0.3814914E+03  0.7957747E-01  0.3444690E+00
         13   -1    0    0    0    0  0.00000000000E+00  0.00000000000E+00  0.14999999963E+04  0.15000000000E+04  0.10566000000E+00 0. -1.
        994   -1    0    0    0    0 -0.00000000000E+00 -0.00000000000E+00  0.11368683772E-12  0.17120000000E+03  0.17120000000E+03 0.  0.
         13    1    1    2    0    0  0.70781385939E+01  0.20242917345E+02  0.69253406700E+02  0.72497732738E+02  0.10566000000E+00 0. -1.
        994    1    1    2    0    0 -0.57928659284E+01 -0.44723902015E+01  0.35603997092E+01  0.17139333714E+03  0.17120000000E+03 0.  0.
        998    1    1    2    0    0 -0.12852726655E+01 -0.15770527144E+02  0.14271861899E+04  0.14273089301E+04  0.10000000000E+02 0. -1.
</event>
<event>
 5    1  0.1688215E-008  0.3161943E+03  0.7957747E-01  0.3786786E+00
         13   -1    0    0    0    0  0.00000000000E+00  0.00000000000E+00  0.14999999963E+04  0.15000000000E+04  0.10566000000E+00 0. -1.
        994   -1    0    0    0    0 -0.00000000000E+00 -0.00000000000E+00  0.11368683772E-12  0.17120000000E+03  0.17120000000E+03 0.  0.
         13    1    1    2    0    0  0.18974779205E+03  0.11150762626E+03  0.68802133097E+03  0.72236523888E+03  0.10566000000E+00 0. -1.
        994    1    1    2    0    0 -0.19450284840E+03 -0.10417842131E+03  0.21690352321E+03  0.35361148155E+03  0.17120000000E+03 0.  0.
        998    1    1    2    0    0  0.47550563548E+01 -0.73292049508E+01  0.59507514210E+03  0.59522327957E+03  0.10000000000E+02 0.  0.
</event>
<event>
 5    1  0.1688215E-008  0.3840519E+03  0.7957747E-01  0.3433703E+00
         13   -1    0    0    0    0  0.00000000000E+00  0.00000000000E+00  0.14999999963E+04  0.15000000000E+04  0.10566000000E+00 0. -1.
        994   -1    0    0    0    0 -0.00000000000E+00 -0.00000000000E+00  0.11368683772E-12  0.17120000000E+03  0.17120000000E+03 0.  0.
         13    1    1    2    0    0  0.98265681274E+01  0.12500532836E+02  0.64389921772E+02  0.66324188289E+02  0.10566000000E+00 0. -1.
        994    1    1    2    0    0 -0.63186614479E+01  0.84246568861E+01  0.24675281764E+01  0.17154133327E+03  0.17120000000E+03 0.  0.
        998    1    1    2    0    0 -0.35079066795E+01 -0.20925189722E+02  0.14331425463E+04  0.14333344784E+04  0.10000000000E+02 0. -1.
</event>
<event>
 5    1  0.1688215E-008  0.3828112E+03  0.7957747E-01  0.3439008E+00
         13   -1    0    0    0    0  0.00000000000E+00  0.00000000000E+00  0.14999999963E+04  0.15000000000E+04  0.10566000000E+00 0.  1.
        994   -1    0    0    0    0 -0.00000000000E+00 -0.00000000000E+00  0.11368683772E-12  0.17120000000E+03  0.17120000000E+03 0.  0.
         13    1    1    2    0    0 -0.38488784281E+01 -0.33083828997E+02  0.17395013433E+03  0.17711017476E+03  0.10566000000E+00 0.  1.
        994    1    1    2    0    0  0.41435034049E+01  0.38482940664E+02  0.76985880468E+01  0.17568953754E+03  0.17120000000E+03 0.  0.
        998    1    1    2    0    0 -0.29462497683E+00 -0.53991116669E+01  0.13183512739E+04  0.13184002877E+04  0.10000000000E+02 0.  1.
</event>
<event>
 5    1  0.1688215E-008  0.3823731E+03  0.7957747E-01  0.3440890E+00
         13   -1    0    0    0    0  0.00000000000E+00  0.00000000000E+00  0.14999999963E+04  0.15000000000E+04  0.10566000000E+00 0.  1.
        994   -1    0    0    0    0 -0.00000000000E+00 -0.00000000000E+00  0.11368683772E-12  0.17120000000E+03  0.17120000000E+03 0.  0.
         13    1    1    2    0    0 -0.25118073573E+02 -0.88269198230E+01  0.11394954756E+03  0.11701855702E+03  0.10566000000E+00 0.  1.
        994    1    1    2    0    0  0.24696662815E+02  0.17682111728E+01  0.49760572056E+01  0.17305274592E+03  0.17120000000E+03 0.  0.
        998    1    1    2    0    0  0.42141075784E+00  0.70587086502E+01  0.13810743915E+04  0.13811286971E+04  0.10000000000E+02 0.  1.
</event>
<event>
 5    1  0.1688215E-008  0.3840129E+03  0.7957747E-01  0.3433870E+00
         13   -1    0    0    0    0  0.00000000000E+00  0.00000000000E+00  0.14999999963E+04  0.15000000000E+04  0.10566000000E+00 0.  1.
        994   -1    0    0    0    0 -0.00000000000E+00 -0.00000000000E+00  0.11368683772E-12  0.17120000000E+03  0.17120000000E+03 0.  0.
         13    1    1    2    0    0  0.19702902540E+02 -0.13131194017E+02  0.13259682524E+03  0.13469432747E+03  0.10566000000E+00 0.  1.
        994    1    1    2    0    0 -0.88570610749E+01  0.11396958379E+02  0.28086839416E+01  0.17183034335E+03  0.17120000000E+03 0.  0.
        998    1    1    2    0    0 -0.10845841465E+02  0.17342356371E+01  0.13645944871E+04  0.13646753292E+04  0.10000000000E+02 0.  1.
</event>
<event>
 5    1  0.1688215E-008  0.3803156E+03  0.7957747E-01  0.3449785E+00
         13   -1    0    0    0    0  0.00000000000E+00  0.00000000000E+00  0.14999999963E+04  0.15000000000E+04  0.10566000000E+00 0. -1.
        994   -1    0    0    0    0 -0.00000000000E+00 -0.00000000000E+00  0.11368683772E-12  0.17120000000E+03  0.17120000000E+03 0.  0.
         13    1    1    2    0    0 -0.11750040725E+02  0.32398602998E+01  0.16922628037E+02  0.20855374739E+02  0.10566000000E+00 0. -1.
        994    1    1    2    0    0  0.87362901956E+01 -0.86506931942E+01  0.44788523114E+01  0.17169932259E+03  0.17120000000E+03 0.  0.
        998    1    1    2    0    0  0.30137505294E+01  0.54108328944E+01  0.14785985159E+04  0.14786453027E+04  0.10000000000E+02 0. -1.
</event>
<event>
 5    1  0.1688215E-008  0.3827619E+03  0.7957747E-01  0.3439220E+00
         13   -1    0    0    0    0  0.00000000000E+00  0.00000000000E+00  0.14999999963E+04  0.15000000000E+04  0.10566000000E+00 0. -1.
        994   -1    0    0    0    0 -0.00000000000E+00 -0.00000000000E+00  0.11368683772E-12  0.17120000000E+03  0.17120000000E+03 0.  0.
         13    1    1    2    0    0  0.10937913729E+02  0.34555054851E+01  0.23941890367E+02  0.26548140299E+02  0.10566000000E+00 0. -1.
        994    1    1    2    0    0  0.35311788379E+01  0.52641050326E+01  0.28785305666E+01  0.17134148932E+03  0.17120000000E+03 0.  0.
        998    1    1    2    0    0 -0.14469092567E+02 -0.87196105177E+01  0.14731795753E+04  0.14733103704E+04  0.10000000000E+02 0. -1.
</event>
<event>
 5    1  0.1688215E-008  0.3771657E+03  0.7957747E-01  0.3463593E+00
         13   -1    0    0    0    0  0.00000000000E+00  0.00000000000E+00  0.14999999963E+04  0.15000000000E+04  0.10566000000E+00 0.  1.
        994   -1    0    0    0    0 -0.00000000000E+00 -0.00000000000E+00  0.11368683772E-12  0.17120000000E+03  0.17120000000E+03 0.  0.
         13    1    1    2    0    0  0.29456076363E+02  0.61297156514E+02  0.19930907351E+03  0.21059230703E+03  0.10566000000E+00 0.  1.
        994    1    1    2    0    0  0.44181929947E+02 -0.90598792279E+00  0.21815500602E+02  0.17815223775E+03  0.17120000000E+03 0.  0.
        998    1    1    2    0    0 -0.73638006310E+02 -0.60391168592E+02  0.12788754222E+04  0.12824554552E+04  0.10000000000E+02 0.  1.
</event>
<event>
 5    1  0.1688215E-008  0.3818208E+03  0.7957747E-01  0.3443268E+00
         13   -1    0    0    0    0  0.00000000000E+00  0.00000000000E+00  0.14999999963E+04  0.15000000000E+04  0.10566000000E+00 0.  1.
        994   -1    0    0    0    0 -0.00000000000E+00 -0.00000000000E+00  0.11368683772E-12  0.17120000000E+03  0.17120000000E+03 0.  0.
         13    1    1    2    0    0 -0.28844772630E+02  0.37737692371E+01  0.13892848345E+03  0.14194152641E+03  0.10566000000E+00 0.  1.
        994    1    1    2    0    0  0.77194570871E+01 -0.47455046171E+01  0.34897203148E+01  0.17147515266E+03  0.17120000000E+03 0.  0.
        998    1    1    2    0    0  0.21125315543E+02  0.97173538001E+00  0.13575817925E+04  0.13577833209E+04  0.10000000000E+02 0.  1.
</event>
<event>
 5    1  0.1688215E-008  0.3837558E+03  0.7957747E-01  0.3434966E+00
         13   -1    0    0    0    0  0.00000000000E+00  0.00000000000E+00  0.14999999963E+04  0.15000000000E+04  0.10566000000E+00 0.  1.
        994   -1    0    0    0    0 -0.00000000000E+00 -0.00000000000E+00  0.11368683772E-12  0.17120000000E+03  0.17120000000E+03 0.  0.
         13    1    1    2    0    0 -0.11785696307E+01  0.15200631571E+02  0.50924638131E+02  0.53158048867E+02  0.10566000000E+00 0.  1.
        994    1    1    2    0    0 -0.78924060070E+01 -0.11597057257E+02  0.28991326855E+01  0.17179821530E+03  0.17120000000E+03 0.  0.
        998    1    1    2    0    0  0.90709756377E+01 -0.36035743144E+01  0.14461762255E+04  0.14462437358E+04  0.10000000000E+02 0.  1.
</event>
<event>
 5    1  0.1688215E-008  0.3843645E+03  0.7957747E-01  0.3432372E+00
         13   -1    0    0    0    0  0.00000000000E+00  0.00000000000E+00  0.14999999963E+04  0.15000000000E+04  0.10566000000E+00 0.  1.
        994   -1    0    0    0    0 -0.00000000000E+00 -0.00000000000E+00  0.11368683772E-12  0.17120000000E+03  0.17120000000E+03 0.  0.
         13    1    1    2    0    0 -0.12009489970E+02 -0.16817138627E+02  0.12097288001E+03  0.12272527394E+03  0.10566000000E+00 0.  1.
        994    1    1    2    0    0 -0.15975724154E+01  0.18748410962E+01  0.19659883644E+01  0.17122900565E+03  0.17120000000E+03 0.  0.
        998    1    1    2    0    0  0.13607062385E+02  0.14942297531E+02  0.13770611279E+04  0.13772457204E+04  0.10000000000E+02 0.  1.
</event>
<event>
 5    1  0.1688215E-008  0.3828440E+03  0.7957747E-01  0.3438868E+00
         13   -1    0    0    0    0  0.00000000000E+00  0.00000000000E+00  0.14999999963E+04  0.15000000000E+04  0.10566000000E+00 0. -1.
        994   -1    0    0    0    0 -0.00000000000E+00 -0.00000000000E+00  0.11368683772E-12  0.17120000000E+03  0.17120000000E+03 0.  0.
         13    1    1    2    0    0  0.21827414932E+02  0.13650374850E+02  0.12859366082E+03  0.13114537561E+03  0.10566000000E+00 0. -1.
        994    1    1    2    0    0 -0.12900746704E+01 -0.13173057509E+02  0.32847914264E+01  0.17174231742E+03  0.17120000000E+03 0.  0.
        998    1    1    2    0    0 -0.20537340262E+02 -0.47731734112E+00  0.13681215440E+04  0.13683123070E+04  0.10000000000E+02 0. -1.
</event>
<event>
 5    1  0.1688215E-008  0.3790529E+03  0.7957747E-01  0.3455293E+00
         13   -1    0    0    0    0  0.00000000000E+00  0.00000000000E+00  0.14999999963E+04  0.15000000000E+04  0.10566000000E+00 0. -1.
        994   -1    0    0    0    0 -0.00000000000E+00 -0.00000000000E+00  0.11368683772E-12  0.17120000000E+03  0.17120000000E+03 0.  0.
         13    1    1    2    0    0  0.15475815200E+02 -0.29017380704E+02  0.16392245192E+03  0.16718878744E+03  0.10566000000E+00 0. -1.
        994    1    1    2    0    0 -0.13752992345E+02 -0.42668335987E+02  0.11381172512E+02  0.17733782107E+03  0.17120000000E+03 0.  0.
        998    1    1    2    0    0 -0.17228228547E+01  0.71685716691E+02  0.13246963718E+04  0.13266733915E+04  0.10000000000E+02 0. -1.
</event>
<event>
 5    1  0.1688215E-008  0.3756349E+03  0.7957747E-01  0.3470388E+00
         13   -1    0    0    0    0  0.00000000000E+00  0.00000000000E+00  0.14999999963E+04  0.15000000000E+04  0.10566000000E+00 0. -1.
        994   -1    0    0    0    0 -0.00000000000E+00 -0.00000000000E+00  0.11368683772E-12  0.17120000000E+03  0.17120000000E+03 0.  0.
         13    1    1    2    0    0  0.21611719733E+02  0.13112940792E+02  0.49412222997E+02  0.55503104342E+02  0.10566000000E+00 0. -1.
        994    1    1    2    0    0 -0.14803995867E+02  0.12160222616E+02  0.75989998815E+01  0.17243611602E+03  0.17120000000E+03 0.  0.
        998    1    1    2    0    0 -0.68077238656E+01 -0.25273163409E+02  0.14429887734E+04  0.14432607796E+04  0.10000000000E+02 0. -1.
</event>
<event>
 5    1  0.1688215E-008  0.3781192E+03  0.7957747E-01  0.3459389E+00
         13   -1    0    0    0    0  0.00000000000E+00  0.00000000000E+00  0.14999999963E+04  0.15000000000E+04  0.10566000000E+00 0.  1.
        994   -1    0    0    0    0 -0.00000000000E+00 -0.00000000000E+00  0.11368683772E-12  0.17120000000E+03  0.17120000000E+03 0.  0.
         13    1    1    2    0    0 -0.28313704673E+02 -0.26732606601E+02  0.45748592615E+02  0.60076975775E+02  0.10566000000E+00 0.  1.
        994    1    1    2    0    0  0.13670079411E+02  0.63108504835E-01  0.15970793333E+02  0.17248588723E+03  0.17120000000E+03 0.  0.
        998    1    1    2    0    0  0.14643625262E+02  0.26669498096E+02  0.14382806103E+04  0.14386371370E+04  0.10000000000E+02 0.  1.
</event>
<event>
 5    1  0.1688215E-008  0.3857219E+03  0.7957747E-01  0.3426616E+00
         13   -1    0    0    0    0  0.00000000000E+00  0.00000000000E+00  0.14999999963E+04  0.15000000000E+04  0.10566000000E+00 0. -1.
        994   -1    0    0    0    0 -0.00000000000E+00 -0.00000000000E+00  0.11368683772E-12  0.17120000000E+03  0.17120000000E+03 0.  0.
         13    1    1    2    0    0  0.67646324555E+01  0.10212243012E+02  0.61760097908E+02  0.62963251323E+02  0.10566000000E+00 0. -1.
        994    1    1    2    0    0 -0.32892514492E+00 -0.29943066320E+01  0.13019335895E+01  0.17123144891E+03  0.17120000000E+03 0.  0.
        998    1    1    2    0    0 -0.64357073106E+01 -0.72179363797E+01  0.14369379648E+04  0.14370052998E+04  0.10000000000E+02 0. -1.
</event>
<event>
 5    1  0.1688215E-008  0.3820765E+03  0.7957747E-01  0.3442166E+00
         13   -1    0    0    0    0  0.00000000000E+00  0.00000000000E+00  0.14999999963E+04  0.15000000000E+04  0.10566000000E+00 0.  1.
        994   -1    0    0    0    0 -0.00000000000E+00 -0.00000000000E+00  0.11368683772E-12  0.17120000000E+03  0.17120000000E+03 0.  0.
         13    1    1    2    0    0 -0.16001940552E+02  0.10479769586E+02  0.60602229145E+02  0.63549421818E+02  0.10566000000E+00 0.  1.
        994    1    1    2    0    0  0.59091605878E+01  0.23109378639E+01  0.32222572018E+01  0.17134783790E+03  0.17120000000E+03 0.  0.
        998    1    1    2    0    0  0.10092779964E+02 -0.12790707450E+02  0.14361755099E+04  0.14363027403E+04  0.10000000000E+02 0.  1.
</event>
<event>
 5    1  0.1688215E-008  0.3804662E+03  0.7957747E-01  0.3449131E+00
         13   -1    0    0    0    0  0.00000000000E+00  0.00000000000E+00  0.14999999963E+04  0.15000000000E+04  0.10566000000E+00 0. -1.
        994   -1    0    0    0    0 -0.00000000000E+00 -0.00000000000E+00  0.11368683772E-12  0.17120000000E+03  0.17120000000E+03 0.  0.
         13    1    1    2    0    0 -0.26482258280E+01  0.22207754167E+02  0.66565153233E+02  0.70221992525E+02  0.10566000000E+00 0. -1.
        994    1    1    2    0    0 -0.58960503099E+01 -0.15657686069E+01  0.40222485729E+01  0.17135586808E+03  0.17120000000E+03 0.  0.
        998    1    1    2    0    0  0.85442761379E+01 -0.20641985560E+02  0.14294125945E+04  0.14296221394E+04  0.10000000000E+02 0. -1.
</event>
<event>
 5    1  0.1688215E-008  0.3721003E+03  0.7957747E-01  0.3486294E+00
         13   -1    0    0    0    0  0.00000000000E+00  0.00000000000E+00  0.14999999963E+04  0.15000000000E+04  0.10566000000E+00 0. -1.
        994   -1    0    0    0    0 -0.00000000000E+00 -0.00000000000E+00  0.11368683772E-12  0.17120000000E+03  0.17120000000E+03 0.  0.
         13    1    1    2    0    0 -0.55951242922E+02  0.28777874751E+02  0.20393240762E+03  0.21341777270E+03  0.10566000000E+00 0. -1.
        994    1    1    2    0    0  0.58602772965E+02 -0.30395611760E+02  0.23287716612E+02  0.18495928189E+03  0.17120000000E+03 0.  0.
        998    1    1    2    0    0 -0.26515300436E+01  0.16177370088E+01  0.12727798720E+04  0.12728229454E+04  0.10000000000E+02 0. -1.
</event>
<event>
 5    1  0.1688215E-008  0.3748251E+03  0.7957747E-01  0.3474005E+00
         13   -1    0    0    0    0  0.00000000000E+00  0.00000000000E+00  0.14999999963E+04  0.15000000000E+04  0.10566000000E+00 0.  1.
        994   -1    0    0    0    0 -0.00000000000E+00 -0.00000000000E+00  0.11368683772E-12  0.17120000000E+03  0.17120000000E+03 0.  0.
         13    1    1    2    0    0  0.11501381092E+02 -0.24939196220E+02  0.52993540870E+02  0.59687283512E+02  0.10566000000E+00 0.  1.
        994    1    1    2    0    0 -0.12002843112E+02  0.14964217749E+02  0.80211840483E+01  0.17245803968E+03  0.17120000000E+03 0.  0.
        998    1    1    2    0    0  0.50146202047E+00  0.99749784711E+01  0.14389852714E+04  0.14390546768E+04  0.10000000000E+02 0.  1.
</event>
<event>
 5    1  0.1688215E-008  0.3836339E+03  0.7957747E-01  0.3435487E+00
         13   -1    0    0    0    0  0.00000000000E+00  0.00000000000E+00  0.14999999963E+04  0.15000000000E+04  0.10566000000E+00 0. -1.
        994   -1    0    0    0    0 -0.00000000000E+00 -0.00000000000E+00  0.11368683772E-12  0.17120000000E+03  0.17120000000E+03 0.  0.
         13    1    1    2    0    0  0.13110114192E+01  0.21142913776E+02  0.10177319277E+03  0.10395448756E+03  0.10566000000E+00 0. -1.
        994    1    1    2    0    0 -0.85259427599E+01 -0.51169800460E+01  0.26365702289E+01  0.17150879478E+03  0.17120000000E+03 0.  0.
        998    1    1    2    0    0  0.72149313408E+01 -0.16025933730E+02  0.13955902333E+04  0.13957367177E+04  0.10000000000E+02 0. -1.
</event>
<event>
 5    1  0.1688215E-008  0.3824760E+03  0.7957747E-01  0.3440448E+00
         13   -1    0    0    0    0  0.00000000000E+00  0.00000000000E+00  0.14999999963E+04  0.15000000000E+04  0.10566000000E+00 0. -1.
        994   -1    0    0    0    0 -0.00000000000E+00 -0.00000000000E+00  0.11368683772E-12  0.17120000000E+03  0.17120000000E+03 0.  0.
         13    1    1    2    0    0 -0.13617087261E+02  0.27793173940E+01  0.32316730059E+02  0.35178571267E+02  0.10566000000E+00 0. -1.
        994    1    1    2    0    0  0.81817198720E+01 -0.11635849537E+02  0.35596483688E+01  0.17182678671E+03  0.17120000000E+03 0.  0.
        998    1    1    2    0    0  0.54353673890E+01  0.88565321430E+01  0.14641236179E+04  0.14641946420E+04  0.10000000000E+02 0. -1.
</event>
<event>
 5    1  0.1688215E-008  0.3823316E+03  0.7957747E-01  0.3441069E+00
         13   -1    0    0    0    0  0.00000000000E+00  0.00000000000E+00  0.14999999963E+04  0.15000000000E+04  0.10566000000E+00 0. -1.
        994   -1    0    0    0    0 -0.00000000000E+00 -0.00000000000E+00  0.11368683772E-12  0.17120000000E+03  0.17120000000E+03 0.  0.
         13    1    1    2    0    0 -0.13922515104E+02 -0.11954836087E+02  0.56587695413E+02  0.59488931482E+02  0.10566000000E+00 0. -1.
        994    1    1    2    0    0  0.12466482697E+02 -0.20466673206E+00  0.34766497907E+01  0.17168861981E+03  0.17120000000E+03 0.  0.
        998    1    1    2    0    0  0.14560324073E+01  0.12159502819E+02  0.14399356511E+04  0.14400224487E+04  0.10000000000E+02 0. -1.
</event>
<event>
 5    1  0.1688215E-008  0.3701575E+03  0.7957747E-01  0.3495167E+00
         13   -1    0    0    0    0  0.00000000000E+00  0.00000000000E+00  0.14999999963E+04  0.15000000000E+04  0.10566000000E+00 0.  1.
        994   -1    0    0    0    0 -0.00000000000E+00 -0.00000000000E+00  0.11368683772E-12  0.17120000000E+03  0.17120000000E+03 0.  0.
         13    1    1    2    0    0 -0.20150402857E+02  0.65991071143E+02  0.30247953791E+03  0.31024948384E+03  0.10566000000E+00 0.  1.
        994    1    1    2    0    0  0.28583426381E+02 -0.81257709894E+01  0.12244409774E+02  0.17419071729E+03  0.17120000000E+03 0.  0.
        998    1    1    2    0    0 -0.84330235235E+01 -0.57865300153E+02  0.11852760486E+04  0.11867597989E+04  0.10000000000E+02 0.  1.
</event>
<event>
 5    1  0.1688215E-008  0.3776395E+03  0.7957747E-01  0.3461501E+00
         13   -1    0    0    0    0  0.00000000000E+00  0.00000000000E+00  0.14999999963E+04  0.15000000000E+04  0.10566000000E+00 0. -1.
        994   -1    0    0    0    0 -0.00000000000E+00 -0.00000000000E+00  0.11368683772E-12  0.17120000000E+03  0.17120000000E+03 0.  0.
         13    1    1    2    0    0  0.85713562523E+02  0.90817130158E+01  0.19922786424E+03  0.21707382469E+03  0.10566000000E+00 0. -1.
        994    1    1    2    0    0 -0.96439239937E+02 -0.11462361269E+02  0.49753216216E+02  0.20301905144E+03  0.17120000000E+03 0.  0.
        998    1    1    2    0    0  0.10725677414E+02  0.23806482534E+01  0.12510189158E+04  0.12511071239E+04  0.10000000000E+02 0. -1.
</event>
<event>
 5    1  0.1688215E-008  0.3792292E+03  0.7957747E-01  0.3454522E+00
         13   -1    0    0    0    0  0.00000000000E+00  0.00000000000E+00  0.14999999963E+04  0.15000000000E+04  0.10566000000E+00 0.  1.
        994   -1    0    0    0    0 -0.00000000000E+00 -0.00000000000E+00  0.11368683772E-12  0.17120000000E+03  0.17120000000E+03 0.  0.
         13    1    1    2    0    0  0.19646598683E+01  0.33410896906E+02  0.11374920808E+03  0.11857082872E+03  0.10566000000E+00 0.  1.
        994    1    1    2    0    0 -0.27276012172E+01 -0.33773311655E+02  0.83800617163E+01  0.17472189852E+03  0.17120000000E+03 0.  0.
        998    1    1    2    0    0  0.76294134889E+00  0.36241474838E+00  0.13778707265E+04  0.13779072728E+04  0.10000000000E+02 0.  1.
</event>
<event>
 5    1  0.1688215E-008  0.3850239E+03  0.7957747E-01  0.3429571E+00
         13   -1    0    0    0    0  0.00000000000E+00  0.00000000000E+00  0.14999999963E+04  0.15000000000E+04  0.10566000000E+00 0.  1.
        994   -1    0    0    0    0 -0.00000000000E+00 -0.00000000000E+00  0.11368683772E-12  0.17120000000E+03  0.17120000000E+03 0.  0.
         13    1    1    2    0    0  0.12651257272E+01 -0.11885924628E+02  0.46523999671E+02  0.48035085686E+02  0.10566000000E+00 0.  1.
        994    1    1    2    0    0 -0.10094256160E+02 -0.29117105352E+01  0.19812933425E+01  0.17153348824E+03  0.17120000000E+03 0.  0.
        998    1    1    2    0    0  0.88291304324E+01  0.14797635164E+02  0.14514947033E+04  0.14516314261E+04  0.10000000000E+02 0.  1.
</event>
<event>
 5    1  0.1688215E-008  0.3796138E+03  0.7957747E-01  0.3452842E+00
         13   -1    0    0    0    0  0.00000000000E+00  0.00000000000E+00  0.14999999963E+04  0.15000000000E+04  0.10566000000E+00 0.  1.
        994   -1    0    0    0    0 -0.00000000000E+00 -0.00000000000E+00  0.11368683772E-12  0.17120000000E+03  0.17120000000E+03 0.  0.
         13    1    1    2    0    0 -0.25554716354E+02  0.23356482297E+02  0.15325406706E+03  0.15711584589E+03  0.10566000000E+00 0.  1.
        994    1    1    2    0    0  0.25471074629E+02  0.21765509519E+02  0.80946213013E+01  0.17463526546E+03  0.17120000000E+03 0.  0.
        998    1    1    2    0    0  0.83641724975E-01 -0.45121991816E+02  0.13386513079E+04  0.13394488887E+04  0.10000000000E+02 0.  1.
</event>
<event>
 5    1  0.1688215E-008  0.3790566E+03  0.7957747E-01  0.3455277E+00
         13   -1    0    0    0    0  0.00000000000E+00  0.00000000000E+00  0.14999999963E+04  0.15000000000E+04  0.10566000000E+00 0.  1.
        994   -1    0    0    0    0 -0.00000000000E+00 -0.00000000000E+00  0.11368683772E-12  0.17120000000E+03  0.17120000000E+03 0.  0.
         13    1    1    2    0    0  0.35712091951E+01  0.24822329336E+02  0.62696022005E+02  0.67525579657E+02  0.10566000000E+00 0.  1.
        994    1    1    2    0    0 -0.50585706413E+01 -0.30468043890E+02  0.78155158753E+01  0.17413906260E+03  0.17120000000E+03 0.  0.
        998    1    1    2    0    0  0.14873614462E+01  0.56457145539E+01  0.14294884584E+04  0.14295353577E+04  0.10000000000E+02 0.  1.
</event>
<event>
 5    1  0.1688215E-008  0.3852076E+03  0.7957747E-01  0.3428792E+00
         13   -1    0    0    0    0  0.00000000000E+00  0.00000000000E+00  0.14999999963E+04  0.15000000000E+04  0.10566000000E+00 0.  1.
        994   -1    0    0    0    0 -0.00000000000E+00 -0.00000000000E+00  0.11368683772E-12  0.17120000000E+03  0.17120000000E+03 0.  0.
         13    1    1    2    0    0  0.14164536262E+02  0.74499635925E+01  0.87044957830E+02  0.88504078396E+02  0.10566000000E+00 0.  1.
        994    1    1    2    0    0 -0.51054597583E+01 -0.27210718018E+01  0.16370856816E+01  0.17130554574E+03  0.17120000000E+03 0.  0.
        998    1    1    2    0    0 -0.90590765034E+01 -0.47288917907E+01  0.14113179528E+04  0.14113903759E+04  0.10000000000E+02 0.  1.
</event>
<event>
 5    1  0.1688215E-008  0.3777975E+03  0.7957747E-01  0.3460805E+00
         13   -1    0    0    0    0  0.00000000000E+00  0.00000000000E+00  0.14999999963E+04  0.15000000000E+04  0.10566000000E+00 0. -1.
        994   -1    0    0    0    0 -0.00000000000E+00 -0.00000000000E+00  0.11368683772E-12  0.17120000000E+03  0.17120000000E+03 0.  0.
         13    1    1    2    0    0  0.32079162268E+02  0.28224991303E+02  0.15435232934E+03  0.16015734614E+03  0.10566000000E+00 0. -1.
        994    1    1    2    0    0 -0.30643729415E+02 -0.31992241426E+02  0.11886484614E+02  0.17723789149E+03  0.17120000000E+03 0.  0.
        998    1    1    2    0    0 -0.14354328532E+01  0.37672501222E+01  0.13337611823E+04  0.13338047624E+04  0.10000000000E+02 0. -1.
</event>
<event>
 5    1  0.1688215E-008  0.3857621E+03  0.7957747E-01  0.3426446E+00
         13   -1    0    0    0    0  0.00000000000E+00  0.00000000000E+00  0.14999999963E+04  0.15000000000E+04  0.10566000000E+00 0. -1.
        994   -1    0    0    0    0 -0.00000000000E+00 -0.00000000000E+00  0.11368683772E-12  0.17120000000E+03  0.17120000000E+03 0.  0.
         13    1    1    2    0    0  0.80567749128E+01  0.11886094282E+02  0.80243219382E+02  0.81517950661E+02  0.10566000000E+00 0. -1.
        994    1    1    2    0    0 -0.15494790866E+01 -0.15538019111E+02  0.20525334698E+01  0.17192290079E+03  0.17120000000E+03 0.  0.
        998    1    1    2    0    0 -0.65072958262E+01  0.36519248287E+01  0.14177042434E+04  0.14177591485E+04  0.10000000000E+02 0. -1.
</event>
<event>
 5    1  0.1688215E-008  0.3721672E+03  0.7957747E-01  0.3485990E+00
         13   -1    0    0    0    0  0.00000000000E+00  0.00000000000E+00  0.14999999963E+04  0.15000000000E+04  0.10566000000E+00 0.  1.
        994   -1    0    0    0    0 -0.00000000000E+00 -0.00000000000E+00  0.11368683772E-12  0.17120000000E+03  0.17120000000E+03 0.  0.
         13    1    1    2    0    0  0.16393357947E+02  0.63125654808E+00  0.55707768844E+01  0.17325858961E+02  0.10566000000E+00 0.  1.
        994    1    1    2    0    0 -0.18867427371E+02  0.15535236027E+01  0.13352845246E+02  0.17276033031E+03  0.17120000000E+03 0.  0.
        998    1    1    2    0    0  0.24740694245E+01 -0.21847801508E+01  0.14810763741E+04  0.14811138107E+04  0.10000000000E+02 0.  1.
</event>
<event>
 5    1  0.1688215E-008  0.3849769E+03  0.7957747E-01  0.3429770E+00
         13   -1    0    0    0    0  0.00000000000E+00  0.00000000000E+00  0.14999999963E+04  0.15000000000E+04  0.10566000000E+00 0. -1.
        994   -1    0    0    0    0 -0.00000000000E+00 -0.00000000000E+00  0.11368683772E-12  0.17120000000E+03  0.17120000000E+03 0.  0.
         13    1    1    2    0    0 -0.54074356761E+01 -0.11688979211E+02  0.51144429255E+02  0.52741221103E+02  0.10566000000E+00 0. -1.
        994    1    1    2    0    0  0.12800421788E+01  0.62461643987E+01  0.17753487837E+01  0.17132788722E+03  0.17120000000E+03 0.  0.
        998    1    1    2    0    0  0.41273934973E+01  0.54428148120E+01  0.14470802182E+04  0.14471308917E+04  0.10000000000E+02 0. -1.
</event>
<event>
 5    1  0.1688215E-008  0.3712282E+03  0.7957747E-01  0.3490265E+00
         13   -1    0    0    0    0  0.00000000000E+00  0.00000000000E+00  0.14999999963E+04  0.15000000000E+04  0.10566000000E+00 0.  1.
        994   -1    0    0    0    0 -0.00000000000E+00 -0.00000000000E+00  0.11368683772E-12  0.17120000000E+03  0.17120000000E+03 0.  0.
         13    1    1    2    0    0 -0.26441401678E+02  0.14996022632E+02  0.48488710068E+02  0.57229315788E+02  0.10566000000E+00 0.  1.
        994    1    1    2    0    0  0.28399158160E+02 -0.15073219215E+02  0.12195961411E+02  0.17461928758E+03  0.17120000000E+03 0.  0.
        998    1    1    2    0    0 -0.19577564818E+01  0.77196583453E-01  0.14393153248E+04  0.14393513966E+04  0.10000000000E+02 0.  1.
</event>
<event>
 5    1  0.1688215E-008  0.3850699E+03  0.7957747E-01  0.3429376E+00
         13   -1    0    0    0    0  0.00000000000E+00  0.00000000000E+00  0.14999999963E+04  0.15000000000E+04  0.10566000000E+00 0. -1.
        994   -1    0    0    0    0 -0.00000000000E+00 -0.00000000000E+00  0.11368683772E-12  0.17120000000E+03  0.17120000000E+03 0.  0.
         13    1    1    2    0    0  0.10386545393E+02 -0.18128940731E+02  0.10996698502E+03  0.11193430116E+03  0.10566000000E+00 0. -1.
        994    1    1    2    0    0 -0.18964074979E+02  0.35820020928E+02  0.70152433618E+01  0.17607204116E+03  0.17120000000E+03 0.  0.
        998    1    1    2    0    0  0.85775295863E+01 -0.17691080197E+02  0.13830177679E+04  0.13831936577E+04  0.10000000000E+02 0. -1.
</event>
<event>
 5    1  0.1688215E-008  0.3741508E+03  0.7957747E-01  0.3477029E+00
         13   -1    0    0    0    0  0.00000000000E+00  0.00000000000E+00  0.14999999963E+04  0.15000000000E+04  0.10566000000E+00 0. -1.
        994   -1    0    0    0    0 -0.00000000000E+00 -0.00000000000E+00  0.11368683772E-12  0.17120000000E+03  0.17120000000E+03 0.  0.
         13    1    1    2    0    0 -0.45932696286E+01 -0.74262532722E+02  0.18886619224E+03  0.20299377238E+03  0.10566000000E+00 0. -1.
        994    1    1    2    0    0 -0.85349728702E+01  0.65763864818E+02  0.28921015806E+02  0.18585907789E+03  0.17120000000E+03 0.  0.
        998    1    1    2    0    0  0.13128242499E+02  0.84986679039E+01  0.12822127882E+04  0.12823471497E+04  0.10000000000E+02 0. -1.
</event>
<event>
 5    1  0.1688215E-008  0.3789314E+03  0.7957747E-01  0.3455825E+00
         13   -1    0    0    0    0  0.00000000000E+00  0.00000000000E+00  0.14999999963E+04  0.15000000000E+04  0.10566000000E+00 0.  1.
        994   -1    0    0    0    0 -0.00000000000E+00 -0.00000000000E+00  0.11368683772E-12  0.17120000000E+03  0.17120000000E+03 0.  0.
         13    1    1    2    0    0  0.39787964805E+01  0.15523737224E+02  0.25064932201E+02  0.29750281160E+02  0.10566000000E+00 0.  1.
        994    1    1    2    0    0 -0.42266529186E+01 -0.17453089670E+02  0.57561078332E+01  0.17223544267E+03  0.17120000000E+03 0.  0.
        998    1    1    2    0    0  0.24785643813E+00  0.19293524467E+01  0.14691789562E+04  0.14692142762E+04  0.10000000000E+02 0.  1.
</event>
<event>
 5    1  0.1688215E-008  0.3823709E+03  0.7957747E-01  0.3440900E+00
         13   -1    0    0    0    0  0.00000000000E+00  0.00000000000E+00  0.14999999963E+04  0.15000000000E+04  0.10566000000E+00 0. -1.
        994   -1    0    0    0    0 -0.00000000000E+00 -0.00000000000E+00  0.11368683772E-12  0.17120000000E+03  0.17120000000E+03 0.  0.
         13    1    1    2    0    0  0.20324301765E+02  0.59301890422E+01  0.73601332739E+02  0.76585976061E+02  0.10566000000E+00 0. -1.
        994    1    1    2    0    0 -0.17958209313E+02 -0.20842226458E+01  0.40259412444E+01  0.17219898219E+03  0.17120000000E+03 0.  0.
        998    1    1    2    0    0 -0.23660924515E+01 -0.38459663964E+01  0.14223727223E+04  0.14224150417E+04  0.10000000000E+02 0. -1.
</event>
<event>
 5    1  0.1688215E-008  0.3806923E+03  0.7957747E-01  0.3448149E+00
         13   -1    0    0    0    0  0.00000000000E+00  0.00000000000E+00  0.14999999963E+04  0.15000000000E+04  0.10566000000E+00 0.  1.
        994   -1    0    0    0    0 -0.00000000000E+00 -0.00000000000E+00  0.11368683772E-12  0.17120000000E+03  0.17120000000E+03 0.  0.
         13    1    1    2    0    0 -0.26477808630E+02 -0.13484461401E+01  0.96503123328E+02  0.10007875215E+03  0.10566000000E+00 0.  1.
        994    1    1    2    0    0  0.57979565367E+01  0.15319837316E+02  0.46794740184E+01  0.17204549164E+03  0.17120000000E+03 0.  0.
        998    1    1    2    0    0  0.20679852093E+02 -0.13971391176E+02  0.13988173989E+04  0.13990757562E+04  0.10000000000E+02 0.  1.
</event>
<event>
 5    1  0.1688215E-008  0.3812348E+03  0.7957747E-01  0.3445799E+00
         13   -1    0    0    0    0  0.00000000000E+00  0.00000000000E+00  0.14999999963E+04  0.15000000000E+04  0.10566000000E+00 0. -1.
        994   -1    0    0    0    0 -0.00000000000E+00 -0.00000000000E+00  0.11368683772E-12  0.17120000000E+03  0.17120000000E+03 0.  0.
         13    1    1    2    0    0 -0.15258086295E+02 -0.51751456489E+01  0.36513383679E+02  0.39910270378E+02  0.10566000000E+00 0. -1.
        994    1    1    2    0    0  0.42555364106E+01  0.13472984140E+00  0.35714623824E+01  0.17129017218E+03  0.17120000000E+03 0.  0.
        998    1    1    2    0    0  0.11002549885E+02  0.50404158075E+01  0.14599151502E+04  0.14599995574E+04  0.10000000000E+02 0. -1.
</event>
<event>
 5    1  0.1688215E-008  0.3761278E+03  0.7957747E-01  0.3468194E+00
         13   -1    0    0    0    0  0.00000000000E+00  0.00000000000E+00  0.14999999963E+04  0.15000000000E+04  0.10566000000E+00 0.  1.
        994   -1    0    0    0    0 -0.00000000000E+00 -0.00000000000E+00  0.11368683772E-12  0.17120000000E+03  0.17120000000E+03 0.  0.
         13    1    1    2    0    0  0.56707452415E+01  0.10439695211E+02  0.87907146970E+01  0.14779459280E+02  0.10566000000E+00 0.  1.
        994    1    1    2    0    0 -0.35030014705E+01 -0.90366049993E+01  0.64188713090E+01  0.17159421074E+03  0.17120000000E+03 0.  0.
        998    1    1    2    0    0 -0.21677437710E+01 -0.14030902120E+01  0.14847904103E+04  0.14848263300E+04  0.10000000000E+02 0.  1.
</event>
<event>
 5    1  0.1688215E-008  0.3849143E+03  0.7957747E-01  0.3430036E+00
         13   -1    0    0    0    0  0.00000000000E+00  0.00000000000E+00  0.14999999963E+04  0.15000000000E+04  0.10566000000E+00 0. -1.
        994   -1    0    0    0    0 -0.00000000000E+00 -0.00000000000E+00  0.11368683772E-12  0.17120000000E+03  0.17120000000E+03 0.  0.
         13    1    1    2    0    0 -0.17019659625E+02 -0.84984385186E+01  0.10711546094E+03  0.10879166056E+03  0.10566000000E+00 0. -1.
        994    1    1    2    0    0  0.15548127968E+02 -0.11578545057E+01  0.24727256331E+01  0.17192626118E+03  0.17120000000E+03 0.  0.
        998    1    1    2    0    0  0.14715316572E+01  0.96562930243E+01  0.13904118097E+04  0.13904820783E+04  0.10000000000E+02 0. -1.
</event>
<event>
 5    1  0.1688215E-008  0.3854462E+03  0.7957747E-01  0.3427782E+00
         13   -1    0    0    0    0  0.00000000000E+00  0.00000000000E+00  0.14999999963E+04  0.15000000000E+04  0.10566000000E+00 0.  1.
        994   -1    0    0    0    0 -0.00000000000E+00 -0.00000000000E+00  0.11368683772E-12  0.17120000000E+03  0.17120000000E+03 0.  0.
         13    1    1    2    0    0 -0.20406991870E+01  0.11610335930E+02  0.48085274818E+02  0.49509283694E+02  0.10566000000E+00 0.  1.
        994    1    1    2    0    0 -0.14572279638E+01 -0.13358077857E+02  0.20019630054E+01  0.17173820080E+03  0.17120000000E+03 0.  0.
        998    1    1    2    0    0  0.34979271508E+01  0.17477419273E+01  0.14499127585E+04  0.14499525155E+04  0.10000000000E+02 0.  1.
</event>
<event>
 5    1  0.1688215E-008  0.3852258E+03  0.7957747E-01  0.3428715E+00
         13   -1    0    0    0    0  0.00000000000E+00  0.00000000000E+00  0.14999999963E+04  0.15000000000E+04  0.10566000000E+00 0. -1.
        994   -1    0    0    0    0 -0.00000000000E+00 -0.00000000000E+00  0.11368683772E-12  0.17120000000E+03  0.17120000000E+03 0.  0.
         13    1    1    2    0    0  0.33064064473E+01  0.15974155929E+02  0.91440638279E+02  0.92884376911E+02  0.10566000000E+00 0. -1.
        994    1    1    2    0    0 -0.90263409782E+01 -0.37952249578E+01  0.18332135941E+01  0.17148958929E+03  0.17120000000E+03 0.  0.
        998    1    1    2    0    0  0.57199345309E+01 -0.12178930972E+02  0.14067261444E+04  0.14068260338E+04  0.10000000000E+02 0. -1.
</event>
<event>
 5    1  0.1688215E-008  0.3800758E+03  0.7957747E-01  0.3450829E+00
         13   -1    0    0    0    0  0.00000000000E+00  0.00000000000E+00  0.14999999963E+04  0.15000000000E+04  0.10566000000E+00 0. -1.
        994   -1    0    0    0    0 -0.00000000000E+00 -0.00000000000E+00  0.11368683772E-12  0.17120000000E+03  0.17120000000E+03 0.  0.
         13    1    1    2    0    0 -0.12197621630E+02  0.19790985769E+02  0.67395526788E+02  0.71292589279E+02  0.10566000000E+00 0. -1.
        994    1    1    2    0    0  0.24832488097E+01 -0.39167163345E+01  0.41667735969E+01  0.17131348223E+03  0.17120000000E+03 0.  0.
        998    1    1    2    0    0  0.97143728205E+01 -0.15874269435E+02  0.14284376959E+04  0.14285939285E+04  0.10000000000E+02 0. -1.
</event>
<event>
 5    1  0.1688215E-008  0.3803526E+03  0.7957747E-01  0.3449625E+00
         13   -1    0    0    0    0  0.00000000000E+00  0.00000000000E+00  0.14999999963E+04  0.15000000000E+04  0.10566000000E+00 0. -1.
        994   -1    0    0    0    0 -0.00000000000E+00 -0.00000000000E+00  0.11368683772E-12  0.17120000000E+03  0.17120000000E+03 0.  0.
         13    1    1    2    0    0 -0.97446843372E+01  0.10000081508E+02  0.24306412558E+02  0.28031649229E+02  0.10566000000E+00 0. -1.
        994    1    1    2    0    0 -0.17094344870E+02 -0.41828548191E+01  0.49900872575E+01  0.17217448670E+03  0.17120000000E+03 0.  0.
        998    1    1    2    0    0  0.26839029207E+02 -0.58172266886E+01  0.14707034965E+04  0.14709938641E+04  0.10000000000E+02 0. -1.
</event>
<event>
 5    1  0.1688215E-008  0.3834161E+03  0.7957747E-01  0.3436417E+00
         13   -1    0    0    0    0  0.00000000000E+00  0.00000000000E+00  0.14999999963E+04  0.15000000000E+04  0.10566000000E+00 0.  1.
        994   -1    0    0    0    0 -0.00000000000E+00 -0.00000000000E+00  0.11368683772E-12  0.17120000000E+03  0.17120000000E+03 0.  0.
         13    1    1    2    0    0 -0.15105241765E+02  0.17776056778E+02  0.82537157123E+02  0.85770332828E+02  0.10566000000E+00 0.  1.
        994    1    1    2    0    0  0.70467703761E+02 -0.30599349299E+02  0.22179123585E+02  0.18895335661E+03  0.17120000000E+03 0.  0.
        998    1    1    2    0    0 -0.55362461996E+02  0.12823292521E+02  0.13952837156E+04  0.13964763106E+04  0.10000000000E+02 0.  1.
</event>
<event>
 5    1  0.1688215E-008  0.3739262E+03  0.7957747E-01  0.3478039E+00
         13   -1    0    0    0    0  0.00000000000E+00  0.00000000000E+00  0.14999999963E+04  0.15000000000E+04  0.10566000000E+00 0. -1.
        994   -1    0    0    0    0 -0.00000000000E+00 -0.00000000000E+00  0.11368683772E-12  0.17120000000E+03  0.17120000000E+03 0.  0.
         13    1    1    2    0    0 -0.83993882233E+01  0.97548818622E+02  0.44287667165E+03  0.45357036851E+03  0.10566000000E+00 0. -1.
        994    1    1    2    0    0 -0.35523110488E+02 -0.10831126088E+03  0.52941680168E+02  0.21238051255E+03  0.17120000000E+03 0.  0.
        998    1    1    2    0    0  0.43922498711E+02  0.10762442253E+02  0.10041816445E+04  0.10052491189E+04  0.10000000000E+02 0. -1.
</event>
<event>
 5    1  0.1688215E-008  0.3833715E+03  0.7957747E-01  0.3436608E+00
         13   -1    0    0    0    0  0.00000000000E+00  0.00000000000E+00  0.14999999963E+04  0.15000000000E+04  0.10566000000E+00 0.  1.
        994   -1    0    0    0    0 -0.00000000000E+00 -0.00000000000E+00  0.11368683772E-12  0.17120000000E+03  0.17120000000E+03 0.  0.
         13    1    1    2    0    0 -0.70081219760E+01 -0.12860175107E+02  0.42448892958E+02  0.44904538243E+02  0.10566000000E+00 0.  1.
        994    1    1    2    0    0  0.11061096668E+02  0.99653811563E+01  0.31739999834E+01  0.17187545187E+03  0.17120000000E+03 0.  0.
        998    1    1    2    0    0 -0.40529746919E+01  0.28947939506E+01  0.14543771033E+04  0.14544200099E+04  0.10000000000E+02 0.  1.
</event>
<event>
 5    1  0.1688215E-008  0.3858851E+03  0.7957747E-01  0.3425927E+00
         13   -1    0    0    0    0  0.00000000000E+00  0.00000000000E+00  0.14999999963E+04  0.15000000000E+04  0.10566000000E+00 0. -1.
        994   -1    0    0    0    0 -0.00000000000E+00 -0.00000000000E+00  0.11368683772E-12  0.17120000000E+03  0.17120000000E+03 0.  0.
         13    1    1    2    0    0 -0.88027564720E+01 -0.10202514852E+02  0.77766960550E+02  0.78925858551E+02  0.10566000000E+00 0. -1.
        994    1    1    2    0    0 -0.65509329490E+00  0.10674883985E+02  0.15665362373E+01  0.17154088822E+03  0.17120000000E+03 0.  0.
        998    1    1    2    0    0  0.94578497669E+01 -0.47236913255E+00  0.14206664995E+04  0.14207332532E+04  0.10000000000E+02 0. -1.
</event>
<event>
 5    1  0.1688215E-008  0.3835549E+03  0.7957747E-01  0.3435824E+00
         13   -1    0    0    0    0  0.00000000000E+00  0.00000000000E+00  0.14999999963E+04  0.15000000000E+04  0.10566000000E+00 0. -1.
        994   -1    0    0    0    0 -0.00000000000E+00 -0.00000000000E+00  0.11368683772E-12  0.17120000000E+03  0.17120000000E+03 0.  0.
         13    1    1    2    0    0 -0.98854263213E+01  0.16999975878E+01  0.20572979354E+02  0.22888212881E+02  0.10566000000E+00 0. -1.
        994    1    1    2    0    0  0.78581481030E+01  0.22889808082E+01  0.25706770169E+01  0.17141481355E+03  0.17120000000E+03 0.  0.
        998    1    1    2    0    0  0.20272782182E+01 -0.39889783959E+01  0.14768563399E+04  0.14768969736E+04  0.10000000000E+02 0. -1.
</event>
<event>
 5    1  0.1688215E-008  0.3838934E+03  0.7957747E-01  0.3434379E+00
         13   -1    0    0    0    0  0.00000000000E+00  0.00000000000E+00  0.14999999963E+04  0.15000000000E+04  0.10566000000E+00 0. -1.
        994   -1    0    0    0    0 -0.00000000000E+00 -0.00000000000E+00  0.11368683772E-12  0.17120000000E+03  0.17120000000E+03 0.  0.
         13    1    1    2    0    0  0.22197458240E+02  0.32643629732E+01  0.99262353006E+02  0.10176644391E+03  0.10566000000E+00 0. -1.
        994    1    1    2    0    0 -0.35381735079E+02 -0.67989883909E+01  0.64766926519E+01  0.17506993165E+03  0.17120000000E+03 0.  0.
        998    1    1    2    0    0  0.13184276839E+02  0.35346254178E+01  0.13942609506E+04  0.13943636244E+04  0.10000000000E+02 0. -1.
</event>
<event>
 5    1  0.1688215E-008  0.3851467E+03  0.7957747E-01  0.3429050E+00
         13   -1    0    0    0    0  0.00000000000E+00  0.00000000000E+00  0.14999999963E+04  0.15000000000E+04  0.10566000000E+00 0.  1.
        994   -1    0    0    0    0 -0.00000000000E+00 -0.00000000000E+00  0.11368683772E-12  0.17120000000E+03  0.17120000000E+03 0.  0.
         13    1    1    2    0    0  0.12118435809E+02  0.81498805071E+01  0.72091202240E+02  0.73555622785E+02  0.10566000000E+00 0.  1.
        994    1    1    2    0    0  0.13453450673E+01 -0.62976211143E+01  0.16936687949E+01  0.17132944434E+03  0.17120000000E+03 0.  0.
        998    1    1    2    0    0 -0.13463780876E+02 -0.18522593929E+01  0.14262151252E+04  0.14263149329E+04  0.10000000000E+02 0.  1.
</event>
<event>
 5    1  0.1688215E-008  0.3804516E+03  0.7957747E-01  0.3449194E+00
         13   -1    0    0    0    0  0.00000000000E+00  0.00000000000E+00  0.14999999963E+04  0.15000000000E+04  0.10566000000E+00 0.  1.
        994   -1    0    0    0    0 -0.00000000000E+00 -0.00000000000E+00  0.11368683772E-12  0.17120000000E+03  0.17120000000E+03 0.  0.
         13    1    1    2    0    0  0.10330066021E+02  0.78289794928E+01  0.19635232531E+02  0.23527785797E+02  0.10566000000E+00 0.  1.
        994    1    1    2    0    0 -0.91464996314E+01 -0.10905683930E+02  0.45818667349E+01  0.17185175559E+03  0.17120000000E+03 0.  0.
        998    1    1    2    0    0 -0.11835663898E+01  0.30767044368E+01  0.14757828970E+04  0.14758204586E+04  0.10000000000E+02 0.  1.
</event>
<event>
 5    1  0.1688215E-008  0.3838756E+03  0.7957747E-01  0.3434455E+00
         13   -1    0    0    0    0  0.00000000000E+00  0.00000000000E+00  0.14999999963E+04  0.15000000000E+04  0.10566000000E+00 0. -1.
        994   -1    0    0    0    0 -0.00000000000E+00 -0.00000000000E+00  0.11368683772E-12  0.17120000000E+03  0.17120000000E+03 0.  0.
         13    1    1    2    0    0  0.73815963425E+01  0.21045170502E+02  0.12492781756E+03  0.12690294690E+03  0.10566000000E+00 0. -1.
        994    1    1    2    0    0 -0.92919749866E+01  0.19757244506E+01  0.24873170920E+01  0.17148140142E+03  0.17120000000E+03 0.  0.
        998    1    1    2    0    0  0.19103786441E+01 -0.23020894953E+02  0.13725848616E+04  0.13728156517E+04  0.10000000000E+02 0. -1.
</event>
<event>
 5    1  0.1688215E-008  0.3854869E+03  0.7957747E-01  0.3427610E+00
         13   -1    0    0    0    0  0.00000000000E+00  0.00000000000E+00  0.14999999963E+04  0.15000000000E+04  0.10566000000E+00 0. -1.
        994   -1    0    0    0    0 -0.00000000000E+00 -0.00000000000E+00  0.11368683772E-12  0.17120000000E+03  0.17120000000E+03 0.  0.
         13    1    1    2    0    0  0.71621733577E+01 -0.14339713980E+02  0.86371893703E+02  0.87846680700E+02  0.10566000000E+00 0. -1.
        994    1    1    2    0    0 -0.90842279238E+01  0.17626882776E+02  0.26808334488E+01  0.17236547526E+03  0.17120000000E+03 0.  0.
        998    1    1    2    0    0  0.19220545661E+01 -0.32871687954E+01  0.14109472691E+04  0.14109878440E+04  0.10000000000E+02 0. -1.
</event>
<event>
 5    1  0.1688215E-008  0.3832331E+03  0.7957747E-01  0.3437201E+00
         13   -1    0    0    0    0  0.00000000000E+00  0.00000000000E+00  0.14999999963E+04  0.15000000000E+04  0.10566000000E+00 0. -1.
        994   -1    0    0    0    0 -0.00000000000E+00 -0.00000000000E+00  0.11368683772E-12  0.17120000000E+03  0.17120000000E+03 0.  0.
         13    1    1    2    0    0  0.17410575215E+02 -0.38461867358E+01  0.65683398274E+02  0.68060570484E+02  0.10566000000E+00 0. -1.
        994    1    1    2    0    0 -0.45542761054E+01 -0.84945905215E+01  0.28172609877E+01  0.17149424614E+03  0.17120000000E+03 0.  0.
        998    1    1    2    0    0 -0.12856299110E+02  0.12340777257E+02  0.14314993370E+04  0.14316451834E+04  0.10000000000E+02 0. -1.
</event>
<event>
 5    1  0.1688215E-008  0.3855516E+03  0.7957747E-01  0.3427336E+00
         13   -1    0    0    0    0  0.00000000000E+00  0.00000000000E+00  0.14999999963E+04  0.15000000000E+04  0.10566000000E+00 0. -1.
        994   -1    0    0    0    0 -0.00000000000E+00 -0.00000000000E+00  0.11368683772E-12  0.17120000000E+03  0.17120000000E+03 0.  0.
         13    1    1    2    0    0  0.83211881756E+01 -0.15086176121E+02  0.79042468339E+02  0.80898441565E+02  0.10566000000E+00 0. -1.
        994    1    1    2    0    0 -0.54813373943E+02  0.36544966840E+02  0.15735808121E+02  0.18411164065E+03  0.17120000000E+03 0.  0.
        998    1    1    2    0    0  0.46492185768E+02 -0.21458790719E+02  0.14052217198E+04  0.14061899178E+04  0.10000000000E+02 0. -1.
</event>
<event>
 5    1  0.1688215E-008  0.3832508E+03  0.7957747E-01  0.3437125E+00
         13   -1    0    0    0    0  0.00000000000E+00  0.00000000000E+00  0.14999999963E+04  0.15000000000E+04  0.10566000000E+00 0.  1.
        994   -1    0    0    0    0 -0.00000000000E+00 -0.00000000000E+00  0.11368683772E-12  0.17120000000E+03  0.17120000000E+03 0.  0.
         13    1    1    2    0    0 -0.97335371673E+00 -0.10547007841E+02  0.21425219316E+02  0.23900585320E+02  0.10566000000E+00 0.  1.
        994    1    1    2    0    0  0.40328184736E+01  0.86403431200E+01  0.28018653644E+01  0.17148822001E+03  0.17120000000E+03 0.  0.
        998    1    1    2    0    0 -0.30594647568E+01  0.19066647207E+01  0.14757729116E+04  0.14758111947E+04  0.10000000000E+02 0.  1.
</event>
<event>
 5    1  0.1688215E-008  0.3857094E+03  0.7957747E-01  0.3426669E+00
         13   -1    0    0    0    0  0.00000000000E+00  0.00000000000E+00  0.14999999963E+04  0.15000000000E+04  0.10566000000E+00 0.  1.
        994   -1    0    0    0    0 -0.00000000000E+00 -0.00000000000E+00  0.11368683772E-12  0.17120000000E+03  0.17120000000E+03 0.  0.
         13    1    1    2    0    0  0.43435644526E-01 -0.82223340390E+02  0.31960735487E+03  0.33001447248E+03  0.10566000000E+00 0.  1.
        994    1    1    2    0    0  0.17187136974E+02 -0.66393394011E+02  0.37123466151E+02  0.18812515032E+03  0.17120000000E+03 0.  0.
        998    1    1    2    0    0 -0.17230572619E+02  0.14861673440E+03  0.11432691753E+04  0.11530603772E+04  0.10000000000E+02 0.  1.
</event>
<event>
 5    1  0.1696623E-008  0.3860916E+03  0.7957747E-01  0.3425056E+00
         13   -1    0    0    0    0  0.00000000000E+00  0.00000000000E+00  0.14999999963E+04  0.15000000000E+04  0.10566000000E+00 0.  1.
        994   -1    0    0    0    0 -0.00000000000E+00 -0.00000000000E+00  0.11368683772E-12  0.17120000000E+03  0.17120000000E+03 0.  0.
         13    1    1    2    0    0  0.84406457392E+01  0.65804891885E+01  0.53127001928E+02  0.54194435474E+02  0.10566000000E+00 0.  1.
        994    1    1    2    0    0 -0.31486786131E+01 -0.84332256870E+01  0.13547454807E+01  0.17144185256E+03  0.17120000000E+03 0.  0.
        998    1    1    2    0    0 -0.52919671261E+01  0.18527364986E+01  0.14455182489E+04  0.14455637120E+04  0.10000000000E+02 0.  1.
</event>
<event>
 5    1  0.1688215E-008  0.3732777E+03  0.7957747E-01  0.3480961E+00
         13   -1    0    0    0    0  0.00000000000E+00  0.00000000000E+00  0.14999999963E+04  0.15000000000E+04  0.10566000000E+00 0.  1.
        994   -1    0    0    0    0 -0.00000000000E+00 -0.00000000000E+00  0.11368683772E-12  0.17120000000E+03  0.17120000000E+03 0.  0.
         13    1    1    2    0    0  0.22617928359E+02 -0.21358466980E+02  0.57635133048E+02  0.65494843465E+02  0.10566000000E+00 0.  1.
        994    1    1    2    0    0 -0.27246179200E+02  0.26835629511E+02  0.12582693579E+02  0.17587003574E+03  0.17120000000E+03 0.  0.
        998    1    1    2    0    0  0.46282508403E+01 -0.54771625305E+01  0.14297821697E+04  0.14298351208E+04  0.10000000000E+02 0.  1.
</event>
<event>
 5    1  0.1688215E-008  0.3848948E+03  0.7957747E-01  0.3430118E+00
         13   -1    0    0    0    0  0.00000000000E+00  0.00000000000E+00  0.14999999963E+04  0.15000000000E+04  0.10566000000E+00 0.  1.
        994   -1    0    0    0    0 -0.00000000000E+00 -0.00000000000E+00  0.11368683772E-12  0.17120000000E+03  0.17120000000E+03 0.  0.
         13    1    1    2    0    0 -0.97182998726E+01 -0.11102180100E+02  0.67946295473E+02  0.69529950294E+02  0.10566000000E+00 0.  1.
        994    1    1    2    0    0  0.16691537498E+00  0.25203720165E+01  0.17033446291E+01  0.17122710509E+03  0.17120000000E+03 0.  0.
        998    1    1    2    0    0  0.95513844976E+01  0.85818080835E+01  0.14303503562E+04  0.14304429446E+04  0.10000000000E+02 0.  1.
</event>
<event>
 5    1  0.1688215E-008  0.3811769E+03  0.7957747E-01  0.3446050E+00
         13   -1    0    0    0    0  0.00000000000E+00  0.00000000000E+00  0.14999999963E+04  0.15000000000E+04  0.10566000000E+00 0. -1.
        994   -1    0    0    0    0 -0.00000000000E+00 -0.00000000000E+00  0.11368683772E-12  0.17120000000E+03  0.17120000000E+03 0.  0.
         13    1    1    2    0    0 -0.11314857697E+02  0.31023460181E+00  0.16855407173E+02  0.20303649062E+02  0.10566000000E+00 0. -1.
        994    1    1    2    0    0  0.26832780327E+01 -0.51360874955E+01  0.36520502546E+01  0.17133696871E+03  0.17120000000E+03 0.  0.
        998    1    1    2    0    0  0.86315796643E+01  0.48258528937E+01  0.14794925389E+04  0.14795593822E+04  0.10000000000E+02 0. -1.
</event>
<event>
 5    1  0.1688215E-008  0.3824877E+03  0.7957747E-01  0.3440397E+00
         13   -1    0    0    0    0  0.00000000000E+00  0.00000000000E+00  0.14999999963E+04  0.15000000000E+04  0.10566000000E+00 0. -1.
        994   -1    0    0    0    0 -0.00000000000E+00 -0.00000000000E+00  0.11368683772E-12  0.17120000000E+03  0.17120000000E+03 0.  0.
         13    1    1    2    0    0  0.15965857886E+01 -0.26657008808E+02  0.15289383656E+03  0.15520851016E+03  0.10566000000E+00 0. -1.
        994    1    1    2    0    0 -0.26010524117E+02 -0.12324669244E+02  0.56343001634E+01  0.17369407064E+03  0.17120000000E+03 0.  0.
        998    1    1    2    0    0  0.24413938329E+02  0.38981678052E+02  0.13414718596E+04  0.13422974192E+04  0.10000000000E+02 0. -1.
</event>
<event>
 5    1  0.1688215E-008  0.3789705E+03  0.7957747E-01  0.3455653E+00
         13   -1    0    0    0    0  0.00000000000E+00  0.00000000000E+00  0.14999999963E+04  0.15000000000E+04  0.10566000000E+00 0.  1.
        994   -1    0    0    0    0 -0.00000000000E+00 -0.00000000000E+00  0.11368683772E-12  0.17120000000E+03  0.17120000000E+03 0.  0.
         13    1    1    2    0    0 -0.10843460199E+03 -0.29713096820E+02  0.29799650862E+03  0.31850095972E+03  0.10566000000E+00 0.  1.
        994    1    1    2    0    0  0.10408633161E+03  0.78432915074E+02  0.79952102702E+02  0.22953750308E+03  0.17120000000E+03 0.  0.
        998    1    1    2    0    0  0.43482703797E+01 -0.48719818254E+02  0.11220513850E+04  0.11231615372E+04  0.10000000000E+02 0.  1.
</event>
<event>
 5    1  0.1688215E-008  0.3722359E+03  0.7957747E-01  0.3485678E+00
         13   -1    0    0    0    0  0.00000000000E+00  0.00000000000E+00  0.14999999963E+04  0.15000000000E+04  0.10566000000E+00 0. -1.
        994   -1    0    0    0    0 -0.00000000000E+00 -0.00000000000E+00  0.11368683772E-12  0.17120000000E+03  0.17120000000E+03 0.  0.
         13    1    1    2    0    0  0.14742369966E+03  0.38237294575E+02  0.89760200913E+03  0.91043133507E+03  0.10566000000E+00 0. -1.
        994    1    1    2    0    0 -0.16775691499E+03  0.36593837796E+02  0.11719371537E+03  0.26930521424E+03  0.17120000000E+03 0.  0.
        998    1    1    2    0    0  0.20333215332E+02 -0.74831132371E+02  0.48520427178E+03  0.49146345069E+03  0.10000000000E+02 0. -1.
</event>
<event>
 5    1  0.1688215E-008  0.3729908E+03  0.7957747E-01  0.3482258E+00
         13   -1    0    0    0    0  0.00000000000E+00  0.00000000000E+00  0.14999999963E+04  0.15000000000E+04  0.10566000000E+00 0.  1.
        994   -1    0    0    0    0 -0.00000000000E+00 -0.00000000000E+00  0.11368683772E-12  0.17120000000E+03  0.17120000000E+03 0.  0.
         13    1    1    2    0    0 -0.19479523208E+02  0.12498274183E+03  0.63969668174E+03  0.65208281175E+03  0.10566000000E+00 0.  1.
        994    1    1    2    0    0 -0.37315449718E+02 -0.86246034628E+02  0.44422236631E+02  0.20028378962E+03  0.17120000000E+03 0.  0.
        998    1    1    2    0    0  0.56794972926E+02 -0.38736707205E+02  0.81588107790E+03  0.81883339863E+03  0.10000000000E+02 0. -1.
</event>
<event>
 5    1  0.1688215E-008  0.3843688E+03  0.7957747E-01  0.3432354E+00
         13   -1    0    0    0    0  0.00000000000E+00  0.00000000000E+00  0.14999999963E+04  0.15000000000E+04  0.10566000000E+00 0. -1.
        994   -1    0    0    0    0 -0.00000000000E+00 -0.00000000000E+00  0.11368683772E-12  0.17120000000E+03  0.17120000000E+03 0.  0.
         13    1    1    2    0    0 -0.16131320246E+02  0.70310591089E+01  0.10035759899E+03  0.10188873403E+03  0.10566000000E+00 0. -1.
        994    1    1    2    0    0 -0.20338772028E+02  0.23128162436E+01  0.33258643384E+01  0.17245148924E+03  0.17120000000E+03 0.  0.
        998    1    1    2    0    0  0.36470092274E+02 -0.93438753525E+01  0.13963165330E+04  0.13968597767E+04  0.10000000000E+02 0. -1.
</event>
<event>
 5    1  0.1688215E-008  0.4016529E+03  0.7957747E-01  0.3361977E+00
         13   -1    0    0    0    0  0.00000000000E+00  0.00000000000E+00  0.14999999963E+04  0.15000000000E+04  0.10566000000E+00 0. -1.
        994   -1    0    0    0    0 -0.00000000000E+00 -0.00000000000E+00  0.11368683772E-12  0.17120000000E+03  0.17120000000E+03 0.  0.
         13    1    1    2    0    0 -0.10427458205E+03 -0.32990055800E+02  0.17795128641E+03  0.20887365497E+03  0.10566000000E+00 0. -1.
        994    1    1    2    0    0  0.10342306129E+03  0.20859641215E+02  0.74158870332E+02  0.21433719296E+03  0.17120000000E+03 0.  0.
        998    1    1    2    0    0  0.85152075710E+00  0.12130414585E+02  0.12478898395E+04  0.12479891521E+04  0.10000000000E+02 0. -1.
</event>
<event>
 5    1  0.1688215E-008  0.3805268E+03  0.7957747E-01  0.3448868E+00
         13   -1    0    0    0    0  0.00000000000E+00  0.00000000000E+00  0.14999999963E+04  0.15000000000E+04  0.10566000000E+00 0. -1.
        994   -1    0    0    0    0 -0.00000000000E+00 -0.00000000000E+00  0.11368683772E-12  0.17120000000E+03  0.17120000000E+03 0.  0.
         13    1    1    2    0    0 -0.38973503486E+01 -0.36407735572E+02  0.15923565019E+03  0.16339129721E+03  0.10566000000E+00 0. -1.
        994    1    1    2    0    0  0.13003274065E+02  0.31953671512E+02  0.78492402328E+01  0.17481754154E+03  0.17120000000E+03 0.  0.
        998    1    1    2    0    0 -0.91059237162E+01  0.44540640598E+01  0.13329151059E+04  0.13329911612E+04  0.10000000000E+02 0. -1.
</event>
<event>
 5    1  0.1688215E-008  0.3699461E+03  0.7957747E-01  0.3496139E+00
         13   -1    0    0    0    0  0.00000000000E+00  0.00000000000E+00  0.14999999963E+04  0.15000000000E+04  0.10566000000E+00 0.  1.
        994   -1    0    0    0    0 -0.00000000000E+00 -0.00000000000E+00  0.11368683772E-12  0.17120000000E+03  0.17120000000E+03 0.  0.
         13    1    1    2    0    0 -0.29614560048E+02  0.32694842017E+02  0.87867501896E+02  0.98319295740E+02  0.10566000000E+00 0.  1.
        994    1    1    2    0    0  0.14350283514E+02 -0.13506453440E+02  0.12268882590E+02  0.17276666461E+03  0.17120000000E+03 0.  0.
        998    1    1    2    0    0  0.15264276534E+02 -0.19188388577E+02  0.13998636118E+04  0.14001140396E+04  0.10000000000E+02 0.  1.
</event>
<event>
 5    1  0.1688215E-008  0.3813337E+03  0.7957747E-01  0.3445372E+00
         13   -1    0    0    0    0  0.00000000000E+00  0.00000000000E+00  0.14999999963E+04  0.15000000000E+04  0.10566000000E+00 0.  1.
        994   -1    0    0    0    0 -0.00000000000E+00 -0.00000000000E+00  0.11368683772E-12  0.17120000000E+03  0.17120000000E+03 0.  0.
         13    1    1    2    0    0  0.10157805615E+02  0.56976039047E+01  0.18329686789E+02  0.21717096652E+02  0.10566000000E+00 0.  1.
        994    1    1    2    0    0 -0.67961835416E+01  0.15899325358E+01  0.36235521575E+01  0.17138053018E+03  0.17120000000E+03 0.  0.
        998    1    1    2    0    0 -0.33616220739E+01 -0.72875364405E+01  0.14780467573E+04  0.14781023732E+04  0.10000000000E+02 0.  1.
</event>
<event>
 5    1  0.1688215E-008  0.2751053E+03  0.7957747E-01  0.4091513E+00
         13   -1    0    0    0    0  0.00000000000E+00  0.00000000000E+00  0.14999999963E+04  0.15000000000E+04  0.10566000000E+00 0.  1.
        994   -1    0    0    0    0 -0.00000000000E+00 -0.00000000000E+00  0.11368683772E-12  0.17120000000E+03  0.17120000000E+03 0.  0.
         13    1    1    2    0    0  0.56577168747E+01  0.14121664191E+03  0.66183733852E+03  0.67675905870E+03  0.10566000000E+00 0.  1.
        994    1    1    2    0    0  0.62897141483E+02 -0.41178617718E+02  0.45424343188E+02  0.19241761852E+03  0.17120000000E+03 0.  0.
        998    1    1    2    0    0 -0.68554858357E+02 -0.10003802419E+03  0.79273831457E+03  0.80202332278E+03  0.10000000000E+02 0.  1.
</event>
<event>
 5    1  0.1688215E-008  0.3777428E+03  0.7957747E-01  0.3461046E+00
         13   -1    0    0    0    0  0.00000000000E+00  0.00000000000E+00  0.14999999963E+04  0.15000000000E+04  0.10566000000E+00 0.  1.
        994   -1    0    0    0    0 -0.00000000000E+00 -0.00000000000E+00  0.11368683772E-12  0.17120000000E+03  0.17120000000E+03 0.  0.
         13    1    1    2    0    0 -0.40558414320E+01 -0.15653580774E+02  0.22460285088E+02  0.27675982567E+02  0.10566000000E+00 0.  1.
        994    1    1    2    0    0  0.85610984053E+01  0.11115352131E+02  0.59401738017E+01  0.17187661017E+03  0.17120000000E+03 0.  0.
        998    1    1    2    0    0 -0.45052569734E+01  0.45382286429E+01  0.14715995374E+04  0.14716474073E+04  0.10000000000E+02 0.  1.
</event>
<event>
 5    1  0.1688215E-008  0.3796863E+03  0.7957747E-01  0.3452526E+00
         13   -1    0    0    0    0  0.00000000000E+00  0.00000000000E+00  0.14999999963E+04  0.15000000000E+04  0.10566000000E+00 0. -1.
        994   -1    0    0    0    0 -0.00000000000E+00 -0.00000000000E+00  0.11368683772E-12  0.17120000000E+03  0.17120000000E+03 0.  0.
         13    1    1    2    0    0  0.41658991766E+01 -0.23691451138E+02  0.65581470724E+02  0.69853990862E+02  0.10566000000E+00 0. -1.
        994    1    1    2    0    0 -0.19634607103E+02  0.13192899455E+02  0.61663724605E+01  0.17293650436E+03  0.17120000000E+03 0.  0.
        998    1    1    2    0    0  0.15468707926E+02  0.10498551683E+02  0.14282521531E+04  0.14284095048E+04  0.10000000000E+02 0. -1.
</event>
<event>
 5    1  0.1688215E-008  0.3809432E+03  0.7957747E-01  0.3447062E+00
         13   -1    0    0    0    0  0.00000000000E+00  0.00000000000E+00  0.14999999963E+04  0.15000000000E+04  0.10566000000E+00 0. -1.
        994   -1    0    0    0    0 -0.00000000000E+00 -0.00000000000E+00  0.11368683772E-12  0.17120000000E+03  0.17120000000E+03 0.  0.
         13    1    1    2    0    0 -0.53410560077E+02 -0.65216245377E+01  0.29769167423E+03  0.30251539396E+03  0.10566000000E+00 0. -1.
        994    1    1    2    0    0  0.59664758357E+02  0.12421276417E+02  0.16136007814E+02  0.18243898225E+03  0.17120000000E+03 0.  0.
        998    1    1    2    0    0 -0.62541982806E+01 -0.58996518789E+01  0.11861723142E+04  0.11862456238E+04  0.10000000000E+02 0. -1.
</event>
<event>
 5    1  0.1688215E-008  0.3853621E+03  0.7957747E-01  0.3428138E+00
         13   -1    0    0    0    0  0.00000000000E+00  0.00000000000E+00  0.14999999963E+04  0.15000000000E+04  0.10566000000E+00 0. -1.
        994   -1    0    0    0    0 -0.00000000000E+00 -0.00000000000E+00  0.11368683772E-12  0.17120000000E+03  0.17120000000E+03 0.  0.
         13    1    1    2    0    0  0.18587625999E+01 -0.12556816449E+02  0.51217766126E+02  0.52767408205E+02  0.10566000000E+00 0. -1.
        994    1    1    2    0    0  0.14709338805E+01  0.23303388436E+02  0.32434327636E+01  0.17281542586E+03  0.17120000000E+03 0.  0.
        998    1    1    2    0    0 -0.33296964804E+01 -0.10746571987E+02  0.14455387974E+04  0.14456171659E+04  0.10000000000E+02 0. -1.
</event>
<event>
 5    1  0.1688215E-008  0.3814182E+03  0.7957747E-01  0.3445006E+00
         13   -1    0    0    0    0  0.00000000000E+00  0.00000000000E+00  0.14999999963E+04  0.15000000000E+04  0.10566000000E+00 0. -1.
        994   -1    0    0    0    0 -0.00000000000E+00 -0.00000000000E+00  0.11368683772E-12  0.17120000000E+03  0.17120000000E+03 0.  0.
         13    1    1    2    0    0  0.66344833614E+02  0.24989359523E+02  0.37728595409E+03  0.38388905605E+03  0.10566000000E+00 0. -1.
        994    1    1    2    0    0 -0.10567710780E+03 -0.17184208175E+02  0.42549531479E+02  0.20635612603E+03  0.17120000000E+03 0.  0.
        998    1    1    2    0    0  0.39332274183E+02 -0.78051513479E+01  0.10801645107E+04  0.10809548179E+04  0.10000000000E+02 0.  1.
</event>
<event>
 5    1  0.1688215E-008  0.3803859E+03  0.7957747E-01  0.3449480E+00
         13   -1    0    0    0    0  0.00000000000E+00  0.00000000000E+00  0.14999999963E+04  0.15000000000E+04  0.10566000000E+00 0. -1.
        994   -1    0    0    0    0 -0.00000000000E+00 -0.00000000000E+00  0.11368683772E-12  0.17120000000E+03  0.17120000000E+03 0.  0.
         13    1    1    2    0    0 -0.28641081798E+02 -0.10667106070E+02  0.10989972085E+03  0.11407041038E+03  0.10566000000E+00 0. -1.
        994    1    1    2    0    0  0.29816163866E+02  0.66704454119E+01  0.70613851942E+01  0.17404827385E+03  0.17120000000E+03 0.  0.
        998    1    1    2    0    0 -0.11750820674E+01  0.39966606577E+01  0.13830388902E+04  0.13830813158E+04  0.10000000000E+02 0. -1.
</event>
<event>
 5    1  0.1688215E-008  0.3828434E+03  0.7957747E-01  0.3438870E+00
         13   -1    0    0    0    0  0.00000000000E+00  0.00000000000E+00  0.14999999963E+04  0.15000000000E+04  0.10566000000E+00 0.  1.
        994   -1    0    0    0    0 -0.00000000000E+00 -0.00000000000E+00  0.11368683772E-12  0.17120000000E+03  0.17120000000E+03 0.  0.
         13    1    1    2    0    0  0.10036791825E+02  0.50747866994E+01  0.22488764152E+02  0.25144508890E+02  0.10566000000E+00 0.  1.
        994    1    1    2    0    0 -0.42452863592E+01 -0.59154937517E+01  0.28802292720E+01  0.17137896966E+03  0.17120000000E+03 0.  0.
        998    1    1    2    0    0 -0.57915054656E+01  0.84070705236E+00  0.14746310029E+04  0.14746765214E+04  0.10000000000E+02 0.  1.
</event>
<event>
 5    1  0.1688215E-008  0.3835257E+03  0.7957747E-01  0.3435949E+00
         13   -1    0    0    0    0  0.00000000000E+00  0.00000000000E+00  0.14999999963E+04  0.15000000000E+04  0.10566000000E+00 0.  1.
        994   -1    0    0    0    0 -0.00000000000E+00 -0.00000000000E+00  0.11368683772E-12  0.17120000000E+03  0.17120000000E+03 0.  0.
         13    1    1    2    0    0 -0.18248721631E+02  0.10426589533E+02  0.10883074339E+03  0.11084165048E+03  0.10566000000E+00 0.  1.
        994    1    1    2    0    0 -0.14763876700E+02 -0.77987511331E+01  0.32856546662E+01  0.17204368079E+03  0.17120000000E+03 0.  0.
        998    1    1    2    0    0  0.33012598332E+02 -0.26278383996E+01  0.13878835982E+04  0.13883146687E+04  0.10000000000E+02 0.  1.
</event>
<event>
 5    1  0.1688215E-008  0.3860216E+03  0.7957747E-01  0.3425351E+00
         13   -1    0    0    0    0  0.00000000000E+00  0.00000000000E+00  0.14999999963E+04  0.15000000000E+04  0.10566000000E+00 0. -1.
        994   -1    0    0    0    0 -0.00000000000E+00 -0.00000000000E+00  0.11368683772E-12  0.17120000000E+03  0.17120000000E+03 0.  0.
         13    1    1    2    0    0  0.60344704229E+01  0.11716369521E+02  0.76807162893E+02  0.77929709250E+02  0.10566000000E+00 0. -1.
        994    1    1    2    0    0  0.20685326887E+01 -0.13395581962E+02  0.17262073739E+01  0.17174440380E+03  0.17120000000E+03 0.  0.
        998    1    1    2    0    0 -0.81030031116E+01  0.16792124413E+01  0.14214666260E+04  0.14215258870E+04  0.10000000000E+02 0. -1.
</event>
<event>
 5    1  0.1688215E-008  0.3426055E+03  0.7957747E-01  0.3632114E+00
         13   -1    0    0    0    0  0.00000000000E+00  0.00000000000E+00  0.14999999963E+04  0.15000000000E+04  0.10566000000E+00 0. -1.
        994   -1    0    0    0    0 -0.00000000000E+00 -0.00000000000E+00  0.11368683772E-12  0.17120000000E+03  0.17120000000E+03 0.  0.
         13    1    1    2    0    0 -0.25734834649E+03  0.10916618150E+03  0.76926319463E+03  0.81848109349E+03  0.10566000000E+00 0. -1.
        994    1    1    2    0    0  0.23549477147E+03 -0.11831810263E+03  0.34715735824E+03  0.46827837039E+03  0.17120000000E+03 0.  0.
        998    1    1    2    0    0  0.21853575024E+02  0.91519211372E+01  0.38357944341E+03  0.38444053611E+03  0.10000000000E+02 0. -1.
</event>
<event>
 5    1  0.1688215E-008  0.3815909E+03  0.7957747E-01  0.3444260E+00
         13   -1    0    0    0    0  0.00000000000E+00  0.00000000000E+00  0.14999999963E+04  0.15000000000E+04  0.10566000000E+00 0.  1.
        994   -1    0    0    0    0 -0.00000000000E+00 -0.00000000000E+00  0.11368683772E-12  0.17120000000E+03  0.17120000000E+03 0.  0.
         13    1    1    2    0    0  0.18302255496E+02  0.13325909493E+01  0.58860459880E+02  0.61654791024E+02  0.10566000000E+00 0.  1.
        994    1    1    2    0    0  0.24143207760E+02  0.34411644102E+02  0.92308272447E+01  0.17652677956E+03  0.17120000000E+03 0.  0.
        998    1    1    2    0    0 -0.42445463257E+02 -0.35744235051E+02  0.14319087092E+04  0.14330184294E+04  0.10000000000E+02 0.  1.
</event>
<event>
 5    1  0.1688215E-008  0.3857119E+03  0.7957747E-01  0.3426659E+00
         13   -1    0    0    0    0  0.00000000000E+00  0.00000000000E+00  0.14999999963E+04  0.15000000000E+04  0.10566000000E+00 0.  1.
        994   -1    0    0    0    0 -0.00000000000E+00 -0.00000000000E+00  0.11368683772E-12  0.17120000000E+03  0.17120000000E+03 0.  0.
         13    1    1    2    0    0 -0.73769460386E+02  0.11951387026E+02  0.17631821783E+03  0.19150168156E+03  0.10566000000E+00 0.  1.
        994    1    1    2    0    0 -0.18685229957E+02 -0.28579303356E+01  0.20824375299E+02  0.17349466906E+03  0.17120000000E+03 0.  0.
        998    1    1    2    0    0  0.92454690344E+02 -0.90934566902E+01  0.13028574032E+04  0.13062036494E+04  0.10000000000E+02 0.  1.
</event>
<event>
 5    1  0.1688215E-008  0.3995302E+03  0.7957747E-01  0.3370292E+00
         13   -1    0    0    0    0  0.00000000000E+00  0.00000000000E+00  0.14999999963E+04  0.15000000000E+04  0.10566000000E+00 0. -1.
        994   -1    0    0    0    0 -0.00000000000E+00 -0.00000000000E+00  0.11368683772E-12  0.17120000000E+03  0.17120000000E+03 0.  0.
         13    1    1    2    0    0  0.15646801672E+02 -0.94378413520E+00 -0.79315930432E+01  0.17567995426E+02  0.10566000000E+00 0. -1.
        994    1    1    2    0    0 -0.25433311411E+02  0.13066483602E+01  0.30036565587E+02  0.17567070311E+03  0.17120000000E+03 0.  0.
        998    1    1    2    0    0  0.97865097397E+01 -0.36286422499E+00  0.14778950237E+04  0.14779613015E+04  0.10000000000E+02 0. -1.
</event>
<event>
 5    1  0.1688215E-008  0.3853669E+03  0.7957747E-01  0.3428118E+00
         13   -1    0    0    0    0  0.00000000000E+00  0.00000000000E+00  0.14999999963E+04  0.15000000000E+04  0.10566000000E+00 0. -1.
        994   -1    0    0    0    0 -0.00000000000E+00 -0.00000000000E+00  0.11368683772E-12  0.17120000000E+03  0.17120000000E+03 0.  0.
         13    1    1    2    0    0 -0.43719560258E+02  0.22640594264E+02  0.54164527038E+02  0.73197019141E+02  0.10566000000E+00 0. -1.
        994    1    1    2    0    0  0.39677809449E+02 -0.25907493813E+02  0.27654120065E+02  0.17977685378E+03  0.17120000000E+03 0.  0.
        998    1    1    2    0    0  0.40417508089E+01  0.32668995486E+01  0.14181813492E+04  0.14182261271E+04  0.10000000000E+02 0. -1.
</event>
<event>
 5    1  0.1688215E-008  0.3764612E+03  0.7957747E-01  0.3466713E+00
         13   -1    0    0    0    0  0.00000000000E+00  0.00000000000E+00  0.14999999963E+04  0.15000000000E+04  0.10566000000E+00 0. -1.
        994   -1    0    0    0    0 -0.00000000000E+00 -0.00000000000E+00  0.11368683772E-12  0.17120000000E+03  0.17120000000E+03 0.  0.
         13    1    1    2    0    0 -0.14685872307E+02  0.58433072433E+01  0.18278694357E+02  0.24164869468E+02  0.10566000000E+00 0. -1.
        994    1    1    2    0    0  0.15404588736E+02 -0.54806946893E+01  0.68350718419E+01  0.17211478024E+03  0.17120000000E+03 0.  0.
        998    1    1    2    0    0 -0.71871642852E+00 -0.36261255394E+00  0.14748862301E+04  0.14749203503E+04  0.10000000000E+02 0. -1.
</event>
<event>
 5    1  0.1688215E-008  0.3760365E+03  0.7957747E-01  0.3468600E+00
         13   -1    0    0    0    0  0.00000000000E+00  0.00000000000E+00  0.14999999963E+04  0.15000000000E+04  0.10566000000E+00 0.  1.
        994   -1    0    0    0    0 -0.00000000000E+00 -0.00000000000E+00  0.11368683772E-12  0.17120000000E+03  0.17120000000E+03 0.  0.
         13    1    1    2    0    0  0.64527803477E+01  0.27825100978E+02  0.61196380253E+02  0.67534307865E+02  0.10566000000E+00 0.  1.
        994    1    1    2    0    0 -0.30487204085E+02 -0.24984178379E+02  0.11428466580E+02  0.17605035822E+03  0.17120000000E+03 0.  0.
        998    1    1    2    0    0  0.24034423738E+02 -0.28409225990E+01  0.14273751494E+04  0.14276153339E+04  0.10000000000E+02 0.  1.
</event>
<event>
 5    1  0.1688215E-008  0.3744704E+03  0.7957747E-01  0.3475595E+00
         13   -1    0    0    0    0  0.00000000000E+00  0.00000000000E+00  0.14999999963E+04  0.15000000000E+04  0.10566000000E+00 0. -1.
        994   -1    0    0    0    0 -0.00000000000E+00 -0.00000000000E+00  0.11368683772E-12  0.17120000000E+03  0.17120000000E+03 0.  0.
         13    1    1    2    0    0 -0.22743780632E+02  0.79748840100E+01  0.38136785772E+02  0.45114342791E+02  0.10566000000E+00 0. -1.
        994    1    1    2    0    0  0.20790125270E+02 -0.13362681558E+02  0.90336571933E+01  0.17321038517E+03  0.17120000000E+03 0.  0.
        998    1    1    2    0    0  0.19536553623E+01  0.53877975482E+01  0.14528295533E+04  0.14528752720E+04  0.10000000000E+02 0. -1.
</event>
<event>
 5    1  0.1688215E-008  0.3815874E+03  0.7957747E-01  0.3444276E+00
         13   -1    0    0    0    0  0.00000000000E+00  0.00000000000E+00  0.14999999963E+04  0.15000000000E+04  0.10566000000E+00 0.  1.
        994   -1    0    0    0    0 -0.00000000000E+00 -0.00000000000E+00  0.11368683772E-12  0.17120000000E+03  0.17120000000E+03 0.  0.
         13    1    1    2    0    0 -0.36278757768E+02  0.22485386514E+02  0.22283401239E+03  0.22688488075E+03  0.10566000000E+00 0.  1.
        994    1    1    2    0    0  0.39087374107E+02 -0.28837269916E+02  0.11220218325E+02  0.17831080800E+03  0.17120000000E+03 0.  0.
        998    1    1    2    0    0 -0.28086163392E+01  0.63518834022E+01  0.12659457656E+04  0.12660043113E+04  0.10000000000E+02 0.  1.
</event>
<event>
 5    1  0.1688215E-008  0.3844907E+03  0.7957747E-01  0.3431835E+00
         13   -1    0    0    0    0  0.00000000000E+00  0.00000000000E+00  0.14999999963E+04  0.15000000000E+04  0.10566000000E+00 0.  1.
        994   -1    0    0    0    0 -0.00000000000E+00 -0.00000000000E+00  0.11368683772E-12  0.17120000000E+03  0.17120000000E+03 0.  0.
         13    1    1    2    0    0 -0.48073176885E+01  0.14883521588E+02  0.61716770367E+02  0.63667891647E+02  0.10566000000E+00 0.  1.
        994    1    1    2    0    0  0.52318912465E+01 -0.17791236808E+02  0.30168404371E+01  0.17222787846E+03  0.17120000000E+03 0.  0.
        998    1    1    2    0    0 -0.42457355799E+00  0.29077152203E+01  0.14352663855E+04  0.14353042299E+04  0.10000000000E+02 0.  1.
</event>
<event>
 5    1  0.1688215E-008  0.3815712E+03  0.7957747E-01  0.3444346E+00
         13   -1    0    0    0    0  0.00000000000E+00  0.00000000000E+00  0.14999999963E+04  0.15000000000E+04  0.10566000000E+00 0.  1.
        994   -1    0    0    0    0 -0.00000000000E+00 -0.00000000000E+00  0.11368683772E-12  0.17120000000E+03  0.17120000000E+03 0.  0.
         13    1    1    2    0    0 -0.19922965414E+02  0.17483901303E+02  0.11301596949E+03  0.11608286643E+03  0.10566000000E+00 0.  1.
        994    1    1    2    0    0  0.56444741546E+01  0.26149469841E+01  0.34708204254E+01  0.17134813868E+03  0.17120000000E+03 0.  0.
        998    1    1    2    0    0  0.14278491259E+02 -0.20098848287E+02  0.13835132064E+04  0.13837689949E+04  0.10000000000E+02 0.  1.
</event>
<event>
 5    1  0.1688215E-008  0.3753303E+03  0.7957747E-01  0.3471747E+00
         13   -1    0    0    0    0  0.00000000000E+00  0.00000000000E+00  0.14999999963E+04  0.15000000000E+04  0.10566000000E+00 0. -1.
        994   -1    0    0    0    0 -0.00000000000E+00 -0.00000000000E+00  0.11368683772E-12  0.17120000000E+03  0.17120000000E+03 0.  0.
         13    1    1    2    0    0 -0.73644373995E+02 -0.38419863615E+01  0.34901702495E+03  0.35672279091E+03  0.10566000000E+00 0. -1.
        994    1    1    2    0    0  0.66192704420E+02  0.63448298854E+02  0.35612827539E+02  0.19744587671E+03  0.17120000000E+03 0.  0.
        998    1    1    2    0    0  0.74516695753E+01 -0.59606312493E+02  0.11153701438E+04  0.11170313324E+04  0.10000000000E+02 0. -1.
</event>
<event>
 5    1  0.1688215E-008  0.3788704E+03  0.7957747E-01  0.3456092E+00
         13   -1    0    0    0    0  0.00000000000E+00  0.00000000000E+00  0.14999999963E+04  0.15000000000E+04  0.10566000000E+00 0. -1.
        994   -1    0    0    0    0 -0.00000000000E+00 -0.00000000000E+00  0.11368683772E-12  0.17120000000E+03  0.17120000000E+03 0.  0.
         13    1    1    2    0    0 -0.26276237857E+01  0.12017717245E+02  0.13991922067E+02  0.18631022025E+02  0.10566000000E+00 0. -1.
        994    1    1    2    0    0  0.85864708311E+01 -0.83781887513E+01  0.51875223733E+01  0.17169820010E+03  0.17120000000E+03 0.  0.
        998    1    1    2    0    0 -0.59588470453E+01 -0.36395284939E+01  0.14808205518E+04  0.14808707779E+04  0.10000000000E+02 0. -1.
</event>
<event>
 5    1  0.1688215E-008  0.3802389E+03  0.7957747E-01  0.3450119E+00
         13   -1    0    0    0    0  0.00000000000E+00  0.00000000000E+00  0.14999999963E+04  0.15000000000E+04  0.10566000000E+00 0.  1.
        994   -1    0    0    0    0 -0.00000000000E+00 -0.00000000000E+00  0.11368683772E-12  0.17120000000E+03  0.17120000000E+03 0.  0.
         13    1    1    2    0    0  0.13081227549E+02 -0.15702000672E+02  0.52856489630E+02  0.56670018522E+02  0.10566000000E+00 0.  1.
        994    1    1    2    0    0  0.92379671744E+01  0.10284194001E+02  0.46512060158E+01  0.17182019206E+03  0.17120000000E+03 0.  0.
        998    1    1    2    0    0 -0.22319194723E+02  0.54178066711E+01  0.14424923006E+04  0.14427097894E+04  0.10000000000E+02 0.  1.
</event>
<event>
 5    1  0.1688215E-008  0.3764982E+03  0.7957747E-01  0.3466549E+00
         13   -1    0    0    0    0  0.00000000000E+00  0.00000000000E+00  0.14999999963E+04  0.15000000000E+04  0.10566000000E+00 0. -1.
        994   -1    0    0    0    0 -0.00000000000E+00 -0.00000000000E+00  0.11368683772E-12  0.17120000000E+03  0.17120000000E+03 0.  0.
         13    1    1    2    0    0  0.65760735780E+01 -0.15018885827E+02  0.19328919718E+02  0.25346202412E+02  0.10566000000E+00 0. -1.
        994    1    1    2    0    0 -0.87861316596E+01  0.28174545145E+02  0.88628182465E+01  0.17395111569E+03  0.17120000000E+03 0.  0.
        998    1    1    2    0    0  0.22100580815E+01 -0.13155659318E+02  0.14718082583E+04  0.14719026819E+04  0.10000000000E+02 0. -1.
</event>
<event>
 5    1  0.1688215E-008  0.3836755E+03  0.7957747E-01  0.3435309E+00
         13   -1    0    0    0    0  0.00000000000E+00  0.00000000000E+00  0.14999999963E+04  0.15000000000E+04  0.10566000000E+00 0.  1.
        994   -1    0    0    0    0 -0.00000000000E+00 -0.00000000000E+00  0.11368683772E-12  0.17120000000E+03  0.17120000000E+03 0.  0.
         13    1    1    2    0    0 -0.24907657934E+02  0.36731547232E+01  0.15120930176E+03  0.15329105516E+03  0.10566000000E+00 0.  1.
        994    1    1    2    0    0  0.42186487148E+01 -0.11045417716E+01  0.23519518770E+01  0.17127168093E+03  0.17120000000E+03 0.  0.
        998    1    1    2    0    0  0.20689009219E+02 -0.25686129516E+01  0.13464387426E+04  0.13466372639E+04  0.10000000000E+02 0.  1.
</event>
<event>
 5    1  0.1688215E-008  0.3862830E+03  0.7957747E-01  0.3424249E+00
         13   -1    0    0    0    0  0.00000000000E+00  0.00000000000E+00  0.14999999963E+04  0.15000000000E+04  0.10566000000E+00 0. -1.
        994   -1    0    0    0    0 -0.00000000000E+00 -0.00000000000E+00  0.11368683772E-12  0.17120000000E+03  0.17120000000E+03 0.  0.
         13    1    1    2    0    0  0.59519665352E+01 -0.89839762620E+01  0.57854492904E+02  0.58849734480E+02  0.10566000000E+00 0. -1.
        994    1    1    2    0    0  0.70119973808E+00  0.13407144782E+02  0.15850187663E+01  0.17173291908E+03  0.17120000000E+03 0.  0.
        998    1    1    2    0    0 -0.66531662732E+01 -0.44231685198E+01  0.14405604846E+04  0.14406173464E+04  0.10000000000E+02 0. -1.
</event>
<event>
 5    1  0.1688215E-008  0.3735077E+03  0.7957747E-01  0.3479924E+00
         13   -1    0    0    0    0  0.00000000000E+00  0.00000000000E+00  0.14999999963E+04  0.15000000000E+04  0.10566000000E+00 0. -1.
        994   -1    0    0    0    0 -0.00000000000E+00 -0.00000000000E+00  0.11368683772E-12  0.17120000000E+03  0.17120000000E+03 0.  0.
         13    1    1    2    0    0 -0.15279936608E+02 -0.11265342370E+02  0.20435061521E+02  0.27892423789E+02  0.10566000000E+00 0. -1.
        994    1    1    2    0    0  0.11796922271E+02  0.25807786170E+02  0.10202879810E+02  0.17383540479E+03  0.17120000000E+03 0.  0.
        998    1    1    2    0    0  0.34830143365E+01 -0.14542443799E+02  0.14693620549E+04  0.14694721714E+04  0.10000000000E+02 0. -1.
</event>
<event>
 5    1  0.1688215E-008  0.3838853E+03  0.7957747E-01  0.3434413E+00
         13   -1    0    0    0    0  0.00000000000E+00  0.00000000000E+00  0.14999999963E+04  0.15000000000E+04  0.10566000000E+00 0.  1.
        994   -1    0    0    0    0 -0.00000000000E+00 -0.00000000000E+00  0.11368683772E-12  0.17120000000E+03  0.17120000000E+03 0.  0.
         13    1    1    2    0    0  0.40972228580E+01 -0.10598875672E+02  0.29042595971E+02  0.31186646909E+02  0.10566000000E+00 0.  1.
        994    1    1    2    0    0  0.83979454292E+00  0.74674857264E+01  0.23709717921E+01  0.17138124199E+03  0.17120000000E+03 0.  0.
        998    1    1    2    0    0 -0.49370174009E+01  0.31313899457E+01  0.14685864285E+04  0.14686321111E+04  0.10000000000E+02 0.  1.
</event>
<event>
 5    1  0.1688215E-008  0.3814375E+03  0.7957747E-01  0.3444923E+00
         13   -1    0    0    0    0  0.00000000000E+00  0.00000000000E+00  0.14999999963E+04  0.15000000000E+04  0.10566000000E+00 0.  1.
        994   -1    0    0    0    0 -0.00000000000E+00 -0.00000000000E+00  0.11368683772E-12  0.17120000000E+03  0.17120000000E+03 0.  0.
         13    1    1    2    0    0  0.25021044312E+01  0.31298912509E+02  0.13655046129E+03  0.14011396109E+03  0.10566000000E+00 0.  1.
        994    1    1    2    0    0  0.60806284058E+01 -0.26882960653E+02  0.59408399985E+01  0.17350619930E+03  0.17120000000E+03 0.  0.
        998    1    1    2    0    0 -0.85827328371E+01 -0.44159518565E+01  0.13575086950E+04  0.13575798396E+04  0.10000000000E+02 0.  1.
</event>
<event>
 5    1  0.1688215E-008  0.3831001E+03  0.7957747E-01  0.3437770E+00
         13   -1    0    0    0    0  0.00000000000E+00  0.00000000000E+00  0.14999999963E+04  0.15000000000E+04  0.10566000000E+00 0. -1.
        994   -1    0    0    0    0 -0.00000000000E+00 -0.00000000000E+00  0.11368683772E-12  0.17120000000E+03  0.17120000000E+03 0.  0.
         13    1    1    2    0    0  0.18745602120E+02 -0.25002087548E+01  0.67495303075E+02  0.70094762600E+02  0.10566000000E+00 0. -1.
        994    1    1    2    0    0 -0.15714552690E+02 -0.50455656058E+00  0.33947807544E+01  0.17195396558E+03  0.17120000000E+03 0.  0.
        998    1    1    2    0    0 -0.30310494292E+01  0.30047653153E+01  0.14291099124E+04  0.14291512718E+04  0.10000000000E+02 0. -1.
</event>
<event>
 5    1  0.1688215E-008  0.3695394E+03  0.7957747E-01  0.3498011E+00
         13   -1    0    0    0    0  0.00000000000E+00  0.00000000000E+00  0.14999999963E+04  0.15000000000E+04  0.10566000000E+00 0.  1.
        994   -1    0    0    0    0 -0.00000000000E+00 -0.00000000000E+00  0.11368683772E-12  0.17120000000E+03  0.17120000000E+03 0.  0.
         13    1    1    2    0    0  0.52902916055E+01 -0.58978947140E+02  0.31219909366E+03  0.31776530433E+03  0.10566000000E+00 0.  1.
        994    1    1    2    0    0 -0.35562711748E+02 -0.60550762646E+02  0.28110817252E+02  0.18716505916E+03  0.17120000000E+03 0.  0.
        998    1    1    2    0    0  0.30272420143E+02  0.11952970979E+03  0.11596900854E+04  0.11662696365E+04  0.10000000000E+02 0.  1.
</event>
<event>
 5    1  0.1969497E-008  0.3859202E+03  0.7957747E-01  0.3425779E+00
         13   -1    0    0    0    0  0.00000000000E+00  0.00000000000E+00  0.14999999963E+04  0.15000000000E+04  0.10566000000E+00 0.  1.
        994   -1    0    0    0    0 -0.00000000000E+00 -0.00000000000E+00  0.11368683772E-12  0.17120000000E+03  0.17120000000E+03 0.  0.
         13    1    1    2    0    0 -0.71446062949E+01  0.92356075288E+01  0.56963105526E+02  0.58147643123E+02  0.10566000000E+00 0.  1.
        994    1    1    2    0    0  0.58062788988E+01 -0.10839457572E+02  0.16698997184E+01  0.17164916335E+03  0.17120000000E+03 0.  0.
        998    1    1    2    0    0  0.13383273961E+01  0.16038500436E+01  0.14413669910E+04  0.14414031935E+04  0.10000000000E+02 0.  1.
</event>
<event>
 5    1  0.1688215E-008  0.3763649E+03  0.7957747E-01  0.3467141E+00
         13   -1    0    0    0    0  0.00000000000E+00  0.00000000000E+00  0.14999999963E+04  0.15000000000E+04  0.10566000000E+00 0. -1.
        994   -1    0    0    0    0 -0.00000000000E+00 -0.00000000000E+00  0.11368683772E-12  0.17120000000E+03  0.17120000000E+03 0.  0.
         13    1    1    2    0    0 -0.76862645896E+02 -0.44173232756E+02  0.22204391281E+03  0.23908712054E+03  0.10566000000E+00 0. -1.
        994    1    1    2    0    0  0.79759616288E+02  0.51067809256E+02  0.47160229172E+02  0.20125368257E+03  0.17120000000E+03 0.  0.
        998    1    1    2    0    0 -0.28969703919E+01 -0.68945764999E+01  0.12307958543E+04  0.12308591969E+04  0.10000000000E+02 0. -1.
</event>
<event>
 5    1  0.1688215E-008  0.3818249E+03  0.7957747E-01  0.3443251E+00
         13   -1    0    0    0    0  0.00000000000E+00  0.00000000000E+00  0.14999999963E+04  0.15000000000E+04  0.10566000000E+00 0.  1.
        994   -1    0    0    0    0 -0.00000000000E+00 -0.00000000000E+00  0.11368683772E-12  0.17120000000E+03  0.17120000000E+03 0.  0.
         13    1    1    2    0    0 -0.32242284461E+01  0.21065472654E+02  0.77429836325E+02  0.80309031276E+02  0.10566000000E+00 0.  1.
        994    1    1    2    0    0  0.17950589113E+01  0.76492599764E+01  0.34199297289E+01  0.17141432068E+03  0.17120000000E+03 0.  0.
        998    1    1    2    0    0  0.14291695349E+01 -0.28714732630E+02  0.14191502302E+04  0.14194766480E+04  0.10000000000E+02 0.  1.
</event>
<event>
 5    1  0.1688215E-008  0.3850022E+03  0.7957747E-01  0.3429663E+00
         13   -1    0    0    0    0  0.00000000000E+00  0.00000000000E+00  0.14999999963E+04  0.15000000000E+04  0.10566000000E+00 0.  1.
        994   -1    0    0    0    0 -0.00000000000E+00 -0.00000000000E+00  0.11368683772E-12  0.17120000000E+03  0.17120000000E+03 0.  0.
         13    1    1    2    0    0 -0.76825186309E+01  0.69568638055E+01  0.32703652018E+02  0.34306837013E+02  0.10566000000E+00 0.  1.
        994    1    1    2    0    0  0.48500788020E+01 -0.57914291788E+01  0.18167070078E+01  0.17137620704E+03  0.17120000000E+03 0.  0.
        998    1    1    2    0    0  0.28324398289E+01 -0.11654346267E+01  0.14654796373E+04  0.14655169559E+04  0.10000000000E+02 0.  1.
</event>
<event>
 5    1  0.1688215E-008  0.3831472E+03  0.7957747E-01  0.3437568E+00
         13   -1    0    0    0    0  0.00000000000E+00  0.00000000000E+00  0.14999999963E+04  0.15000000000E+04  0.10566000000E+00 0. -1.
        994   -1    0    0    0    0 -0.00000000000E+00 -0.00000000000E+00  0.11368683772E-12  0.17120000000E+03  0.17120000000E+03 0.  0.
         13    1    1    2    0    0  0.82803886281E+01  0.18194299753E+02  0.84328146672E+02  0.86665130615E+02  0.10566000000E+00 0. -1.
        994    1    1    2    0    0  0.35996733717E+01 -0.96702632180E-01  0.25957182702E+01  0.17125753926E+03  0.17120000000E+03 0.  0.
        998    1    1    2    0    0 -0.11880062000E+02 -0.18097597121E+02  0.14130761313E+04  0.14132773301E+04  0.10000000000E+02 0. -1.
</event>
<event>
 5    1  0.1688215E-008  0.3813406E+03  0.7957747E-01  0.3445342E+00
         13   -1    0    0    0    0  0.00000000000E+00  0.00000000000E+00  0.14999999963E+04  0.15000000000E+04  0.10566000000E+00 0. -1.
        994   -1    0    0    0    0 -0.00000000000E+00 -0.00000000000E+00  0.11368683772E-12  0.17120000000E+03  0.17120000000E+03 0.  0.
         13    1    1    2    0    0  0.31085424762E+02  0.96993854005E+01  0.16185394005E+03  0.16509721616E+03  0.10566000000E+00 0. -1.
        994    1    1    2    0    0 -0.57445430939E+01 -0.18414502854E+02  0.46973226183E+01  0.17234731948E+03  0.17120000000E+03 0.  0.
        998    1    1    2    0    0 -0.25340881668E+02  0.87151174540E+01  0.13334487336E+04  0.13337554644E+04  0.10000000000E+02 0. -1.
</event>
<event>
 5    1  0.1688215E-008  0.3796732E+03  0.7957747E-01  0.3452583E+00
         13   -1    0    0    0    0  0.00000000000E+00  0.00000000000E+00  0.14999999963E+04  0.15000000000E+04  0.10566000000E+00 0.  1.
        994   -1    0    0    0    0 -0.00000000000E+00 -0.00000000000E+00  0.11368683772E-12  0.17120000000E+03  0.17120000000E+03 0.  0.
         13    1    1    2    0    0  0.23591795950E+02 -0.35723387812E+02  0.21772246292E+03  0.22189144936E+03  0.10566000000E+00 0.  1.
        994    1    1    2    0    0  0.35702328689E+01  0.28115358205E+02  0.69908510876E+01  0.17367075726E+03  0.17120000000E+03 0.  0.
        998    1    1    2    0    0 -0.27162028818E+02  0.76080296066E+01  0.12752866823E+04  0.12756377934E+04  0.10000000000E+02 0. -1.
</event>
<event>
 5    1  0.1688215E-008  0.3856642E+03  0.7957747E-01  0.3426860E+00
         13   -1    0    0    0    0  0.00000000000E+00  0.00000000000E+00  0.14999999963E+04  0.15000000000E+04  0.10566000000E+00 0.  1.
        994   -1    0    0    0    0 -0.00000000000E+00 -0.00000000000E+00  0.11368683772E-12  0.17120000000E+03  0.17120000000E+03 0.  0.
         13    1    1    2    0    0 -0.72803863294E+01  0.10760499367E+02  0.62008378955E+02  0.63354894021E+02  0.10566000000E+00 0.  1.
        994    1    1    2    0    0  0.15616156928E+02 -0.92101350712E+01  0.23801136226E+01  0.17217373750E+03  0.17120000000E+03 0.  0.
        998    1    1    2    0    0 -0.83357705981E+01 -0.15503642953E+01  0.14356115037E+04  0.14356713685E+04  0.10000000000E+02 0.  1.
</event>
<event>
 5    1  0.1688215E-008  0.3832149E+03  0.7957747E-01  0.3437278E+00
         13   -1    0    0    0    0  0.00000000000E+00  0.00000000000E+00  0.14999999963E+04  0.15000000000E+04  0.10566000000E+00 0.  1.
        994   -1    0    0    0    0 -0.00000000000E+00 -0.00000000000E+00  0.11368683772E-12  0.17120000000E+03  0.17120000000E+03 0.  0.
         13    1    1    2    0    0  0.21208357473E+02  0.13113011220E+02  0.15033297600E+03  0.15238687715E+03  0.10566000000E+00 0.  1.
        994    1    1    2    0    0 -0.42225287208E+01  0.23277466020E+02  0.43724538042E+01  0.17288212321E+03  0.17120000000E+03 0.  0.
        998    1    1    2    0    0 -0.16985828752E+02 -0.36390477240E+02  0.13452945665E+04  0.13459309996E+04  0.10000000000E+02 0.  1.
</event>
<event>
 5    1  0.1688215E-008  0.3827598E+03  0.7957747E-01  0.3439229E+00
         13   -1    0    0    0    0  0.00000000000E+00  0.00000000000E+00  0.14999999963E+04  0.15000000000E+04  0.10566000000E+00 0. -1.
        994   -1    0    0    0    0 -0.00000000000E+00 -0.00000000000E+00  0.11368683772E-12  0.17120000000E+03  0.17120000000E+03 0.  0.
         13    1    1    2    0    0 -0.36460860619E+01 -0.16780051363E+02  0.50937162009E+02  0.53753787819E+02  0.10566000000E+00 0. -1.
        994    1    1    2    0    0 -0.41691694169E+00  0.20015759842E+02  0.40753283172E+01  0.17241476956E+03  0.17120000000E+03 0.  0.
        998    1    1    2    0    0  0.40630030036E+01 -0.32357084785E+01  0.14449875060E+04  0.14450314426E+04  0.10000000000E+02 0. -1.
</event>
<event>
 5    1  0.1688215E-008  0.3853610E+03  0.7957747E-01  0.3428143E+00
         13   -1    0    0    0    0  0.00000000000E+00  0.00000000000E+00  0.14999999963E+04  0.15000000000E+04  0.10566000000E+00 0. -1.
        994   -1    0    0    0    0 -0.00000000000E+00 -0.00000000000E+00  0.11368683772E-12  0.17120000000E+03  0.17120000000E+03 0.  0.
         13    1    1    2    0    0  0.32104644735E+01 -0.16090325494E+02  0.90169006466E+02  0.91649694749E+02  0.10566000000E+00 0. -1.
        994    1    1    2    0    0 -0.39877200045E+01  0.14162080226E+02  0.21623849854E+01  0.17184464593E+03  0.17120000000E+03 0.  0.
        998    1    1    2    0    0  0.77725553098E+00  0.19282452676E+01  0.14076686048E+04  0.14077056593E+04  0.10000000000E+02 0. -1.
</event>
<event>
 5    1  0.1688215E-008  0.3753087E+03  0.7957747E-01  0.3471843E+00
         13   -1    0    0    0    0  0.00000000000E+00  0.00000000000E+00  0.14999999963E+04  0.15000000000E+04  0.10566000000E+00 0. -1.
        994   -1    0    0    0    0 -0.00000000000E+00 -0.00000000000E+00  0.11368683772E-12  0.17120000000E+03  0.17120000000E+03 0.  0.
         13    1    1    2    0    0  0.32413908077E+02  0.22979628630E+02  0.51502723105E+02  0.65048185371E+02  0.10566000000E+00 0. -1.
        994    1    1    2    0    0 -0.27887534340E+02 -0.16343827831E+02  0.17504904229E+02  0.17510196159E+03  0.17120000000E+03 0.  0.
        998    1    1    2    0    0 -0.45263737364E+01 -0.66358007986E+01  0.14309923689E+04  0.14310498530E+04  0.10000000000E+02 0. -1.
</event>
<event>
 5    1  0.1688215E-008  0.3793671E+03  0.7957747E-01  0.3453919E+00
         13   -1    0    0    0    0  0.00000000000E+00  0.00000000000E+00  0.14999999963E+04  0.15000000000E+04  0.10566000000E+00 0. -1.
        994   -1    0    0    0    0 -0.00000000000E+00 -0.00000000000E+00  0.11368683772E-12  0.17120000000E+03  0.17120000000E+03 0.  0.
         13    1    1    2    0    0  0.44823004459E+02 -0.32536183158E+02  0.29683804305E+03  0.30196115629E+03  0.10566000000E+00 0. -1.
        994    1    1    2    0    0 -0.37789931506E+02  0.29585177877E+02  0.12208024105E+02  0.17821851061E+03  0.17120000000E+03 0.  0.
        998    1    1    2    0    0 -0.70330729523E+01  0.29510052808E+01  0.11909539291E+04  0.11910203331E+04  0.10000000000E+02 0. -1.
</event>
<event>
 5    1  0.1688215E-008  0.3851875E+03  0.7957747E-01  0.3428877E+00
         13   -1    0    0    0    0  0.00000000000E+00  0.00000000000E+00  0.14999999963E+04  0.15000000000E+04  0.10566000000E+00 0. -1.
        994   -1    0    0    0    0 -0.00000000000E+00 -0.00000000000E+00  0.11368683772E-12  0.17120000000E+03  0.17120000000E+03 0.  0.
         13    1    1    2    0    0 -0.95317882725E+01 -0.79962602214E+01  0.49374953751E+02  0.50918487675E+02  0.10566000000E+00 0. -1.
        994    1    1    2    0    0  0.58958187535E+01  0.11576812730E+02  0.20920148060E+01  0.17170497895E+03  0.17120000000E+03 0.  0.
        998    1    1    2    0    0  0.36359695190E+01 -0.35805525088E+01  0.14485330277E+04  0.14485765334E+04  0.10000000000E+02 0. -1.
</event>
<event>
 5    1  0.1688215E-008  0.3845982E+03  0.7957747E-01  0.3431378E+00
         13   -1    0    0    0    0  0.00000000000E+00  0.00000000000E+00  0.14999999963E+04  0.15000000000E+04  0.10566000000E+00 0. -1.
        994   -1    0    0    0    0 -0.00000000000E+00 -0.00000000000E+00  0.11368683772E-12  0.17120000000E+03  0.17120000000E+03 0.  0.
         13    1    1    2    0    0 -0.13624995195E+02  0.14064038032E+02  0.10903910556E+03  0.11078346160E+03  0.10566000000E+00 0. -1.
        994    1    1    2    0    0  0.10466664360E+02  0.17762085147E+00  0.21906989797E+01  0.17153373363E+03  0.17120000000E+03 0.  0.
        998    1    1    2    0    0  0.31583308350E+01 -0.14241658883E+02  0.13887701917E+04  0.13888828048E+04  0.10000000000E+02 0. -1.
</event>
<event>
 5    1  0.1688215E-008  0.3806040E+03  0.7957747E-01  0.3448533E+00
         13   -1    0    0    0    0  0.00000000000E+00  0.00000000000E+00  0.14999999963E+04  0.15000000000E+04  0.10566000000E+00 0.  1.
        994   -1    0    0    0    0 -0.00000000000E+00 -0.00000000000E+00  0.11368683772E-12  0.17120000000E+03  0.17120000000E+03 0.  0.
         13    1    1    2    0    0 -0.20143038990E+02 -0.87377404885E+01  0.64403249163E+02  0.68043220054E+02  0.10566000000E+00 0.  1.
        994    1    1    2    0    0  0.17723318810E+01  0.53699762931E+01  0.39352741554E+01  0.17133856597E+03  0.17120000000E+03 0.  0.
        998    1    1    2    0    0  0.18370707109E+02  0.33677641954E+01  0.14316614730E+04  0.14318182140E+04  0.10000000000E+02 0.  1.
</event>
<event>
 5    1  0.1688215E-008  0.3769193E+03  0.7957747E-01  0.3464683E+00
         13   -1    0    0    0    0  0.00000000000E+00  0.00000000000E+00  0.14999999963E+04  0.15000000000E+04  0.10566000000E+00 0.  1.
        994   -1    0    0    0    0 -0.00000000000E+00 -0.00000000000E+00  0.11368683772E-12  0.17120000000E+03  0.17120000000E+03 0.  0.
         13    1    1    2    0    0 -0.29944858266E+02  0.30114502887E+02  0.18824602526E+03  0.19297708416E+03  0.10566000000E+00 0.  1.
        994    1    1    2    0    0 -0.94987547044E+01 -0.34514918706E+01  0.60414573307E+01  0.17160442402E+03  0.17120000000E+03 0.  0.
        998    1    1    2    0    0  0.39443612970E+02 -0.26663011017E+02  0.13057125137E+04  0.13066184918E+04  0.10000000000E+02 0.  1.
</event>
<event>
 5    1  0.1688215E-008  0.3849155E+03  0.7957747E-01  0.3430031E+00
         13   -1    0    0    0    0  0.00000000000E+00  0.00000000000E+00  0.14999999963E+04  0.15000000000E+04  0.10566000000E+00 0. -1.
        994   -1    0    0    0    0 -0.00000000000E+00 -0.00000000000E+00  0.11368683772E-12  0.17120000000E+03  0.17120000000E+03 0.  0.
         13    1    1    2    0    0 -0.24803073749E+02 -0.47303549660E+01  0.15172688392E+03  0.15381361186E+03  0.10566000000E+00 0. -1.
        994    1    1    2    0    0  0.38940470174E+02  0.94256318793E+01  0.69704355347E+01  0.17596371707E+03  0.17120000000E+03 0.  0.
        998    1    1    2    0    0 -0.14137396425E+02 -0.46952769132E+01  0.13413026768E+04  0.13414226711E+04  0.10000000000E+02 0. -1.
</event>
<event>
 5    1  0.1688215E-008  0.3820502E+03  0.7957747E-01  0.3442280E+00
         13   -1    0    0    0    0  0.00000000000E+00  0.00000000000E+00  0.14999999963E+04  0.15000000000E+04  0.10566000000E+00 0. -1.
        994   -1    0    0    0    0 -0.00000000000E+00 -0.00000000000E+00  0.11368683772E-12  0.17120000000E+03  0.17120000000E+03 0.  0.
         13    1    1    2    0    0 -0.16554668285E+02  0.14352544772E+02  0.71749544949E+02  0.75020403544E+02  0.10566000000E+00 0. -1.
        994    1    1    2    0    0  0.19485693500E+02 -0.18030544908E+02  0.54454919171E+01  0.17333172296E+03  0.17120000000E+03 0.  0.
        998    1    1    2    0    0 -0.29310252159E+01  0.36780001356E+01  0.14228049594E+04  0.14228478735E+04  0.10000000000E+02 0. -1.
</event>
<event>
 5    1  0.1688215E-008  0.3699225E+03  0.7957747E-01  0.3496247E+00
         13   -1    0    0    0    0  0.00000000000E+00  0.00000000000E+00  0.14999999963E+04  0.15000000000E+04  0.10566000000E+00 0.  1.
        994   -1    0    0    0    0 -0.00000000000E+00 -0.00000000000E+00  0.11368683772E-12  0.17120000000E+03  0.17120000000E+03 0.  0.
         13    1    1    2    0    0  0.43958569963E+02 -0.14126255216E+03  0.66241115383E+03  0.67873117830E+03  0.10566000000E+00 0.  1.
        994    1    1    2    0    0 -0.19302354838E+02  0.14266001076E+03  0.84813526124E+02  0.23922214318E+03  0.17120000000E+03 0.  0.
        998    1    1    2    0    0 -0.24656215125E+02 -0.13974586050E+01  0.75277531633E+03  0.75324667852E+03  0.10000000000E+02 0.  1.
</event>
<event>
 5    1  0.1688215E-008  0.3788102E+03  0.7957747E-01  0.3456355E+00
         13   -1    0    0    0    0  0.00000000000E+00  0.00000000000E+00  0.14999999963E+04  0.15000000000E+04  0.10566000000E+00 0. -1.
        994   -1    0    0    0    0 -0.00000000000E+00 -0.00000000000E+00  0.11368683772E-12  0.17120000000E+03  0.17120000000E+03 0.  0.
         13    1    1    2    0    0 -0.30022908148E+01  0.35504118830E+02  0.13506215599E+03  0.13968304604E+03  0.10566000000E+00 0. -1.
        994    1    1    2    0    0 -0.14839265479E+02 -0.19221327250E+02  0.67164249100E+01  0.17304396431E+03  0.17120000000E+03 0.  0.
        998    1    1    2    0    0  0.17841556294E+02 -0.16282791580E+02  0.13582214154E+04  0.13584729897E+04  0.10000000000E+02 0. -1.
</event>
<event>
 5    1  0.1688215E-008  0.3775428E+03  0.7957747E-01  0.3461928E+00
         13   -1    0    0    0    0  0.00000000000E+00  0.00000000000E+00  0.14999999963E+04  0.15000000000E+04  0.10566000000E+00 0.  1.
        994   -1    0    0    0    0 -0.00000000000E+00 -0.00000000000E+00  0.11368683772E-12  0.17120000000E+03  0.17120000000E+03 0.  0.
         13    1    1    2    0    0 -0.58680282280E+01  0.20608868392E+02  0.39842323662E+02  0.45239154838E+02  0.10566000000E+00 0.  1.
        994    1    1    2    0    0  0.96456305050E+01 -0.18008116576E+02  0.67865090121E+01  0.17254804303E+03  0.17120000000E+03 0.  0.
        998    1    1    2    0    0 -0.37776022770E+01 -0.26007518162E+01  0.14533711636E+04  0.14534128021E+04  0.10000000000E+02 0.  1.
</event>
<event>
 5    1  0.1688215E-008  0.3746300E+03  0.7957747E-01  0.3474879E+00
         13   -1    0    0    0    0  0.00000000000E+00  0.00000000000E+00  0.14999999963E+04  0.15000000000E+04  0.10566000000E+00 0. -1.
        994   -1    0    0    0    0 -0.00000000000E+00 -0.00000000000E+00  0.11368683772E-12  0.17120000000E+03  0.17120000000E+03 0.  0.
         13    1    1    2    0    0  0.36832932719E+02 -0.28545357597E+02  0.18392540286E+03  0.18973683710E+03  0.10566000000E+00 0. -1.
        994    1    1    2    0    0  0.17690800675E+02  0.21694972216E+02  0.95405060524E+01  0.17373571165E+03  0.17120000000E+03 0.  0.
        998    1    1    2    0    0 -0.54523733395E+02  0.68503853808E+01  0.13065340874E+04  0.13077274512E+04  0.10000000000E+02 0. -1.
</event>
<event>
 5    1  0.1688215E-008  0.2064610E+03  0.7957747E-01  0.4924021E+00
         13   -1    0    0    0    0  0.00000000000E+00  0.00000000000E+00  0.14999999963E+04  0.15000000000E+04  0.10566000000E+00 0. -1.
        994   -1    0    0    0    0 -0.00000000000E+00 -0.00000000000E+00  0.11368683772E-12  0.17120000000E+03  0.17120000000E+03 0.  0.
         13    1    1    2    0    0  0.70620727830E+02 -0.42045106415E+02  0.24727055575E+02  0.85828413793E+02  0.10566000000E+00 0. -1.
        994    1    1    2    0    0 -0.61405054046E+02  0.32153165696E+02  0.10007089234E+03  0.21006672802E+03  0.17120000000E+03 0.  0.
        998    1    1    2    0    0 -0.92156737846E+01  0.98919407188E+01  0.13752020484E+04  0.13753048582E+04  0.10000000000E+02 0. -1.
</event>
<event>
 5    1  0.1688215E-008  0.3784838E+03  0.7957747E-01  0.3457787E+00
         13   -1    0    0    0    0  0.00000000000E+00  0.00000000000E+00  0.14999999963E+04  0.15000000000E+04  0.10566000000E+00 0. -1.
        994   -1    0    0    0    0 -0.00000000000E+00 -0.00000000000E+00  0.11368683772E-12  0.17120000000E+03  0.17120000000E+03 0.  0.
         13    1    1    2    0    0  0.17620285363E+01 -0.17867798969E+02  0.30663543032E+02  0.35533463381E+02  0.10566000000E+00 0. -1.
        994    1    1    2    0    0 -0.41184774572E+01  0.14600739629E+02  0.56740895284E+01  0.17196446943E+03  0.17120000000E+03 0.  0.
        998    1    1    2    0    0  0.23564489209E+01  0.32670593395E+01  0.14636623637E+04  0.14637020672E+04  0.10000000000E+02 0. -1.
</event>
<event>
 5    1  0.1688215E-008  0.3808950E+03  0.7957747E-01  0.3447271E+00
         13   -1    0    0    0    0  0.00000000000E+00  0.00000000000E+00  0.14999999963E+04  0.15000000000E+04  0.10566000000E+00 0. -1.
        994   -1    0    0    0    0 -0.00000000000E+00 -0.00000000000E+00  0.11368683772E-12  0.17120000000E+03  0.17120000000E+03 0.  0.
         13    1    1    2    0    0  0.64937434164E+01 -0.31717527520E+02  0.13789400982E+03  0.14164370570E+03  0.10566000000E+00 0. -1.
        994    1    1    2    0    0 -0.13707552713E+02  0.20578796427E+02  0.57224686299E+01  0.17307099847E+03  0.17120000000E+03 0.  0.
        998    1    1    2    0    0  0.72138092968E+01  0.11138731093E+02  0.13563835178E+04  0.13564852958E+04  0.10000000000E+02 0. -1.
</event>
<event>
 5    1  0.1688215E-008  0.3846574E+03  0.7957747E-01  0.3431127E+00
         13   -1    0    0    0    0  0.00000000000E+00  0.00000000000E+00  0.14999999963E+04  0.15000000000E+04  0.10566000000E+00 0. -1.
        994   -1    0    0    0    0 -0.00000000000E+00 -0.00000000000E+00  0.11368683772E-12  0.17120000000E+03  0.17120000000E+03 0.  0.
         13    1    1    2    0    0  0.55998735747E+01 -0.10380350119E+02  0.42405663488E+02  0.44015471286E+02  0.10566000000E+00 0. -1.
        994    1    1    2    0    0  0.12767241031E+02 -0.67974285045E+01  0.24894079509E+01  0.17182795067E+03  0.17120000000E+03 0.  0.
        998    1    1    2    0    0 -0.18367114605E+02  0.17177778623E+02  0.14551049248E+04  0.14553565780E+04  0.10000000000E+02 0. -1.
</event>
<event>
 5    1  0.1688215E-008  0.3791656E+03  0.7957747E-01  0.3454800E+00
         13   -1    0    0    0    0  0.00000000000E+00  0.00000000000E+00  0.14999999963E+04  0.15000000000E+04  0.10566000000E+00 0. -1.
        994   -1    0    0    0    0 -0.00000000000E+00 -0.00000000000E+00  0.11368683772E-12  0.17120000000E+03  0.17120000000E+03 0.  0.
         13    1    1    2    0    0  0.61925374150E+01 -0.51185335523E+02  0.17274312545E+03  0.18027336089E+03  0.10566000000E+00 0. -1.
        994    1    1    2    0    0  0.10884682807E+01  0.11524453932E+03  0.50451373070E+02  0.21245533566E+03  0.17120000000E+03 0.  0.
        998    1    1    2    0    0 -0.72810056958E+01 -0.64059203797E+02  0.12768054978E+04  0.12784713035E+04  0.10000000000E+02 0. -1.
</event>
<event>
 5    1  0.1688215E-008  0.3754843E+03  0.7957747E-01  0.3471060E+00
         13   -1    0    0    0    0  0.00000000000E+00  0.00000000000E+00  0.14999999963E+04  0.15000000000E+04  0.10566000000E+00 0. -1.
        994   -1    0    0    0    0 -0.00000000000E+00 -0.00000000000E+00  0.11368683772E-12  0.17120000000E+03  0.17120000000E+03 0.  0.
         13    1    1    2    0    0 -0.31672116431E+01 -0.12159055239E+02  0.93141024153E+01  0.15640892613E+02  0.10566000000E+00 0. -1.
        994    1    1    2    0    0  0.46574746542E+01  0.11299349571E+02  0.69373055862E+01  0.17177582362E+03  0.17120000000E+03 0.  0.
        998    1    1    2    0    0 -0.14902630111E+01  0.85970566785E+00  0.14837485883E+04  0.14837832838E+04  0.10000000000E+02 0. -1.
</event>
<event>
 5    1  0.1688215E-008  0.3820075E+03  0.7957747E-01  0.3442464E+00
         13   -1    0    0    0    0  0.00000000000E+00  0.00000000000E+00  0.14999999963E+04  0.15000000000E+04  0.10566000000E+00 0. -1.
        994   -1    0    0    0    0 -0.00000000000E+00 -0.00000000000E+00  0.11368683772E-12  0.17120000000E+03  0.17120000000E+03 0.  0.
         13    1    1    2    0    0 -0.92943196547E+01  0.82537650483E+01  0.24485446247E+02  0.27460103009E+02  0.10566000000E+00 0. -1.
        994    1    1    2    0    0 -0.28106431959E+01  0.28347856701E+01  0.31761096795E+01  0.17127598605E+03  0.17120000000E+03 0.  0.
        998    1    1    2    0    0  0.12104962851E+02 -0.11088550718E+02  0.14723384404E+04  0.14724639109E+04  0.10000000000E+02 0. -1.
</event>
<event>
 5    1  0.1688215E-008  0.3812644E+03  0.7957747E-01  0.3445671E+00
         13   -1    0    0    0    0  0.00000000000E+00  0.00000000000E+00  0.14999999963E+04  0.15000000000E+04  0.10566000000E+00 0.  1.
        994   -1    0    0    0    0 -0.00000000000E+00 -0.00000000000E+00  0.11368683772E-12  0.17120000000E+03  0.17120000000E+03 0.  0.
         13    1    1    2    0    0  0.24182330598E+01  0.99316265435E+02  0.23643607561E+03  0.25645973844E+03  0.10566000000E+00 0.  1.
        994    1    1    2    0    0  0.16699510657E+01 -0.10079713923E+03  0.55029415891E+02  0.20615656338E+03  0.17120000000E+03 0.  0.
        998    1    1    2    0    0 -0.40881841256E+01  0.14808737936E+01  0.12085345048E+04  0.12085836982E+04  0.10000000000E+02 0.  1.
</event>
<event>
 5    1  0.1688215E-008  0.3783726E+03  0.7957747E-01  0.3458275E+00
         13   -1    0    0    0    0  0.00000000000E+00  0.00000000000E+00  0.14999999963E+04  0.15000000000E+04  0.10566000000E+00 0. -1.
        994   -1    0    0    0    0 -0.00000000000E+00 -0.00000000000E+00  0.11368683772E-12  0.17120000000E+03  0.17120000000E+03 0.  0.
         13    1    1    2    0    0  0.26344897006E+02  0.14744212929E+02  0.88378827792E+02  0.93393114195E+02  0.10566000000E+00 0. -1.
        994    1    1    2    0    0 -0.18005605716E+02 -0.15014646277E+02  0.68064565560E+01  0.17293180532E+03  0.17120000000E+03 0.  0.
        998    1    1    2    0    0 -0.83392912906E+01  0.27043334813E+00  0.14048147119E+04  0.14048750805E+04  0.10000000000E+02 0. -1.
</event>
<event>
 5    1  0.1688215E-008  0.3808111E+03  0.7957747E-01  0.3447635E+00
         13   -1    0    0    0    0  0.00000000000E+00  0.00000000000E+00  0.14999999963E+04  0.15000000000E+04  0.10566000000E+00 0.  1.
        994   -1    0    0    0    0 -0.00000000000E+00 -0.00000000000E+00  0.11368683772E-12  0.17120000000E+03  0.17120000000E+03 0.  0.
         13    1    1    2    0    0  0.15379366393E+02  0.16417489022E+02  0.68324661503E+02  0.71932811637E+02  0.10566000000E+00 0.  1.
        994    1    1    2    0    0 -0.75484512583E+00 -0.11268499858E+02  0.41496490546E+01  0.17162228430E+03  0.17120000000E+03 0.  0.
        998    1    1    2    0    0 -0.14624521267E+02 -0.51489891636E+01  0.14275256857E+04  0.14276449041E+04  0.10000000000E+02 0.  1.
</event>
<event>
 5    1  0.1688215E-008  0.3857505E+03  0.7957747E-01  0.3426495E+00
         13   -1    0    0    0    0  0.00000000000E+00  0.00000000000E+00  0.14999999963E+04  0.15000000000E+04  0.10566000000E+00 0.  1.
        994   -1    0    0    0    0 -0.00000000000E+00 -0.00000000000E+00  0.11368683772E-12  0.17120000000E+03  0.17120000000E+03 0.  0.
         13    1    1    2    0    0  0.11805678915E+01 -0.13350758612E+02  0.75050917594E+02  0.76238362337E+02  0.10566000000E+00 0.  1.
        994    1    1    2    0    0  0.62989399471E+01  0.40932354000E+01  0.14431230915E+01  0.17137080797E+03  0.17120000000E+03 0.  0.
        998    1    1    2    0    0 -0.74795078386E+01  0.92575232121E+01  0.14235059556E+04  0.14235908297E+04  0.10000000000E+02 0.  1.
</event>
<event>
 5    1  0.1688215E-008  0.3824559E+03  0.7957747E-01  0.3440534E+00
         13   -1    0    0    0    0  0.00000000000E+00  0.00000000000E+00  0.14999999963E+04  0.15000000000E+04  0.10566000000E+00 0. -1.
        994   -1    0    0    0    0 -0.00000000000E+00 -0.00000000000E+00  0.11368683772E-12  0.17120000000E+03  0.17120000000E+03 0.  0.
         13    1    1    2    0    0 -0.21231556225E+02 -0.31641641806E+02  0.35720306595E+02  0.52229531333E+02  0.10566000000E+00 0. -1.
        994    1    1    2    0    0  0.21336038909E+02 -0.24196810862E+01  0.19370513723E+02  0.17362528104E+03  0.17120000000E+03 0.  0.
        998    1    1    2    0    0 -0.10448268450E+00  0.34061322893E+02  0.14449091760E+04  0.14453451876E+04  0.10000000000E+02 0. -1.
</event>
<event>
 5    1  0.1688215E-008  0.3845053E+03  0.7957747E-01  0.3431773E+00
         13   -1    0    0    0    0  0.00000000000E+00  0.00000000000E+00  0.14999999963E+04  0.15000000000E+04  0.10566000000E+00 0. -1.
        994   -1    0    0    0    0 -0.00000000000E+00 -0.00000000000E+00  0.11368683772E-12  0.17120000000E+03  0.17120000000E+03 0.  0.
         13    1    1    2    0    0  0.19270858418E+02 -0.28802657022E+01  0.10935017019E+03  0.11107264650E+03  0.10566000000E+00 0. -1.
        994    1    1    2    0    0 -0.24103011136E+01 -0.18121885531E+01  0.19059104933E+01  0.17123716324E+03  0.17120000000E+03 0.  0.
        998    1    1    2    0    0 -0.16860557304E+02  0.46924542553E+01  0.13887439156E+04  0.13888901903E+04  0.10000000000E+02 0. -1.
</event>
<event>
 5    1  0.1688215E-008  0.3799319E+03  0.7957747E-01  0.3451455E+00
         13   -1    0    0    0    0  0.00000000000E+00  0.00000000000E+00  0.14999999963E+04  0.15000000000E+04  0.10566000000E+00 0.  1.
        994   -1    0    0    0    0 -0.00000000000E+00 -0.00000000000E+00  0.11368683772E-12  0.17120000000E+03  0.17120000000E+03 0.  0.
         13    1    1    2    0    0  0.24009936445E+02  0.91309916490E+02  0.25839243653E+03  0.27510114561E+03  0.10566000000E+00 0.  1.
        994    1    1    2    0    0 -0.52809908732E+02 -0.54098936763E+02  0.37299580862E+02  0.19083050110E+03  0.17120000000E+03 0.  0.
        998    1    1    2    0    0  0.28799972287E+02 -0.37210979726E+02  0.12043079789E+04  0.12052683533E+04  0.10000000000E+02 0. -1.
</event>
<event>
 5    1  0.1688215E-008  0.3847952E+03  0.7957747E-01  0.3430541E+00
         13   -1    0    0    0    0  0.00000000000E+00  0.00000000000E+00  0.14999999963E+04  0.15000000000E+04  0.10566000000E+00 0.  1.
        994   -1    0    0    0    0 -0.00000000000E+00 -0.00000000000E+00  0.11368683772E-12  0.17120000000E+03  0.17120000000E+03 0.  0.
         13    1    1    2    0    0  0.67836677671E+00 -0.15693352963E+02  0.67271596229E+02  0.69081258906E+02  0.10566000000E+00 0.  1.
        994    1    1    2    0    0 -0.34808443835E+01  0.19209909186E+02  0.29871291730E+01  0.17233542825E+03  0.17120000000E+03 0.  0.
        998    1    1    2    0    0  0.28024776068E+01 -0.35165562224E+01  0.14297412709E+04  0.14297833128E+04  0.10000000000E+02 0.  1.
</event>
<event>
 5    1  0.1688215E-008  0.3853452E+03  0.7957747E-01  0.3428209E+00
         13   -1    0    0    0    0  0.00000000000E+00  0.00000000000E+00  0.14999999963E+04  0.15000000000E+04  0.10566000000E+00 0.  1.
        994   -1    0    0    0    0 -0.00000000000E+00 -0.00000000000E+00  0.11368683772E-12  0.17120000000E+03  0.17120000000E+03 0.  0.
         13    1    1    2    0    0 -0.97499756163E+00 -0.16558308153E+02  0.93143174645E+02  0.94608616606E+02  0.10566000000E+00 0.  1.
        994    1    1    2    0    0 -0.81674470413E+01  0.13293130594E+02  0.22588597177E+01  0.17192427682E+03  0.17120000000E+03 0.  0.
        998    1    1    2    0    0  0.91424446030E+01  0.32651775587E+01  0.14045979619E+04  0.14046671066E+04  0.10000000000E+02 0.  1.
</event>
<event>
 5    1  0.1688215E-008  0.3787847E+03  0.7957747E-01  0.3456467E+00
         13   -1    0    0    0    0  0.00000000000E+00  0.00000000000E+00  0.14999999963E+04  0.15000000000E+04  0.10566000000E+00 0.  1.
        994   -1    0    0    0    0 -0.00000000000E+00 -0.00000000000E+00  0.11368683772E-12  0.17120000000E+03  0.17120000000E+03 0.  0.
         13    1    1    2    0    0  0.21828787105E+02 -0.25014433211E+02  0.12234110550E+03  0.12676582771E+03  0.10566000000E+00 0.  1.
        994    1    1    2    0    0  0.22942107894E+02  0.31690848151E+02  0.99025282946E+01  0.17589243940E+03  0.17120000000E+03 0.  0.
        998    1    1    2    0    0 -0.44770894999E+02 -0.66764149403E+01  0.13677563625E+04  0.13685417329E+04  0.10000000000E+02 0.  1.
</event>
<event>
 5    1  0.1688215E-008  0.3797172E+03  0.7957747E-01  0.3452391E+00
         13   -1    0    0    0    0  0.00000000000E+00  0.00000000000E+00  0.14999999963E+04  0.15000000000E+04  0.10566000000E+00 0.  1.
        994   -1    0    0    0    0 -0.00000000000E+00 -0.00000000000E+00  0.11368683772E-12  0.17120000000E+03  0.17120000000E+03 0.  0.
         13    1    1    2    0    0 -0.38563713675E+02 -0.16525476032E+00  0.23170964043E+03  0.23489690495E+03  0.10566000000E+00 0.  1.
        994    1    1    2    0    0 -0.13049042178E+02 -0.17844094614E+01  0.48566139159E+01  0.17177452756E+03  0.17120000000E+03 0.  0.
        998    1    1    2    0    0  0.51612755853E+02  0.19496642218E+01  0.12634337419E+04  0.12645285675E+04  0.10000000000E+02 0.  1.
</event>
<event>
 5    1  0.1688215E-008  0.3735946E+03  0.7957747E-01  0.3479532E+00
         13   -1    0    0    0    0  0.00000000000E+00  0.00000000000E+00  0.14999999963E+04  0.15000000000E+04  0.10566000000E+00 0.  1.
        994   -1    0    0    0    0 -0.00000000000E+00 -0.00000000000E+00  0.11368683772E-12  0.17120000000E+03  0.17120000000E+03 0.  0.
         13    1    1    2    0    0  0.10724656959E+03 -0.47021826249E+02  0.52596533546E+03  0.53884359892E+03  0.10566000000E+00 0.  1.
        994    1    1    2    0    0 -0.11099466037E+03  0.60142770309E+02  0.63953647890E+02  0.22211815894E+03  0.17120000000E+03 0.  0.
        998    1    1    2    0    0  0.37480907862E+01 -0.13120944061E+02  0.91008101293E+03  0.91023824214E+03  0.10000000000E+02 0.  1.
</event>
<event>
 5    1  0.1688215E-008  0.3841857E+03  0.7957747E-01  0.3433133E+00
         13   -1    0    0    0    0  0.00000000000E+00  0.00000000000E+00  0.14999999963E+04  0.15000000000E+04  0.10566000000E+00 0.  1.
        994   -1    0    0    0    0 -0.00000000000E+00 -0.00000000000E+00  0.11368683772E-12  0.17120000000E+03  0.17120000000E+03 0.  0.
         13    1    1    2    0    0 -0.36445135662E+01 -0.15487576209E+02  0.66836806373E+02  0.68704565686E+02  0.10566000000E+00 0.  1.
        994    1    1    2    0    0 -0.17273339341E+01 -0.25177802667E+01  0.20657204286E+01  0.17123968612E+03  0.17120000000E+03 0.  0.
        998    1    1    2    0    0  0.53718475003E+01  0.18005356475E+02  0.14310974695E+04  0.14312557482E+04  0.10000000000E+02 0.  1.
</event>
<event>
 5    1  0.1688215E-008  0.3787701E+03  0.7957747E-01  0.3456531E+00
         13   -1    0    0    0    0  0.00000000000E+00  0.00000000000E+00  0.14999999963E+04  0.15000000000E+04  0.10566000000E+00 0. -1.
        994   -1    0    0    0    0 -0.00000000000E+00 -0.00000000000E+00  0.11368683772E-12  0.17120000000E+03  0.17120000000E+03 0.  0.
         13    1    1    2    0    0  0.89882045274E+01 -0.57870350678E+01  0.96398653499E+01  0.14394990917E+02  0.10566000000E+00 0. -1.
        994    1    1    2    0    0 -0.18459871661E+02  0.60275788151E+01  0.60220722927E+01  0.17240302759E+03  0.17120000000E+03 0.  0.
        998    1    1    2    0    0  0.94716671331E+01 -0.24054374725E+00  0.14843380586E+04  0.14844019815E+04  0.10000000000E+02 0. -1.
</event>
<event>
 5    1  0.1688215E-008  0.3828513E+03  0.7957747E-01  0.3438837E+00
         13   -1    0    0    0    0  0.00000000000E+00  0.00000000000E+00  0.14999999963E+04  0.15000000000E+04  0.10566000000E+00 0. -1.
        994   -1    0    0    0    0 -0.00000000000E+00 -0.00000000000E+00  0.11368683772E-12  0.17120000000E+03  0.17120000000E+03 0.  0.
         13    1    1    2    0    0 -0.26557639294E+02  0.14220246269E+02  0.14742805953E+03  0.15047447461E+03  0.10566000000E+00 0. -1.
        994    1    1    2    0    0  0.33958380653E+02 -0.10487133970E+02  0.68951950905E+01  0.17498610034E+03  0.17120000000E+03 0.  0.
        998    1    1    2    0    0 -0.74007413588E+01 -0.37331122992E+01  0.13456767417E+04  0.13457394251E+04  0.10000000000E+02 0. -1.
</event>
<event>
 5    1  0.1688215E-008  0.3693117E+03  0.7957747E-01  0.3499060E+00
         13   -1    0    0    0    0  0.00000000000E+00  0.00000000000E+00  0.14999999963E+04  0.15000000000E+04  0.10566000000E+00 0.  1.
        994   -1    0    0    0    0 -0.00000000000E+00 -0.00000000000E+00  0.11368683772E-12  0.17120000000E+03  0.17120000000E+03 0.  0.
         13    1    1    2    0    0  0.87581499121E+01  0.16275395971E+02  0.13195833897E+02  0.22709797449E+02  0.10566000000E+00 0.  1.
        994    1    1    2    0    0 -0.55413827892E-01 -0.26544848897E+02  0.12075312442E+02  0.17366601638E+03  0.17120000000E+03 0.  0.
        998    1    1    2    0    0 -0.87027360842E+01  0.10269452927E+02  0.14747288499E+04  0.14748241862E+04  0.10000000000E+02 0.  1.
</event>
<event>
 5    1  0.1688215E-008  0.3821395E+03  0.7957747E-01  0.3441895E+00
         13   -1    0    0    0    0  0.00000000000E+00  0.00000000000E+00  0.14999999963E+04  0.15000000000E+04  0.10566000000E+00 0.  1.
        994   -1    0    0    0    0 -0.00000000000E+00 -0.00000000000E+00  0.11368683772E-12  0.17120000000E+03  0.17120000000E+03 0.  0.
         13    1    1    2    0    0 -0.25298307169E+02 -0.12915516745E+02  0.12011072887E+03  0.12342371439E+03  0.10566000000E+00 0.  1.
        994    1    1    2    0    0  0.32706658273E+02  0.38405463510E+01  0.66652316012E+01  0.17446587232E+03  0.17120000000E+03 0.  0.
        998    1    1    2    0    0 -0.74083511044E+01  0.90749703937E+01  0.13732240358E+04  0.13733104133E+04  0.10000000000E+02 0.  1.
</event>
<event>
 5    1  0.1688215E-008  0.3741418E+03  0.7957747E-01  0.3477070E+00
         13   -1    0    0    0    0  0.00000000000E+00  0.00000000000E+00  0.14999999963E+04  0.15000000000E+04  0.10566000000E+00 0.  1.
        994   -1    0    0    0    0 -0.00000000000E+00 -0.00000000000E+00  0.11368683772E-12  0.17120000000E+03  0.17120000000E+03 0.  0.
         13    1    1    2    0    0  0.54150921535E+01 -0.10482650796E+03  0.43021092101E+03  0.44283108260E+03  0.10566000000E+00 0.  1.
        994    1    1    2    0    0 -0.43783752983E+02  0.12834271760E+03  0.72651612322E+02  0.23016638972E+03  0.17120000000E+03 0.  0.
        998    1    1    2    0    0  0.38368660830E+02 -0.23516209635E+02  0.99713746294E+03  0.99820252767E+03  0.10000000000E+02 0.  1.
</event>
<event>
 5    1  0.1688215E-008  0.3847945E+03  0.7957747E-01  0.3430544E+00
         13   -1    0    0    0    0  0.00000000000E+00  0.00000000000E+00  0.14999999963E+04  0.15000000000E+04  0.10566000000E+00 0.  1.
        994   -1    0    0    0    0 -0.00000000000E+00 -0.00000000000E+00  0.11368683772E-12  0.17120000000E+03  0.17120000000E+03 0.  0.
         13    1    1    2    0    0  0.16855034166E+02  0.35106305066E+01  0.80996844106E+02  0.82806501088E+02  0.10566000000E+00 0.  1.
        994    1    1    2    0    0 -0.17633196617E+02 -0.90690327120E+01  0.30271422874E+01  0.17237105490E+03  0.17120000000E+03 0.  0.
        998    1    1    2    0    0  0.77816245071E+00  0.55584022053E+01  0.14159760099E+04  0.14160224440E+04  0.10000000000E+02 0.  1.
</event>
<event>
 5    1  0.1688215E-008  0.3794260E+03  0.7957747E-01  0.3453661E+00
         13   -1    0    0    0    0  0.00000000000E+00  0.00000000000E+00  0.14999999963E+04  0.15000000000E+04  0.10566000000E+00 0. -1.
        994   -1    0    0    0    0 -0.00000000000E+00 -0.00000000000E+00  0.11368683772E-12  0.17120000000E+03  0.17120000000E+03 0.  0.
         13    1    1    2    0    0  0.34800286851E+02 -0.15935288622E+02  0.15133771104E+03  0.15610287420E+03  0.10566000000E+00 0. -1.
        994    1    1    2    0    0 -0.32523241837E+02  0.14761145373E+02  0.87075019717E+01  0.17510257926E+03  0.17120000000E+03 0.  0.
        998    1    1    2    0    0 -0.22770450138E+01  0.11741432487E+01  0.13399547833E+04  0.13399945465E+04  0.10000000000E+02 0. -1.
</event>
<event>
 5    1  0.1688215E-008  0.3849341E+03  0.7957747E-01  0.3429952E+00
         13   -1    0    0    0    0  0.00000000000E+00  0.00000000000E+00  0.14999999963E+04  0.15000000000E+04  0.10566000000E+00 0.  1.
        994   -1    0    0    0    0 -0.00000000000E+00 -0.00000000000E+00  0.11368683772E-12  0.17120000000E+03  0.17120000000E+03 0.  0.
         13    1    1    2    0    0  0.71919394752E+01 -0.11095728139E+02  0.56102726748E+02  0.57639971278E+02  0.10566000000E+00 0.  1.
        994    1    1    2    0    0 -0.66459792020E+01 -0.70800147603E+01  0.19730931871E+01  0.17148652642E+03  0.17120000000E+03 0.  0.
        998    1    1    2    0    0 -0.54596027319E+00  0.18175742900E+02  0.14419241763E+04  0.14420735023E+04  0.10000000000E+02 0.  1.
</event>
<event>
 5    1  0.1688215E-008  0.3855462E+03  0.7957747E-01  0.3427359E+00
         13   -1    0    0    0    0  0.00000000000E+00  0.00000000000E+00  0.14999999963E+04  0.15000000000E+04  0.10566000000E+00 0.  1.
        994   -1    0    0    0    0 -0.00000000000E+00 -0.00000000000E+00  0.11368683772E-12  0.17120000000E+03  0.17120000000E+03 0.  0.
         13    1    1    2    0    0 -0.15230975588E+02  0.64959888354E+01  0.90450246413E+02  0.91953459579E+02  0.10566000000E+00 0.  1.
        994    1    1    2    0    0  0.23999045553E+02 -0.74455482428E+01  0.34346992111E+01  0.17306827420E+03  0.17120000000E+03 0.  0.
        998    1    1    2    0    0 -0.87680699655E+01  0.94955940743E+00  0.14061150507E+04  0.14061782662E+04  0.10000000000E+02 0.  1.
</event>
<event>
 5    1  0.1688215E-008  0.3804625E+03  0.7957747E-01  0.3449147E+00
         13   -1    0    0    0    0  0.00000000000E+00  0.00000000000E+00  0.14999999963E+04  0.15000000000E+04  0.10566000000E+00 0. -1.
        994   -1    0    0    0    0 -0.00000000000E+00 -0.00000000000E+00  0.11368683772E-12  0.17120000000E+03  0.17120000000E+03 0.  0.
         13    1    1    2    0    0 -0.13241636018E+02  0.82188413210E+01  0.30390709453E+02  0.34154013852E+02  0.10566000000E+00 0. -1.
        994    1    1    2    0    0  0.19276975587E+01 -0.13146882134E+01  0.39180636556E+01  0.17126072418E+03  0.17120000000E+03 0.  0.
        998    1    1    2    0    0  0.11313938459E+02 -0.69041531076E+01  0.14656912232E+04  0.14657852620E+04  0.10000000000E+02 0. -1.
</event>
<event>
 5    1  0.1688215E-008  0.3787083E+03  0.7957747E-01  0.3456802E+00
         13   -1    0    0    0    0  0.00000000000E+00  0.00000000000E+00  0.14999999963E+04  0.15000000000E+04  0.10566000000E+00 0. -1.
        994   -1    0    0    0    0 -0.00000000000E+00 -0.00000000000E+00  0.11368683772E-12  0.17120000000E+03  0.17120000000E+03 0.  0.
         13    1    1    2    0    0 -0.36748313834E+02  0.12905785763E+02  0.13851051203E+03  0.14388249019E+03  0.10566000000E+00 0. -1.
        994    1    1    2    0    0  0.32051353529E+02 -0.48146856217E+02  0.16101224780E+02  0.18142243099E+03  0.17120000000E+03 0.  0.
        998    1    1    2    0    0  0.46969603052E+01  0.35241070454E+02  0.13453882595E+04  0.13458950788E+04  0.10000000000E+02 0. -1.
</event>
<event>
 5    1  0.1688215E-008  0.3857379E+03  0.7957747E-01  0.3426549E+00
         13   -1    0    0    0    0  0.00000000000E+00  0.00000000000E+00  0.14999999963E+04  0.15000000000E+04  0.10566000000E+00 0.  1.
        994   -1    0    0    0    0 -0.00000000000E+00 -0.00000000000E+00  0.11368683772E-12  0.17120000000E+03  0.17120000000E+03 0.  0.
         13    1    1    2    0    0 -0.16777358769E+02 -0.22981894430E+01  0.10065617858E+03  0.10207075434E+03  0.10566000000E+00 0.  1.
        994    1    1    2    0    0  0.24568483465E+02  0.76378489030E+01  0.34389606411E+01  0.17315661572E+03  0.17120000000E+03 0.  0.
        998    1    1    2    0    0 -0.77911246962E+01 -0.53396594600E+01  0.13959048571E+04  0.13959726299E+04  0.10000000000E+02 0.  1.
</event>
<event>
 5    1  0.1688215E-008  0.3857896E+03  0.7957747E-01  0.3426330E+00
         13   -1    0    0    0    0  0.00000000000E+00  0.00000000000E+00  0.14999999963E+04  0.15000000000E+04  0.10566000000E+00 0. -1.
        994   -1    0    0    0    0 -0.00000000000E+00 -0.00000000000E+00  0.11368683772E-12  0.17120000000E+03  0.17120000000E+03 0.  0.
         13    1    1    2    0    0 -0.13064981746E+02  0.36051175288E+01  0.75823854100E+02  0.77025701133E+02  0.10566000000E+00 0. -1.
        994    1    1    2    0    0  0.65703973066E+01 -0.31101102006E+01  0.14119732354E+01  0.17136007871E+03  0.17120000000E+03 0.  0.
        998    1    1    2    0    0  0.64945844391E+01 -0.49500732825E+00  0.14227641689E+04  0.14228142202E+04  0.10000000000E+02 0. -1.
</event>
<event>
 5    1  0.1688215E-008  0.3818700E+03  0.7957747E-01  0.3443056E+00
         13   -1    0    0    0    0  0.00000000000E+00  0.00000000000E+00  0.14999999963E+04  0.15000000000E+04  0.10566000000E+00 0.  1.
        994   -1    0    0    0    0 -0.00000000000E+00 -0.00000000000E+00  0.11368683772E-12  0.17120000000E+03  0.17120000000E+03 0.  0.
         13    1    1    2    0    0  0.68673983769E+01  0.22985260307E+02  0.86897221722E+02  0.90147776783E+02  0.10566000000E+00 0.  1.
        994    1    1    2    0    0 -0.68084578279E+01 -0.18399896745E+02  0.44720191764E+01  0.17237850868E+03  0.17120000000E+03 0.  0.
        998    1    1    2    0    0 -0.58940549024E-01 -0.45853635622E+01  0.14086307554E+04  0.14086737145E+04  0.10000000000E+02 0.  1.
</event>
<event>
 5    1  0.1688215E-008  0.3806779E+03  0.7957747E-01  0.3448212E+00
         13   -1    0    0    0    0  0.00000000000E+00  0.00000000000E+00  0.14999999963E+04  0.15000000000E+04  0.10566000000E+00 0. -1.
        994   -1    0    0    0    0 -0.00000000000E+00 -0.00000000000E+00  0.11368683772E-12  0.17120000000E+03  0.17120000000E+03 0.  0.
         13    1    1    2    0    0 -0.11157235460E+02  0.10468678341E+02  0.28742368542E+02  0.32560897450E+02  0.10566000000E+00 0. -1.
        994    1    1    2    0    0  0.14782319704E+02 -0.98435924868E+01  0.48441067697E+01  0.17218687133E+03  0.17120000000E+03 0.  0.
        998    1    1    2    0    0 -0.36250842445E+01 -0.62508585379E+00  0.14664135210E+04  0.14664522312E+04  0.10000000000E+02 0. -1.
</event>
<event>
 5    1  0.1688215E-008  0.3842152E+03  0.7957747E-01  0.3433007E+00
         13   -1    0    0    0    0  0.00000000000E+00  0.00000000000E+00  0.14999999963E+04  0.15000000000E+04  0.10566000000E+00 0. -1.
        994   -1    0    0    0    0 -0.00000000000E+00 -0.00000000000E+00  0.11368683772E-12  0.17120000000E+03  0.17120000000E+03 0.  0.
         13    1    1    2    0    0  0.54986516167E+01 -0.10203091152E+02  0.32630549576E+02  0.34628054643E+02  0.10566000000E+00 0. -1.
        994    1    1    2    0    0 -0.36314792062E+01  0.80086279527E+01  0.22752459004E+01  0.17144078426E+03  0.17120000000E+03 0.  0.
        998    1    1    2    0    0 -0.18671724105E+01  0.21944631996E+01  0.14650942008E+04  0.14651311611E+04  0.10000000000E+02 0. -1.
</event>
<event>
 5    1  0.1688215E-008  0.3723189E+03  0.7957747E-01  0.3485301E+00
         13   -1    0    0    0    0  0.00000000000E+00  0.00000000000E+00  0.14999999963E+04  0.15000000000E+04  0.10566000000E+00 0. -1.
        994   -1    0    0    0    0 -0.00000000000E+00 -0.00000000000E+00  0.11368683772E-12  0.17120000000E+03  0.17120000000E+03 0.  0.
         13    1    1    2    0    0  0.14928391350E+02 -0.10973887640E+02  0.17763169713E+02  0.25667575665E+02  0.10566000000E+00 0. -1.
        994    1    1    2    0    0 -0.18334493899E+02 -0.98844744668E+00  0.92192919801E+01  0.17242843744E+03  0.17120000000E+03 0.  0.
        998    1    1    2    0    0  0.34061025482E+01  0.11962335087E+02  0.14730175346E+04  0.14731039869E+04  0.10000000000E+02 0. -1.
</event>
<event>
 5    1  0.1688215E-008  0.3766674E+03  0.7957747E-01  0.3465799E+00
         13   -1    0    0    0    0  0.00000000000E+00  0.00000000000E+00  0.14999999963E+04  0.15000000000E+04  0.10566000000E+00 0. -1.
        994   -1    0    0    0    0 -0.00000000000E+00 -0.00000000000E+00  0.11368683772E-12  0.17120000000E+03  0.17120000000E+03 0.  0.
         13    1    1    2    0    0 -0.53334043743E+02  0.32058739793E+02  0.32210484889E+03  0.32806070759E+03  0.10566000000E+00 0. -1.
        994    1    1    2    0    0  0.38329901838E+02 -0.11261386610E+02  0.11238835727E+02  0.17615831411E+03  0.17120000000E+03 0.  0.
        998    1    1    2    0    0  0.15004141905E+02 -0.20797353183E+02  0.11666563117E+04  0.11669809783E+04  0.10000000000E+02 0.  1.
</event>
<event>
 5    1  0.1688215E-008  0.3838392E+03  0.7957747E-01  0.3434610E+00
         13   -1    0    0    0    0  0.00000000000E+00  0.00000000000E+00  0.14999999963E+04  0.15000000000E+04  0.10566000000E+00 0.  1.
        994   -1    0    0    0    0 -0.00000000000E+00 -0.00000000000E+00  0.11368683772E-12  0.17120000000E+03  0.17120000000E+03 0.  0.
         13    1    1    2    0    0  0.10381724531E+02  0.12065801707E+02  0.61439447418E+02  0.63467949693E+02  0.10566000000E+00 0.  1.
        994    1    1    2    0    0 -0.11703348663E+01  0.59414791238E+01  0.23286183479E+01  0.17132289199E+03  0.17120000000E+03 0.  0.
        998    1    1    2    0    0 -0.92113896652E+01 -0.18007280830E+02  0.14362319305E+04  0.14364091583E+04  0.10000000000E+02 0.  1.
</event>
<event>
 5    1  0.1688215E-008  0.3788981E+03  0.7957747E-01  0.3455970E+00
         13   -1    0    0    0    0  0.00000000000E+00  0.00000000000E+00  0.14999999963E+04  0.15000000000E+04  0.10566000000E+00 0.  1.
        994   -1    0    0    0    0 -0.00000000000E+00 -0.00000000000E+00  0.11368683772E-12  0.17120000000E+03  0.17120000000E+03 0.  0.
         13    1    1    2    0    0  0.28803888061E+02 -0.31644686910E+02  0.24579013392E+03  0.24948717657E+03  0.10566000000E+00 0.  1.
        994    1    1    2    0    0 -0.14095544626E+02 -0.17821330352E+02  0.64245108295E+01  0.17282071211E+03  0.17120000000E+03 0.  0.
        998    1    1    2    0    0 -0.14708343435E+02  0.49466017262E+02  0.12477853515E+04  0.12488921113E+04  0.10000000000E+02 0.  1.
</event>
<event>
 5    1  0.1688215E-008  0.3806516E+03  0.7957747E-01  0.3448326E+00
         13   -1    0    0    0    0  0.00000000000E+00  0.00000000000E+00  0.14999999963E+04  0.15000000000E+04  0.10566000000E+00 0.  1.
        994   -1    0    0    0    0 -0.00000000000E+00 -0.00000000000E+00  0.11368683772E-12  0.17120000000E+03  0.17120000000E+03 0.  0.
         13    1    1    2    0    0  0.21792770775E+02 -0.18590957312E+02  0.99612692857E+02  0.10364964204E+03  0.10566000000E+00 0.  1.
        994    1    1    2    0    0 -0.37030591889E+02  0.36184661076E+01  0.84362354605E+01  0.17539945297E+03  0.17120000000E+03 0.  0.
        998    1    1    2    0    0  0.15237821114E+02  0.14972491205E+02  0.13919510680E+04  0.13921509050E+04  0.10000000000E+02 0.  1.
</event>
<event>
 5    1  0.1688215E-008  0.3769286E+03  0.7957747E-01  0.3464642E+00
         13   -1    0    0    0    0  0.00000000000E+00  0.00000000000E+00  0.14999999963E+04  0.15000000000E+04  0.10566000000E+00 0. -1.
        994   -1    0    0    0    0 -0.00000000000E+00 -0.00000000000E+00  0.11368683772E-12  0.17120000000E+03  0.17120000000E+03 0.  0.
         13    1    1    2    0    0  0.39440925332E+02  0.47170394474E+01  0.12768221511E+03  0.13371834680E+03  0.10566000000E+00 0. -1.
        994    1    1    2    0    0 -0.36382114448E+02 -0.85056025184E+01  0.10420820172E+02  0.17553927486E+03  0.17120000000E+03 0.  0.
        998    1    1    2    0    0 -0.30588108843E+01  0.37885630710E+01  0.13618969610E+04  0.13619423783E+04  0.10000000000E+02 0. -1.
</event>
<event>
 5    1  0.1688215E-008  0.3810853E+03  0.7957747E-01  0.3446446E+00
         13   -1    0    0    0    0  0.00000000000E+00  0.00000000000E+00  0.14999999963E+04  0.15000000000E+04  0.10566000000E+00 0.  1.
        994   -1    0    0    0    0 -0.00000000000E+00 -0.00000000000E+00  0.11368683772E-12  0.17120000000E+03  0.17120000000E+03 0.  0.
         13    1    1    2    0    0 -0.18917893382E+01 -0.17524907579E+02  0.42060357650E+02  0.45604671934E+02  0.10566000000E+00 0.  1.
        994    1    1    2    0    0 -0.49998764721E+01  0.11925126634E+02  0.41434576247E+01  0.17173763609E+03  0.17120000000E+03 0.  0.
        998    1    1    2    0    0  0.68916658103E+01  0.55997809447E+01  0.14537961810E+04  0.14538576920E+04  0.10000000000E+02 0.  1.
</event>
<event>
 5    1  0.1688215E-008  0.3797378E+03  0.7957747E-01  0.3452301E+00
         13   -1    0    0    0    0  0.00000000000E+00  0.00000000000E+00  0.14999999963E+04  0.15000000000E+04  0.10566000000E+00 0.  1.
        994   -1    0    0    0    0 -0.00000000000E+00 -0.00000000000E+00  0.11368683772E-12  0.17120000000E+03  0.17120000000E+03 0.  0.
         13    1    1    2    0    0  0.23292230289E+02  0.52477977911E+02  0.27850422958E+03  0.28436083277E+03  0.10566000000E+00 0.  1.
        994    1    1    2    0    0 -0.63702171741E+02 -0.52456012501E+02  0.27396639534E+02  0.19201462390E+03  0.17120000000E+03 0.  0.
        998    1    1    2    0    0  0.40409941452E+02 -0.21965409612E-01  0.11940991272E+04  0.11948245433E+04  0.10000000000E+02 0.  1.
</event>
<event>
 5    1  0.1688215E-008  0.3700010E+03  0.7957747E-01  0.3495886E+00
         13   -1    0    0    0    0  0.00000000000E+00  0.00000000000E+00  0.14999999963E+04  0.15000000000E+04  0.10566000000E+00 0. -1.
        994   -1    0    0    0    0 -0.00000000000E+00 -0.00000000000E+00  0.11368683772E-12  0.17120000000E+03  0.17120000000E+03 0.  0.
         13    1    1    2    0    0  0.50133227959E+00 -0.65324202200E+02  0.13417122796E+03  0.14922946191E+03  0.10566000000E+00 0. -1.
        994    1    1    2    0    0 -0.52215528847E+02  0.15854998208E+03  0.11281224794E+03  0.26438721897E+03  0.17120000000E+03 0.  0.
        998    1    1    2    0    0  0.51714196567E+02 -0.93225779884E+02  0.12530165204E+04  0.12575833191E+04  0.10000000000E+02 0. -1.
</event>
<event>
 5    1  0.1688215E-008  0.3816271E+03  0.7957747E-01  0.3444104E+00
         13   -1    0    0    0    0  0.00000000000E+00  0.00000000000E+00  0.14999999963E+04  0.15000000000E+04  0.10566000000E+00 0.  1.
        994   -1    0    0    0    0 -0.00000000000E+00 -0.00000000000E+00  0.11368683772E-12  0.17120000000E+03  0.17120000000E+03 0.  0.
         13    1    1    2    0    0 -0.14208154838E+02 -0.37308666746E+01  0.29012385568E+02  0.32519543515E+02  0.10566000000E+00 0.  1.
        994    1    1    2    0    0  0.28518446318E+02  0.22081085628E+02  0.76516127474E+01  0.17512527887E+03  0.17120000000E+03 0.  0.
        998    1    1    2    0    0 -0.14310291480E+02 -0.18350218953E+02  0.14633359980E+04  0.14635551776E+04  0.10000000000E+02 0.  1.
</event>
<event>
 5    1  0.1917759E-008  0.3858634E+03  0.7957747E-01  0.3426019E+00
         13   -1    0    0    0    0  0.00000000000E+00  0.00000000000E+00  0.14999999963E+04  0.15000000000E+04  0.10566000000E+00 0. -1.
        994   -1    0    0    0    0 -0.00000000000E+00 -0.00000000000E+00  0.11368683772E-12  0.17120000000E+03  0.17120000000E+03 0.  0.
         13    1    1    2    0    0  0.11124052213E+02 -0.22178158983E+01  0.55104437750E+02  0.56259874412E+02  0.10566000000E+00 0. -1.
        994    1    1    2    0    0 -0.52462113193E+01 -0.21561897890E+01  0.13075856566E+01  0.17129892489E+03  0.17120000000E+03 0.  0.
        998    1    1    2    0    0 -0.58778408934E+01  0.43740056873E+01  0.14435879729E+04  0.14436412007E+04  0.10000000000E+02 0. -1.
</event>
<event>
 5    1  0.1688215E-008  0.3845822E+03  0.7957747E-01  0.3431446E+00
         13   -1    0    0    0    0  0.00000000000E+00  0.00000000000E+00  0.14999999963E+04  0.15000000000E+04  0.10566000000E+00 0.  1.
        994   -1    0    0    0    0 -0.00000000000E+00 -0.00000000000E+00  0.11368683772E-12  0.17120000000E+03  0.17120000000E+03 0.  0.
         13    1    1    2    0    0  0.13762229967E+01 -0.15337807083E+02  0.61180684357E+02  0.63089061003E+02  0.10566000000E+00 0.  1.
        994    1    1    2    0    0  0.69620718444E+01  0.19580967449E+02  0.32612542969E+01  0.17248756625E+03  0.17120000000E+03 0.  0.
        998    1    1    2    0    0 -0.83382948411E+01 -0.42431603655E+01  0.14355580576E+04  0.14356233727E+04  0.10000000000E+02 0.  1.
</event>
<event>
 5    1  0.1688215E-008  0.3787470E+03  0.7957747E-01  0.3456633E+00
         13   -1    0    0    0    0  0.00000000000E+00  0.00000000000E+00  0.14999999963E+04  0.15000000000E+04  0.10566000000E+00 0. -1.
        994   -1    0    0    0    0 -0.00000000000E+00 -0.00000000000E+00  0.11368683772E-12  0.17120000000E+03  0.17120000000E+03 0.  0.
         13    1    1    2    0    0  0.12216790161E+02 -0.73359962465E+01  0.18949882003E+02  0.23710250837E+02  0.10566000000E+00 0. -1.
        994    1    1    2    0    0 -0.14524210397E+02  0.81864481856E+01  0.57006568350E+01  0.17210435239E+03  0.17120000000E+03 0.  0.
        998    1    1    2    0    0  0.23074202356E+01 -0.85045193906E+00  0.14753494574E+04  0.14753853968E+04  0.10000000000E+02 0. -1.
</event>
<event>
 5    1  0.1688215E-008  0.3857048E+03  0.7957747E-01  0.3426688E+00
         13   -1    0    0    0    0  0.00000000000E+00  0.00000000000E+00  0.14999999963E+04  0.15000000000E+04  0.10566000000E+00 0. -1.
        994   -1    0    0    0    0 -0.00000000000E+00 -0.00000000000E+00  0.11368683772E-12  0.17120000000E+03  0.17120000000E+03 0.  0.
         13    1    1    2    0    0  0.14737778445E+02 -0.58170385155E+00  0.83888862062E+02  0.85175658700E+02  0.10566000000E+00 0. -1.
        994    1    1    2    0    0 -0.12341552043E+02 -0.54273561952E+01  0.18772534055E+01  0.17174031030E+03  0.17120000000E+03 0.  0.
        998    1    1    2    0    0 -0.23962264013E+01  0.60090600467E+01  0.14142338808E+04  0.14142840310E+04  0.10000000000E+02 0. -1.
</event>
<event>
 5    1  0.1688215E-008  0.3699718E+03  0.7957747E-01  0.3496021E+00
         13   -1    0    0    0    0  0.00000000000E+00  0.00000000000E+00  0.14999999963E+04  0.15000000000E+04  0.10566000000E+00 0. -1.
        994   -1    0    0    0    0 -0.00000000000E+00 -0.00000000000E+00  0.11368683772E-12  0.17120000000E+03  0.17120000000E+03 0.  0.
         13    1    1    2    0    0 -0.10812130832E+02  0.49249482867E+02  0.10655806729E+03  0.11788573537E+03  0.10566000000E+00 0. -1.
        994    1    1    2    0    0 -0.21540336534E+02 -0.52831585733E+02  0.22390923477E+02  0.18184046855E+03  0.17120000000E+03 0.  0.
        998    1    1    2    0    0  0.32352467366E+02  0.35821028657E+01  0.13710510055E+04  0.13714737961E+04  0.10000000000E+02 0. -1.
</event>
<event>
 5    1  0.1688215E-008  0.3686423E+03  0.7957747E-01  0.3502154E+00
         13   -1    0    0    0    0  0.00000000000E+00  0.00000000000E+00  0.14999999963E+04  0.15000000000E+04  0.10566000000E+00 0.  1.
        994   -1    0    0    0    0 -0.00000000000E+00 -0.00000000000E+00  0.11368683772E-12  0.17120000000E+03  0.17120000000E+03 0.  0.
         13    1    1    2    0    0 -0.10891798837E+02  0.40198289733E+02  0.85553168635E+02  0.95151929076E+02  0.10566000000E+00 0.  1.
        994    1    1    2    0    0 -0.57579992892E+02 -0.27327138112E+02  0.24493581579E+02  0.18431387250E+03  0.17120000000E+03 0.  0.
        998    1    1    2    0    0  0.68471791729E+02 -0.12871151621E+02  0.13899532461E+04  0.13917341984E+04  0.10000000000E+02 0.  1.
</event>
<event>
 5    1  0.1688215E-008  0.3833760E+03  0.7957747E-01  0.3436589E+00
         13   -1    0    0    0    0  0.00000000000E+00  0.00000000000E+00  0.14999999963E+04  0.15000000000E+04  0.10566000000E+00 0. -1.
        994   -1    0    0    0    0 -0.00000000000E+00 -0.00000000000E+00  0.11368683772E-12  0.17120000000E+03  0.17120000000E+03 0.  0.
         13    1    1    2    0    0  0.18443006095E+02 -0.15967357052E+02  0.11298826636E+03  0.11559178372E+03  0.10566000000E+00 0. -1.
        994    1    1    2    0    0 -0.17858026379E+02  0.18189788833E+02  0.45897458893E+01  0.17314815417E+03  0.17120000000E+03 0.  0.
        998    1    1    2    0    0 -0.58497971576E+00 -0.22224317802E+01  0.13824219840E+04  0.13824600621E+04  0.10000000000E+02 0.  0.
</event>
<event>
 5    1  0.1688215E-008  0.3846620E+03  0.7957747E-01  0.3431107E+00
         13   -1    0    0    0    0  0.00000000000E+00  0.00000000000E+00  0.14999999963E+04  0.15000000000E+04  0.10566000000E+00 0. -1.
        994   -1    0    0    0    0 -0.00000000000E+00 -0.00000000000E+00  0.11368683772E-12  0.17120000000E+03  0.17120000000E+03 0.  0.
         13    1    1    2    0    0  0.73305680279E+01  0.10374150098E+02  0.43350055657E+02  0.45172986478E+02  0.10566000000E+00 0. -1.
        994    1    1    2    0    0 -0.12354819964E+02 -0.88855576129E+01  0.25608869150E+01  0.17189413269E+03  0.17120000000E+03 0.  0.
        998    1    1    2    0    0  0.50242519363E+01 -0.14885924850E+01  0.14540890537E+04  0.14541328808E+04  0.10000000000E+02 0. -1.
</event>
<event>
 5    1  0.1688215E-008  0.3825528E+03  0.7957747E-01  0.3440118E+00
         13   -1    0    0    0    0  0.00000000000E+00  0.00000000000E+00  0.14999999963E+04  0.15000000000E+04  0.10566000000E+00 0. -1.
        994   -1    0    0    0    0 -0.00000000000E+00 -0.00000000000E+00  0.11368683772E-12  0.17120000000E+03  0.17120000000E+03 0.  0.
         13    1    1    2    0    0 -0.93847770446E+01 -0.73729745157E+01  0.23469978506E+02  0.26330321846E+02  0.10566000000E+00 0. -1.
        994    1    1    2    0    0  0.11186054974E+02  0.89915359021E+01  0.35331108076E+01  0.17183683661E+03  0.17120000000E+03 0.  0.
        998    1    1    2    0    0 -0.18012779299E+01 -0.16185613864E+01  0.14729969070E+04  0.14730328415E+04  0.10000000000E+02 0. -1.
</event>
<event>
 5    1  0.2038453E-008  0.3858460E+03  0.7957747E-01  0.3426092E+00
         13   -1    0    0    0    0  0.00000000000E+00  0.00000000000E+00  0.14999999963E+04  0.15000000000E+04  0.10566000000E+00 0.  1.
        994   -1    0    0    0    0 -0.00000000000E+00 -0.00000000000E+00  0.11368683772E-12  0.17120000000E+03  0.17120000000E+03 0.  0.
         13    1    1    2    0    0  0.89195354638E+01 -0.66289098572E+01  0.51249710463E+02  0.52440867130E+02  0.10566000000E+00 0.  1.
        994    1    1    2    0    0 -0.69480749215E+01  0.43110027305E+01  0.14300222713E+01  0.17140112442E+03  0.17120000000E+03 0.  0.
        998    1    1    2    0    0 -0.19714605423E+01  0.23179071267E+01  0.14473202635E+04  0.14473580084E+04  0.10000000000E+02 0.  1.
</event>
<event>
 5    1  0.1688215E-008  0.3810857E+03  0.7957747E-01  0.3446444E+00
         13   -1    0    0    0    0  0.00000000000E+00  0.00000000000E+00  0.14999999963E+04  0.15000000000E+04  0.10566000000E+00 0. -1.
        994   -1    0    0    0    0 -0.00000000000E+00 -0.00000000000E+00  0.11368683772E-12  0.17120000000E+03  0.17120000000E+03 0.  0.
         13    1    1    2    0    0 -0.76144684728E+02  0.24202279538E+02  0.16244664771E+03  0.18103228404E+03  0.10566000000E+00 0. -1.
        994    1    1    2    0    0  0.77487734310E+02 -0.26131736905E+02  0.41678026669E+02  0.19425167837E+03  0.17120000000E+03 0.  0.
        998    1    1    2    0    0 -0.13430495822E+01  0.19294573673E+01  0.12958753219E+04  0.12959160376E+04  0.10000000000E+02 0. -1.
</event>
<event>
 5    1  0.1688215E-008  0.3774810E+03  0.7957747E-01  0.3462201E+00
         13   -1    0    0    0    0  0.00000000000E+00  0.00000000000E+00  0.14999999963E+04  0.15000000000E+04  0.10566000000E+00 0. -1.
        994   -1    0    0    0    0 -0.00000000000E+00 -0.00000000000E+00  0.11368683772E-12  0.17120000000E+03  0.17120000000E+03 0.  0.
         13    1    1    2    0    0  0.11248667774E+03  0.89842600814E+01  0.67771641893E+03  0.68704696000E+03  0.10566000000E+00 0. -1.
        994    1    1    2    0    0 -0.10661034446E+03 -0.24360804791E+02  0.46848582932E+02  0.20847888161E+03  0.17120000000E+03 0.  0.
        998    1    1    2    0    0 -0.58763332838E+01  0.15376544709E+02  0.77543499442E+03  0.77567415839E+03  0.10000000000E+02 0.  1.
</event>
<event>
 5    1  0.1688215E-008  0.3853470E+03  0.7957747E-01  0.3428202E+00
         13   -1    0    0    0    0  0.00000000000E+00  0.00000000000E+00  0.14999999963E+04  0.15000000000E+04  0.10566000000E+00 0.  1.
        994   -1    0    0    0    0 -0.00000000000E+00 -0.00000000000E+00  0.11368683772E-12  0.17120000000E+03  0.17120000000E+03 0.  0.
         13    1    1    2    0    0  0.14330529505E+02  0.38239528775E+01  0.67464504020E+02  0.69075734945E+02  0.10566000000E+00 0.  1.
        994    1    1    2    0    0 -0.26370626836E+02 -0.61440010382E+01  0.38700486901E+01  0.17337120864E+03  0.17120000000E+03 0.  0.
        998    1    1    2    0    0  0.12040097331E+02  0.23200481606E+01  0.14286654436E+04  0.14287530564E+04  0.10000000000E+02 0.  1.
</event>
<event>
 5    1  0.1688215E-008  0.3783341E+03  0.7957747E-01  0.3458444E+00
         13   -1    0    0    0    0  0.00000000000E+00  0.00000000000E+00  0.14999999963E+04  0.15000000000E+04  0.10566000000E+00 0. -1.
        994   -1    0    0    0    0 -0.00000000000E+00 -0.00000000000E+00  0.11368683772E-12  0.17120000000E+03  0.17120000000E+03 0.  0.
         13    1    1    2    0    0 -0.47614950977E+02 -0.14285079350E+02  0.20571520234E+03  0.21163648713E+03  0.10566000000E+00 0. -1.
        994    1    1    2    0    0  0.49177996740E+02  0.30313062870E+02  0.16277861570E+02  0.18141600238E+03  0.17120000000E+03 0.  0.
        998    1    1    2    0    0 -0.15630457627E+01 -0.16027983520E+02  0.12780069324E+04  0.12781475105E+04  0.10000000000E+02 0. -1.
</event>
<event>
 5    1  0.1688215E-008  0.3836806E+03  0.7957747E-01  0.3435287E+00
         13   -1    0    0    0    0  0.00000000000E+00  0.00000000000E+00  0.14999999963E+04  0.15000000000E+04  0.10566000000E+00 0. -1.
        994   -1    0    0    0    0 -0.00000000000E+00 -0.00000000000E+00  0.11368683772E-12  0.17120000000E+03  0.17120000000E+03 0.  0.
         13    1    1    2    0    0  0.14148963205E+02  0.82751815937E+00  0.44187517278E+02  0.46405019053E+02  0.10566000000E+00 0. -1.
        994    1    1    2    0    0 -0.47021055825E+01 -0.76078372616E+01  0.25508529165E+01  0.17145243024E+03  0.17120000000E+03 0.  0.
        998    1    1    2    0    0 -0.94468576224E+01  0.67803191023E+01  0.14532616261E+04  0.14533425507E+04  0.10000000000E+02 0. -1.
</event>
<event>
 5    1  0.1688215E-008  0.3832405E+03  0.7957747E-01  0.3437169E+00
         13   -1    0    0    0    0  0.00000000000E+00  0.00000000000E+00  0.14999999963E+04  0.15000000000E+04  0.10566000000E+00 0. -1.
        994   -1    0    0    0    0 -0.00000000000E+00 -0.00000000000E+00  0.11368683772E-12  0.17120000000E+03  0.17120000000E+03 0.  0.
         13    1    1    2    0    0  0.53751245681E+01 -0.89654902654E+01  0.21182163927E+02  0.23621329609E+02  0.10566000000E+00 0. -1.
        994    1    1    2    0    0 -0.25069790072E+00  0.34975668975E+01  0.25468970040E+01  0.17125484667E+03  0.17120000000E+03 0.  0.
        998    1    1    2    0    0 -0.51244266674E+01  0.54679233679E+01  0.14762709353E+04  0.14763238237E+04  0.10000000000E+02 0. -1.
</event>
<event>
 5    1  0.1688215E-008  0.3817463E+03  0.7957747E-01  0.3443590E+00
         13   -1    0    0    0    0  0.00000000000E+00  0.00000000000E+00  0.14999999963E+04  0.15000000000E+04  0.10566000000E+00 0. -1.
        994   -1    0    0    0    0 -0.00000000000E+00 -0.00000000000E+00  0.11368683772E-12  0.17120000000E+03  0.17120000000E+03 0.  0.
         13    1    1    2    0    0  0.26323757918E+01 -0.18643693216E+02  0.55342128323E+02  0.58457497641E+02  0.10566000000E+00 0. -1.
        994    1    1    2    0    0 -0.10362176313E+01  0.37060770413E+01  0.33034429715E+01  0.17127510470E+03  0.17120000000E+03 0.  0.
        998    1    1    2    0    0 -0.15961581604E+01  0.14937616175E+02  0.14413544250E+04  0.14414673977E+04  0.10000000000E+02 0. -1.
</event>
<event>
 5    1  0.1688215E-008  0.3802874E+03  0.7957747E-01  0.3449908E+00
         13   -1    0    0    0    0  0.00000000000E+00  0.00000000000E+00  0.14999999963E+04  0.15000000000E+04  0.10566000000E+00 0.  1.
        994   -1    0    0    0    0 -0.00000000000E+00 -0.00000000000E+00  0.11368683772E-12  0.17120000000E+03  0.17120000000E+03 0.  0.
         13    1    1    2    0    0 -0.12390532402E+02  0.59635711018E+01  0.22300468682E+02  0.26199456883E+02  0.10566000000E+00 0.  1.
        994    1    1    2    0    0  0.77465345152E+01  0.24627584078E+01  0.42088625387E+01  0.17144453476E+03  0.17120000000E+03 0.  0.
        998    1    1    2    0    0  0.46439978871E+01 -0.84263295096E+01  0.14734906651E+04  0.14735560084E+04  0.10000000000E+02 0.  1.
</event>
<event>
 5    1  0.1688215E-008  0.3810028E+03  0.7957747E-01  0.3446804E+00
         13   -1    0    0    0    0  0.00000000000E+00  0.00000000000E+00  0.14999999963E+04  0.15000000000E+04  0.10566000000E+00 0. -1.
        994   -1    0    0    0    0 -0.00000000000E+00 -0.00000000000E+00  0.11368683772E-12  0.17120000000E+03  0.17120000000E+03 0.  0.
         13    1    1    2    0    0 -0.28039923315E+01 -0.11328368668E+02  0.17129707859E+02  0.20727574991E+02  0.10566000000E+00 0. -1.
        994    1    1    2    0    0  0.34517374999E+01  0.10623438763E+02  0.40436469053E+01  0.17161166342E+03  0.17120000000E+03 0.  0.
        998    1    1    2    0    0 -0.64774516843E+00  0.70492990516E+00  0.14788266415E+04  0.14788607616E+04  0.10000000000E+02 0. -1.
</event>
<event>
 5    1  0.1688215E-008  0.3689739E+03  0.7957747E-01  0.3500620E+00
         13   -1    0    0    0    0  0.00000000000E+00  0.00000000000E+00  0.14999999963E+04  0.15000000000E+04  0.10566000000E+00 0. -1.
        994   -1    0    0    0    0 -0.00000000000E+00 -0.00000000000E+00  0.11368683772E-12  0.17120000000E+03  0.17120000000E+03 0.  0.
         13    1    1    2    0    0 -0.12821443288E+02 -0.30401258826E+02  0.47481507498E+02  0.57819812041E+02  0.10566000000E+00 0. -1.
        994    1    1    2    0    0  0.54667740954E+01  0.28966912674E+02  0.13430262415E+02  0.17423771003E+03  0.17120000000E+03 0.  0.
        998    1    1    2    0    0  0.73546691922E+01  0.14343461520E+01  0.14390882264E+04  0.14391424779E+04  0.10000000000E+02 0. -1.
</event>
<event>
 5    1  0.1688215E-008  0.3836094E+03  0.7957747E-01  0.3435592E+00
         13   -1    0    0    0    0  0.00000000000E+00  0.00000000000E+00  0.14999999963E+04  0.15000000000E+04  0.10566000000E+00 0. -1.
        994   -1    0    0    0    0 -0.00000000000E+00 -0.00000000000E+00  0.11368683772E-12  0.17120000000E+03  0.17120000000E+03 0.  0.
         13    1    1    2    0    0 -0.10009646618E+02 -0.14774629980E+02  0.66657593269E+02  0.69005279659E+02  0.10566000000E+00 0. -1.
        994    1    1    2    0    0 -0.41528987426E+01  0.21479917537E+02  0.39049291527E+01  0.17263638636E+03  0.17120000000E+03 0.  0.
        998    1    1    2    0    0  0.14162545361E+02 -0.67052875575E+01  0.14294374739E+04  0.14295583340E+04  0.10000000000E+02 0. -1.
</event>
<event>
 5    1  0.1688215E-008  0.3829227E+03  0.7957747E-01  0.3438530E+00
         13   -1    0    0    0    0  0.00000000000E+00  0.00000000000E+00  0.14999999963E+04  0.15000000000E+04  0.10566000000E+00 0.  1.
        994   -1    0    0    0    0 -0.00000000000E+00 -0.00000000000E+00  0.11368683772E-12  0.17120000000E+03  0.17120000000E+03 0.  0.
         13    1    1    2    0    0 -0.18273291107E+02 -0.18224252609E+02  0.12580821738E+03  0.12842801593E+03  0.10566000000E+00 0.  1.
        994    1    1    2    0    0  0.84453179761E+01  0.11077735319E+02  0.33077367032E+01  0.17179761563E+03  0.17120000000E+03 0.  0.
        998    1    1    2    0    0  0.98279731305E+01  0.71465172899E+01  0.13708840422E+04  0.13709743684E+04  0.10000000000E+02 0.  1.
</event>
<event>
 5    1  0.1688215E-008  0.3844579E+03  0.7957747E-01  0.3431975E+00
         13   -1    0    0    0    0  0.00000000000E+00  0.00000000000E+00  0.14999999963E+04  0.15000000000E+04  0.10566000000E+00 0.  1.
        994   -1    0    0    0    0 -0.00000000000E+00 -0.00000000000E+00  0.11368683772E-12  0.17120000000E+03  0.17120000000E+03 0.  0.
         13    1    1    2    0    0  0.98064677102E+01 -0.11548602125E+02  0.65832564894E+02  0.67553495724E+02  0.10566000000E+00 0.  1.
        994    1    1    2    0    0 -0.38430104246E+01 -0.96781583350E+01  0.22568296237E+01  0.17153124718E+03  0.17120000000E+03 0.  0.
        998    1    1    2    0    0 -0.59634572856E+01  0.21226760460E+02  0.14319106018E+04  0.14321152571E+04  0.10000000000E+02 0.  1.
</event>
<event>
 5    1  0.1688215E-008  0.3855435E+03  0.7957747E-01  0.3427370E+00
         13   -1    0    0    0    0  0.00000000000E+00  0.00000000000E+00  0.14999999963E+04  0.15000000000E+04  0.10566000000E+00 0.  1.
        994   -1    0    0    0    0 -0.00000000000E+00 -0.00000000000E+00  0.11368683772E-12  0.17120000000E+03  0.17120000000E+03 0.  0.
         13    1    1    2    0    0  0.14853792253E+02  0.11361851182E+01  0.77385549612E+02  0.78806475075E+02  0.10566000000E+00 0.  1.
        994    1    1    2    0    0 -0.16970553660E+02 -0.93462020720E+01  0.25937128777E+01  0.17231227040E+03  0.17120000000E+03 0.  0.
        998    1    1    2    0    0  0.21167614077E+01  0.82100169537E+01  0.14200207338E+04  0.14200812545E+04  0.10000000000E+02 0.  1.
</event>
<event>
 5    1  0.1688215E-008  0.3820655E+03  0.7957747E-01  0.3442214E+00
         13   -1    0    0    0    0  0.00000000000E+00  0.00000000000E+00  0.14999999963E+04  0.15000000000E+04  0.10566000000E+00 0.  1.
        994   -1    0    0    0    0 -0.00000000000E+00 -0.00000000000E+00  0.11368683772E-12  0.17120000000E+03  0.17120000000E+03 0.  0.
         13    1    1    2    0    0 -0.71945710081E+00  0.12138444244E+02  0.22255753011E+02  0.25361174131E+02  0.10566000000E+00 0.  1.
        994    1    1    2    0    0  0.89216346709E+01 -0.14412480625E+02  0.40486321614E+01  0.17208470759E+03  0.17120000000E+03 0.  0.
        998    1    1    2    0    0 -0.82021775701E+01  0.22740363810E+01  0.14736956111E+04  0.14737541183E+04  0.10000000000E+02 0.  1.
</event>
<event>
 5    1  0.1688215E-008  0.3819771E+03  0.7957747E-01  0.3442595E+00
         13   -1    0    0    0    0  0.00000000000E+00  0.00000000000E+00  0.14999999963E+04  0.15000000000E+04  0.10566000000E+00 0.  1.
        994   -1    0    0    0    0 -0.00000000000E+00 -0.00000000000E+00  0.11368683772E-12  0.17120000000E+03  0.17120000000E+03 0.  0.
         13    1    1    2    0    0  0.20704360557E+02  0.96217060494E+01  0.82744915265E+02  0.85836938084E+02  0.10566000000E+00 0.  1.
        994    1    1    2    0    0 -0.20288539863E+02  0.12831804698E+02  0.50547219144E+01  0.17294875043E+03  0.17120000000E+03 0.  0.
        998    1    1    2    0    0 -0.41582069358E+00 -0.22453510748E+02  0.14122003591E+04  0.14124143115E+04  0.10000000000E+02 0.  1.
</event>
<event>
 5    1  0.1688215E-008  0.3748157E+03  0.7957747E-01  0.3474047E+00
         13   -1    0    0    0    0  0.00000000000E+00  0.00000000000E+00  0.14999999963E+04  0.15000000000E+04  0.10566000000E+00 0.  1.
        994   -1    0    0    0    0 -0.00000000000E+00 -0.00000000000E+00  0.11368683772E-12  0.17120000000E+03  0.17120000000E+03 0.  0.
         13    1    1    2    0    0 -0.66827262728E+02 -0.13074058001E+03  0.58569748625E+03  0.60382161179E+03  0.10566000000E+00 0.  1.
        994    1    1    2    0    0  0.98757760070E+02  0.15236482865E+03  0.12873794230E+03  0.28080426273E+03  0.17120000000E+03 0.  0.
        998    1    1    2    0    0 -0.31930497342E+02 -0.21624248632E+02  0.78556456773E+03  0.78657412547E+03  0.10000000000E+02 0.  1.
</event>
<event>
 5    1  0.1688215E-008  0.3850680E+03  0.7957747E-01  0.3429384E+00
         13   -1    0    0    0    0  0.00000000000E+00  0.00000000000E+00  0.14999999963E+04  0.15000000000E+04  0.10566000000E+00 0.  1.
        994   -1    0    0    0    0 -0.00000000000E+00 -0.00000000000E+00  0.11368683772E-12  0.17120000000E+03  0.17120000000E+03 0.  0.
         13    1    1    2    0    0 -0.10646638012E+02  0.54669455021E+01  0.43925260504E+02  0.45526674252E+02  0.10566000000E+00 0.  1.
        994    1    1    2    0    0  0.73349964302E+01 -0.11627876937E+02  0.22180752589E+01  0.17176544924E+03  0.17120000000E+03 0.  0.
        998    1    1    2    0    0  0.33116415820E+01  0.61609314344E+01  0.14538566605E+04  0.14539078765E+04  0.10000000000E+02 0.  1.
</event>
<event>
 5    1  0.1688215E-008  0.3808175E+03  0.7957747E-01  0.3447607E+00
         13   -1    0    0    0    0  0.00000000000E+00  0.00000000000E+00  0.14999999963E+04  0.15000000000E+04  0.10566000000E+00 0.  1.
        994   -1    0    0    0    0 -0.00000000000E+00 -0.00000000000E+00  0.11368683772E-12  0.17120000000E+03  0.17120000000E+03 0.  0.
         13    1    1    2    0    0 -0.52314981127E+02  0.96855189031E+01  0.27775626619E+03  0.28280597783E+03  0.10566000000E+00 0.  1.
        994    1    1    2    0    0  0.64962528956E+02 -0.81814988775E+01  0.18148356920E+02  0.18418976614E+03  0.17120000000E+03 0.  0.
        998    1    1    2    0    0 -0.12647547829E+02 -0.15040200256E+01  0.12040953732E+04  0.12042042560E+04  0.10000000000E+02 0.  1.
</event>
<event>
 5    1  0.1688215E-008  0.3839063E+03  0.7957747E-01  0.3434324E+00
         13   -1    0    0    0    0  0.00000000000E+00  0.00000000000E+00  0.14999999963E+04  0.15000000000E+04  0.10566000000E+00 0. -1.
        994   -1    0    0    0    0 -0.00000000000E+00 -0.00000000000E+00  0.11368683772E-12  0.17120000000E+03  0.17120000000E+03 0.  0.
         13    1    1    2    0    0 -0.68847658933E+00 -0.14960294652E+02  0.54194485996E+02  0.56225776050E+02  0.10566000000E+00 0. -1.
        994    1    1    2    0    0 -0.37129156154E+01 -0.14314958439E+01  0.22264030457E+01  0.17126071293E+03  0.17120000000E+03 0.  0.
        998    1    1    2    0    0  0.44013922047E+01  0.16391790496E+02  0.14435791072E+04  0.14437135110E+04  0.10000000000E+02 0. -1.
</event>
<event>
 5    1  0.1688215E-008  0.3799078E+03  0.7957747E-01  0.3451560E+00
         13   -1    0    0    0    0  0.00000000000E+00  0.00000000000E+00  0.14999999963E+04  0.15000000000E+04  0.10566000000E+00 0.  1.
        994   -1    0    0    0    0 -0.00000000000E+00 -0.00000000000E+00  0.11368683772E-12  0.17120000000E+03  0.17120000000E+03 0.  0.
         13    1    1    2    0    0 -0.11633439908E+02 -0.17208356690E+01  0.14885613010E+02  0.18970789077E+02  0.10566000000E+00 0.  1.
        994    1    1    2    0    0  0.42751215177E+01  0.27622054225E+01  0.42663560735E+01  0.17132877236E+03  0.17120000000E+03 0.  0.
        998    1    1    2    0    0  0.73583183902E+01 -0.10413697534E+01  0.14808480272E+04  0.14809004386E+04  0.10000000000E+02 0.  1.
</event>
<event>
 5    1  0.1688215E-008  0.3936222E+03  0.7957747E-01  0.3393908E+00
         13   -1    0    0    0    0  0.00000000000E+00  0.00000000000E+00  0.14999999963E+04  0.15000000000E+04  0.10566000000E+00 0.  1.
        994   -1    0    0    0    0 -0.00000000000E+00 -0.00000000000E+00  0.11368683772E-12  0.17120000000E+03  0.17120000000E+03 0.  0.
         13    1    1    2    0    0 -0.29751861963E+02 -0.99535491304E+02  0.24328580076E+03  0.26453823795E+03  0.10566000000E+00 0.  1.
        994    1    1    2    0    0  0.52017968913E+02  0.26402279208E+02  0.37123166937E+02  0.18463617999E+03  0.17120000000E+03 0.  0.
        998    1    1    2    0    0 -0.22266106950E+02  0.73133212096E+02  0.12195910286E+04  0.12220255821E+04  0.10000000000E+02 0.  1.
</event>
<event>
 5    1  0.1688215E-008  0.3805219E+03  0.7957747E-01  0.3448889E+00
         13   -1    0    0    0    0  0.00000000000E+00  0.00000000000E+00  0.14999999963E+04  0.15000000000E+04  0.10566000000E+00 0. -1.
        994   -1    0    0    0    0 -0.00000000000E+00 -0.00000000000E+00  0.11368683772E-12  0.17120000000E+03  0.17120000000E+03 0.  0.
         13    1    1    2    0    0  0.16890493877E+02 -0.11935700646E+02  0.52714619356E+02  0.56626778040E+02  0.10566000000E+00 0. -1.
        994    1    1    2    0    0 -0.20121926404E+02  0.42520112377E+01  0.52827122446E+01  0.17251179255E+03  0.17120000000E+03 0.  0.
        998    1    1    2    0    0  0.32314325268E+01  0.76836894084E+01  0.14420026647E+04  0.14420614294E+04  0.10000000000E+02 0. -1.
</event>
<event>
 5    1  0.1688215E-008  0.3787927E+03  0.7957747E-01  0.3456432E+00
         13   -1    0    0    0    0  0.00000000000E+00  0.00000000000E+00  0.14999999963E+04  0.15000000000E+04  0.10566000000E+00 0.  1.
        994   -1    0    0    0    0 -0.00000000000E+00 -0.00000000000E+00  0.11368683772E-12  0.17120000000E+03  0.17120000000E+03 0.  0.
         13    1    1    2    0    0  0.15797380984E+03 -0.63579670510E+00  0.93430942009E+03  0.94757070051E+03  0.10566000000E+00 0.  1.
        994    1    1    2    0    0 -0.15460864590E+03  0.20938425162E+01  0.89693066202E+02  0.24751263339E+03  0.17120000000E+03 0.  0.
        998    1    1    2    0    0 -0.33651639408E+01 -0.14580458111E+01  0.47599750998E+03  0.47611666610E+03  0.10000000000E+02 0.  0.
</event>
<event>
 5    1  0.1688215E-008  0.3835264E+03  0.7957747E-01  0.3435946E+00
         13   -1    0    0    0    0  0.00000000000E+00  0.00000000000E+00  0.14999999963E+04  0.15000000000E+04  0.10566000000E+00 0. -1.
        994   -1    0    0    0    0 -0.00000000000E+00 -0.00000000000E+00  0.11368683772E-12  0.17120000000E+03  0.17120000000E+03 0.  0.
         13    1    1    2    0    0  0.93327071344E+01 -0.72300688168E+01  0.28841310894E+02  0.31164173271E+02  0.10566000000E+00 0. -1.
        994    1    1    2    0    0 -0.76820794869E+01  0.17130374019E+01  0.25682671550E+01  0.17140007246E+03  0.17120000000E+03 0.  0.
        998    1    1    2    0    0 -0.16506276475E+01  0.55170314149E+01  0.14685904182E+04  0.14686357543E+04  0.10000000000E+02 0. -1.
</event>
<event>
 5    1  0.1688215E-008  0.3827037E+03  0.7957747E-01  0.3439470E+00
         13   -1    0    0    0    0  0.00000000000E+00  0.00000000000E+00  0.14999999963E+04  0.15000000000E+04  0.10566000000E+00 0.  1.
        994   -1    0    0    0    0 -0.00000000000E+00 -0.00000000000E+00  0.11368683772E-12  0.17120000000E+03  0.17120000000E+03 0.  0.
         13    1    1    2    0    0  0.15791859495E+02  0.63274729804E+01  0.50695327334E+02  0.53473798426E+02  0.10566000000E+00 0.  1.
        994    1    1    2    0    0 -0.12184379951E+02 -0.66793892501E+01  0.34144825945E+01  0.17179689184E+03  0.17120000000E+03 0.  0.
        998    1    1    2    0    0 -0.36074795443E+01  0.35191626974E+00  0.14458901864E+04  0.14459293097E+04  0.10000000000E+02 0.  1.
</event>
<event>
 5    1  0.1688215E-008  0.3809638E+03  0.7957747E-01  0.3446973E+00
         13   -1    0    0    0    0  0.00000000000E+00  0.00000000000E+00  0.14999999963E+04  0.15000000000E+04  0.10566000000E+00 0. -1.
        994   -1    0    0    0    0 -0.00000000000E+00 -0.00000000000E+00  0.11368683772E-12  0.17120000000E+03  0.17120000000E+03 0.  0.
         13    1    1    2    0    0  0.60886167391E+01  0.80317658759E+01  0.12370505409E+02  0.15956850723E+02  0.10566000000E+00 0. -1.
        994    1    1    2    0    0 -0.11868197193E+01 -0.74969415550E+01  0.38394149401E+01  0.17141118336E+03  0.17120000000E+03 0.  0.
        998    1    1    2    0    0 -0.49017970199E+01 -0.53482432087E+00  0.14837900759E+04  0.14838319659E+04  0.10000000000E+02 0. -1.
</event>
<event>
 5    1  0.1688215E-008  0.3793108E+03  0.7957747E-01  0.3454165E+00
         13   -1    0    0    0    0  0.00000000000E+00  0.00000000000E+00  0.14999999963E+04  0.15000000000E+04  0.10566000000E+00 0. -1.
        994   -1    0    0    0    0 -0.00000000000E+00 -0.00000000000E+00  0.11368683772E-12  0.17120000000E+03  0.17120000000E+03 0.  0.
         13    1    1    2    0    0  0.33265361740E+02 -0.15628552754E+03  0.90888962746E+03  0.92282832449E+03  0.10566000000E+00 0. -1.
        994    1    1    2    0    0 -0.14672380066E+02  0.16488925158E+03  0.10256189483E+03  0.25929158547E+03  0.17120000000E+03 0.  0.
        998    1    1    2    0    0 -0.18592981674E+02 -0.86037240404E+01  0.48854847399E+03  0.48908009004E+03  0.10000000000E+02 0.  1.
</event>
<event>
 5    1  0.1688215E-008  0.3833998E+03  0.7957747E-01  0.3436487E+00
         13   -1    0    0    0    0  0.00000000000E+00  0.00000000000E+00  0.14999999963E+04  0.15000000000E+04  0.10566000000E+00 0.  1.
        994   -1    0    0    0    0 -0.00000000000E+00 -0.00000000000E+00  0.11368683772E-12  0.17120000000E+03  0.17120000000E+03 0.  0.
         13    1    1    2    0    0 -0.97556746621E+01 -0.83233885407E+01  0.33330256733E+02  0.35712311082E+02  0.10566000000E+00 0.  1.
        994    1    1    2    0    0  0.79075498721E+01  0.18201437367E+01  0.26443998991E+01  0.17141258740E+03  0.17120000000E+03 0.  0.
        998    1    1    2    0    0  0.18481247901E+01  0.65032448040E+01  0.14640253396E+04  0.14640751015E+04  0.10000000000E+02 0.  1.
</event>
<event>
 5    1  0.1688215E-008  0.3734049E+03  0.7957747E-01  0.3480387E+00
         13   -1    0    0    0    0  0.00000000000E+00  0.00000000000E+00  0.14999999963E+04  0.15000000000E+04  0.10566000000E+00 0.  1.
        994   -1    0    0    0    0 -0.00000000000E+00 -0.00000000000E+00  0.11368683772E-12  0.17120000000E+03  0.17120000000E+03 0.  0.
         13    1    1    2    0    0  0.26287379358E+02 -0.19599717502E+02  0.65465410241E+02  0.73218210452E+02  0.10566000000E+00 0.  1.
        994    1    1    2    0    0 -0.19800705482E+02  0.33703144389E+02  0.12740076374E+02  0.17606737184E+03  0.17120000000E+03 0.  0.
        998    1    1    2    0    0 -0.64866738757E+01 -0.14103426887E+02  0.14217945097E+04  0.14219144177E+04  0.10000000000E+02 0.  1.
</event>
<event>
 5    1  0.1688215E-008  0.3838696E+03  0.7957747E-01  0.3434481E+00
         13   -1    0    0    0    0  0.00000000000E+00  0.00000000000E+00  0.14999999963E+04  0.15000000000E+04  0.10566000000E+00 0.  1.
        994   -1    0    0    0    0 -0.00000000000E+00 -0.00000000000E+00  0.11368683772E-12  0.17120000000E+03  0.17120000000E+03 0.  0.
         13    1    1    2    0    0 -0.95204388402E+01  0.61332054038E+01  0.28402392462E+02  0.30577148753E+02  0.10566000000E+00 0.  1.
        994    1    1    2    0    0  0.11578344299E+02  0.16672141978E+00  0.26351318206E+01  0.17161139173E+03  0.17120000000E+03 0.  0.
        998    1    1    2    0    0 -0.20579054586E+01 -0.62999268236E+01  0.14689624720E+04  0.14690114595E+04  0.10000000000E+02 0.  1.
</event>
<event>
 5    1  0.1688215E-008  0.3796324E+03  0.7957747E-01  0.3452761E+00
         13   -1    0    0    0    0  0.00000000000E+00  0.00000000000E+00  0.14999999963E+04  0.15000000000E+04  0.10566000000E+00 0. -1.
        994   -1    0    0    0    0 -0.00000000000E+00 -0.00000000000E+00  0.11368683772E-12  0.17120000000E+03  0.17120000000E+03 0.  0.
         13    1    1    2    0    0  0.23587210367E+02 -0.60097471817E+02  0.34031842528E+03  0.34638808346E+03  0.10566000000E+00 0. -1.
        994    1    1    2    0    0 -0.49801321287E+02  0.60927380734E+02  0.25331114516E+02  0.19011423589E+03  0.17120000000E+03 0.  0.
        998    1    1    2    0    0  0.26214110920E+02 -0.82990891716E+00  0.11343504565E+04  0.11346976807E+04  0.10000000000E+02 0. -1.
</event>
<event>
 5    1  0.1688215E-008  0.3847789E+03  0.7957747E-01  0.3430610E+00
         13   -1    0    0    0    0  0.00000000000E+00  0.00000000000E+00  0.14999999963E+04  0.15000000000E+04  0.10566000000E+00 0. -1.
        994   -1    0    0    0    0 -0.00000000000E+00 -0.00000000000E+00  0.11368683772E-12  0.17120000000E+03  0.17120000000E+03 0.  0.
         13    1    1    2    0    0  0.11783586987E+02  0.61288582268E+01  0.49806386684E+02  0.51547096368E+02  0.10566000000E+00 0. -1.
        994    1    1    2    0    0 -0.96388836310E+01 -0.65432671027E+01  0.21867439861E+01  0.17160986065E+03  0.17120000000E+03 0.  0.
        998    1    1    2    0    0 -0.21447033557E+01  0.41440887593E+00  0.14480068656E+04  0.14480430430E+04  0.10000000000E+02 0. -1.
</event>
<event>
 5    1  0.1688215E-008  0.3911928E+03  0.7957747E-01  0.3403825E+00
         13   -1    0    0    0    0  0.00000000000E+00  0.00000000000E+00  0.14999999963E+04  0.15000000000E+04  0.10566000000E+00 0. -1.
        994   -1    0    0    0    0 -0.00000000000E+00 -0.00000000000E+00  0.11368683772E-12  0.17120000000E+03  0.17120000000E+03 0.  0.
         13    1    1    2    0    0  0.55336674654E+02 -0.64526654722E+02  0.13684492496E+03  0.16109742823E+03  0.10566000000E+00 0. -1.
        994    1    1    2    0    0 -0.64713896727E+02  0.62317359476E+02  0.53817765755E+02  0.20069163817E+03  0.17120000000E+03 0.  0.
        998    1    1    2    0    0  0.93772220729E+01  0.22092952460E+01  0.13093373056E+04  0.13094109336E+04  0.10000000000E+02 0. -1.
</event>
<event>
 5    1  0.2475082E-008  0.3856238E+03  0.7957747E-01  0.3427031E+00
         13   -1    0    0    0    0  0.00000000000E+00  0.00000000000E+00  0.14999999963E+04  0.15000000000E+04  0.10566000000E+00 0.  1.
        994   -1    0    0    0    0 -0.00000000000E+00 -0.00000000000E+00  0.11368683772E-12  0.17120000000E+03  0.17120000000E+03 0.  0.
         13    1    1    2    0    0  0.27647607647E+01 -0.13965297149E+02  0.82384627670E+02  0.83605690398E+02  0.10566000000E+00 0.  1.
        994    1    1    2    0    0  0.42143133632E+01  0.21158819459E+01  0.13937326377E+01  0.17127060426E+03  0.17120000000E+03 0.  0.
        998    1    1    2    0    0 -0.69790741279E+01  0.11849415204E+02  0.14162216360E+04  0.14163237053E+04  0.10000000000E+02 0.  1.
</event>
<event>
 5    1  0.1688215E-008  0.3830897E+03  0.7957747E-01  0.3437815E+00
         13   -1    0    0    0    0  0.00000000000E+00  0.00000000000E+00  0.14999999963E+04  0.15000000000E+04  0.10566000000E+00 0. -1.
        994   -1    0    0    0    0 -0.00000000000E+00 -0.00000000000E+00  0.11368683772E-12  0.17120000000E+03  0.17120000000E+03 0.  0.
         13    1    1    2    0    0  0.77311859572E+01  0.88711122674E+01  0.25531173825E+02  0.28112628303E+02  0.10566000000E+00 0. -1.
        994    1    1    2    0    0 -0.32601826813E+02  0.11625413595E+02  0.65561246178E+01  0.17478687629E+03  0.17120000000E+03 0.  0.
        998    1    1    2    0    0  0.24870640856E+02 -0.20496525862E+02  0.14679126978E+04  0.14683004954E+04  0.10000000000E+02 0. -1.
</event>
<event>
 5    1  0.1688215E-008  0.3840739E+03  0.7957747E-01  0.3433610E+00
         13   -1    0    0    0    0  0.00000000000E+00  0.00000000000E+00  0.14999999963E+04  0.15000000000E+04  0.10566000000E+00 0.  1.
        994   -1    0    0    0    0 -0.00000000000E+00 -0.00000000000E+00  0.11368683772E-12  0.17120000000E+03  0.17120000000E+03 0.  0.
         13    1    1    2    0    0  0.14691096260E+02  0.11297025371E+02  0.80180697124E+02  0.82294631945E+02  0.10566000000E+00 0.  1.
        994    1    1    2    0    0 -0.78003294273E+01 -0.14507098666E+02  0.29860587906E+01  0.17201644572E+03  0.17120000000E+03 0.  0.
        998    1    1    2    0    0 -0.68907668323E+01  0.32100732942E+01  0.14168332404E+04  0.14168889223E+04  0.10000000000E+02 0.  1.
</event>
<event>
 5    1  0.1688215E-008  0.3833243E+03  0.7957747E-01  0.3436810E+00
         13   -1    0    0    0    0  0.00000000000E+00  0.00000000000E+00  0.14999999963E+04  0.15000000000E+04  0.10566000000E+00 0. -1.
        994   -1    0    0    0    0 -0.00000000000E+00 -0.00000000000E+00  0.11368683772E-12  0.17120000000E+03  0.17120000000E+03 0.  0.
         13    1    1    2    0    0 -0.19728074944E+02  0.10646895878E+02  0.98984005893E+02  0.10149087604E+03  0.10566000000E+00 0. -1.
        994    1    1    2    0    0  0.81024717804E+01 -0.22605994178E+02  0.43735897075E+01  0.17293134276E+03  0.17120000000E+03 0.  0.
        998    1    1    2    0    0  0.11625603164E+02  0.11959098300E+02  0.13966424007E+04  0.13967777812E+04  0.10000000000E+02 0. -1.
</event>
<event>
 5    1  0.1688215E-008  0.3785232E+03  0.7957747E-01  0.3457614E+00
         13   -1    0    0    0    0  0.00000000000E+00  0.00000000000E+00  0.14999999963E+04  0.15000000000E+04  0.10566000000E+00 0.  1.
        994   -1    0    0    0    0 -0.00000000000E+00 -0.00000000000E+00  0.11368683772E-12  0.17120000000E+03  0.17120000000E+03 0.  0.
         13    1    1    2    0    0 -0.22979291092E+02  0.11137673104E+02  0.60178449362E+02  0.65372414005E+02  0.10566000000E+00 0.  1.
        994    1    1    2    0    0  0.35305926167E+02 -0.10878926590E+02  0.94791870488E+01  0.17539713354E+03  0.17120000000E+03 0.  0.
        998    1    1    2    0    0 -0.12326635075E+02 -0.25874651446E+00  0.14303423599E+04  0.14304304525E+04  0.10000000000E+02 0.  1.
</event>
<event>
 5    1  0.1688215E-008  0.3742019E+03  0.7957747E-01  0.3476800E+00
         13   -1    0    0    0    0  0.00000000000E+00  0.00000000000E+00  0.14999999963E+04  0.15000000000E+04  0.10566000000E+00 0. -1.
        994   -1    0    0    0    0 -0.00000000000E+00 -0.00000000000E+00  0.11368683772E-12  0.17120000000E+03  0.17120000000E+03 0.  0.
         13    1    1    2    0    0  0.28689012261E+02 -0.20760466394E+01  0.58237520033E+02  0.64953747373E+02  0.10566000000E+00 0. -1.
        994    1    1    2    0    0 -0.42018747919E+01  0.89362551285E+01  0.74215633174E+01  0.17164507569E+03  0.17120000000E+03 0.  0.
        998    1    1    2    0    0 -0.24487137469E+02 -0.68602084892E+01  0.14343409129E+04  0.14346011769E+04  0.10000000000E+02 0. -1.
</event>
<event>
 5    1  0.1688215E-008  0.4026170E+03  0.7957747E-01  0.3358228E+00
         13   -1    0    0    0    0  0.00000000000E+00  0.00000000000E+00  0.14999999963E+04  0.15000000000E+04  0.10566000000E+00 0. -1.
        994   -1    0    0    0    0 -0.00000000000E+00 -0.00000000000E+00  0.11368683772E-12  0.17120000000E+03  0.17120000000E+03 0.  0.
         13    1    1    2    0    0 -0.40810806906E+02  0.51380208999E+02  0.60745523620E+02  0.89417434771E+02  0.10566000000E+00 0. -1.
        994    1    1    2    0    0  0.35059832940E+02 -0.57831443730E+02  0.47684370093E+02  0.19014969608E+03  0.17120000000E+03 0.  0.
        998    1    1    2    0    0  0.57509739667E+01  0.64512347309E+01  0.13915701026E+04  0.13916328691E+04  0.10000000000E+02 0. -1.
</event>
<event>
 5    1  0.1688215E-008  0.3844644E+03  0.7957747E-01  0.3431947E+00
         13   -1    0    0    0    0  0.00000000000E+00  0.00000000000E+00  0.14999999963E+04  0.15000000000E+04  0.10566000000E+00 0. -1.
        994   -1    0    0    0    0 -0.00000000000E+00 -0.00000000000E+00  0.11368683772E-12  0.17120000000E+03  0.17120000000E+03 0.  0.
         13    1    1    2    0    0 -0.11179936742E+02  0.24752756277E+01  0.34164612649E+02  0.36032622670E+02  0.10566000000E+00 0. -1.
        994    1    1    2    0    0  0.70617249665E+01 -0.44508587801E+01  0.21258530291E+01  0.17141656091E+03  0.17120000000E+03 0.  0.
        998    1    1    2    0    0  0.41182117755E+01  0.19755831524E+01  0.14637095306E+04  0.14637508164E+04  0.10000000000E+02 0. -1.
</event>
<event>
 5    1  0.1688215E-008  0.3858208E+03  0.7957747E-01  0.3426198E+00
         13   -1    0    0    0    0  0.00000000000E+00  0.00000000000E+00  0.14999999963E+04  0.15000000000E+04  0.10566000000E+00 0.  1.
        994   -1    0    0    0    0 -0.00000000000E+00 -0.00000000000E+00  0.11368683772E-12  0.17120000000E+03  0.17120000000E+03 0.  0.
         13    1    1    2    0    0  0.10870072077E+02 -0.24688483042E+01  0.55208215492E+02  0.56322392534E+02  0.10566000000E+00 0.  1.
        994    1    1    2    0    0  0.46983224055E+01  0.52364215001E+01  0.13855130075E+01  0.17135009189E+03  0.17120000000E+03 0.  0.
        998    1    1    2    0    0 -0.15568394482E+02 -0.27675731960E+01  0.14434062678E+04  0.14435275156E+04  0.10000000000E+02 0.  1.
</event>
<event>
 5    1  0.1688215E-008  0.3830056E+03  0.7957747E-01  0.3438175E+00
         13   -1    0    0    0    0  0.00000000000E+00  0.00000000000E+00  0.14999999963E+04  0.15000000000E+04  0.10566000000E+00 0. -1.
        994   -1    0    0    0    0 -0.00000000000E+00 -0.00000000000E+00  0.11368683772E-12  0.17120000000E+03  0.17120000000E+03 0.  0.
         13    1    1    2    0    0 -0.22131466510E+02 -0.26726658190E+02  0.20409234087E+03  0.20702128111E+03  0.10566000000E+00 0. -1.
        994    1    1    2    0    0  0.15163607206E+02  0.30175028199E+02  0.64077743971E+01  0.17461662831E+03  0.17120000000E+03 0.  0.
        998    1    1    2    0    0  0.69678593039E+01 -0.34483700097E+01  0.12894998810E+04  0.12895620906E+04  0.10000000000E+02 0. -1.
</event>
<event>
 5    1  0.1688215E-008  0.3761409E+03  0.7957747E-01  0.3468136E+00
         13   -1    0    0    0    0  0.00000000000E+00  0.00000000000E+00  0.14999999963E+04  0.15000000000E+04  0.10566000000E+00 0. -1.
        994   -1    0    0    0    0 -0.00000000000E+00 -0.00000000000E+00  0.11368683772E-12  0.17120000000E+03  0.17120000000E+03 0.  0.
         13    1    1    2    0    0  0.49895931512E+02  0.27888014404E+02  0.23235100843E+03  0.23927880728E+03  0.10566000000E+00 0. -1.
        994    1    1    2    0    0 -0.53511444600E+02 -0.13803904550E+02  0.16506404205E+02  0.18065415540E+03  0.17120000000E+03 0.  0.
        998    1    1    2    0    0  0.36155130879E+01 -0.14084109854E+02  0.12511425836E+04  0.12512670373E+04  0.10000000000E+02 0. -1.
</event>
<event>
 5    1  0.1688215E-008  0.4190788E+03  0.7957747E-01  0.3296862E+00
         13   -1    0    0    0    0  0.00000000000E+00  0.00000000000E+00  0.14999999963E+04  0.15000000000E+04  0.10566000000E+00 0. -1.
        994   -1    0    0    0    0 -0.00000000000E+00 -0.00000000000E+00  0.11368683772E-12  0.17120000000E+03  0.17120000000E+03 0.  0.
         13    1    1    2    0    0 -0.89447429200E+02 -0.20327136459E+02  0.86059834790E+02  0.12577893860E+03  0.10566000000E+00 0. -1.
        994    1    1    2    0    0  0.99329642282E+02  0.19384626918E+02  0.84790469142E+02  0.21619668188E+03  0.17120000000E+03 0.  0.
        998    1    1    2    0    0 -0.98822130822E+01  0.94250954096E+00  0.13291496923E+04  0.13292243795E+04  0.10000000000E+02 0. -1.
</event>
<event>
 5    1  0.1688215E-008  0.3836591E+03  0.7957747E-01  0.3435379E+00
         13   -1    0    0    0    0  0.00000000000E+00  0.00000000000E+00  0.14999999963E+04  0.15000000000E+04  0.10566000000E+00 0. -1.
        994   -1    0    0    0    0 -0.00000000000E+00 -0.00000000000E+00  0.11368683772E-12  0.17120000000E+03  0.17120000000E+03 0.  0.
         13    1    1    2    0    0 -0.19701434865E+02  0.41372571426E+02  0.49641871049E+02  0.67558587370E+02  0.10566000000E+00 0. -1.
        994    1    1    2    0    0  0.49791253020E+01 -0.41382495243E+02  0.24759780215E+02  0.17793197947E+03  0.17120000000E+03 0.  0.
        998    1    1    2    0    0  0.14722309563E+02  0.99238167674E-02  0.14255983450E+04  0.14257094332E+04  0.10000000000E+02 0. -1.
</event>
<event>
 5    1  0.1688215E-008  0.3847476E+03  0.7957747E-01  0.3430743E+00
         13   -1    0    0    0    0  0.00000000000E+00  0.00000000000E+00  0.14999999963E+04  0.15000000000E+04  0.10566000000E+00 0. -1.
        994   -1    0    0    0    0 -0.00000000000E+00 -0.00000000000E+00  0.11368683772E-12  0.17120000000E+03  0.17120000000E+03 0.  0.
         13    1    1    2    0    0  0.11646435630E+02 -0.51371857983E+01  0.48554267452E+02  0.50195200893E+02  0.10566000000E+00 0. -1.
        994    1    1    2    0    0  0.28742485134E+01  0.22563719167E+01  0.17994507255E+01  0.17124844683E+03  0.17120000000E+03 0.  0.
        998    1    1    2    0    0 -0.14520684143E+02  0.28808138816E+01  0.14496462781E+04  0.14497563523E+04  0.10000000000E+02 0. -1.
</event>
<event>
 5    1  0.1688215E-008  0.3850492E+03  0.7957747E-01  0.3429464E+00
         13   -1    0    0    0    0  0.00000000000E+00  0.00000000000E+00  0.14999999963E+04  0.15000000000E+04  0.10566000000E+00 0.  1.
        994   -1    0    0    0    0 -0.00000000000E+00 -0.00000000000E+00  0.11368683772E-12  0.17120000000E+03  0.17120000000E+03 0.  0.
         13    1    1    2    0    0  0.23801969471E+02  0.14805859303E+02  0.16871981570E+03  0.17103255419E+03  0.10566000000E+00 0.  1.
        994    1    1    2    0    0 -0.28438758410E+02 -0.65970535470E+02  0.18763415824E+02  0.18660755693E+03  0.17120000000E+03 0.  0.
        998    1    1    2    0    0  0.46367889398E+01  0.51164676167E+02  0.13125167648E+04  0.13135598889E+04  0.10000000000E+02 0.  1.
</event>
<event>
 5    1  0.1688215E-008  0.3797491E+03  0.7957747E-01  0.3452252E+00
         13   -1    0    0    0    0  0.00000000000E+00  0.00000000000E+00  0.14999999963E+04  0.15000000000E+04  0.10566000000E+00 0. -1.
        994   -1    0    0    0    0 -0.00000000000E+00 -0.00000000000E+00  0.11368683772E-12  0.17120000000E+03  0.17120000000E+03 0.  0.
         13    1    1    2    0    0  0.18260380667E+02  0.88723012332E+01  0.47304935809E+02  0.51477445034E+02  0.10566000000E+00 0. -1.
        994    1    1    2    0    0 -0.60634647135E+01 -0.10834521748E+02  0.47757830354E+01  0.17171604634E+03  0.17120000000E+03 0.  0.
        998    1    1    2    0    0 -0.12196915954E+02  0.19622205144E+01  0.14479192774E+04  0.14480065086E+04  0.10000000000E+02 0. -1.
</event>
<event>
 5    1  0.1688215E-008  0.3836526E+03  0.7957747E-01  0.3435407E+00
         13   -1    0    0    0    0  0.00000000000E+00  0.00000000000E+00  0.14999999963E+04  0.15000000000E+04  0.10566000000E+00 0. -1.
        994   -1    0    0    0    0 -0.00000000000E+00 -0.00000000000E+00  0.11368683772E-12  0.17120000000E+03  0.17120000000E+03 0.  0.
         13    1    1    2    0    0 -0.72657109548E+02  0.22487236144E+03  0.97726904829E+03  0.10054359445E+04  0.10566000000E+00 0. -1.
        994    1    1    2    0    0  0.86622145676E+02 -0.24279194216E+03  0.26666677427E+03  0.40849961052E+03  0.17120000000E+03 0.  0.
        998    1    1    2    0    0 -0.13965036128E+02  0.17919580719E+02  0.25606417372E+03  0.25726444502E+03  0.10000000000E+02 0.  1.
</event>
<event>
 5    1  0.1688215E-008  0.3844043E+03  0.7957747E-01  0.3432203E+00
         13   -1    0    0    0    0  0.00000000000E+00  0.00000000000E+00  0.14999999963E+04  0.15000000000E+04  0.10566000000E+00 0.  1.
        994   -1    0    0    0    0 -0.00000000000E+00 -0.00000000000E+00  0.11368683772E-12  0.17120000000E+03  0.17120000000E+03 0.  0.
         13    1    1    2    0    0 -0.97087760108E+01 -0.71886732733E+01  0.36934765786E+02  0.38860332510E+02  0.10566000000E+00 0.  1.
        994    1    1    2    0    0  0.10429700098E+02  0.52224960539E+01  0.23746150378E+01  0.17161332089E+03  0.17120000000E+03 0.  0.
        998    1    1    2    0    0 -0.72092408722E+00  0.19661772194E+01  0.14606906155E+04  0.14607263466E+04  0.10000000000E+02 0.  1.
</event>
<event>
 5    1  0.1688215E-008  0.3792651E+03  0.7957747E-01  0.3454365E+00
         13   -1    0    0    0    0  0.00000000000E+00  0.00000000000E+00  0.14999999963E+04  0.15000000000E+04  0.10566000000E+00 0. -1.
        994   -1    0    0    0    0 -0.00000000000E+00 -0.00000000000E+00  0.11368683772E-12  0.17120000000E+03  0.17120000000E+03 0.  0.
         13    1    1    2    0    0 -0.28216864665E+02  0.21366398751E+02  0.13922446303E+03  0.14365297323E+03  0.10566000000E+00 0. -1.
        994    1    1    2    0    0  0.37551208156E+02  0.16291796081E+02  0.10139892039E+02  0.17631725175E+03  0.17120000000E+03 0.  0.
        998    1    1    2    0    0 -0.93343434907E+01 -0.37658194833E+02  0.13506356412E+04  0.13512297750E+04  0.10000000000E+02 0. -1.
</event>
<event>
 5    1  0.1688215E-008  0.3769847E+03  0.7957747E-01  0.3464394E+00
         13   -1    0    0    0    0  0.00000000000E+00  0.00000000000E+00  0.14999999963E+04  0.15000000000E+04  0.10566000000E+00 0.  1.
        994   -1    0    0    0    0 -0.00000000000E+00 -0.00000000000E+00  0.11368683772E-12  0.17120000000E+03  0.17120000000E+03 0.  0.
         13    1    1    2    0    0 -0.96583969913E+01  0.16996952250E+02  0.31656583117E+02  0.37206604749E+02  0.10566000000E+00 0.  1.
        994    1    1    2    0    0  0.13334439282E+01 -0.11707022418E+02  0.61319909984E+01  0.17171451238E+03  0.17120000000E+03 0.  0.
        998    1    1    2    0    0  0.83249530630E+01 -0.52899298329E+01  0.14622114222E+04  0.14622788829E+04  0.10000000000E+02 0.  1.
</event>
<event>
 5    1  0.1688215E-008  0.3787612E+03  0.7957747E-01  0.3456570E+00
         13   -1    0    0    0    0  0.00000000000E+00  0.00000000000E+00  0.14999999963E+04  0.15000000000E+04  0.10566000000E+00 0.  1.
        994   -1    0    0    0    0 -0.00000000000E+00 -0.00000000000E+00  0.11368683772E-12  0.17120000000E+03  0.17120000000E+03 0.  0.
         13    1    1    2    0    0 -0.11725429769E+02 -0.18281772254E+02  0.56741400109E+02  0.60756123563E+02  0.10566000000E+00 0.  1.
        994    1    1    2    0    0 -0.53803817815E+02 -0.21040924686E+01  0.14553992882E+02  0.18005703742E+03  0.17120000000E+03 0.  0.
        998    1    1    2    0    0  0.65529247584E+02  0.20385864723E+02  0.14287046033E+04  0.14303868390E+04  0.10000000000E+02 0.  1.
</event>
<event>
 5    1  0.1743596E-008  0.3860542E+03  0.7957747E-01  0.3425213E+00
         13   -1    0    0    0    0  0.00000000000E+00  0.00000000000E+00  0.14999999963E+04  0.15000000000E+04  0.10566000000E+00 0. -1.
        994   -1    0    0    0    0 -0.00000000000E+00 -0.00000000000E+00  0.11368683772E-12  0.17120000000E+03  0.17120000000E+03 0.  0.
         13    1    1    2    0    0  0.50433350478E+01  0.93383499853E+01  0.49280605597E+02  0.50410606631E+02  0.10566000000E+00 0. -1.
        994    1    1    2    0    0 -0.44206912289E+01 -0.13303544303E+02  0.17520075180E+01  0.17178194414E+03  0.17120000000E+03 0.  0.
        998    1    1    2    0    0 -0.62264381892E+00  0.39651943172E+01  0.14489673832E+04  0.14490074492E+04  0.10000000000E+02 0. -1.
</event>
<event>
 5    1  0.1688215E-008  0.3734049E+03  0.7957747E-01  0.3480388E+00
         13   -1    0    0    0    0  0.00000000000E+00  0.00000000000E+00  0.14999999963E+04  0.15000000000E+04  0.10566000000E+00 0.  1.
        994   -1    0    0    0    0 -0.00000000000E+00 -0.00000000000E+00  0.11368683772E-12  0.17120000000E+03  0.17120000000E+03 0.  0.
         13    1    1    2    0    0  0.11941663998E+02 -0.11770022328E+02  0.15469383007E+02  0.22813367557E+02  0.10566000000E+00 0.  1.
        994    1    1    2    0    0  0.73383386487E+00  0.17496998492E+02  0.85489576956E+01  0.17230556621E+03  0.17120000000E+03 0.  0.
        998    1    1    2    0    0 -0.12675497863E+02 -0.57269761638E+01  0.14759816556E+04  0.14760810662E+04  0.10000000000E+02 0.  1.
</event>
<event>
 5    1  0.1688215E-008  0.3845357E+03  0.7957747E-01  0.3431644E+00
         13   -1    0    0    0    0  0.00000000000E+00  0.00000000000E+00  0.14999999963E+04  0.15000000000E+04  0.10566000000E+00 0.  1.
        994   -1    0    0    0    0 -0.00000000000E+00 -0.00000000000E+00  0.11368683772E-12  0.17120000000E+03  0.17120000000E+03 0.  0.
         13    1    1    2    0    0  0.10644134629E+02 -0.23759390125E+01  0.32876968078E+02  0.34638834885E+02  0.10566000000E+00 0.  1.
        994    1    1    2    0    0  0.10017713901E+01 -0.41959557255E+01  0.19221346705E+01  0.17126512836E+03  0.17120000000E+03 0.  0.
        998    1    1    2    0    0 -0.11645906019E+02  0.65718947379E+01  0.14652008935E+04  0.14652960368E+04  0.10000000000E+02 0.  1.
</event>
<event>
 5    1  0.1688215E-008  0.3829284E+03  0.7957747E-01  0.3438506E+00
         13   -1    0    0    0    0  0.00000000000E+00  0.00000000000E+00  0.14999999963E+04  0.15000000000E+04  0.10566000000E+00 0. -1.
        994   -1    0    0    0    0 -0.00000000000E+00 -0.00000000000E+00  0.11368683772E-12  0.17120000000E+03  0.17120000000E+03 0.  0.
         13    1    1    2    0    0 -0.30400087388E+02 -0.10754767299E+02  0.15923718921E+03  0.16246945536E+03  0.10566000000E+00 0. -1.
        994    1    1    2    0    0  0.53594126808E+02 -0.12428580958E+02  0.12748906239E+02  0.18027416527E+03  0.17120000000E+03 0.  0.
        998    1    1    2    0    0 -0.23194039419E+02  0.23183348257E+02  0.13280139008E+04  0.13284563794E+04  0.10000000000E+02 0. -1.
</event>
<event>
 5    1  0.1688215E-008  0.3771756E+03  0.7957747E-01  0.3463549E+00
         13   -1    0    0    0    0  0.00000000000E+00  0.00000000000E+00  0.14999999963E+04  0.15000000000E+04  0.10566000000E+00 0. -1.
        994   -1    0    0    0    0 -0.00000000000E+00 -0.00000000000E+00  0.11368683772E-12  0.17120000000E+03  0.17120000000E+03 0.  0.
         13    1    1    2    0    0  0.46591338218E+01 -0.12216252829E+02  0.13243679236E+02  0.18610496095E+02  0.10566000000E+00 0. -1.
        994    1    1    2    0    0 -0.95996525513E+01 -0.58445021276E+01  0.59920654286E+01  0.17167310908E+03  0.17120000000E+03 0.  0.
        998    1    1    2    0    0  0.49405187294E+01  0.18060754956E+02  0.14807642516E+04  0.14809163948E+04  0.10000000000E+02 0. -1.
</event>
<event>
 5    1  0.1688215E-008  0.3845145E+03  0.7957747E-01  0.3431734E+00
         13   -1    0    0    0    0  0.00000000000E+00  0.00000000000E+00  0.14999999963E+04  0.15000000000E+04  0.10566000000E+00 0. -1.
        994   -1    0    0    0    0 -0.00000000000E+00 -0.00000000000E+00  0.11368683772E-12  0.17120000000E+03  0.17120000000E+03 0.  0.
         13    1    1    2    0    0  0.13741071656E+02  0.56801229318E+01  0.59963699252E+02  0.61779747805E+02  0.10566000000E+00 0. -1.
        994    1    1    2    0    0 -0.51536955114E+01 -0.45021193271E+01  0.20256247452E+01  0.17134868780E+03  0.17120000000E+03 0.  0.
        998    1    1    2    0    0 -0.85873761448E+01 -0.11780036047E+01  0.14380106723E+04  0.14380715644E+04  0.10000000000E+02 0. -1.
</event>
<event>
 5    1  0.1688215E-008  0.2962123E+03  0.7957747E-01  0.3923437E+00
         13   -1    0    0    0    0  0.00000000000E+00  0.00000000000E+00  0.14999999963E+04  0.15000000000E+04  0.10566000000E+00 0. -1.
        994   -1    0    0    0    0 -0.00000000000E+00 -0.00000000000E+00  0.11368683772E-12  0.17120000000E+03  0.17120000000E+03 0.  0.
         13    1    1    2    0    0 -0.16569943961E+03  0.12904713491E+03  0.53455744859E+03  0.57433539358E+03  0.10566000000E+00 0. -1.
        994    1    1    2    0    0  0.15028437277E+03 -0.16191527083E+03  0.23415806937E+03  0.36461128490E+03  0.17120000000E+03 0.  0.
        998    1    1    2    0    0  0.15415066842E+02  0.32868135915E+02  0.73128447832E+03  0.73225332152E+03  0.10000000000E+02 0. -1.
</event>
<event>
 5    1  0.1688215E-008  0.3747542E+03  0.7957747E-01  0.3474323E+00
         13   -1    0    0    0    0  0.00000000000E+00  0.00000000000E+00  0.14999999963E+04  0.15000000000E+04  0.10566000000E+00 0.  1.
        994   -1    0    0    0    0 -0.00000000000E+00 -0.00000000000E+00  0.11368683772E-12  0.17120000000E+03  0.17120000000E+03 0.  0.
         13    1    1    2    0    0  0.17678637053E+02 -0.39990330767E+02  0.12819638133E+03  0.13544771727E+03  0.10566000000E+00 0.  1.
        994    1    1    2    0    0 -0.24316523094E+02  0.35287509237E+02  0.13078553721E+02  0.17696607068E+03  0.17120000000E+03 0.  0.
        998    1    1    2    0    0  0.66378860416E+01  0.47028215301E+01  0.13587250612E+04  0.13587862121E+04  0.10000000000E+02 0.  1.
</event>
<event>
 5    1  0.1688215E-008  0.3772658E+03  0.7957747E-01  0.3463151E+00
         13   -1    0    0    0    0  0.00000000000E+00  0.00000000000E+00  0.14999999963E+04  0.15000000000E+04  0.10566000000E+00 0.  1.
        994   -1    0    0    0    0 -0.00000000000E+00 -0.00000000000E+00  0.11368683772E-12  0.17120000000E+03  0.17120000000E+03 0.  0.
         13    1    1    2    0    0  0.21169495515E+02 -0.19795581515E+02  0.82862070221E+02  0.87784659441E+02  0.10566000000E+00 0.  1.
        994    1    1    2    0    0  0.26404694812E+02  0.16403972557E+02  0.87863978199E+01  0.17422094883E+03  0.17120000000E+03 0.  0.
        998    1    1    2    0    0 -0.47574190327E+02  0.33916089580E+01  0.14083515282E+04  0.14091943917E+04  0.10000000000E+02 0.  1.
</event>
<event>
 5    1  0.1688215E-008  0.3836780E+03  0.7957747E-01  0.3435298E+00
         13   -1    0    0    0    0  0.00000000000E+00  0.00000000000E+00  0.14999999963E+04  0.15000000000E+04  0.10566000000E+00 0. -1.
        994   -1    0    0    0    0 -0.00000000000E+00 -0.00000000000E+00  0.11368683772E-12  0.17120000000E+03  0.17120000000E+03 0.  0.
         13    1    1    2    0    0 -0.98914941205E+00 -0.14215402476E+02  0.42854167556E+02  0.45161343260E+02  0.10566000000E+00 0. -1.
        994    1    1    2    0    0  0.18463569806E+01  0.14176780110E+02  0.29632593445E+01  0.17182145103E+03  0.17120000000E+03 0.  0.
        998    1    1    2    0    0 -0.85720756851E+00  0.38622366647E-01  0.14541825694E+04  0.14542172057E+04  0.10000000000E+02 0. -1.
</event>
<event>
 5    1  0.1688215E-008  0.3724549E+03  0.7957747E-01  0.3484684E+00
         13   -1    0    0    0    0  0.00000000000E+00  0.00000000000E+00  0.14999999963E+04  0.15000000000E+04  0.10566000000E+00 0.  1.
        994   -1    0    0    0    0 -0.00000000000E+00 -0.00000000000E+00  0.11368683772E-12  0.17120000000E+03  0.17120000000E+03 0.  0.
         13    1    1    2    0    0 -0.38207707687E+02  0.18654496413E+02  0.66534562231E+02  0.78959979093E+02  0.10566000000E+00 0.  1.
        994    1    1    2    0    0  0.37883979205E+02 -0.19262724097E+02  0.18639370591E+02  0.17737845009E+03  0.17120000000E+03 0.  0.
        998    1    1    2    0    0  0.32372848144E+00  0.60822768345E+00  0.14148260635E+04  0.14148615708E+04  0.10000000000E+02 0.  1.
</event>
<event>
 5    1  0.1688215E-008  0.3844080E+03  0.7957747E-01  0.3432187E+00
         13   -1    0    0    0    0  0.00000000000E+00  0.00000000000E+00  0.14999999963E+04  0.15000000000E+04  0.10566000000E+00 0.  1.
        994   -1    0    0    0    0 -0.00000000000E+00 -0.00000000000E+00  0.11368683772E-12  0.17120000000E+03  0.17120000000E+03 0.  0.
         13    1    1    2    0    0 -0.67182917041E+00  0.12985838264E+02  0.46457493060E+02  0.48243063495E+02  0.10566000000E+00 0.  1.
        994    1    1    2    0    0  0.74622429630E+01  0.42710025628E+01  0.21679654910E+01  0.17142947998E+03  0.17120000000E+03 0.  0.
        998    1    1    2    0    0 -0.67904137926E+01 -0.17256840827E+02  0.14513745377E+04  0.14515274565E+04  0.10000000000E+02 0.  1.
</event>
<event>
 5    1  0.1688215E-008  0.3830795E+03  0.7957747E-01  0.3437858E+00
         13   -1    0    0    0    0  0.00000000000E+00  0.00000000000E+00  0.14999999963E+04  0.15000000000E+04  0.10566000000E+00 0. -1.
        994   -1    0    0    0    0 -0.00000000000E+00 -0.00000000000E+00  0.11368683772E-12  0.17120000000E+03  0.17120000000E+03 0.  0.
         13    1    1    2    0    0 -0.25718298679E+02  0.58196654191E+01  0.12930414210E+03  0.13196541865E+03  0.10566000000E+00 0. -1.
        994    1    1    2    0    0  0.19287510855E+02 -0.79168573170E+01  0.40264418368E+01  0.17251184579E+03  0.17120000000E+03 0.  0.
        998    1    1    2    0    0  0.64307878243E+01  0.20971918979E+01  0.13666694123E+04  0.13667227356E+04  0.10000000000E+02 0. -1.
</event>
<event>
 5    1  0.1688215E-008  0.3791779E+03  0.7957747E-01  0.3454746E+00
         13   -1    0    0    0    0  0.00000000000E+00  0.00000000000E+00  0.14999999963E+04  0.15000000000E+04  0.10566000000E+00 0. -1.
        994   -1    0    0    0    0 -0.00000000000E+00 -0.00000000000E+00  0.11368683772E-12  0.17120000000E+03  0.17120000000E+03 0.  0.
         13    1    1    2    0    0 -0.65830880204E+02  0.41603700717E+02  0.46332460280E+03  0.46982365993E+03  0.10566000000E+00 0. -1.
        994    1    1    2    0    0  0.46588266246E+02 -0.78899682871E+02  0.33226175334E+02  0.19700011481E+03  0.17120000000E+03 0.  0.
        998    1    1    2    0    0  0.19242613959E+02  0.37295982153E+02  0.10034492181E+04  0.10043762253E+04  0.10000000000E+02 0. -1.
</event>
<event>
 5    1  0.1688215E-008  0.3843572E+03  0.7957747E-01  0.3432403E+00
         13   -1    0    0    0    0  0.00000000000E+00  0.00000000000E+00  0.14999999963E+04  0.15000000000E+04  0.10566000000E+00 0.  1.
        994   -1    0    0    0    0 -0.00000000000E+00 -0.00000000000E+00  0.11368683772E-12  0.17120000000E+03  0.17120000000E+03 0.  0.
         13    1    1    2    0    0  0.24033966188E+01  0.16518388140E+02  0.73887174444E+02  0.75749317973E+02  0.10566000000E+00 0.  1.
        994    1    1    2    0    0  0.13010698392E+01 -0.50958018635E+01  0.20407979110E+01  0.17129292115E+03  0.17120000000E+03 0.  0.
        998    1    1    2    0    0 -0.37044664581E+01 -0.11422586276E+02  0.14240720239E+04  0.14241577609E+04  0.10000000000E+02 0.  1.
</event>
<event>
 5    1  0.1688215E-008  0.3717531E+03  0.7957747E-01  0.3487873E+00
         13   -1    0    0    0    0  0.00000000000E+00  0.00000000000E+00  0.14999999963E+04  0.15000000000E+04  0.10566000000E+00 0. -1.
        994   -1    0    0    0    0 -0.00000000000E+00 -0.00000000000E+00  0.11368683772E-12  0.17120000000E+03  0.17120000000E+03 0.  0.
         13    1    1    2    0    0 -0.55382517805E+02 -0.12383145358E+03  0.81437086335E+03  0.82559152516E+03  0.10566000000E+00 0. -1.
        994    1    1    2    0    0  0.19434377247E+02  0.10798297048E+03  0.50937758965E+02  0.20962373964E+03  0.17120000000E+03 0.  0.
        998    1    1    2    0    0  0.35948140558E+02  0.15848483105E+02  0.63469137396E+03  0.63598473520E+03  0.10000000000E+02 0. -1.
</event>
<event>
 5    1  0.1688215E-008  0.3724554E+03  0.7957747E-01  0.3484682E+00
         13   -1    0    0    0    0  0.00000000000E+00  0.00000000000E+00  0.14999999963E+04  0.15000000000E+04  0.10566000000E+00 0.  1.
        994   -1    0    0    0    0 -0.00000000000E+00 -0.00000000000E+00  0.11368683772E-12  0.17120000000E+03  0.17120000000E+03 0.  0.
         13    1    1    2    0    0 -0.36362910628E+02  0.24399140695E+02  0.14047162461E+03  0.14713894053E+03  0.10566000000E+00 0.  1.
        994    1    1    2    0    0 -0.21945381470E+02 -0.11744720826E+02  0.10118360481E+02  0.17329558406E+03  0.17120000000E+03 0.  0.
        998    1    1    2    0    0  0.58308292098E+02 -0.12654419869E+02  0.13494100112E+04  0.13507654754E+04  0.10000000000E+02 0.  1.
</event>
<event>
 5    1  0.1688215E-008  0.3930358E+03  0.7957747E-01  0.3396290E+00
         13   -1    0    0    0    0  0.00000000000E+00  0.00000000000E+00  0.14999999963E+04  0.15000000000E+04  0.10566000000E+00 0.  1.
        994   -1    0    0    0    0 -0.00000000000E+00 -0.00000000000E+00  0.11368683772E-12  0.17120000000E+03  0.17120000000E+03 0.  0.
         13    1    1    2    0    0  0.96311020492E+01  0.11874361366E+02 -0.57541752551E+01  0.16336470899E+02  0.10566000000E+00 0.  1.
        994    1    1    2    0    0 -0.77176501630E+01 -0.11434262492E+02  0.24405938025E+02  0.17348024180E+03  0.17120000000E+03 0.  0.
        998    1    1    2    0    0 -0.19134518862E+01 -0.44009887385E+00  0.14813482335E+04  0.14813832873E+04  0.10000000000E+02 0.  1.
</event>
<event>
 5    1  0.1688215E-008  0.3837769E+03  0.7957747E-01  0.3434876E+00
         13   -1    0    0    0    0  0.00000000000E+00  0.00000000000E+00  0.14999999963E+04  0.15000000000E+04  0.10566000000E+00 0. -1.
        994   -1    0    0    0    0 -0.00000000000E+00 -0.00000000000E+00  0.11368683772E-12  0.17120000000E+03  0.17120000000E+03 0.  0.
         13    1    1    2    0    0  0.41291414915E+01  0.23279912413E+02  0.11380582575E+03  0.11623588633E+03  0.10566000000E+00 0. -1.
        994    1    1    2    0    0 -0.76516768216E+01 -0.26039067369E+02  0.46743913944E+01  0.17340089712E+03  0.17120000000E+03 0.  0.
        998    1    1    2    0    0  0.35225353301E+01  0.27591549559E+01  0.13815197791E+04  0.13815632165E+04  0.10000000000E+02 0. -1.
</event>
<event>
 5    1  0.1688215E-008  0.3832905E+03  0.7957747E-01  0.3436955E+00
         13   -1    0    0    0    0  0.00000000000E+00  0.00000000000E+00  0.14999999963E+04  0.15000000000E+04  0.10566000000E+00 0.  1.
        994   -1    0    0    0    0 -0.00000000000E+00 -0.00000000000E+00  0.11368683772E-12  0.17120000000E+03  0.17120000000E+03 0.  0.
         13    1    1    2    0    0  0.21141885177E+02 -0.30664099629E+01  0.87762146635E+02  0.90324900913E+02  0.10566000000E+00 0.  1.
        994    1    1    2    0    0 -0.18002994986E+02  0.16682656726E+02  0.44759750911E+01  0.17300836170E+03  0.17120000000E+03 0.  0.
        998    1    1    2    0    0 -0.31388901905E+01 -0.13616246763E+02  0.14077618746E+04  0.14078667374E+04  0.10000000000E+02 0.  1.
</event>
<event>
 5    1  0.1688215E-008  0.3831868E+03  0.7957747E-01  0.3437399E+00
         13   -1    0    0    0    0  0.00000000000E+00  0.00000000000E+00  0.14999999963E+04  0.15000000000E+04  0.10566000000E+00 0. -1.
        994   -1    0    0    0    0 -0.00000000000E+00 -0.00000000000E+00  0.11368683772E-12  0.17120000000E+03  0.17120000000E+03 0.  0.
         13    1    1    2    0    0 -0.81887378786E+01  0.17564007844E+02  0.75495698061E+02  0.77943321647E+02  0.10566000000E+00 0. -1.
        994    1    1    2    0    0  0.56344023864E+00 -0.79407481421E+01  0.27427303981E+01  0.17140692960E+03  0.17120000000E+03 0.  0.
        998    1    1    2    0    0  0.76252976400E+01 -0.96232597024E+01  0.14217615678E+04  0.14218497487E+04  0.10000000000E+02 0. -1.
</event>
<event>
 5    1  0.1688215E-008  0.3836907E+03  0.7957747E-01  0.3435244E+00
         13   -1    0    0    0    0  0.00000000000E+00  0.00000000000E+00  0.14999999963E+04  0.15000000000E+04  0.10566000000E+00 0. -1.
        994   -1    0    0    0    0 -0.00000000000E+00 -0.00000000000E+00  0.11368683772E-12  0.17120000000E+03  0.17120000000E+03 0.  0.
         13    1    1    2    0    0 -0.43511639284E+01  0.12546370466E+02  0.36647636970E+02  0.38979539491E+02  0.10566000000E+00 0. -1.
        994    1    1    2    0    0  0.51491804260E+01 -0.16993901770E+02  0.33236322725E+01  0.17215049604E+03  0.17120000000E+03 0.  0.
        998    1    1    2    0    0 -0.79801649764E+00  0.44475313037E+01  0.14600287270E+04  0.14600699645E+04  0.10000000000E+02 0. -1.
</event>
<event>
 5    1  0.1688215E-008  0.3801853E+03  0.7957747E-01  0.3450352E+00
         13   -1    0    0    0    0  0.00000000000E+00  0.00000000000E+00  0.14999999963E+04  0.15000000000E+04  0.10566000000E+00 0.  1.
        994   -1    0    0    0    0 -0.00000000000E+00 -0.00000000000E+00  0.11368683772E-12  0.17120000000E+03  0.17120000000E+03 0.  0.
         13    1    1    2    0    0  0.38790335174E+01 -0.12794919327E+02  0.21049810518E+02  0.24937172022E+02  0.10566000000E+00 0.  1.
        994    1    1    2    0    0 -0.64579419246E+01 -0.31436166510E+01  0.42119992889E+01  0.17140235785E+03  0.17120000000E+03 0.  0.
        998    1    1    2    0    0  0.25789084072E+01  0.15938535978E+02  0.14747381865E+04  0.14748604701E+04  0.10000000000E+02 0.  1.
</event>
<event>
 5    1  0.1688215E-008  0.4060784E+03  0.7957747E-01  0.3344917E+00
         13   -1    0    0    0    0  0.00000000000E+00  0.00000000000E+00  0.14999999963E+04  0.15000000000E+04  0.10566000000E+00 0.  1.
        994   -1    0    0    0    0 -0.00000000000E+00 -0.00000000000E+00  0.11368683772E-12  0.17120000000E+03  0.17120000000E+03 0.  0.
         13    1    1    2    0    0 -0.80281921076E+02  0.68880130394E+02  0.18657820290E+03  0.21447866135E+03  0.10566000000E+00 0.  1.
        994    1    1    2    0    0  0.26768004121E+02 -0.37014164405E+02  0.39884377336E+02  0.18162262515E+03  0.17120000000E+03 0.  0.
        998    1    1    2    0    0  0.53513916955E+02 -0.31865965990E+02  0.12735374160E+04  0.12750987135E+04  0.10000000000E+02 0.  1.
</event>
<event>
 5    1  0.1688215E-008  0.3810645E+03  0.7957747E-01  0.3446537E+00
         13   -1    0    0    0    0  0.00000000000E+00  0.00000000000E+00  0.14999999963E+04  0.15000000000E+04  0.10566000000E+00 0. -1.
        994   -1    0    0    0    0 -0.00000000000E+00 -0.00000000000E+00  0.11368683772E-12  0.17120000000E+03  0.17120000000E+03 0.  0.
         13    1    1    2    0    0 -0.62808690395E+01  0.31047545402E+02  0.12617515765E+03  0.13009066440E+03  0.10566000000E+00 0. -1.
        994    1    1    2    0    0  0.58052592324E+01 -0.33496893691E+02  0.74563489236E+01  0.17470197498E+03  0.17120000000E+03 0.  0.
        998    1    1    2    0    0  0.47560980702E+00  0.24493482888E+01  0.13663684897E+04  0.13664073606E+04  0.10000000000E+02 0. -1.
</event>
<event>
 5    1  0.1688215E-008  0.3742377E+03  0.7957747E-01  0.3476639E+00
         13   -1    0    0    0    0  0.00000000000E+00  0.00000000000E+00  0.14999999963E+04  0.15000000000E+04  0.10566000000E+00 0.  1.
        994   -1    0    0    0    0 -0.00000000000E+00 -0.00000000000E+00  0.11368683772E-12  0.17120000000E+03  0.17120000000E+03 0.  0.
         13    1    1    2    0    0  0.25740645243E+02  0.36960195649E+02  0.14821538376E+03  0.15490786948E+03  0.10566000000E+00 0.  1.
        994    1    1    2    0    0 -0.10241620466E+02 -0.13453324045E+02  0.80455916891E+01  0.17222094606E+03  0.17120000000E+03 0.  0.
        998    1    1    2    0    0 -0.15499024778E+02 -0.23506871604E+02  0.13437390208E+04  0.13440711845E+04  0.10000000000E+02 0.  1.
</event>
<event>
 5    1  0.1688215E-008  0.3806265E+03  0.7957747E-01  0.3448435E+00
         13   -1    0    0    0    0  0.00000000000E+00  0.00000000000E+00  0.14999999963E+04  0.15000000000E+04  0.10566000000E+00 0.  1.
        994   -1    0    0    0    0 -0.00000000000E+00 -0.00000000000E+00  0.11368683772E-12  0.17120000000E+03  0.17120000000E+03 0.  0.
         13    1    1    2    0    0  0.35585057286E+01 -0.12814639012E+02  0.21879757471E+02  0.25604938724E+02  0.10566000000E+00 0.  1.
        994    1    1    2    0    0 -0.87072163754E+01  0.26668466824E+01  0.40939162827E+01  0.17149089725E+03  0.17120000000E+03 0.  0.
        998    1    1    2    0    0  0.51487106468E+01  0.10147792329E+02  0.14740263225E+04  0.14741041640E+04  0.10000000000E+02 0.  1.
</event>
<event>
 5    1  0.1688215E-008  0.3840081E+03  0.7957747E-01  0.3433890E+00
         13   -1    0    0    0    0  0.00000000000E+00  0.00000000000E+00  0.14999999963E+04  0.15000000000E+04  0.10566000000E+00 0.  1.
        994   -1    0    0    0    0 -0.00000000000E+00 -0.00000000000E+00  0.11368683772E-12  0.17120000000E+03  0.17120000000E+03 0.  0.
         13    1    1    2    0    0  0.83963316353E+01 -0.11157771234E+02  0.44956652923E+02  0.47075535577E+02  0.10566000000E+00 0.  1.
        994    1    1    2    0    0 -0.77156676169E+01  0.86467411267E+01  0.25666026835E+01  0.17161097024E+03  0.17120000000E+03 0.  0.
        998    1    1    2    0    0 -0.68066401843E+00  0.25110301071E+01  0.14524767407E+04  0.14525134942E+04  0.10000000000E+02 0.  1.
</event>
<event>
 5    1  0.1688215E-008  0.3832521E+03  0.7957747E-01  0.3437119E+00
         13   -1    0    0    0    0  0.00000000000E+00  0.00000000000E+00  0.14999999963E+04  0.15000000000E+04  0.10566000000E+00 0.  1.
        994   -1    0    0    0    0 -0.00000000000E+00 -0.00000000000E+00  0.11368683772E-12  0.17120000000E+03  0.17120000000E+03 0.  0.
         13    1    1    2    0    0  0.10930433835E+02 -0.86451794688E+01  0.39122465468E+02  0.41530614975E+02  0.10566000000E+00 0.  1.
        994    1    1    2    0    0 -0.36308486528E+00  0.40779659906E+01  0.25558868339E+01  0.17126801860E+03  0.17120000000E+03 0.  0.
        998    1    1    2    0    0 -0.10567348969E+02  0.45672134782E+01  0.14583216440E+04  0.14584013664E+04  0.10000000000E+02 0.  1.
</event>
<event>
 5    1  0.1688215E-008  0.3857360E+03  0.7957747E-01  0.3426557E+00
         13   -1    0    0    0    0  0.00000000000E+00  0.00000000000E+00  0.14999999963E+04  0.15000000000E+04  0.10566000000E+00 0. -1.
        994   -1    0    0    0    0 -0.00000000000E+00 -0.00000000000E+00  0.11368683772E-12  0.17120000000E+03  0.17120000000E+03 0.  0.
         13    1    1    2    0    0 -0.12180839738E+02  0.77102437091E+01  0.85596157758E+02  0.86801694118E+02  0.10566000000E+00 0. -1.
        994    1    1    2    0    0  0.29298845557E+01 -0.53797849076E+01  0.13883091511E+01  0.17131518821E+03  0.17120000000E+03 0.  0.
        998    1    1    2    0    0  0.92509551821E+01 -0.23304588015E+01  0.14130155294E+04  0.14130831177E+04  0.10000000000E+02 0. -1.
</event>
<event>
 5    1  0.1688215E-008  0.3810794E+03  0.7957747E-01  0.3446472E+00
         13   -1    0    0    0    0  0.00000000000E+00  0.00000000000E+00  0.14999999963E+04  0.15000000000E+04  0.10566000000E+00 0.  1.
        994   -1    0    0    0    0 -0.00000000000E+00 -0.00000000000E+00  0.11368683772E-12  0.17120000000E+03  0.17120000000E+03 0.  0.
         13    1    1    2    0    0  0.14484907688E+02  0.75387207516E+02  0.29320904443E+03  0.30309173282E+03  0.10566000000E+00 0.  1.
        994    1    1    2    0    0  0.28164862566E+02  0.49670874059E+02  0.28879970517E+02  0.18276746951E+03  0.17120000000E+03 0.  0.
        998    1    1    2    0    0 -0.42649770254E+02 -0.12505808158E+03  0.11779109813E+04  0.11853407977E+04  0.10000000000E+02 0.  1.
</event>
<event>
 5    1  0.1688215E-008  0.3847598E+03  0.7957747E-01  0.3430692E+00
         13   -1    0    0    0    0  0.00000000000E+00  0.00000000000E+00  0.14999999963E+04  0.15000000000E+04  0.10566000000E+00 0.  1.
        994   -1    0    0    0    0 -0.00000000000E+00 -0.00000000000E+00  0.11368683772E-12  0.17120000000E+03  0.17120000000E+03 0.  0.
         13    1    1    2    0    0  0.50887524403E+01 -0.12785089503E+02  0.55526721384E+02  0.57206484481E+02  0.10566000000E+00 0.  1.
        994    1    1    2    0    0 -0.73776428021E+01  0.15850044021E+01  0.19368808420E+01  0.17137716697E+03  0.17120000000E+03 0.  0.
        998    1    1    2    0    0  0.22888903618E+01  0.11200085101E+02  0.14425363941E+04  0.14426163485E+04  0.10000000000E+02 0.  1.
</event>
<event>
 5    1  0.1688215E-008  0.3859224E+03  0.7957747E-01  0.3425770E+00
         13   -1    0    0    0    0  0.00000000000E+00  0.00000000000E+00  0.14999999963E+04  0.15000000000E+04  0.10566000000E+00 0.  1.
        994   -1    0    0    0    0 -0.00000000000E+00 -0.00000000000E+00  0.11368683772E-12  0.17120000000E+03  0.17120000000E+03 0.  0.
         13    1    1    2    0    0 -0.10690989867E+02  0.85481099629E+01  0.77530046443E+02  0.78729198610E+02  0.10566000000E+00 0.  1.
        994    1    1    2    0    0  0.12306569285E+02 -0.69801194877E+01  0.18294937737E+01  0.17179336647E+03  0.17120000000E+03 0.  0.
        998    1    1    2    0    0 -0.16155794173E+01 -0.15679904752E+01  0.14206404561E+04  0.14206774349E+04  0.10000000000E+02 0.  1.
</event>
<event>
 5    1  0.1688215E-008  0.3814878E+03  0.7957747E-01  0.3444706E+00
         13   -1    0    0    0    0  0.00000000000E+00  0.00000000000E+00  0.14999999963E+04  0.15000000000E+04  0.10566000000E+00 0.  1.
        994   -1    0    0    0    0 -0.00000000000E+00 -0.00000000000E+00  0.11368683772E-12  0.17120000000E+03  0.17120000000E+03 0.  0.
         13    1    1    2    0    0  0.11541585599E+02  0.29741869214E+02  0.12143312477E+03  0.12555398018E+03  0.10566000000E+00 0.  1.
        994    1    1    2    0    0 -0.40051115085E+02 -0.42188770481E+02  0.14723973510E+02  0.18141174044E+03  0.17120000000E+03 0.  0.
        998    1    1    2    0    0  0.28509529485E+02  0.12446901267E+02  0.13638428980E+04  0.13642342794E+04  0.10000000000E+02 0.  1.
</event>
<event>
 5    1  0.1688215E-008  0.3771193E+03  0.7957747E-01  0.3463798E+00
         13   -1    0    0    0    0  0.00000000000E+00  0.00000000000E+00  0.14999999963E+04  0.15000000000E+04  0.10566000000E+00 0.  1.
        994   -1    0    0    0    0 -0.00000000000E+00 -0.00000000000E+00  0.11368683772E-12  0.17120000000E+03  0.17120000000E+03 0.  0.
         13    1    1    2    0    0  0.12661440501E+03 -0.46385638635E+02  0.42093616874E+03  0.44200690532E+03  0.10566000000E+00 0.  1.
        994    1    1    2    0    0 -0.12890615997E+03  0.39975872114E+02  0.83327571983E+02  0.23338335991E+03  0.17120000000E+03 0.  0.
        998    1    1    2    0    0  0.22917549649E+01  0.64097665213E+01  0.99573625555E+03  0.99580973477E+03  0.10000000000E+02 0.  1.
</event>
<event>
 5    1  0.1688215E-008  0.3853010E+03  0.7957747E-01  0.3428397E+00
         13   -1    0    0    0    0  0.00000000000E+00  0.00000000000E+00  0.14999999963E+04  0.15000000000E+04  0.10566000000E+00 0.  1.
        994   -1    0    0    0    0 -0.00000000000E+00 -0.00000000000E+00  0.11368683772E-12  0.17120000000E+03  0.17120000000E+03 0.  0.
         13    1    1    2    0    0 -0.12371983313E+02  0.28062291249E+01  0.55827756074E+02  0.57251117066E+02  0.10566000000E+00 0.  1.
        994    1    1    2    0    0  0.27599061276E+01 -0.85120173765E+01  0.17438944508E+01  0.17144256382E+03  0.17120000000E+03 0.  0.
        998    1    1    2    0    0  0.96120771850E+01  0.57057882516E+01  0.14424283458E+04  0.14425063191E+04  0.10000000000E+02 0.  1.
</event>
<event>
 5    1  0.2925496E-008  0.3860140E+03  0.7957747E-01  0.3425383E+00
         13   -1    0    0    0    0  0.00000000000E+00  0.00000000000E+00  0.14999999963E+04  0.15000000000E+04  0.10566000000E+00 0.  1.
        994   -1    0    0    0    0 -0.00000000000E+00 -0.00000000000E+00  0.11368683772E-12  0.17120000000E+03  0.17120000000E+03 0.  0.
         13    1    1    2    0    0 -0.10036745024E+02  0.16101831746E-01  0.48394221494E+02  0.49424167651E+02  0.10566000000E+00 0.  1.
        994    1    1    2    0    0 -0.35474530932E+01 -0.30037480915E+01  0.11983878034E+01  0.17126728543E+03  0.17120000000E+03 0.  0.
        998    1    1    2    0    0  0.13584198117E+02  0.29876462597E+01  0.14504073870E+04  0.14505085469E+04  0.10000000000E+02 0.  1.
</event>
<event>
 5    1  0.1688215E-008  0.3783340E+03  0.7957747E-01  0.3458445E+00
         13   -1    0    0    0    0  0.00000000000E+00  0.00000000000E+00  0.14999999963E+04  0.15000000000E+04  0.10566000000E+00 0.  1.
        994   -1    0    0    0    0 -0.00000000000E+00 -0.00000000000E+00  0.11368683772E-12  0.17120000000E+03  0.17120000000E+03 0.  0.
         13    1    1    2    0    0 -0.18535696258E+02 -0.23046208439E+02  0.92060315575E+02  0.96694429142E+02  0.10566000000E+00 0.  1.
        994    1    1    2    0    0 -0.63541271775E+00  0.52360591815E+01  0.50700226832E+01  0.17135625228E+03  0.17120000000E+03 0.  0.
        998    1    1    2    0    0  0.19171108976E+02  0.17810149258E+02  0.14028696580E+04  0.14031493186E+04  0.10000000000E+02 0.  1.
</event>
<event>
 5    1  0.1688215E-008  0.3723237E+03  0.7957747E-01  0.3485279E+00
         13   -1    0    0    0    0  0.00000000000E+00  0.00000000000E+00  0.14999999963E+04  0.15000000000E+04  0.10566000000E+00 0.  1.
        994   -1    0    0    0    0 -0.00000000000E+00 -0.00000000000E+00  0.11368683772E-12  0.17120000000E+03  0.17120000000E+03 0.  0.
         13    1    1    2    0    0 -0.35458826658E+02 -0.16253379707E+02  0.94317479208E+02  0.10206516932E+03  0.10566000000E+00 0.  1.
        994    1    1    2    0    0  0.23875426975E+01  0.34858593259E+02  0.12258733034E+02  0.17515860932E+03  0.17120000000E+03 0.  0.
        998    1    1    2    0    0  0.33071283960E+02 -0.18605213552E+02  0.13934237840E+04  0.13939762214E+04  0.10000000000E+02 0.  1.
</event>
<event>
 5    1  0.1688215E-008  0.3768007E+03  0.7957747E-01  0.3465208E+00
         13   -1    0    0    0    0  0.00000000000E+00  0.00000000000E+00  0.14999999963E+04  0.15000000000E+04  0.10566000000E+00 0. -1.
        994   -1    0    0    0    0 -0.00000000000E+00 -0.00000000000E+00  0.11368683772E-12  0.17120000000E+03  0.17120000000E+03 0.  0.
         13    1    1    2    0    0  0.15493970860E+02  0.42234500554E+02  0.17688991705E+03  0.18252087576E+03  0.10566000000E+00 0. -1.
        994    1    1    2    0    0 -0.11466870873E+02 -0.20607264272E+02  0.76382424172E+01  0.17298534971E+03  0.17120000000E+03 0.  0.
        998    1    1    2    0    0 -0.40270999862E+01 -0.21627236282E+02  0.13154718368E+04  0.13156937745E+04  0.10000000000E+02 0. -1.
</event>
<event>
 5    1  0.1688215E-008  0.3820665E+03  0.7957747E-01  0.3442210E+00
         13   -1    0    0    0    0  0.00000000000E+00  0.00000000000E+00  0.14999999963E+04  0.15000000000E+04  0.10566000000E+00 0. -1.
        994   -1    0    0    0    0 -0.00000000000E+00 -0.00000000000E+00  0.11368683772E-12  0.17120000000E+03  0.17120000000E+03 0.  0.
         13    1    1    2    0    0  0.10422403452E+02 -0.10273914975E+02  0.33079917304E+02  0.36172806298E+02  0.10566000000E+00 0. -1.
        994    1    1    2    0    0 -0.80097371347E+01  0.11076758736E+02  0.37142657841E+01  0.17178500005E+03  0.17120000000E+03 0.  0.
        998    1    1    2    0    0 -0.24126663175E+01 -0.80284376126E+00  0.14632058132E+04  0.14632421936E+04  0.10000000000E+02 0. -1.
</event>
<event>
 5    1  0.1688215E-008  0.3804753E+03  0.7957747E-01  0.3449092E+00
         13   -1    0    0    0    0  0.00000000000E+00  0.00000000000E+00  0.14999999963E+04  0.15000000000E+04  0.10566000000E+00 0.  1.
        994   -1    0    0    0    0 -0.00000000000E+00 -0.00000000000E+00  0.11368683772E-12  0.17120000000E+03  0.17120000000E+03 0.  0.
         13    1    1    2    0    0  0.76538141360E+01 -0.11576884205E+02  0.23311091618E+02  0.27129748896E+02  0.10566000000E+00 0.  1.
        994    1    1    2    0    0 -0.45714076327E+01  0.57184543845E+01  0.40723344152E+01  0.17140484939E+03  0.17120000000E+03 0.  0.
        998    1    1    2    0    0 -0.30824065034E+01  0.58584298206E+01  0.14726165702E+04  0.14726654017E+04  0.10000000000E+02 0.  1.
</event>
<event>
 5    1  0.1688215E-008  0.3689119E+03  0.7957747E-01  0.3500906E+00
         13   -1    0    0    0    0  0.00000000000E+00  0.00000000000E+00  0.14999999963E+04  0.15000000000E+04  0.10566000000E+00 0. -1.
        994   -1    0    0    0    0 -0.00000000000E+00 -0.00000000000E+00  0.11368683772E-12  0.17120000000E+03  0.17120000000E+03 0.  0.
         13    1    1    2    0    0 -0.22533917292E+02  0.24560825407E+01  0.21946948861E+02  0.31551378707E+02  0.10566000000E+00 0. -1.
        994    1    1    2    0    0  0.18544915084E+02  0.25464569135E+02  0.13290834346E+02  0.17458076765E+03  0.17120000000E+03 0.  0.
        998    1    1    2    0    0  0.39890022079E+01 -0.27920651676E+02  0.14647622131E+04  0.14650678536E+04  0.10000000000E+02 0. -1.
</event>
<event>
 5    1  0.1688215E-008  0.3839091E+03  0.7957747E-01  0.3434312E+00
         13   -1    0    0    0    0  0.00000000000E+00  0.00000000000E+00  0.14999999963E+04  0.15000000000E+04  0.10566000000E+00 0. -1.
        994   -1    0    0    0    0 -0.00000000000E+00 -0.00000000000E+00  0.11368683772E-12  0.17120000000E+03  0.17120000000E+03 0.  0.
         13    1    1    2    0    0 -0.83232332107E+00  0.14881362595E+03  0.86366552504E+03  0.87639279912E+03  0.10566000000E+00 0. -1.
        994    1    1    2    0    0 -0.24040748846E+02 -0.18184104313E+03  0.12249618185E+03  0.27921116944E+03  0.17120000000E+03 0.  0.
        998    1    1    2    0    0  0.24873072167E+02  0.33027417176E+02  0.51383828939E+03  0.51559603145E+03  0.10000000000E+02 0. -1.
</event>
<event>
 5    1  0.1688215E-008  0.3771610E+03  0.7957747E-01  0.3463614E+00
         13   -1    0    0    0    0  0.00000000000E+00  0.00000000000E+00  0.14999999963E+04  0.15000000000E+04  0.10566000000E+00 0. -1.
        994   -1    0    0    0    0 -0.00000000000E+00 -0.00000000000E+00  0.11368683772E-12  0.17120000000E+03  0.17120000000E+03 0.  0.
         13    1    1    2    0    0  0.34376226269E+02 -0.20436514028E+02  0.16522216568E+03  0.16999338586E+03  0.10566000000E+00 0. -1.
        994    1    1    2    0    0  0.88517402213E+00 -0.31851551863E+01  0.56100560824E+01  0.17132379133E+03  0.17120000000E+03 0.  0.
        998    1    1    2    0    0 -0.35261400291E+02  0.23621669214E+02  0.13291677745E+04  0.13298828228E+04  0.10000000000E+02 0. -1.
</event>
<event>
 5    1  0.1688215E-008  0.3778159E+03  0.7957747E-01  0.3460724E+00
         13   -1    0    0    0    0  0.00000000000E+00  0.00000000000E+00  0.14999999963E+04  0.15000000000E+04  0.10566000000E+00 0. -1.
        994   -1    0    0    0    0 -0.00000000000E+00 -0.00000000000E+00  0.11368683772E-12  0.17120000000E+03  0.17120000000E+03 0.  0.
         13    1    1    2    0    0 -0.72840719911E+01 -0.11547083180E+02 -0.33809247376E+00  0.13657170472E+02  0.10566000000E+00 0. -1.
        994    1    1    2    0    0 -0.24266969716E+02 -0.42072099603E+02  0.23661316164E+02  0.17952226956E+03  0.17120000000E+03 0.  0.
        998    1    1    2    0    0  0.31551041707E+02  0.53619182783E+02  0.14766767726E+04  0.14780205600E+04  0.10000000000E+02 0. -1.
</event>
<event>
 5    1  0.1688215E-008  0.3849300E+03  0.7957747E-01  0.3429969E+00
         13   -1    0    0    0    0  0.00000000000E+00  0.00000000000E+00  0.14999999963E+04  0.15000000000E+04  0.10566000000E+00 0.  1.
        994   -1    0    0    0    0 -0.00000000000E+00 -0.00000000000E+00  0.11368683772E-12  0.17120000000E+03  0.17120000000E+03 0.  0.
         13    1    1    2    0    0 -0.61444866249E+01 -0.17908499719E+02  0.10813967113E+03  0.10978464699E+03  0.10566000000E+00 0.  1.
        994    1    1    2    0    0 -0.26252947172E+01  0.13097625725E+02  0.22520733383E+01  0.17173512106E+03  0.17120000000E+03 0.  0.
        998    1    1    2    0    0  0.87697813421E+01  0.48108739933E+01  0.13896082518E+04  0.13896802319E+04  0.10000000000E+02 0.  1.
</event>
<event>
 5    1  0.1688215E-008  0.3759647E+03  0.7957747E-01  0.3468920E+00
         13   -1    0    0    0    0  0.00000000000E+00  0.00000000000E+00  0.14999999963E+04  0.15000000000E+04  0.10566000000E+00 0.  1.
        994   -1    0    0    0    0 -0.00000000000E+00 -0.00000000000E+00  0.11368683772E-12  0.17120000000E+03  0.17120000000E+03 0.  0.
         13    1    1    2    0    0  0.27439345704E+02  0.34959072507E+01  0.59640033579E+02  0.65742557218E+02  0.10566000000E+00 0.  1.
        994    1    1    2    0    0 -0.17887163307E+02  0.41553944723E+01  0.73275686904E+01  0.17233789826E+03  0.17120000000E+03 0.  0.
        998    1    1    2    0    0 -0.95521823972E+01 -0.76513017230E+01  0.14330323940E+04  0.14331195445E+04  0.10000000000E+02 0.  1.
</event>
<event>
 5    1  0.1688215E-008  0.3809150E+03  0.7957747E-01  0.3447184E+00
         13   -1    0    0    0    0  0.00000000000E+00  0.00000000000E+00  0.14999999963E+04  0.15000000000E+04  0.10566000000E+00 0. -1.
        994   -1    0    0    0    0 -0.00000000000E+00 -0.00000000000E+00  0.11368683772E-12  0.17120000000E+03  0.17120000000E+03 0.  0.
         13    1    1    2    0    0 -0.13619660169E+02  0.28418536032E+02  0.15538717194E+03  0.15855059981E+03  0.10566000000E+00 0. -1.
        994    1    1    2    0    0 -0.13257232540E+01  0.22643117481E+01  0.36949285767E+01  0.17125996948E+03  0.17120000000E+03 0.  0.
        998    1    1    2    0    0  0.14945383423E+02 -0.30682847780E+02  0.13409178958E+04  0.13413894307E+04  0.10000000000E+02 0. -1.
</event>
<event>
 5    1  0.1688215E-008  0.3714250E+03  0.7957747E-01  0.3489367E+00
         13   -1    0    0    0    0  0.00000000000E+00  0.00000000000E+00  0.14999999963E+04  0.15000000000E+04  0.10566000000E+00 0. -1.
        994   -1    0    0    0    0 -0.00000000000E+00 -0.00000000000E+00  0.11368683772E-12  0.17120000000E+03  0.17120000000E+03 0.  0.
         13    1    1    2    0    0 -0.10388913187E+02  0.15308531943E+02  0.16295694632E+02  0.24654441690E+02  0.10566000000E+00 0. -1.
        994    1    1    2    0    0 -0.13646256154E+02 -0.26831457614E+02  0.11650295223E+02  0.17421629316E+03  0.17120000000E+03 0.  0.
        998    1    1    2    0    0  0.24035169342E+02  0.11522925671E+02  0.14720540064E+04  0.14723292651E+04  0.10000000000E+02 0. -1.
</event>
<event>
 5    1  0.1688215E-008  0.3824360E+03  0.7957747E-01  0.3440620E+00
         13   -1    0    0    0    0  0.00000000000E+00  0.00000000000E+00  0.14999999963E+04  0.15000000000E+04  0.10566000000E+00 0. -1.
        994   -1    0    0    0    0 -0.00000000000E+00 -0.00000000000E+00  0.11368683772E-12  0.17120000000E+03  0.17120000000E+03 0.  0.
         13    1    1    2    0    0  0.71308418635E+01  0.76453779030E+01  0.18098687024E+02  0.20901539297E+02  0.10566000000E+00 0. -1.
        994    1    1    2    0    0 -0.68063749895E+01  0.83559463770E+01  0.32937803153E+01  0.17157050320E+03  0.17120000000E+03 0.  0.
        998    1    1    2    0    0 -0.32446687406E+00 -0.16001324280E+02  0.14786075289E+04  0.14787279575E+04  0.10000000000E+02 0. -1.
</event>
<event>
 5    1  0.1688215E-008  0.3725625E+03  0.7957747E-01  0.3484196E+00
         13   -1    0    0    0    0  0.00000000000E+00  0.00000000000E+00  0.14999999963E+04  0.15000000000E+04  0.10566000000E+00 0.  1.
        994   -1    0    0    0    0 -0.00000000000E+00 -0.00000000000E+00  0.11368683772E-12  0.17120000000E+03  0.17120000000E+03 0.  0.
         13    1    1    2    0    0  0.13053739323E+02  0.18305297383E+02  0.29758957510E+02  0.37297328842E+02  0.10566000000E+00 0.  1.
        994    1    1    2    0    0  0.11982373994E+02 -0.78746130379E+01  0.86407299113E+01  0.17201653708E+03  0.17120000000E+03 0.  0.
        998    1    1    2    0    0 -0.25036113318E+02 -0.10430684345E+02  0.14616003089E+04  0.14618861341E+04  0.10000000000E+02 0.  1.
</event>
<event>
 5    1  0.1688215E-008  0.3777987E+03  0.7957747E-01  0.3460800E+00
         13   -1    0    0    0    0  0.00000000000E+00  0.00000000000E+00  0.14999999963E+04  0.15000000000E+04  0.10566000000E+00 0.  1.
        994   -1    0    0    0    0 -0.00000000000E+00 -0.00000000000E+00  0.11368683772E-12  0.17120000000E+03  0.17120000000E+03 0.  0.
         13    1    1    2    0    0  0.51537577610E+02  0.39244450067E+01  0.30713476907E+03  0.31145352898E+03  0.10566000000E+00 0.  1.
        994    1    1    2    0    0 -0.73067778891E+01 -0.13456501163E+01  0.54344149093E+01  0.17144728823E+03  0.17120000000E+03 0.  0.
        998    1    1    2    0    0 -0.44230799721E+02 -0.25787948904E+01  0.11874308123E+04  0.11882991828E+04  0.10000000000E+02 0.  1.
</event>
<event>
 5    1  0.1688215E-008  0.3810222E+03  0.7957747E-01  0.3446720E+00
         13   -1    0    0    0    0  0.00000000000E+00  0.00000000000E+00  0.14999999963E+04  0.15000000000E+04  0.10566000000E+00 0.  1.
        994   -1    0    0    0    0 -0.00000000000E+00 -0.00000000000E+00  0.11368683772E-12  0.17120000000E+03  0.17120000000E+03 0.  0.
         13    1    1    2    0    0 -0.15640243230E+02 -0.10866576197E+02  0.47559901520E+02  0.51231387676E+02  0.10566000000E+00 0.  1.
        994    1    1    2    0    0  0.14097597550E+02  0.13404700325E+02  0.48798361838E+01  0.17237076622E+03  0.17120000000E+03 0.  0.
        998    1    1    2    0    0  0.15426456800E+01 -0.25381241279E+01  0.14475602586E+04  0.14475978461E+04  0.10000000000E+02 0.  1.
</event>
<event>
 5    1  0.1688215E-008  0.3789080E+03  0.7957747E-01  0.3455927E+00
         13   -1    0    0    0    0  0.00000000000E+00  0.00000000000E+00  0.14999999963E+04  0.15000000000E+04  0.10566000000E+00 0.  1.
        994   -1    0    0    0    0 -0.00000000000E+00 -0.00000000000E+00  0.11368683772E-12  0.17120000000E+03  0.17120000000E+03 0.  0.
         13    1    1    2    0    0 -0.21841273635E+02 -0.86438895438E+01  0.61572426082E+02  0.65900932301E+02  0.10566000000E+00 0.  1.
        994    1    1    2    0    0 -0.17389833548E+01 -0.64377649579E+01  0.48346296480E+01  0.17139802369E+03  0.17120000000E+03 0.  0.
        998    1    1    2    0    0  0.23580256990E+02  0.15081654502E+02  0.14335929405E+04  0.14339010440E+04  0.10000000000E+02 0.  1.
</event>
<event>
 5    1  0.1688215E-008  0.3790739E+03  0.7957747E-01  0.3455201E+00
         13   -1    0    0    0    0  0.00000000000E+00  0.00000000000E+00  0.14999999963E+04  0.15000000000E+04  0.10566000000E+00 0. -1.
        994   -1    0    0    0    0 -0.00000000000E+00 -0.00000000000E+00  0.11368683772E-12  0.17120000000E+03  0.17120000000E+03 0.  0.
         13    1    1    2    0    0 -0.16127225918E+02 -0.80945305073E+01  0.35361893410E+02  0.39699918256E+02  0.10566000000E+00 0. -1.
        994    1    1    2    0    0 -0.53911642314E+01  0.67485871338E+00  0.47003644632E+01  0.17135067409E+03  0.17120000000E+03 0.  0.
        998    1    1    2    0    0  0.21518390149E+02  0.74196717939E+01  0.14599377384E+04  0.14601494077E+04  0.10000000000E+02 0. -1.
</event>
<event>
 5    1  0.1688215E-008  0.3854037E+03  0.7957747E-01  0.3427962E+00
         13   -1    0    0    0    0  0.00000000000E+00  0.00000000000E+00  0.14999999963E+04  0.15000000000E+04  0.10566000000E+00 0. -1.
        994   -1    0    0    0    0 -0.00000000000E+00 -0.00000000000E+00  0.11368683772E-12  0.17120000000E+03  0.17120000000E+03 0.  0.
         13    1    1    2    0    0  0.51674257254E+01  0.94503686605E+01  0.40852761462E+02  0.42248917614E+02  0.10566000000E+00 0. -1.
        994    1    1    2    0    0 -0.39753023627E+02  0.12801904977E+02  0.71794805579E+01  0.17636659718E+03  0.17120000000E+03 0.  0.
        998    1    1    2    0    0  0.34585597902E+02 -0.22252273638E+02  0.14519677543E+04  0.14525844852E+04  0.10000000000E+02 0. -1.
</event>
<event>
 5    1  0.1688215E-008  0.3857222E+03  0.7957747E-01  0.3426615E+00
         13   -1    0    0    0    0  0.00000000000E+00  0.00000000000E+00  0.14999999963E+04  0.15000000000E+04  0.10566000000E+00 0.  1.
        994   -1    0    0    0    0 -0.00000000000E+00 -0.00000000000E+00  0.11368683772E-12  0.17120000000E+03  0.17120000000E+03 0.  0.
         13    1    1    2    0    0  0.65974405448E+01 -0.10418933533E+02  0.60325285104E+02  0.61572977714E+02  0.10566000000E+00 0.  1.
        994    1    1    2    0    0 -0.55919857943E+01  0.59553546305E+01  0.14910150516E+01  0.17140128261E+03  0.17120000000E+03 0.  0.
        998    1    1    2    0    0 -0.10054547505E+01  0.44635789024E+01  0.14381836961E+04  0.14382257397E+04  0.10000000000E+02 0.  1.
</event>
<event>
 5    1  0.1688215E-008  0.3802156E+03  0.7957747E-01  0.3450220E+00
         13   -1    0    0    0    0  0.00000000000E+00  0.00000000000E+00  0.14999999963E+04  0.15000000000E+04  0.10566000000E+00 0.  1.
        994   -1    0    0    0    0 -0.00000000000E+00 -0.00000000000E+00  0.11368683772E-12  0.17120000000E+03  0.17120000000E+03 0.  0.
         13    1    1    2    0    0 -0.20394599164E+01  0.13608400941E+02  0.22019851731E+02  0.25965997135E+02  0.10566000000E+00 0.  1.
        994    1    1    2    0    0  0.11987765538E+00 -0.72493675910E+01  0.41999584503E+01  0.17140492219E+03  0.17120000000E+03 0.  0.
        998    1    1    2    0    0  0.19195822610E+01 -0.63590333497E+01  0.14737801861E+04  0.14738290807E+04  0.10000000000E+02 0.  1.
</event>
<event>
 5    1  0.1688215E-008  0.3829489E+03  0.7957747E-01  0.3438418E+00
         13   -1    0    0    0    0  0.00000000000E+00  0.00000000000E+00  0.14999999963E+04  0.15000000000E+04  0.10566000000E+00 0.  1.
        994   -1    0    0    0    0 -0.00000000000E+00 -0.00000000000E+00  0.11368683772E-12  0.17120000000E+03  0.17120000000E+03 0.  0.
         13    1    1    2    0    0 -0.34281903163E+01 -0.16674530712E+02  0.55588484363E+02  0.58136763077E+02  0.10566000000E+00 0.  1.
        994    1    1    2    0    0 -0.29647456751E+01  0.51368760535E+01  0.27683721803E+01  0.17132507434E+03  0.17120000000E+03 0.  0.
        998    1    1    2    0    0  0.63929359913E+01  0.11537654659E+02  0.14416431397E+04  0.14417381626E+04  0.10000000000E+02 0.  1.
</event>
<event>
 5    1  0.1688215E-008  0.3845427E+03  0.7957747E-01  0.3431614E+00
         13   -1    0    0    0    0  0.00000000000E+00  0.00000000000E+00  0.14999999963E+04  0.15000000000E+04  0.10566000000E+00 0.  1.
        994   -1    0    0    0    0 -0.00000000000E+00 -0.00000000000E+00  0.11368683772E-12  0.17120000000E+03  0.17120000000E+03 0.  0.
         13    1    1    2    0    0  0.90159485863E+01  0.15970726425E+02  0.90244277506E+02  0.92089045049E+02  0.10566000000E+00 0.  1.
        994    1    1    2    0    0 -0.47506022187E+01 -0.10982554819E+02  0.23290651453E+01  0.17163347365E+03  0.17120000000E+03 0.  0.
        998    1    1    2    0    0 -0.42653463676E+01 -0.49881716063E+01  0.14074266536E+04  0.14074774813E+04  0.10000000000E+02 0.  1.
</event>
<event>
 5    1  0.1688215E-008  0.3693297E+03  0.7957747E-01  0.3498977E+00
         13   -1    0    0    0    0  0.00000000000E+00  0.00000000000E+00  0.14999999963E+04  0.15000000000E+04  0.10566000000E+00 0.  1.
        994   -1    0    0    0    0 -0.00000000000E+00 -0.00000000000E+00  0.11368683772E-12  0.17120000000E+03  0.17120000000E+03 0.  0.
         13    1    1    2    0    0 -0.37141079973E+02 -0.63167878613E+02  0.40220700747E+03  0.40882774946E+03  0.10566000000E+00 0.  1.
        994    1    1    2    0    0  0.14774941885E+02 -0.11773577810E+02  0.10857747628E+02  0.17258113085E+03  0.17120000000E+03 0.  0.
        998    1    1    2    0    0  0.22366138088E+02  0.74941456422E+02  0.10869352412E+04  0.10897911197E+04  0.10000000000E+02 0.  1.
</event>
<event>
 5    1  0.1688215E-008  0.3793265E+03  0.7957747E-01  0.3454096E+00
         13   -1    0    0    0    0  0.00000000000E+00  0.00000000000E+00  0.14999999963E+04  0.15000000000E+04  0.10566000000E+00 0. -1.
        994   -1    0    0    0    0 -0.00000000000E+00 -0.00000000000E+00  0.11368683772E-12  0.17120000000E+03  0.17120000000E+03 0.  0.
         13    1    1    2    0    0 -0.17012597349E+02  0.21668429355E+02  0.90232378946E+02  0.94344277376E+02  0.10566000000E+00 0. -1.
        994    1    1    2    0    0  0.30185661367E+01  0.22031863544E+01  0.45203153631E+01  0.17130043497E+03  0.17120000000E+03 0.  0.
        998    1    1    2    0    0  0.13994031212E+02 -0.23871615709E+02  0.14052473020E+04  0.14055552876E+04  0.10000000000E+02 0. -1.
</event>
<event>
 5    1  0.1688215E-008  0.3808587E+03  0.7957747E-01  0.3447428E+00
         13   -1    0    0    0    0  0.00000000000E+00  0.00000000000E+00  0.14999999963E+04  0.15000000000E+04  0.10566000000E+00 0.  1.
        994   -1    0    0    0    0 -0.00000000000E+00 -0.00000000000E+00  0.11368683772E-12  0.17120000000E+03  0.17120000000E+03 0.  0.
         13    1    1    2    0    0 -0.31811665925E+02  0.43360262423E+01  0.12624648659E+03  0.13026499819E+03  0.10566000000E+00 0.  1.
        994    1    1    2    0    0  0.37039290206E+02  0.16386284673E+02  0.91879779472E+01  0.17616548550E+03  0.17120000000E+03 0.  0.
        998    1    1    2    0    0 -0.52276242812E+01 -0.20722310915E+02  0.13645655317E+04  0.13647695163E+04  0.10000000000E+02 0.  1.
</event>
<event>
 5    1  0.1688215E-008  0.3829300E+03  0.7957747E-01  0.3438499E+00
         13   -1    0    0    0    0  0.00000000000E+00  0.00000000000E+00  0.14999999963E+04  0.15000000000E+04  0.10566000000E+00 0. -1.
        994   -1    0    0    0    0 -0.00000000000E+00 -0.00000000000E+00  0.11368683772E-12  0.17120000000E+03  0.17120000000E+03 0.  0.
         13    1    1    2    0    0  0.17771402760E+02  0.22004327655E+02  0.16292300776E+03  0.16536000367E+03  0.10566000000E+00 0. -1.
        994    1    1    2    0    0 -0.35107452802E+01 -0.53535744182E+01  0.27970421222E+01  0.17134249192E+03  0.17120000000E+03 0.  0.
        998    1    1    2    0    0 -0.14260657479E+02 -0.16650753237E+02  0.13342799464E+04  0.13344975044E+04  0.10000000000E+02 0. -1.
</event>
<event>
 5    1  0.1688215E-008  0.3717241E+03  0.7957747E-01  0.3488005E+00
         13   -1    0    0    0    0  0.00000000000E+00  0.00000000000E+00  0.14999999963E+04  0.15000000000E+04  0.10566000000E+00 0. -1.
        994   -1    0    0    0    0 -0.00000000000E+00 -0.00000000000E+00  0.11368683772E-12  0.17120000000E+03  0.17120000000E+03 0.  0.
         13    1    1    2    0    0 -0.10571693828E+03  0.14064098432E+03  0.72650533482E+03  0.74750650178E+03  0.10566000000E+00 0. -1.
        994    1    1    2    0    0  0.98845802366E+02 -0.15601890976E+03  0.13660156470E+03  0.28649925014E+03  0.17120000000E+03 0.  0.
        998    1    1    2    0    0  0.68711359098E+01  0.15377925441E+02  0.63689309676E+03  0.63719424809E+03  0.10000000000E+02 0. -1.
</event>
<event>
 5    1  0.1688215E-008  0.3837327E+03  0.7957747E-01  0.3435065E+00
         13   -1    0    0    0    0  0.00000000000E+00  0.00000000000E+00  0.14999999963E+04  0.15000000000E+04  0.10566000000E+00 0.  1.
        994   -1    0    0    0    0 -0.00000000000E+00 -0.00000000000E+00  0.11368683772E-12  0.17120000000E+03  0.17120000000E+03 0.  0.
         13    1    1    2    0    0  0.88603594832E+01  0.13653315486E+02  0.57707626975E+02  0.59959155840E+02  0.10566000000E+00 0.  1.
        994    1    1    2    0    0 -0.60773974166E+01 -0.10165956614E+02  0.27240006796E+01  0.17163082944E+03  0.17120000000E+03 0.  0.
        998    1    1    2    0    0 -0.27829620666E+01 -0.34873588725E+01  0.14395683686E+04  0.14396100147E+04  0.10000000000E+02 0.  1.
</event>
<event>
 5    1  0.1688215E-008  0.3842335E+03  0.7957747E-01  0.3432929E+00
         13   -1    0    0    0    0  0.00000000000E+00  0.00000000000E+00  0.14999999963E+04  0.15000000000E+04  0.10566000000E+00 0.  1.
        994   -1    0    0    0    0 -0.00000000000E+00 -0.00000000000E+00  0.11368683772E-12  0.17120000000E+03  0.17120000000E+03 0.  0.
         13    1    1    2    0    0  0.17168699823E+03 -0.77510712070E+02  0.11083283786E+04  0.11242224610E+04  0.10566000000E+00 0.  1.
        994    1    1    2    0    0 -0.18205093535E+03  0.74101224146E+02  0.14192409349E+03  0.29679188465E+03  0.17120000000E+03 0.  0.
        998    1    1    2    0    0  0.10363937119E+02  0.34094879236E+01  0.24974752420E+03  0.25018565436E+03  0.10000000000E+02 0.  1.
</event>
<event>
 5    1  0.1688215E-008  0.3802783E+03  0.7957747E-01  0.3449947E+00
         13   -1    0    0    0    0  0.00000000000E+00  0.00000000000E+00  0.14999999963E+04  0.15000000000E+04  0.10566000000E+00 0.  1.
        994   -1    0    0    0    0 -0.00000000000E+00 -0.00000000000E+00  0.11368683772E-12  0.17120000000E+03  0.17120000000E+03 0.  0.
         13    1    1    2    0    0  0.30827531838E+02 -0.23736506999E+02  0.20932512337E+03  0.21291025556E+03  0.10566000000E+00 0.  1.
        994    1    1    2    0    0 -0.72676339348E+01  0.51858759324E+01  0.42589743658E+01  0.17148554072E+03  0.17120000000E+03 0.  0.
        998    1    1    2    0    0 -0.23559897903E+02  0.18550631067E+02  0.12864158985E+04  0.12868042037E+04  0.10000000000E+02 0.  1.
</event>
<event>
 5    1  0.1688215E-008  0.3816677E+03  0.7957747E-01  0.3443929E+00
         13   -1    0    0    0    0  0.00000000000E+00  0.00000000000E+00  0.14999999963E+04  0.15000000000E+04  0.10566000000E+00 0. -1.
        994   -1    0    0    0    0 -0.00000000000E+00 -0.00000000000E+00  0.11368683772E-12  0.17120000000E+03  0.17120000000E+03 0.  0.
         13    1    1    2    0    0  0.20186728968E+02  0.76375176073E+01  0.75481485695E+02  0.78506697474E+02  0.10566000000E+00 0. -1.
        994    1    1    2    0    0  0.37038620837E+01 -0.28187999291E+01  0.33656762045E+01  0.17129632805E+03  0.17120000000E+03 0.  0.
        998    1    1    2    0    0 -0.23890591052E+02 -0.48187176782E+01  0.14211528344E+04  0.14213969745E+04  0.10000000000E+02 0. -1.
</event>
<event>
 5    1  0.1688215E-008  0.3716670E+03  0.7957747E-01  0.3488265E+00
         13   -1    0    0    0    0  0.00000000000E+00  0.00000000000E+00  0.14999999963E+04  0.15000000000E+04  0.10566000000E+00 0.  1.
        994   -1    0    0    0    0 -0.00000000000E+00 -0.00000000000E+00  0.11368683772E-12  0.17120000000E+03  0.17120000000E+03 0.  0.
         13    1    1    2    0    0 -0.73587241822E+02 -0.68487586878E+02  0.44061649566E+03  0.45193864531E+03  0.10566000000E+00 0.  1.
        994    1    1    2    0    0  0.75514158080E+02  0.57439849443E+02  0.40013335684E+02  0.19978045802E+03  0.17120000000E+03 0.  0.
        998    1    1    2    0    0 -0.19269162587E+01  0.11047737435E+02  0.10193701649E+04  0.10194808967E+04  0.10000000000E+02 0.  1.
</event>
<event>
 5    1  0.1688215E-008  0.3839665E+03  0.7957747E-01  0.3434067E+00
         13   -1    0    0    0    0  0.00000000000E+00  0.00000000000E+00  0.14999999963E+04  0.15000000000E+04  0.10566000000E+00 0. -1.
        994   -1    0    0    0    0 -0.00000000000E+00 -0.00000000000E+00  0.11368683772E-12  0.17120000000E+03  0.17120000000E+03 0.  0.
         13    1    1    2    0    0 -0.73280174553E+02 -0.10435524996E+01  0.18791770988E+03  0.20170312301E+03  0.10566000000E+00 0. -1.
        994    1    1    2    0    0 -0.28479424216E+02 -0.64701775150E+00  0.21512783572E+02  0.17488206338E+03  0.17120000000E+03 0.  0.
        998    1    1    2    0    0  0.10175959877E+03  0.16905702511E+01  0.12905695028E+04  0.12946148136E+04  0.10000000000E+02 0. -1.
</event>
<event>
 5    1  0.1688215E-008  0.3853559E+03  0.7957747E-01  0.3428164E+00
         13   -1    0    0    0    0  0.00000000000E+00  0.00000000000E+00  0.14999999963E+04  0.15000000000E+04  0.10566000000E+00 0.  1.
        994   -1    0    0    0    0 -0.00000000000E+00 -0.00000000000E+00  0.11368683772E-12  0.17120000000E+03  0.17120000000E+03 0.  0.
         13    1    1    2    0    0 -0.12547071600E+02  0.23762683178E+01  0.55105878163E+02  0.56566285268E+02  0.10566000000E+00 0.  1.
        994    1    1    2    0    0  0.10719398292E+02 -0.77027729004E+01  0.20261177908E+01  0.17172007269E+03  0.17120000000E+03 0.  0.
        998    1    1    2    0    0  0.18276733079E+01  0.53265045827E+01  0.14428680003E+04  0.14429136420E+04  0.10000000000E+02 0.  1.
</event>
<event>
 5    1  0.1688215E-008  0.3852165E+03  0.7957747E-01  0.3428755E+00
         13   -1    0    0    0    0  0.00000000000E+00  0.00000000000E+00  0.14999999963E+04  0.15000000000E+04  0.10566000000E+00 0.  1.
        994   -1    0    0    0    0 -0.00000000000E+00 -0.00000000000E+00  0.11368683772E-12  0.17120000000E+03  0.17120000000E+03 0.  0.
         13    1    1    2    0    0  0.39747687097E+01 -0.16060753879E+02  0.90269765758E+02  0.91773571225E+02  0.10566000000E+00 0.  1.
        994    1    1    2    0    0 -0.22117598479E+01  0.10199972076E+02  0.18807759217E+01  0.17152815696E+03  0.17120000000E+03 0.  0.
        998    1    1    2    0    0 -0.17630088618E+01  0.58607818031E+01  0.14078494546E+04  0.14078982718E+04  0.10000000000E+02 0.  1.
</event>
<event>
 5    1  0.1688215E-008  0.3858857E+03  0.7957747E-01  0.3425924E+00
         13   -1    0    0    0    0  0.00000000000E+00  0.00000000000E+00  0.14999999963E+04  0.15000000000E+04  0.10566000000E+00 0.  1.
        994   -1    0    0    0    0 -0.00000000000E+00 -0.00000000000E+00  0.11368683772E-12  0.17120000000E+03  0.17120000000E+03 0.  0.
         13    1    1    2    0    0 -0.70549671002E+01  0.10412854309E+02  0.60422445607E+02  0.61717770478E+02  0.10566000000E+00 0.  1.
        994    1    1    2    0    0  0.27772230277E+02 -0.99399335586E+01  0.40494942876E+01  0.17376978292E+03  0.17120000000E+03 0.  0.
        998    1    1    2    0    0 -0.20717263177E+02 -0.47292075033E+00  0.14355280564E+04  0.14357124466E+04  0.10000000000E+02 0.  1.
</event>
<event>
 5    1  0.1688215E-008  0.3761280E+03  0.7957747E-01  0.3468193E+00
         13   -1    0    0    0    0  0.00000000000E+00  0.00000000000E+00  0.14999999963E+04  0.15000000000E+04  0.10566000000E+00 0. -1.
        994   -1    0    0    0    0 -0.00000000000E+00 -0.00000000000E+00  0.11368683772E-12  0.17120000000E+03  0.17120000000E+03 0.  0.
         13    1    1    2    0    0 -0.75561524433E+02 -0.42379112929E+02  0.43380863344E+03  0.44237481257E+03  0.10566000000E+00 0. -1.
        994    1    1    2    0    0  0.72009037568E+02  0.48038790449E+02  0.31911900690E+02  0.19447579871E+03  0.17120000000E+03 0.  0.
        998    1    1    2    0    0  0.35524868652E+01 -0.56596775194E+01  0.10342794622E+04  0.10343493887E+04  0.10000000000E+02 0. -1.
</event>
<event>
 5    1  0.1688215E-008  0.3838672E+03  0.7957747E-01  0.3434491E+00
         13   -1    0    0    0    0  0.00000000000E+00  0.00000000000E+00  0.14999999963E+04  0.15000000000E+04  0.10566000000E+00 0. -1.
        994   -1    0    0    0    0 -0.00000000000E+00 -0.00000000000E+00  0.11368683772E-12  0.17120000000E+03  0.17120000000E+03 0.  0.
         13    1    1    2    0    0  0.20214787143E+02 -0.37497657366E+01  0.92621856712E+02  0.94876329330E+02  0.10566000000E+00 0. -1.
        994    1    1    2    0    0 -0.18099298341E+02  0.23955844243E+01  0.32945836335E+01  0.17220225813E+03  0.17120000000E+03 0.  0.
        998    1    1    2    0    0 -0.21154888028E+01  0.13541813122E+01  0.14040835559E+04  0.14041214125E+04  0.10000000000E+02 0. -1.
</event>
<event>
 5    1  0.1688215E-008  0.3777650E+03  0.7957747E-01  0.3460948E+00
         13   -1    0    0    0    0  0.00000000000E+00  0.00000000000E+00  0.14999999963E+04  0.15000000000E+04  0.10566000000E+00 0. -1.
        994   -1    0    0    0    0 -0.00000000000E+00 -0.00000000000E+00  0.11368683772E-12  0.17120000000E+03  0.17120000000E+03 0.  0.
         13    1    1    2    0    0  0.17612284956E+02  0.17673052882E+02  0.54808873664E+02  0.60220869936E+02  0.10566000000E+00 0. -1.
        994    1    1    2    0    0 -0.23383601795E+02 -0.15771724683E+02  0.79495068518E+01  0.17368988109E+03  0.17120000000E+03 0.  0.
        998    1    1    2    0    0  0.57713168397E+01 -0.19013281986E+01  0.14372416158E+04  0.14372892490E+04  0.10000000000E+02 0. -1.
</event>
<event>
 5    1  0.1688215E-008  0.3782483E+03  0.7957747E-01  0.3458821E+00
         13   -1    0    0    0    0  0.00000000000E+00  0.00000000000E+00  0.14999999963E+04  0.15000000000E+04  0.10566000000E+00 0.  1.
        994   -1    0    0    0    0 -0.00000000000E+00 -0.00000000000E+00  0.11368683772E-12  0.17120000000E+03  0.17120000000E+03 0.  0.
         13    1    1    2    0    0  0.24156628227E+02 -0.20783487015E+02  0.97541991830E+02  0.10261553174E+03  0.10566000000E+00 0.  1.
        994    1    1    2    0    0 -0.18474449194E+02  0.14393429872E+02  0.68663628623E+01  0.17293080418E+03  0.17120000000E+03 0.  0.
        998    1    1    2    0    0 -0.56821790322E+01  0.63900571436E+01  0.13955916416E+04  0.13956536641E+04  0.10000000000E+02 0.  1.
</event>
<event>
 5    1  0.1688215E-008  0.3700943E+03  0.7957747E-01  0.3495458E+00
         13   -1    0    0    0    0  0.00000000000E+00  0.00000000000E+00  0.14999999963E+04  0.15000000000E+04  0.10566000000E+00 0. -1.
        994   -1    0    0    0    0 -0.00000000000E+00 -0.00000000000E+00  0.11368683772E-12  0.17120000000E+03  0.17120000000E+03 0.  0.
         13    1    1    2    0    0 -0.62959708128E+02 -0.30138717114E+02  0.26680322904E+03  0.27578296051E+03  0.10566000000E+00 0. -1.
        994    1    1    2    0    0  0.22261580206E+01  0.10887290521E+02  0.11420637405E+02  0.17193998905E+03  0.17120000000E+03 0.  0.
        998    1    1    2    0    0  0.60733550107E+02  0.19251426593E+02  0.12217761298E+04  0.12234770504E+04  0.10000000000E+02 0. -1.
</event>
<event>
 5    1  0.1688215E-008  0.3812774E+03  0.7957747E-01  0.3445615E+00
         13   -1    0    0    0    0  0.00000000000E+00  0.00000000000E+00  0.14999999963E+04  0.15000000000E+04  0.10566000000E+00 0.  1.
        994   -1    0    0    0    0 -0.00000000000E+00 -0.00000000000E+00  0.11368683772E-12  0.17120000000E+03  0.17120000000E+03 0.  0.
         13    1    1    2    0    0  0.17081161428E+02  0.22421879238E+01  0.92215467415E+00  0.17252681406E+02  0.10566000000E+00 0.  1.
        994    1    1    2    0    0 -0.20417875845E+02 -0.13973884362E+02  0.19262378502E+02  0.17404780471E+03  0.17120000000E+03 0.  0.
        998    1    1    2    0    0  0.33367144167E+01  0.11731696438E+02  0.14798154631E+04  0.14798995139E+04  0.10000000000E+02 0.  1.
</event>
<event>
 5    1  0.1688215E-008  0.3737475E+03  0.7957747E-01  0.3478843E+00
         13   -1    0    0    0    0  0.00000000000E+00  0.00000000000E+00  0.14999999963E+04  0.15000000000E+04  0.10566000000E+00 0. -1.
        994   -1    0    0    0    0 -0.00000000000E+00 -0.00000000000E+00  0.11368683772E-12  0.17120000000E+03  0.17120000000E+03 0.  0.
         13    1    1    2    0    0 -0.56545783468E+02  0.59889439317E+01  0.19533307483E+03  0.20344118159E+03  0.10566000000E+00 0. -1.
        994    1    1    2    0    0  0.54254520802E+02  0.81325325089E+01  0.17667765454E+02  0.18064130494E+03  0.17120000000E+03 0.  0.
        998    1    1    2    0    0  0.22912626660E+01 -0.14121476441E+02  0.12869991560E+04  0.12871175135E+04  0.10000000000E+02 0. -1.
</event>
<event>
 5    1  0.1688215E-008  0.3842659E+03  0.7957747E-01  0.3432792E+00
         13   -1    0    0    0    0  0.00000000000E+00  0.00000000000E+00  0.14999999963E+04  0.15000000000E+04  0.10566000000E+00 0. -1.
        994   -1    0    0    0    0 -0.00000000000E+00 -0.00000000000E+00  0.11368683772E-12  0.17120000000E+03  0.17120000000E+03 0.  0.
         13    1    1    2    0    0  0.16378177772E+02  0.66990180739E+01  0.79684067146E+02  0.81625261232E+02  0.10566000000E+00 0. -1.
        994    1    1    2    0    0 -0.86351828949E+01 -0.10211758539E+01  0.22443242200E+01  0.17143537026E+03  0.17120000000E+03 0.  0.
        998    1    1    2    0    0 -0.77429948771E+01 -0.56778422200E+01  0.14180716049E+04  0.14181393685E+04  0.10000000000E+02 0. -1.
</event>
<event>
 5    1  0.1688215E-008  0.3821655E+03  0.7957747E-01  0.3441783E+00
         13   -1    0    0    0    0  0.00000000000E+00  0.00000000000E+00  0.14999999963E+04  0.15000000000E+04  0.10566000000E+00 0.  1.
        994   -1    0    0    0    0 -0.00000000000E+00 -0.00000000000E+00  0.11368683772E-12  0.17120000000E+03  0.17120000000E+03 0.  0.
         13    1    1    2    0    0 -0.13315893706E+02  0.23176349980E+02  0.13557735263E+03  0.13818714099E+03  0.10566000000E+00 0.  1.
        994    1    1    2    0    0 -0.41306440448E+02 -0.20946362348E+02  0.10196433280E+02  0.17764678260E+03  0.17120000000E+03 0.  0.
        998    1    1    2    0    0  0.54622334154E+02 -0.22299876323E+01  0.13542262104E+04  0.13553660764E+04  0.10000000000E+02 0.  1.
</event>
<event>
 5    1  0.1688215E-008  0.3749965E+03  0.7957747E-01  0.3473238E+00
         13   -1    0    0    0    0  0.00000000000E+00  0.00000000000E+00  0.14999999963E+04  0.15000000000E+04  0.10566000000E+00 0. -1.
        994   -1    0    0    0    0 -0.00000000000E+00 -0.00000000000E+00  0.11368683772E-12  0.17120000000E+03  0.17120000000E+03 0.  0.
         13    1    1    2    0    0 -0.18260439439E+01  0.12837508563E+02  0.95888609773E+01  0.16127413974E+02  0.10566000000E+00 0. -1.
        994    1    1    2    0    0  0.23099525734E+01 -0.86603136147E+01  0.69536496543E+01  0.17157543576E+03  0.17120000000E+03 0.  0.
        998    1    1    2    0    0 -0.48390862946E+00 -0.41771949488E+01  0.14834574856E+04  0.14834971503E+04  0.10000000000E+02 0. -1.
</event>
<event>
 5    1  0.1688215E-008  0.3798984E+03  0.7957747E-01  0.3451601E+00
         13   -1    0    0    0    0  0.00000000000E+00  0.00000000000E+00  0.14999999963E+04  0.15000000000E+04  0.10566000000E+00 0. -1.
        994   -1    0    0    0    0 -0.00000000000E+00 -0.00000000000E+00  0.11368683772E-12  0.17120000000E+03  0.17120000000E+03 0.  0.
         13    1    1    2    0    0  0.14745834302E+02 -0.25771281527E+02  0.98750656680E+02  0.10311790310E+03  0.10566000000E+00 0. -1.
        994    1    1    2    0    0 -0.11867718062E+02  0.25575000849E+02  0.68472310431E+01  0.17364114712E+03  0.17120000000E+03 0.  0.
        998    1    1    2    0    0 -0.28781162392E+01  0.19628067795E+00  0.13944021086E+04  0.13944409498E+04  0.10000000000E+02 0. -1.
</event>
<event>
 5    1  0.1803886E-008  0.3860249E+03  0.7957747E-01  0.3425337E+00
         13   -1    0    0    0    0  0.00000000000E+00  0.00000000000E+00  0.14999999963E+04  0.15000000000E+04  0.10566000000E+00 0.  1.
        994   -1    0    0    0    0 -0.00000000000E+00 -0.00000000000E+00  0.11368683772E-12  0.17120000000E+03  0.17120000000E+03 0.  0.
         13    1    1    2    0    0  0.27998789564E+01  0.11067992381E+02  0.59662552098E+02  0.60745132022E+02  0.10566000000E+00 0.  1.
        994    1    1    2    0    0 -0.84937666166E+01 -0.37199276093E+01  0.14040302914E+01  0.17145668034E+03  0.17120000000E+03 0.  0.
        998    1    1    2    0    0  0.56938876602E+01 -0.73480647720E+01  0.14389334139E+04  0.14389981876E+04  0.10000000000E+02 0.  1.
</event>
<event>
 5    1  0.1688215E-008  0.3726820E+03  0.7957747E-01  0.3483655E+00
         13   -1    0    0    0    0  0.00000000000E+00  0.00000000000E+00  0.14999999963E+04  0.15000000000E+04  0.10566000000E+00 0. -1.
        994   -1    0    0    0    0 -0.00000000000E+00 -0.00000000000E+00  0.11368683772E-12  0.17120000000E+03  0.17120000000E+03 0.  0.
         13    1    1    2    0    0 -0.11462973764E+02 -0.35793580220E+01  0.55191886746E+01  0.13216814254E+02  0.10566000000E+00 0. -1.
        994    1    1    2    0    0  0.10076416208E+02  0.31186801143E+01  0.82551541977E+01  0.17172317229E+03  0.17120000000E+03 0.  0.
        998    1    1    2    0    0  0.13865575562E+01  0.46067790772E+00  0.14862256534E+04  0.14862600135E+04  0.10000000000E+02 0. -1.
</event>
<event>
 5    1  0.1688215E-008  0.3784941E+03  0.7957747E-01  0.3457742E+00
         13   -1    0    0    0    0  0.00000000000E+00  0.00000000000E+00  0.14999999963E+04  0.15000000000E+04  0.10566000000E+00 0.  1.
        994   -1    0    0    0    0 -0.00000000000E+00 -0.00000000000E+00  0.11368683772E-12  0.17120000000E+03  0.17120000000E+03 0.  0.
         13    1    1    2    0    0  0.18136426601E+02  0.14061553600E+02  0.51925197939E+02  0.56770543458E+02  0.10566000000E+00 0.  1.
        994    1    1    2    0    0 -0.17251088743E+02 -0.21603458779E+01  0.59114192662E+01  0.17218203168E+03  0.17120000000E+03 0.  0.
        998    1    1    2    0    0 -0.88533785795E+00 -0.11901207722E+02  0.14421633791E+04  0.14422474249E+04  0.10000000000E+02 0.  1.
</event>
<event>
 5    1  0.1688215E-008  0.3846343E+03  0.7957747E-01  0.3431225E+00
         13   -1    0    0    0    0  0.00000000000E+00  0.00000000000E+00  0.14999999963E+04  0.15000000000E+04  0.10566000000E+00 0. -1.
        994   -1    0    0    0    0 -0.00000000000E+00 -0.00000000000E+00  0.11368683772E-12  0.17120000000E+03  0.17120000000E+03 0.  0.
         13    1    1    2    0    0  0.11701484008E+02  0.22521119175E+01  0.42191154227E+02  0.43841776824E+02  0.10566000000E+00 0. -1.
        994    1    1    2    0    0  0.79744308458E+01  0.25629722223E+01  0.20428443180E+01  0.17141695828E+03  0.17120000000E+03 0.  0.
        998    1    1    2    0    0 -0.19675914854E+02 -0.48150841399E+01  0.14557659977E+04  0.14559412649E+04  0.10000000000E+02 0. -1.
</event>
<event>
 5    1  0.1688215E-008  0.3754726E+03  0.7957747E-01  0.3471112E+00
         13   -1    0    0    0    0  0.00000000000E+00  0.00000000000E+00  0.14999999963E+04  0.15000000000E+04  0.10566000000E+00 0. -1.
        994   -1    0    0    0    0 -0.00000000000E+00 -0.00000000000E+00  0.11368683772E-12  0.17120000000E+03  0.17120000000E+03 0.  0.
         13    1    1    2    0    0 -0.49484332714E+01 -0.41517378030E+02  0.14710784909E+03  0.15293433263E+03  0.10566000000E+00 0. -1.
        994    1    1    2    0    0  0.22605792689E+01  0.61671999582E+01  0.65826767346E+01  0.17145237300E+03  0.17120000000E+03 0.  0.
        998    1    1    2    0    0  0.26878540025E+01  0.35350178072E+02  0.13463094705E+04  0.13468132944E+04  0.10000000000E+02 0. -1.
</event>
<event>
 5    1  0.1688215E-008  0.3817620E+03  0.7957747E-01  0.3443522E+00
         13   -1    0    0    0    0  0.00000000000E+00  0.00000000000E+00  0.14999999963E+04  0.15000000000E+04  0.10566000000E+00 0. -1.
        994   -1    0    0    0    0 -0.00000000000E+00 -0.00000000000E+00  0.11368683772E-12  0.17120000000E+03  0.17120000000E+03 0.  0.
         13    1    1    2    0    0 -0.32825124397E+02 -0.43294847371E+01  0.19189414174E+03  0.19472957153E+03  0.10566000000E+00 0. -1.
        994    1    1    2    0    0  0.60888628824E+00  0.38928273952E+02  0.83005462095E+01  0.17576723336E+03  0.17120000000E+03 0.  0.
        998    1    1    2    0    0  0.32216238109E+02 -0.34598789215E+02  0.12998053083E+04  0.13007031951E+04  0.10000000000E+02 0. -1.
</event>
<event>
 5    1  0.1688215E-008  0.3796363E+03  0.7957747E-01  0.3452743E+00
         13   -1    0    0    0    0  0.00000000000E+00  0.00000000000E+00  0.14999999963E+04  0.15000000000E+04  0.10566000000E+00 0. -1.
        994   -1    0    0    0    0 -0.00000000000E+00 -0.00000000000E+00  0.11368683772E-12  0.17120000000E+03  0.17120000000E+03 0.  0.
         13    1    1    2    0    0  0.18925936647E+02  0.30763122359E+02  0.17051597698E+03  0.17429936989E+03  0.10566000000E+00 0. -1.
        994    1    1    2    0    0  0.27058329143E+01 -0.38890637992E+01  0.43919627030E+01  0.17132184824E+03  0.17120000000E+03 0.  0.
        998    1    1    2    0    0 -0.21631769561E+02 -0.26874058560E+02  0.13250920566E+04  0.13255787819E+04  0.10000000000E+02 0. -1.
</event>
<event>
 5    1  0.1688215E-008  0.3828913E+03  0.7957747E-01  0.3438665E+00
         13   -1    0    0    0    0  0.00000000000E+00  0.00000000000E+00  0.14999999963E+04  0.15000000000E+04  0.10566000000E+00 0.  1.
        994   -1    0    0    0    0 -0.00000000000E+00 -0.00000000000E+00  0.11368683772E-12  0.17120000000E+03  0.17120000000E+03 0.  0.
         13    1    1    2    0    0  0.19573989427E+03  0.10774565890E+03  0.11909067348E+04  0.12116856422E+04  0.10566000000E+00 0.  1.
        994    1    1    2    0    0 -0.18906558914E+03 -0.11882806721E+03  0.19050727213E+03  0.33980636734E+03  0.17120000000E+03 0.  0.
        998    1    1    2    0    0 -0.66743051394E+01  0.11082408308E+02  0.11858598931E+03  0.11970799047E+03  0.10000000000E+02 0.  1.
</event>
<event>
 5    1  0.1688215E-008  0.3842809E+03  0.7957747E-01  0.3432728E+00
         13   -1    0    0    0    0  0.00000000000E+00  0.00000000000E+00  0.14999999963E+04  0.15000000000E+04  0.10566000000E+00 0.  1.
        994   -1    0    0    0    0 -0.00000000000E+00 -0.00000000000E+00  0.11368683772E-12  0.17120000000E+03  0.17120000000E+03 0.  0.
         13    1    1    2    0    0  0.14835274782E+02 -0.11813846150E+02  0.88679916174E+02  0.90685120253E+02  0.10566000000E+00 0.  1.
        994    1    1    2    0    0 -0.77421940054E+01  0.13714765558E+02  0.28056102743E+01  0.17194576997E+03  0.17120000000E+03 0.  0.
        998    1    1    2    0    0 -0.70930807762E+01 -0.19009194080E+01  0.14085144698E+04  0.14085691098E+04  0.10000000000E+02 0.  1.
</event>
<event>
 5    1  0.1688215E-008  0.3769637E+03  0.7957747E-01  0.3464487E+00
         13   -1    0    0    0    0  0.00000000000E+00  0.00000000000E+00  0.14999999963E+04  0.15000000000E+04  0.10566000000E+00 0. -1.
        994   -1    0    0    0    0 -0.00000000000E+00 -0.00000000000E+00  0.11368683772E-12  0.17120000000E+03  0.17120000000E+03 0.  0.
         13    1    1    2    0    0 -0.66419744685E+01  0.17767154369E+02  0.31135582147E+02  0.36458513942E+02  0.10566000000E+00 0. -1.
        994    1    1    2    0    0 -0.17570199344E+01  0.75749727658E+01  0.58779587153E+01  0.17147728051E+03  0.17120000000E+03 0.  0.
        998    1    1    2    0    0  0.83989944028E+01 -0.25342127134E+02  0.14629864554E+04  0.14632642056E+04  0.10000000000E+02 0. -1.
</event>
<event>
 5    1  0.1688215E-008  0.3731486E+03  0.7957747E-01  0.3481545E+00
         13   -1    0    0    0    0  0.00000000000E+00  0.00000000000E+00  0.14999999963E+04  0.15000000000E+04  0.10566000000E+00 0. -1.
        994   -1    0    0    0    0 -0.00000000000E+00 -0.00000000000E+00  0.11368683772E-12  0.17120000000E+03  0.17120000000E+03 0.  0.
         13    1    1    2    0    0 -0.38511787481E+02 -0.37998679277E+02  0.16880871383E+03  0.17726660834E+03  0.10566000000E+00 0. -1.
        994    1    1    2    0    0  0.39789837126E+02  0.36740448378E+02  0.17732712945E+02  0.18043553085E+03  0.17120000000E+03 0.  0.
        998    1    1    2    0    0 -0.12780496456E+01  0.12582308991E+01  0.13134585695E+04  0.13134978608E+04  0.10000000000E+02 0. -1.
</event>
<event>
 5    1  0.1688215E-008  0.3712280E+03  0.7957747E-01  0.3490266E+00
         13   -1    0    0    0    0  0.00000000000E+00  0.00000000000E+00  0.14999999963E+04  0.15000000000E+04  0.10566000000E+00 0. -1.
        994   -1    0    0    0    0 -0.00000000000E+00 -0.00000000000E+00  0.11368683772E-12  0.17120000000E+03  0.17120000000E+03 0.  0.
         13    1    1    2    0    0 -0.22051587193E+02 -0.31103529290E+02  0.54520221662E+02  0.66529450367E+02  0.10566000000E+00 0. -1.
        994    1    1    2    0    0  0.10908903472E+03 -0.22471816273E+02  0.56518113045E+02  0.21191776028E+03  0.17120000000E+03 0.  0.
        998    1    1    2    0    0 -0.87037447522E+02  0.53575345563E+02  0.13889616616E+04  0.13927527893E+04  0.10000000000E+02 0. -1.
</event>
<event>
 5    1  0.1688215E-008  0.3730150E+03  0.7957747E-01  0.3482148E+00
         13   -1    0    0    0    0  0.00000000000E+00  0.00000000000E+00  0.14999999963E+04  0.15000000000E+04  0.10566000000E+00 0. -1.
        994   -1    0    0    0    0 -0.00000000000E+00 -0.00000000000E+00  0.11368683772E-12  0.17120000000E+03  0.17120000000E+03 0.  0.
         13    1    1    2    0    0 -0.23499550651E+02 -0.16239517869E+02  0.48881720629E+02  0.56616116054E+02  0.10566000000E+00 0. -1.
        994    1    1    2    0    0  0.30160275968E+02  0.24825916544E+01  0.10842039352E+02  0.17419183484E+03  0.17120000000E+03 0.  0.
        998    1    1    2    0    0 -0.66607253171E+01  0.13756926214E+02  0.14402762363E+04  0.14403920491E+04  0.10000000000E+02 0. -1.
</event>
<event>
 5    1  0.1688215E-008  0.3816443E+03  0.7957747E-01  0.3444030E+00
         13   -1    0    0    0    0  0.00000000000E+00  0.00000000000E+00  0.14999999963E+04  0.15000000000E+04  0.10566000000E+00 0.  1.
        994   -1    0    0    0    0 -0.00000000000E+00 -0.00000000000E+00  0.11368683772E-12  0.17120000000E+03  0.17120000000E+03 0.  0.
         13    1    1    2    0    0 -0.27265310391E+02  0.54698866222E+01  0.14088663740E+03  0.14360491834E+03  0.10566000000E+00 0.  1.
        994    1    1    2    0    0 -0.12138818357E+02 -0.38655190733E+01  0.38452061380E+01  0.17171639048E+03  0.17120000000E+03 0.  0.
        998    1    1    2    0    0  0.39404128749E+02 -0.16043675489E+01  0.13552681527E+04  0.13558786912E+04  0.10000000000E+02 0.  1.
</event>
<event>
 5    1  0.1688215E-008  0.3781884E+03  0.7957747E-01  0.3459085E+00
         13   -1    0    0    0    0  0.00000000000E+00  0.00000000000E+00  0.14999999963E+04  0.15000000000E+04  0.10566000000E+00 0. -1.
        994   -1    0    0    0    0 -0.00000000000E+00 -0.00000000000E+00  0.11368683772E-12  0.17120000000E+03  0.17120000000E+03 0.  0.
         13    1    1    2    0    0 -0.15312027804E+03  0.87104879762E+02  0.98689707052E+03  0.10024963434E+04  0.10566000000E+00 0. -1.
        994    1    1    2    0    0  0.14095093936E+03 -0.10151601402E+03  0.11432620320E+03  0.26935587825E+03  0.17120000000E+03 0.  0.
        998    1    1    2    0    0  0.12169338682E+02  0.14411134260E+02  0.39877672256E+03  0.39934777832E+03  0.10000000000E+02 0. -1.
</event>
<event>
 5    1  0.1688215E-008  0.3838497E+03  0.7957747E-01  0.3434565E+00
         13   -1    0    0    0    0  0.00000000000E+00  0.00000000000E+00  0.14999999963E+04  0.15000000000E+04  0.10566000000E+00 0. -1.
        994   -1    0    0    0    0 -0.00000000000E+00 -0.00000000000E+00  0.11368683772E-12  0.17120000000E+03  0.17120000000E+03 0.  0.
         13    1    1    2    0    0 -0.83560675827E+01 -0.92354829775E+01  0.33722858145E+02  0.35949413581E+02  0.10566000000E+00 0. -1.
        994    1    1    2    0    0  0.88753537853E+01  0.11983856272E+02  0.29367448885E+01  0.17187335217E+03  0.17120000000E+03 0.  0.
        998    1    1    2    0    0 -0.51928620266E+00 -0.27483732946E+01  0.14633403932E+04  0.14633772342E+04  0.10000000000E+02 0. -1.
</event>
<event>
 5    1  0.1688215E-008  0.3733028E+03  0.7957747E-01  0.3480848E+00
         13   -1    0    0    0    0  0.00000000000E+00  0.00000000000E+00  0.14999999963E+04  0.15000000000E+04  0.10566000000E+00 0.  1.
        994   -1    0    0    0    0 -0.00000000000E+00 -0.00000000000E+00  0.11368683772E-12  0.17120000000E+03  0.17120000000E+03 0.  0.
         13    1    1    2    0    0 -0.20071398190E+02  0.40656856176E+02  0.12765036464E+03  0.13546389828E+03  0.10566000000E+00 0.  1.
        994    1    1    2    0    0  0.14382367004E+02 -0.34463418139E+02  0.12335584323E+02  0.17565929042E+03  0.17120000000E+03 0.  0.
        998    1    1    2    0    0  0.56890311863E+01 -0.61934380370E+01  0.13600140473E+04  0.13600768113E+04  0.10000000000E+02 0.  1.
</event>
<event>
 5    1  0.1688215E-008  0.3826797E+03  0.7957747E-01  0.3439573E+00
         13   -1    0    0    0    0  0.00000000000E+00  0.00000000000E+00  0.14999999963E+04  0.15000000000E+04  0.10566000000E+00 0.  1.
        994   -1    0    0    0    0 -0.00000000000E+00 -0.00000000000E+00  0.11368683772E-12  0.17120000000E+03  0.17120000000E+03 0.  0.
         13    1    1    2    0    0 -0.30239188341E+01  0.13660561218E+02  0.33626308759E+02  0.36421076627E+02  0.10566000000E+00 0.  1.
        994    1    1    2    0    0  0.12493218588E+02 -0.11438375618E+02  0.37378066193E+01  0.17207651829E+03  0.17120000000E+03 0.  0.
        998    1    1    2    0    0 -0.94692997541E+01 -0.22221855999E+01  0.14626358809E+04  0.14627024051E+04  0.10000000000E+02 0.  1.
</event>
<event>
 5    1  0.1688215E-008  0.3833627E+03  0.7957747E-01  0.3436646E+00
         13   -1    0    0    0    0  0.00000000000E+00  0.00000000000E+00  0.14999999963E+04  0.15000000000E+04  0.10566000000E+00 0.  1.
        994   -1    0    0    0    0 -0.00000000000E+00 -0.00000000000E+00  0.11368683772E-12  0.17120000000E+03  0.17120000000E+03 0.  0.
         13    1    1    2    0    0 -0.14976455874E+02  0.26813220956E+02  0.17891814905E+03  0.18153500564E+03  0.10566000000E+00 0.  1.
        994    1    1    2    0    0  0.29614446697E+01 -0.28747712697E+02  0.52114400877E+01  0.17370031735E+03  0.17120000000E+03 0.  0.
        998    1    1    2    0    0  0.12015011205E+02  0.19344917407E+01  0.13158704071E+04  0.13159646770E+04  0.10000000000E+02 0.  1.
</event>
<event>
 5    1  0.1688215E-008  0.3839445E+03  0.7957747E-01  0.3434161E+00
         13   -1    0    0    0    0  0.00000000000E+00  0.00000000000E+00  0.14999999963E+04  0.15000000000E+04  0.10566000000E+00 0. -1.
        994   -1    0    0    0    0 -0.00000000000E+00 -0.00000000000E+00  0.11368683772E-12  0.17120000000E+03  0.17120000000E+03 0.  0.
         13    1    1    2    0    0 -0.13062256251E+02 -0.20541931305E+02  0.12423686910E+03  0.12659938502E+03  0.10566000000E+00 0. -1.
        994    1    1    2    0    0  0.23659431181E+02  0.18105559159E+02  0.50895327755E+01  0.17384741384E+03  0.17120000000E+03 0.  0.
        998    1    1    2    0    0 -0.10597174931E+02  0.24363721461E+01  0.13706735944E+04  0.13707532011E+04  0.10000000000E+02 0. -1.
</event>
<event>
 5    1  0.1688215E-008  0.3791268E+03  0.7957747E-01  0.3454970E+00
         13   -1    0    0    0    0  0.00000000000E+00  0.00000000000E+00  0.14999999963E+04  0.15000000000E+04  0.10566000000E+00 0. -1.
        994   -1    0    0    0    0 -0.00000000000E+00 -0.00000000000E+00  0.11368683772E-12  0.17120000000E+03  0.17120000000E+03 0.  0.
         13    1    1    2    0    0  0.23888422489E+02  0.82225081896E+02  0.49459652838E+03  0.50195354154E+03  0.10566000000E+00 0. -1.
        994    1    1    2    0    0 -0.82479755856E+01 -0.93502145935E+02  0.34704032393E+02  0.19830403491E+03  0.17120000000E+03 0.  0.
        998    1    1    2    0    0 -0.15640446904E+02  0.11277064039E+02  0.97069943551E+03  0.97094242355E+03  0.10000000000E+02 0. -1.
</event>
<event>
 5    1  0.1688215E-008  0.3776010E+03  0.7957747E-01  0.3461671E+00
         13   -1    0    0    0    0  0.00000000000E+00  0.00000000000E+00  0.14999999963E+04  0.15000000000E+04  0.10566000000E+00 0.  1.
        994   -1    0    0    0    0 -0.00000000000E+00 -0.00000000000E+00  0.11368683772E-12  0.17120000000E+03  0.17120000000E+03 0.  0.
         13    1    1    2    0    0  0.49712090414E+02 -0.23299938883E+02  0.22918077342E+03  0.23566505289E+03  0.10566000000E+00 0.  1.
        994    1    1    2    0    0 -0.53272234555E+02  0.28766122177E+02  0.17801433176E+02  0.18246027453E+03  0.17120000000E+03 0.  0.
        998    1    1    2    0    0  0.35601441405E+01 -0.54661832933E+01  0.12530177897E+04  0.12530746726E+04  0.10000000000E+02 0.  1.
</event>
<event>
 5    1  0.1688215E-008  0.3821648E+03  0.7957747E-01  0.3441786E+00
         13   -1    0    0    0    0  0.00000000000E+00  0.00000000000E+00  0.14999999963E+04  0.15000000000E+04  0.10566000000E+00 0.  1.
        994   -1    0    0    0    0 -0.00000000000E+00 -0.00000000000E+00  0.11368683772E-12  0.17120000000E+03  0.17120000000E+03 0.  0.
         13    1    1    2    0    0 -0.82989902327E+01  0.59167240734E+01  0.16125088008E+02  0.19076438083E+02  0.10566000000E+00 0.  1.
        994    1    1    2    0    0  0.15957732836E+01  0.15137119822E+01  0.30604022695E+01  0.17124147827E+03  0.17120000000E+03 0.  0.
        998    1    1    2    0    0  0.67032169491E+01 -0.74304360557E+01  0.14808145060E+04  0.14808820837E+04  0.10000000000E+02 0.  1.
</event>
<event>
 5    1  0.1688215E-008  0.3711957E+03  0.7957747E-01  0.3490414E+00
         13   -1    0    0    0    0  0.00000000000E+00  0.00000000000E+00  0.14999999963E+04  0.15000000000E+04  0.10566000000E+00 0.  1.
        994   -1    0    0    0    0 -0.00000000000E+00 -0.00000000000E+00  0.11368683772E-12  0.17120000000E+03  0.17120000000E+03 0.  0.
         13    1    1    2    0    0 -0.13629113299E+02 -0.10492323111E+02  0.13517135451E+02  0.21876144277E+02  0.10566000000E+00 0.  1.
        994    1    1    2    0    0 -0.24149173777E+00  0.93827764637E+01  0.89488317157E+01  0.17169046683E+03  0.17120000000E+03 0.  0.
        998    1    1    2    0    0  0.13870605037E+02  0.11095466472E+01  0.14775340291E+04  0.14776333889E+04  0.10000000000E+02 0.  1.
</event>
<event>
 5    1  0.1688215E-008  0.3809465E+03  0.7957747E-01  0.3447047E+00
         13   -1    0    0    0    0  0.00000000000E+00  0.00000000000E+00  0.14999999963E+04  0.15000000000E+04  0.10566000000E+00 0.  1.
        994   -1    0    0    0    0 -0.00000000000E+00 -0.00000000000E+00  0.11368683772E-12  0.17120000000E+03  0.17120000000E+03 0.  0.
         13    1    1    2    0    0  0.40399932200E+00  0.38221078373E+02  0.37450286568E+02  0.53512140449E+02  0.10566000000E+00 0.  1.
        994    1    1    2    0    0  0.13628561149E+02 -0.21444528054E+02  0.19199061144E+02  0.17413686976E+03  0.17120000000E+03 0.  0.
        998    1    1    2    0    0 -0.14032560471E+02 -0.16776550319E+02  0.14433506486E+04  0.14435509898E+04  0.10000000000E+02 0.  1.
</event>
<event>
 5    1  0.1688215E-008  0.3843791E+03  0.7957747E-01  0.3432310E+00
         13   -1    0    0    0    0  0.00000000000E+00  0.00000000000E+00  0.14999999963E+04  0.15000000000E+04  0.10566000000E+00 0.  1.
        994   -1    0    0    0    0 -0.00000000000E+00 -0.00000000000E+00  0.11368683772E-12  0.17120000000E+03  0.17120000000E+03 0.  0.
         13    1    1    2    0    0 -0.88058537481E+01 -0.10081019827E+02  0.46268071719E+02  0.48165502651E+02  0.10566000000E+00 0.  1.
        994    1    1    2    0    0  0.34952260332E+01  0.64844223440E+01  0.21175326797E+01  0.17137149204E+03  0.17120000000E+03 0.  0.
        998    1    1    2    0    0  0.53106277149E+01  0.35965974828E+01  0.14516143919E+04  0.14516630053E+04  0.10000000000E+02 0.  1.
</event>
<event>
 5    1  0.1688215E-008  0.3759157E+03  0.7957747E-01  0.3469138E+00
         13   -1    0    0    0    0  0.00000000000E+00  0.00000000000E+00  0.14999999963E+04  0.15000000000E+04  0.10566000000E+00 0. -1.
        994   -1    0    0    0    0 -0.00000000000E+00 -0.00000000000E+00  0.11368683772E-12  0.17120000000E+03  0.17120000000E+03 0.  0.
         13    1    1    2    0    0 -0.11923367907E+02  0.75361607720E+00  0.86893596189E+01  0.14773312901E+02  0.10566000000E+00 0. -1.
        994    1    1    2    0    0  0.82985549950E+01 -0.30177159579E+01  0.64735306846E+01  0.17154975728E+03  0.17120000000E+03 0.  0.
        998    1    1    2    0    0  0.36248129124E+01  0.22640998807E+01  0.14848371060E+04  0.14848769298E+04  0.10000000000E+02 0. -1.
</event>
<event>
 5    1  0.1688215E-008  0.3847686E+03  0.7957747E-01  0.3430654E+00
         13   -1    0    0    0    0  0.00000000000E+00  0.00000000000E+00  0.14999999963E+04  0.15000000000E+04  0.10566000000E+00 0. -1.
        994   -1    0    0    0    0 -0.00000000000E+00 -0.00000000000E+00  0.11368683772E-12  0.17120000000E+03  0.17120000000E+03 0.  0.
         13    1    1    2    0    0 -0.11212475661E+02 -0.10601113108E+02  0.72998237655E+02  0.74611373626E+02  0.10566000000E+00 0. -1.
        994    1    1    2    0    0  0.70376803298E+01 -0.78323666181E+01  0.21100537382E+01  0.17153648952E+03  0.17120000000E+03 0.  0.
        998    1    1    2    0    0  0.41747953315E+01  0.18433479726E+02  0.14248917049E+04  0.14250521369E+04  0.10000000000E+02 0. -1.
</event>
<event>
 5    1  0.1688215E-008  0.3822710E+03  0.7957747E-01  0.3441329E+00
         13   -1    0    0    0    0  0.00000000000E+00  0.00000000000E+00  0.14999999963E+04  0.15000000000E+04  0.10566000000E+00 0. -1.
        994   -1    0    0    0    0 -0.00000000000E+00 -0.00000000000E+00  0.11368683772E-12  0.17120000000E+03  0.17120000000E+03 0.  0.
         13    1    1    2    0    0 -0.29430564612E+01 -0.14076187488E+02  0.31694965004E+02  0.34804922154E+02  0.10566000000E+00 0. -1.
        994    1    1    2    0    0 -0.20557114068E+01  0.26489761009E+02  0.53369710510E+01  0.17333163776E+03  0.17120000000E+03 0.  0.
        998    1    1    2    0    0  0.49987678680E+01 -0.12413573521E+02  0.14629680602E+04  0.14630634401E+04  0.10000000000E+02 0. -1.
</event>
<event>
 5    1  0.1688215E-008  0.3858109E+03  0.7957747E-01  0.3426240E+00
         13   -1    0    0    0    0  0.00000000000E+00  0.00000000000E+00  0.14999999963E+04  0.15000000000E+04  0.10566000000E+00 0.  1.
        994   -1    0    0    0    0 -0.00000000000E+00 -0.00000000000E+00  0.11368683772E-12  0.17120000000E+03  0.17120000000E+03 0.  0.
         13    1    1    2    0    0 -0.10147956993E+02 -0.39838763800E+01  0.49172578593E+02  0.50366714720E+02  0.10566000000E+00 0.  1.
        994    1    1    2    0    0  0.83720580064E+01 -0.43161494628E+01  0.15191325854E+01  0.17146564748E+03  0.17120000000E+03 0.  0.
        998    1    1    2    0    0  0.17758989870E+01  0.83000258427E+01  0.14493082851E+04  0.14493676378E+04  0.10000000000E+02 0.  1.
</event>
<event>
 5    1  0.1688215E-008  0.3842898E+03  0.7957747E-01  0.3432690E+00
         13   -1    0    0    0    0  0.00000000000E+00  0.00000000000E+00  0.14999999963E+04  0.15000000000E+04  0.10566000000E+00 0. -1.
        994   -1    0    0    0    0 -0.00000000000E+00 -0.00000000000E+00  0.11368683772E-12  0.17120000000E+03  0.17120000000E+03 0.  0.
         13    1    1    2    0    0 -0.16195256536E+02 -0.12124796946E+01  0.71583241344E+02  0.73402507087E+02  0.10566000000E+00 0. -1.
        994    1    1    2    0    0 -0.33839741931E+01  0.31464595187E+02  0.52912174426E+01  0.17418067922E+03  0.17120000000E+03 0.  0.
        998    1    1    2    0    0  0.19579230729E+02 -0.30252115492E+02  0.14231255375E+04  0.14236168137E+04  0.10000000000E+02 0. -1.
</event>
<event>
 5    1  0.1688215E-008  0.3827464E+03  0.7957747E-01  0.3439286E+00
         13   -1    0    0    0    0  0.00000000000E+00  0.00000000000E+00  0.14999999963E+04  0.15000000000E+04  0.10566000000E+00 0.  1.
        994   -1    0    0    0    0 -0.00000000000E+00 -0.00000000000E+00  0.11368683772E-12  0.17120000000E+03  0.17120000000E+03 0.  0.
         13    1    1    2    0    0  0.11979931094E+02 -0.20769708805E+02  0.11599238120E+03  0.11844468419E+03  0.10566000000E+00 0.  1.
        994    1    1    2    0    0 -0.28123808475E+01 -0.38763018789E+01  0.28291251417E+01  0.17129033584E+03  0.17120000000E+03 0.  0.
        998    1    1    2    0    0 -0.91675502468E+01  0.24646010683E+02  0.13811784899E+04  0.13814649800E+04  0.10000000000E+02 0.  1.
</event>
<event>
 5    1  0.2428121E-008  0.3855969E+03  0.7957747E-01  0.3427145E+00
         13   -1    0    0    0    0  0.00000000000E+00  0.00000000000E+00  0.14999999963E+04  0.15000000000E+04  0.10566000000E+00 0.  1.
        994   -1    0    0    0    0 -0.00000000000E+00 -0.00000000000E+00  0.11368683772E-12  0.17120000000E+03  0.17120000000E+03 0.  0.
         13    1    1    2    0    0  0.36497484496E+01 -0.10053756831E+02  0.42875118126E+02  0.44189202397E+02  0.10566000000E+00 0.  1.
        994    1    1    2    0    0 -0.17466712184E+01  0.79532888920E+01  0.15517552167E+01  0.17140056479E+03  0.17120000000E+03 0.  0.
        998    1    1    2    0    0 -0.19030772311E+01  0.21004679385E+01  0.14555731229E+04  0.14556102328E+04  0.10000000000E+02 0.  1.
</event>
<event>
 5    1  0.1688215E-008  0.3713160E+03  0.7957747E-01  0.3489865E+00
         13   -1    0    0    0    0  0.00000000000E+00  0.00000000000E+00  0.14999999963E+04  0.15000000000E+04  0.10566000000E+00 0.  1.
        994   -1    0    0    0    0 -0.00000000000E+00 -0.00000000000E+00  0.11368683772E-12  0.17120000000E+03  0.17120000000E+03 0.  0.
         13    1    1    2    0    0  0.74743121595E+01  0.61930758980E+02  0.21313496062E+03  0.22207612851E+03  0.10566000000E+00 0.  1.
        994    1    1    2    0    0  0.94030305215E+01  0.13829947704E+02  0.12619258319E+02  0.17247715825E+03  0.17120000000E+03 0.  0.
        998    1    1    2    0    0 -0.16877342681E+02 -0.75760706683E+02  0.12742457773E+04  0.12766467132E+04  0.10000000000E+02 0.  1.
</event>
<event>
 5    1  0.1688215E-008  0.3847258E+03  0.7957747E-01  0.3430836E+00
         13   -1    0    0    0    0  0.00000000000E+00  0.00000000000E+00  0.14999999963E+04  0.15000000000E+04  0.10566000000E+00 0.  1.
        994   -1    0    0    0    0 -0.00000000000E+00 -0.00000000000E+00  0.11368683772E-12  0.17120000000E+03  0.17120000000E+03 0.  0.
         13    1    1    2    0    0  0.10171024786E+01 -0.13659667165E+02  0.52895751276E+02  0.54640577153E+02  0.10566000000E+00 0.  1.
        994    1    1    2    0    0 -0.45229909124E+01  0.89710467384E+01  0.20986633133E+01  0.17150738035E+03  0.17120000000E+03 0.  0.
        998    1    1    2    0    0  0.35058884337E+01  0.46886204270E+01  0.14450055817E+04  0.14450520425E+04  0.10000000000E+02 0.  1.
</event>
<event>
 5    1  0.1688215E-008  0.3820109E+03  0.7957747E-01  0.3442449E+00
         13   -1    0    0    0    0  0.00000000000E+00  0.00000000000E+00  0.14999999963E+04  0.15000000000E+04  0.10566000000E+00 0.  1.
        994   -1    0    0    0    0 -0.00000000000E+00 -0.00000000000E+00  0.11368683772E-12  0.17120000000E+03  0.17120000000E+03 0.  0.
         13    1    1    2    0    0 -0.25262915244E+02  0.11697801633E+02  0.11927050364E+03  0.12247660043E+03  0.10566000000E+00 0.  1.
        994    1    1    2    0    0  0.18931832567E+02 -0.11110348384E+02  0.47232814387E+01  0.17266616204E+03  0.17120000000E+03 0.  0.
        998    1    1    2    0    0  0.63310826763E+01 -0.58745324941E+00  0.13760062112E+04  0.13760572375E+04  0.10000000000E+02 0.  1.
</event>
<event>
 5    1  0.1688215E-008  0.3840985E+03  0.7957747E-01  0.3433505E+00
         13   -1    0    0    0    0  0.00000000000E+00  0.00000000000E+00  0.14999999963E+04  0.15000000000E+04  0.10566000000E+00 0. -1.
        994   -1    0    0    0    0 -0.00000000000E+00 -0.00000000000E+00  0.11368683772E-12  0.17120000000E+03  0.17120000000E+03 0.  0.
         13    1    1    2    0    0  0.17820334312E+00  0.20846989537E+02  0.10568954028E+03  0.10772612876E+03  0.10566000000E+00 0. -1.
        994    1    1    2    0    0  0.15492618114E+01 -0.11064907742E+02  0.24902194524E+01  0.17158226478E+03  0.17120000000E+03 0.  0.
        998    1    1    2    0    0 -0.17274651545E+01 -0.97820817947E+01  0.13918202365E+04  0.13918916065E+04  0.10000000000E+02 0. -1.
</event>
<event>
 5    1  0.1688215E-008  0.3851110E+03  0.7957747E-01  0.3429202E+00
         13   -1    0    0    0    0  0.00000000000E+00  0.00000000000E+00  0.14999999963E+04  0.15000000000E+04  0.10566000000E+00 0. -1.
        994   -1    0    0    0    0 -0.00000000000E+00 -0.00000000000E+00  0.11368683772E-12  0.17120000000E+03  0.17120000000E+03 0.  0.
         13    1    1    2    0    0 -0.13722376883E+02  0.96806366583E+01  0.80593873790E+02  0.82324978044E+02  0.10566000000E+00 0. -1.
        994    1    1    2    0    0  0.33405616232E+02  0.11564282122E+01  0.52566823599E+01  0.17451173379E+03  0.17120000000E+03 0.  0.
        998    1    1    2    0    0 -0.19683239349E+02 -0.10837064871E+02  0.14141494401E+04  0.14143632882E+04  0.10000000000E+02 0. -1.
</event>
<event>
 5    1  0.1688215E-008  0.3855952E+03  0.7957747E-01  0.3427152E+00
         13   -1    0    0    0    0  0.00000000000E+00  0.00000000000E+00  0.14999999963E+04  0.15000000000E+04  0.10566000000E+00 0. -1.
        994   -1    0    0    0    0 -0.00000000000E+00 -0.00000000000E+00  0.11368683772E-12  0.17120000000E+03  0.17120000000E+03 0.  0.
         13    1    1    2    0    0  0.52146412791E+01 -0.90572809820E+01  0.43028059308E+02  0.44279248800E+02  0.10566000000E+00 0. -1.
        994    1    1    2    0    0  0.10012600026E+02  0.48417896489E+01  0.17410252133E+01  0.17156971252E+03  0.17120000000E+03 0.  0.
        998    1    1    2    0    0 -0.15227241305E+02  0.42154913331E+01  0.14552309118E+04  0.14553510387E+04  0.10000000000E+02 0. -1.
</event>
<event>
 5    1  0.1688215E-008  0.3845128E+03  0.7957747E-01  0.3431741E+00
         13   -1    0    0    0    0  0.00000000000E+00  0.00000000000E+00  0.14999999963E+04  0.15000000000E+04  0.10566000000E+00 0. -1.
        994   -1    0    0    0    0 -0.00000000000E+00 -0.00000000000E+00  0.11368683772E-12  0.17120000000E+03  0.17120000000E+03 0.  0.
         13    1    1    2    0    0 -0.19604802039E+01  0.16701175014E+02  0.73193473409E+02  0.75100389101E+02  0.10566000000E+00 0. -1.
        994    1    1    2    0    0  0.11184990254E+02 -0.14357790106E+02  0.29640675510E+01  0.17219023155E+03  0.17120000000E+03 0.  0.
        998    1    1    2    0    0 -0.92245100498E+01 -0.23433849080E+01  0.14238424553E+04  0.14239093794E+04  0.10000000000E+02 0. -1.
</event>
<event>
 5    1  0.1688215E-008  0.3754665E+03  0.7957747E-01  0.3471139E+00
         13   -1    0    0    0    0  0.00000000000E+00  0.00000000000E+00  0.14999999963E+04  0.15000000000E+04  0.10566000000E+00 0. -1.
        994   -1    0    0    0    0 -0.00000000000E+00 -0.00000000000E+00  0.11368683772E-12  0.17120000000E+03  0.17120000000E+03 0.  0.
         13    1    1    2    0    0  0.53592448041E+01  0.19859508078E+02  0.29909917608E+02  0.36300632244E+02  0.10566000000E+00 0. -1.
        994    1    1    2    0    0 -0.70138795416E+01 -0.16467463614E+02  0.75273972037E+01  0.17229763078E+03  0.17120000000E+03 0.  0.
        998    1    1    2    0    0  0.16546347375E+01 -0.33920444638E+01  0.14625626815E+04  0.14626017370E+04  0.10000000000E+02 0. -1.
</event>
<event>
 5    1  0.1688215E-008  0.4307363E+03  0.7957747E-01  0.3256196E+00
         13   -1    0    0    0    0  0.00000000000E+00  0.00000000000E+00  0.14999999963E+04  0.15000000000E+04  0.10566000000E+00 0.  1.
        994   -1    0    0    0    0 -0.00000000000E+00 -0.00000000000E+00  0.11368683772E-12  0.17120000000E+03  0.17120000000E+03 0.  0.
         13    1    1    2    0    0  0.19330836396E+01  0.13474074745E+03  0.28075929697E+03  0.31142350559E+03  0.10566000000E+00 0.  1.
        994    1    1    2    0    0  0.40740278758E+02  0.22949225503E+02  0.57484935333E+02  0.18654863992E+03  0.17120000000E+03 0.  0.
        998    1    1    2    0    0 -0.42673362397E+02 -0.15768997295E+03  0.11617557640E+04  0.11732278545E+04  0.10000000000E+02 0.  1.
</event>
<event>
 5    1  0.1688215E-008  0.3764077E+03  0.7957747E-01  0.3466951E+00
         13   -1    0    0    0    0  0.00000000000E+00  0.00000000000E+00  0.14999999963E+04  0.15000000000E+04  0.10566000000E+00 0. -1.
        994   -1    0    0    0    0 -0.00000000000E+00 -0.00000000000E+00  0.11368683772E-12  0.17120000000E+03  0.17120000000E+03 0.  0.
         13    1    1    2    0    0  0.14436673946E+02 -0.19206448321E+02  0.13777468582E+02  0.27697202319E+02  0.10566000000E+00 0. -1.
        994    1    1    2    0    0 -0.14346296171E+02  0.17554567923E+02  0.16208196999E+02  0.17345352322E+03  0.17120000000E+03 0.  0.
        998    1    1    2    0    0 -0.90377775009E-01  0.16518803980E+01  0.14700143307E+04  0.14700492745E+04  0.10000000000E+02 0. -1.
</event>
<event>
 5    1  0.1688215E-008  0.3684301E+03  0.7957747E-01  0.3503137E+00
         13   -1    0    0    0    0  0.00000000000E+00  0.00000000000E+00  0.14999999963E+04  0.15000000000E+04  0.10566000000E+00 0.  1.
        994   -1    0    0    0    0 -0.00000000000E+00 -0.00000000000E+00  0.11368683772E-12  0.17120000000E+03  0.17120000000E+03 0.  0.
         13    1    1    2    0    0 -0.57854151404E+02 -0.18199798179E+02  0.15986351241E+03  0.17098154653E+03  0.10566000000E+00 0.  1.
        994    1    1    2    0    0  0.76450058147E+02 -0.35084316191E+02  0.35132959665E+02  0.19395691658E+03  0.17120000000E+03 0.  0.
        998    1    1    2    0    0 -0.18595906742E+02  0.53284114370E+02  0.13050035242E+04  0.13062615369E+04  0.10000000000E+02 0.  1.
</event>
<event>
 5    1  0.1688215E-008  0.3723856E+03  0.7957747E-01  0.3484999E+00
         13   -1    0    0    0    0  0.00000000000E+00  0.00000000000E+00  0.14999999963E+04  0.15000000000E+04  0.10566000000E+00 0. -1.
        994   -1    0    0    0    0 -0.00000000000E+00 -0.00000000000E+00  0.11368683772E-12  0.17120000000E+03  0.17120000000E+03 0.  0.
         13    1    1    2    0    0  0.12781437793E+03  0.30571312008E+02  0.65037245530E+03  0.66351749194E+03  0.10566000000E+00 0. -1.
        994    1    1    2    0    0 -0.11763106853E+03 -0.33126402753E+02  0.61120847980E+02  0.21904251848E+03  0.17120000000E+03 0.  0.
        998    1    1    2    0    0 -0.10183309402E+02  0.25550907456E+01  0.78850669299E+03  0.78863998959E+03  0.10000000000E+02 0. -1.
</event>
<event>
 5    1  0.1688215E-008  0.3791616E+03  0.7957747E-01  0.3454817E+00
         13   -1    0    0    0    0  0.00000000000E+00  0.00000000000E+00  0.14999999963E+04  0.15000000000E+04  0.10566000000E+00 0. -1.
        994   -1    0    0    0    0 -0.00000000000E+00 -0.00000000000E+00  0.11368683772E-12  0.17120000000E+03  0.17120000000E+03 0.  0.
         13    1    1    2    0    0 -0.31565420170E+02 -0.11063396896E+02  0.12654587893E+03  0.13089173060E+03  0.10566000000E+00 0. -1.
        994    1    1    2    0    0  0.15626043307E+02 -0.73032035019E+01  0.55548904622E+01  0.17215634411E+03  0.17120000000E+03 0.  0.
        998    1    1    2    0    0  0.15939376863E+02  0.18366600398E+02  0.13678992269E+04  0.13681519253E+04  0.10000000000E+02 0. -1.
</event>
<event>
 5    1  0.1688215E-008  0.3857444E+03  0.7957747E-01  0.3426521E+00
         13   -1    0    0    0    0  0.00000000000E+00  0.00000000000E+00  0.14999999963E+04  0.15000000000E+04  0.10566000000E+00 0.  1.
        994   -1    0    0    0    0 -0.00000000000E+00 -0.00000000000E+00  0.11368683772E-12  0.17120000000E+03  0.17120000000E+03 0.  0.
         13    1    1    2    0    0 -0.11060280997E+02 -0.36422773340E+01  0.55082088710E+02  0.56299588459E+02  0.10566000000E+00 0.  1.
        994    1    1    2    0    0  0.66948618105E+01 -0.31611459725E+01  0.14408377674E+01  0.17136607025E+03  0.17120000000E+03 0.  0.
        998    1    1    2    0    0  0.43654191869E+01  0.68034233066E+01  0.14434770698E+04  0.14435343413E+04  0.10000000000E+02 0.  1.
</event>
<event>
 5    1  0.1688215E-008  0.3839741E+03  0.7957747E-01  0.3434035E+00
         13   -1    0    0    0    0  0.00000000000E+00  0.00000000000E+00  0.14999999963E+04  0.15000000000E+04  0.10566000000E+00 0.  1.
        994   -1    0    0    0    0 -0.00000000000E+00 -0.00000000000E+00  0.11368683772E-12  0.17120000000E+03  0.17120000000E+03 0.  0.
         13    1    1    2    0    0 -0.21038213966E+02 -0.95971049750E+00  0.10606618445E+03  0.10813683063E+03  0.10566000000E+00 0.  1.
        994    1    1    2    0    0  0.89442088997E+01  0.18548040979E+02  0.35407361400E+01  0.17247030327E+03  0.17120000000E+03 0.  0.
        998    1    1    2    0    0  0.12094005066E+02 -0.17588330481E+02  0.13903930757E+04  0.13905928661E+04  0.10000000000E+02 0.  1.
</event>
<event>
 5    1  0.1688215E-008  0.3735844E+03  0.7957747E-01  0.3479578E+00
         13   -1    0    0    0    0  0.00000000000E+00  0.00000000000E+00  0.14999999963E+04  0.15000000000E+04  0.10566000000E+00 0.  1.
        994   -1    0    0    0    0 -0.00000000000E+00 -0.00000000000E+00  0.11368683772E-12  0.17120000000E+03  0.17120000000E+03 0.  0.
         13    1    1    2    0    0  0.48819815485E+02 -0.23623480056E+02  0.13860977812E+03  0.14884261805E+03  0.10566000000E+00 0.  1.
        994    1    1    2    0    0  0.15296409014E+02 -0.25201902051E+02  0.15929989910E+02  0.17444861872E+03  0.17120000000E+03 0.  0.
        998    1    1    2    0    0 -0.64116224499E+02  0.48825382107E+02  0.13454602283E+04  0.13479087632E+04  0.10000000000E+02 0.  1.
</event>
<event>
 5    1  0.1688215E-008  0.3712562E+03  0.7957747E-01  0.3490137E+00
         13   -1    0    0    0    0  0.00000000000E+00  0.00000000000E+00  0.14999999963E+04  0.15000000000E+04  0.10566000000E+00 0. -1.
        994   -1    0    0    0    0 -0.00000000000E+00 -0.00000000000E+00  0.11368683772E-12  0.17120000000E+03  0.17120000000E+03 0.  0.
         13    1    1    2    0    0  0.36754171184E+02  0.16255976964E+03  0.41270944665E+03  0.44509060462E+03  0.10566000000E+00 0. -1.
        994    1    1    2    0    0  0.82187255638E+01 -0.24765564870E+03  0.27426995456E+03  0.40735035996E+03  0.17120000000E+03 0.  0.
        998    1    1    2    0    0 -0.44972896747E+02  0.85095879066E+02  0.81302059507E+03  0.81875903542E+03  0.10000000000E+02 0. -1.
</event>
<event>
 5    1  0.1688215E-008  0.3727200E+03  0.7957747E-01  0.3483483E+00
         13   -1    0    0    0    0  0.00000000000E+00  0.00000000000E+00  0.14999999963E+04  0.15000000000E+04  0.10566000000E+00 0.  1.
        994   -1    0    0    0    0 -0.00000000000E+00 -0.00000000000E+00  0.11368683772E-12  0.17120000000E+03  0.17120000000E+03 0.  0.
         13    1    1    2    0    0 -0.15652282111E+02  0.64633881828E+01  0.63120372107E+01  0.18072694870E+02  0.10566000000E+00 0.  1.
        994    1    1    2    0    0 -0.17526362012E+02 -0.26470393774E+02  0.15949930523E+02  0.17484763480E+03  0.17120000000E+03 0.  0.
        998    1    1    2    0    0  0.33178644123E+02  0.20007005592E+02  0.14777380285E+04  0.14782796703E+04  0.10000000000E+02 0.  1.
</event>
<event>
 5    1  0.1688215E-008  0.3858158E+03  0.7957747E-01  0.3426220E+00
         13   -1    0    0    0    0  0.00000000000E+00  0.00000000000E+00  0.14999999963E+04  0.15000000000E+04  0.10566000000E+00 0.  1.
        994   -1    0    0    0    0 -0.00000000000E+00 -0.00000000000E+00  0.11368683772E-12  0.17120000000E+03  0.17120000000E+03 0.  0.
         13    1    1    2    0    0 -0.13895698455E+01 -0.11291292241E+02  0.51837414564E+02  0.53071205918E+02  0.10566000000E+00 0.  1.
        994    1    1    2    0    0  0.14500932653E+01  0.11754597765E+02  0.16858982174E+01  0.17161746878E+03  0.17120000000E+03 0.  0.
        998    1    1    2    0    0 -0.60523419744E-01 -0.46330552460E+00  0.14464766835E+04  0.14465113253E+04  0.10000000000E+02 0.  1.
</event>
<event>
 5    1  0.1688215E-008  0.3800664E+03  0.7957747E-01  0.3450870E+00
         13   -1    0    0    0    0  0.00000000000E+00  0.00000000000E+00  0.14999999963E+04  0.15000000000E+04  0.10566000000E+00 0.  1.
        994   -1    0    0    0    0 -0.00000000000E+00 -0.00000000000E+00  0.11368683772E-12  0.17120000000E+03  0.17120000000E+03 0.  0.
         13    1    1    2    0    0 -0.35368364280E+02 -0.78277197564E+01  0.15380833309E+03  0.15801648293E+03  0.10566000000E+00 0.  1.
        994    1    1    2    0    0  0.25114820031E+02  0.72409430126E+01  0.63863286320E+01  0.17330150211E+03  0.17120000000E+03 0.  0.
        998    1    1    2    0    0  0.10253544249E+02  0.58677674379E+00  0.13398053346E+04  0.13398820150E+04  0.10000000000E+02 0.  1.
</event>
<event>
 5    1  0.1688215E-008  0.3816313E+03  0.7957747E-01  0.3444086E+00
         13   -1    0    0    0    0  0.00000000000E+00  0.00000000000E+00  0.14999999963E+04  0.15000000000E+04  0.10566000000E+00 0.  1.
        994   -1    0    0    0    0 -0.00000000000E+00 -0.00000000000E+00  0.11368683772E-12  0.17120000000E+03  0.17120000000E+03 0.  0.
         13    1    1    2    0    0 -0.97716076530E+01  0.28039016066E+01  0.15071232856E+02  0.18179642576E+02  0.10566000000E+00 0.  1.
        994    1    1    2    0    0 -0.13700839169E+02  0.69775619036E+01  0.40983679893E+01  0.17193788409E+03  0.17120000000E+03 0.  0.
        998    1    1    2    0    0  0.23472446822E+02 -0.97814635102E+01  0.14808303954E+04  0.14810824733E+04  0.10000000000E+02 0.  1.
</event>
<event>
 5    1  0.1688215E-008  0.3732869E+03  0.7957747E-01  0.3480920E+00
         13   -1    0    0    0    0  0.00000000000E+00  0.00000000000E+00  0.14999999963E+04  0.15000000000E+04  0.10566000000E+00 0. -1.
        994   -1    0    0    0    0 -0.00000000000E+00 -0.00000000000E+00  0.11368683772E-12  0.17120000000E+03  0.17120000000E+03 0.  0.
         13    1    1    2    0    0 -0.79361252079E+02 -0.13807964199E+02  0.47971262859E+03  0.48642891094E+03  0.10566000000E+00 0. -1.
        994    1    1    2    0    0  0.31518290860E+02  0.25087189255E+02  0.13129600331E+02  0.17636495153E+03  0.17120000000E+03 0.  0.
        998    1    1    2    0    0  0.47842961220E+02 -0.11279225056E+02  0.10071577674E+04  0.10084061375E+04  0.10000000000E+02 0. -1.
</event>
<event>
 5    1  0.1688215E-008  0.3844974E+03  0.7957747E-01  0.3431807E+00
         13   -1    0    0    0    0  0.00000000000E+00  0.00000000000E+00  0.14999999963E+04  0.15000000000E+04  0.10566000000E+00 0. -1.
        994   -1    0    0    0    0 -0.00000000000E+00 -0.00000000000E+00  0.11368683772E-12  0.17120000000E+03  0.17120000000E+03 0.  0.
         13    1    1    2    0    0 -0.10816627188E+02  0.82107212522E+01  0.48150847077E+02  0.50029297471E+02  0.10566000000E+00 0. -1.
        994    1    1    2    0    0  0.79818045818E+01 -0.85533602165E+01  0.23308514698E+01  0.17161509853E+03  0.17120000000E+03 0.  0.
        998    1    1    2    0    0  0.28348226058E+01  0.34263896436E+00  0.14495182977E+04  0.14495556040E+04  0.10000000000E+02 0. -1.
</event>
<event>
 5    1  0.1688215E-008  0.3833990E+03  0.7957747E-01  0.3436491E+00
         13   -1    0    0    0    0  0.00000000000E+00  0.00000000000E+00  0.14999999963E+04  0.15000000000E+04  0.10566000000E+00 0. -1.
        994   -1    0    0    0    0 -0.00000000000E+00 -0.00000000000E+00  0.11368683772E-12  0.17120000000E+03  0.17120000000E+03 0.  0.
         13    1    1    2    0    0  0.37553321083E+01  0.16640586392E+02  0.64746622846E+02  0.66956313882E+02  0.10566000000E+00 0. -1.
        994    1    1    2    0    0 -0.50886282060E+01  0.65758249509E+01  0.26556803473E+01  0.17142236799E+03  0.17120000000E+03 0.  0.
        998    1    1    2    0    0  0.13332960977E+01 -0.23216411343E+02  0.14325976931E+04  0.14328213181E+04  0.10000000000E+02 0. -1.
</event>
<event>
 5    1  0.1688215E-008  0.3740087E+03  0.7957747E-01  0.3477668E+00
         13   -1    0    0    0    0  0.00000000000E+00  0.00000000000E+00  0.14999999963E+04  0.15000000000E+04  0.10566000000E+00 0. -1.
        994   -1    0    0    0    0 -0.00000000000E+00 -0.00000000000E+00  0.11368683772E-12  0.17120000000E+03  0.17120000000E+03 0.  0.
         13    1    1    2    0    0  0.64664903691E+02 -0.19232393752E+01  0.30139673791E+03  0.30826166386E+03  0.10566000000E+00 0. -1.
        994    1    1    2    0    0  0.62007827234E+02 -0.47536971921E+02  0.35049871655E+02  0.19142274640E+03  0.17120000000E+03 0.  0.
        998    1    1    2    0    0 -0.12667273092E+03  0.49460211296E+02  0.11635533867E+04  0.11715155897E+04  0.10000000000E+02 0. -1.
</event>
<event>
 5    1  0.1688215E-008  0.3844099E+03  0.7957747E-01  0.3432179E+00
         13   -1    0    0    0    0  0.00000000000E+00  0.00000000000E+00  0.14999999963E+04  0.15000000000E+04  0.10566000000E+00 0.  1.
        994   -1    0    0    0    0 -0.00000000000E+00 -0.00000000000E+00  0.11368683772E-12  0.17120000000E+03  0.17120000000E+03 0.  0.
         13    1    1    2    0    0 -0.12149257150E+02 -0.10892688644E+02  0.69747188981E+02  0.71630556678E+02  0.10566000000E+00 0.  1.
        994    1    1    2    0    0  0.89210975680E+01  0.31788359807E+01  0.22189642862E+01  0.17147610557E+03  0.17120000000E+03 0.  0.
        998    1    1    2    0    0  0.32281595819E+01  0.77138526636E+01  0.14280338430E+04  0.14280933377E+04  0.10000000000E+02 0.  1.
</event>
<event>
 5    1  0.1688215E-008  0.3820145E+03  0.7957747E-01  0.3442434E+00
         13   -1    0    0    0    0  0.00000000000E+00  0.00000000000E+00  0.14999999963E+04  0.15000000000E+04  0.10566000000E+00 0.  1.
        994   -1    0    0    0    0 -0.00000000000E+00 -0.00000000000E+00  0.11368683772E-12  0.17120000000E+03  0.17120000000E+03 0.  0.
         13    1    1    2    0    0 -0.13571330472E+01 -0.26341006612E+02  0.10640077058E+03  0.10962128253E+03  0.10566000000E+00 0.  1.
        994    1    1    2    0    0  0.16382429528E+02  0.21835085728E+02  0.55981387556E+01  0.17345297381E+03  0.17120000000E+03 0.  0.
        998    1    1    2    0    0 -0.15025296481E+02  0.45059208835E+01  0.13880010869E+04  0.13881257437E+04  0.10000000000E+02 0.  1.
</event>
<event>
 5    1  0.1688215E-008  0.3823066E+03  0.7957747E-01  0.3441176E+00
         13   -1    0    0    0    0  0.00000000000E+00  0.00000000000E+00  0.14999999963E+04  0.15000000000E+04  0.10566000000E+00 0. -1.
        994   -1    0    0    0    0 -0.00000000000E+00 -0.00000000000E+00  0.11368683772E-12  0.17120000000E+03  0.17120000000E+03 0.  0.
         13    1    1    2    0    0 -0.74447346122E+01  0.75468862470E+01  0.17586783333E+02  0.20534986669E+02  0.10566000000E+00 0. -1.
        994    1    1    2    0    0  0.66627359548E+01 -0.76043448956E+01  0.33124728191E+01  0.17153026143E+03  0.17120000000E+03 0.  0.
        998    1    1    2    0    0  0.78199865735E+00  0.57458648578E-01  0.14791007401E+04  0.14791347519E+04  0.10000000000E+02 0. -1.
</event>
<event>
 5    1  0.1688215E-008  0.3855968E+03  0.7957747E-01  0.3427145E+00
         13   -1    0    0    0    0  0.00000000000E+00  0.00000000000E+00  0.14999999963E+04  0.15000000000E+04  0.10566000000E+00 0. -1.
        994   -1    0    0    0    0 -0.00000000000E+00 -0.00000000000E+00  0.11368683772E-12  0.17120000000E+03  0.17120000000E+03 0.  0.
         13    1    1    2    0    0 -0.47995652633E+01  0.13487145116E+02  0.84683408938E+02  0.85884980197E+02  0.10566000000E+00 0. -1.
        994    1    1    2    0    0 -0.64730200394E+01 -0.33173376800E+00  0.14720396761E+01  0.17132897285E+03  0.17120000000E+03 0.  0.
        998    1    1    2    0    0  0.11272585303E+02 -0.13155411348E+02  0.14138445477E+04  0.14139860470E+04  0.10000000000E+02 0. -1.
</event>
<event>
 5    1  0.1688215E-008  0.3728433E+03  0.7957747E-01  0.3482925E+00
         13   -1    0    0    0    0  0.00000000000E+00  0.00000000000E+00  0.14999999963E+04  0.15000000000E+04  0.10566000000E+00 0.  1.
        994   -1    0    0    0    0 -0.00000000000E+00 -0.00000000000E+00  0.11368683772E-12  0.17120000000E+03  0.17120000000E+03 0.  0.
         13    1    1    2    0    0  0.20711790296E+02 -0.27333763372E+02  0.42210209564E+02  0.54385897371E+02  0.10566000000E+00 0.  1.
        994    1    1    2    0    0 -0.18406596346E+02  0.18210364903E+02  0.14821124720E+02  0.17378010794E+03  0.17120000000E+03 0.  0.
        998    1    1    2    0    0 -0.23051939495E+01  0.91233984692E+01  0.14429686620E+04  0.14430339947E+04  0.10000000000E+02 0.  1.
</event>
<event>
 5    1  0.1688215E-008  0.3853393E+03  0.7957747E-01  0.3428234E+00
         13   -1    0    0    0    0  0.00000000000E+00  0.00000000000E+00  0.14999999963E+04  0.15000000000E+04  0.10566000000E+00 0.  1.
        994   -1    0    0    0    0 -0.00000000000E+00 -0.00000000000E+00  0.11368683772E-12  0.17120000000E+03  0.17120000000E+03 0.  0.
         13    1    1    2    0    0 -0.29054348591E+01  0.13037956011E+02  0.64425500503E+02  0.65795791110E+02  0.10566000000E+00 0.  1.
        994    1    1    2    0    0 -0.38549614555E+01 -0.21857419479E+01  0.15262936739E+01  0.17126414618E+03  0.17120000000E+03 0.  0.
        998    1    1    2    0    0  0.67603963146E+01 -0.10852214063E+02  0.14340482021E+04  0.14341400627E+04  0.10000000000E+02 0.  1.
</event>
<event>
 5    1  0.1688215E-008  0.3792553E+03  0.7957747E-01  0.3454408E+00
         13   -1    0    0    0    0  0.00000000000E+00  0.00000000000E+00  0.14999999963E+04  0.15000000000E+04  0.10566000000E+00 0. -1.
        994   -1    0    0    0    0 -0.00000000000E+00 -0.00000000000E+00  0.11368683772E-12  0.17120000000E+03  0.17120000000E+03 0.  0.
         13    1    1    2    0    0  0.39992893210E+02 -0.21577735715E+02  0.19566252748E+03  0.20087027159E+03  0.10566000000E+00 0. -1.
        994    1    1    2    0    0 -0.80624629620E+02 -0.34897883364E+02  0.30824911420E+02  0.19487895815E+03  0.17120000000E+03 0.  0.
        998    1    1    2    0    0  0.40631736410E+02  0.56475619079E+02  0.12735125574E+04  0.12754507703E+04  0.10000000000E+02 0. -1.
</event>
<event>
 5    1  0.1688215E-008  0.3806580E+03  0.7957747E-01  0.3448298E+00
         13   -1    0    0    0    0  0.00000000000E+00  0.00000000000E+00  0.14999999963E+04  0.15000000000E+04  0.10566000000E+00 0.  1.
        994   -1    0    0    0    0 -0.00000000000E+00 -0.00000000000E+00  0.11368683772E-12  0.17120000000E+03  0.17120000000E+03 0.  0.
         13    1    1    2    0    0 -0.17741180849E+02  0.60874016780E+01  0.49063083583E+02  0.52526215281E+02  0.10566000000E+00 0.  1.
        994    1    1    2    0    0 -0.43126373634E+01  0.20252909314E+02  0.52329213278E+01  0.17252710698E+03  0.17120000000E+03 0.  0.
        998    1    1    2    0    0  0.22053818213E+02 -0.26340310992E+02  0.14457039914E+04  0.14461466777E+04  0.10000000000E+02 0.  1.
</event>
<event>
 5    1  0.1688215E-008  0.3685343E+03  0.7957747E-01  0.3502654E+00
         13   -1    0    0    0    0  0.00000000000E+00  0.00000000000E+00  0.14999999963E+04  0.15000000000E+04  0.10566000000E+00 0. -1.
        994   -1    0    0    0    0 -0.00000000000E+00 -0.00000000000E+00  0.11368683772E-12  0.17120000000E+03  0.17120000000E+03 0.  0.
         13    1    1    2    0    0 -0.76884589637E+02 -0.48442256118E+02  0.48819496172E+03  0.49658053135E+03  0.10566000000E+00 0. -1.
        994    1    1    2    0    0  0.15195684346E+02  0.39546656023E+02  0.16300658321E+02  0.17711577651E+03  0.17120000000E+03 0.  0.
        998    1    1    2    0    0  0.61688905291E+02  0.88956000944E+01  0.99550437623E+03  0.99750369214E+03  0.10000000000E+02 0. -1.
</event>
<event>
 5    1  0.1688215E-008  0.3768598E+03  0.7957747E-01  0.3464947E+00
         13   -1    0    0    0    0  0.00000000000E+00  0.00000000000E+00  0.14999999963E+04  0.15000000000E+04  0.10566000000E+00 0.  1.
        994   -1    0    0    0    0 -0.00000000000E+00 -0.00000000000E+00  0.11368683772E-12  0.17120000000E+03  0.17120000000E+03 0.  0.
         13    1    1    2    0    0  0.23203904541E+03 -0.22096013381E+02  0.10643944489E+04  0.10896173211E+04  0.10566000000E+00 0.  1.
        994    1    1    2    0    0 -0.22416803847E+03  0.15080492396E+02  0.20137227127E+03  0.34689906653E+03  0.17120000000E+03 0.  0.
        998    1    1    2    0    0 -0.78710069439E+01  0.70155209847E+01  0.23423327612E+03  0.23468361239E+03  0.10000000000E+02 0.  0.
</event>
<event>
 5    1  0.1688215E-008  0.3819726E+03  0.7957747E-01  0.3442614E+00
         13   -1    0    0    0    0  0.00000000000E+00  0.00000000000E+00  0.14999999963E+04  0.15000000000E+04  0.10566000000E+00 0. -1.
        994   -1    0    0    0    0 -0.00000000000E+00 -0.00000000000E+00  0.11368683772E-12  0.17120000000E+03  0.17120000000E+03 0.  0.
         13    1    1    2    0    0 -0.41614775576E+02  0.82206940294E+01  0.22415086640E+03  0.22812933049E+03  0.10566000000E+00 0. -1.
        994    1    1    2    0    0  0.55252080872E+02  0.57245998326E+01  0.13457244830E+02  0.18048850634E+03  0.17120000000E+03 0.  0.
        998    1    1    2    0    0 -0.13637305296E+02 -0.13945293862E+02  0.12623918850E+04  0.12625821632E+04  0.10000000000E+02 0. -1.
</event>
<event>
 5    1  0.1688215E-008  0.3841430E+03  0.7957747E-01  0.3433315E+00
         13   -1    0    0    0    0  0.00000000000E+00  0.00000000000E+00  0.14999999963E+04  0.15000000000E+04  0.10566000000E+00 0.  1.
        994   -1    0    0    0    0 -0.00000000000E+00 -0.00000000000E+00  0.11368683772E-12  0.17120000000E+03  0.17120000000E+03 0.  0.
         13    1    1    2    0    0  0.82408941209E+01 -0.74965323419E+01  0.31443648445E+02  0.33359024636E+02  0.10566000000E+00 0.  1.
        994    1    1    2    0    0  0.10486337936E+02  0.14087487760E+01  0.24254962317E+01  0.17154378709E+03  0.17120000000E+03 0.  0.
        998    1    1    2    0    0 -0.18727232057E+02  0.60877835658E+01  0.14661308516E+04  0.14662971883E+04  0.10000000000E+02 0.  1.
</event>
<event>
 5    1  0.1688215E-008  0.2794208E+03  0.7957747E-01  0.4054853E+00
         13   -1    0    0    0    0  0.00000000000E+00  0.00000000000E+00  0.14999999963E+04  0.15000000000E+04  0.10566000000E+00 0. -1.
        994   -1    0    0    0    0 -0.00000000000E+00 -0.00000000000E+00  0.11368683772E-12  0.17120000000E+03  0.17120000000E+03 0.  0.
         13    1    1    2    0    0  0.97828178903E+02  0.92787053169E+02  0.77100096303E+03  0.78270191387E+03  0.10566000000E+00 0. -1.
        994    1    1    2    0    0  0.24436592063E+02 -0.40458694517E+01  0.32849264540E+02  0.17607393411E+03  0.17120000000E+03 0.  0.
        998    1    1    2    0    0 -0.12226477097E+03 -0.88741183718E+02  0.69614976871E+03  0.71242415202E+03  0.10000000000E+02 0. -1.
</event>
<event>
 5    1  0.1688215E-008  0.3776503E+03  0.7957747E-01  0.3461454E+00
         13   -1    0    0    0    0  0.00000000000E+00  0.00000000000E+00  0.14999999963E+04  0.15000000000E+04  0.10566000000E+00 0. -1.
        994   -1    0    0    0    0 -0.00000000000E+00 -0.00000000000E+00  0.11368683772E-12  0.17120000000E+03  0.17120000000E+03 0.  0.
         13    1    1    2    0    0 -0.48748264410E+02 -0.52034826940E+02  0.36544786460E+03  0.37233878311E+03  0.10566000000E+00 0. -1.
        994    1    1    2    0    0  0.17666918938E+02  0.84301582225E+02  0.30741222999E+02  0.19409621218E+03  0.17120000000E+03 0.  0.
        998    1    1    2    0    0  0.31081345472E+02 -0.32266755285E+02  0.11038109087E+04  0.11047650047E+04  0.10000000000E+02 0. -1.
</event>
<event>
 5    1  0.1688215E-008  0.3805007E+03  0.7957747E-01  0.3448981E+00
         13   -1    0    0    0    0  0.00000000000E+00  0.00000000000E+00  0.14999999963E+04  0.15000000000E+04  0.10566000000E+00 0.  1.
        994   -1    0    0    0    0 -0.00000000000E+00 -0.00000000000E+00  0.11368683772E-12  0.17120000000E+03  0.17120000000E+03 0.  0.
         13    1    1    2    0    0  0.90539620463E+01  0.59555923910E+01  0.13444323640E+02  0.17268593215E+02  0.10566000000E+00 0.  1.
        994    1    1    2    0    0 -0.52513217317E+01 -0.71068169936E+01  0.41412264680E+01  0.17147790815E+03  0.17120000000E+03 0.  0.
        998    1    1    2    0    0 -0.38026403146E+01  0.11512246025E+01  0.14824144462E+04  0.14824534986E+04  0.10000000000E+02 0.  1.
</event>
<event>
 5    1  0.1688215E-008  0.3833314E+03  0.7957747E-01  0.3436780E+00
         13   -1    0    0    0    0  0.00000000000E+00  0.00000000000E+00  0.14999999963E+04  0.15000000000E+04  0.10566000000E+00 0.  1.
        994   -1    0    0    0    0 -0.00000000000E+00 -0.00000000000E+00  0.11368683772E-12  0.17120000000E+03  0.17120000000E+03 0.  0.
         13    1    1    2    0    0 -0.11408676679E+02 -0.22721866185E+02  0.13485666200E+03  0.13723254554E+03  0.10566000000E+00 0.  1.
        994    1    1    2    0    0  0.12712646369E+02  0.63516491985E+01  0.31288859068E+01  0.17181730050E+03  0.17120000000E+03 0.  0.
        998    1    1    2    0    0 -0.13039696906E+01  0.16370216987E+02  0.13620144484E+04  0.13621501540E+04  0.10000000000E+02 0.  1.
</event>
<event>
 5    1  0.1688215E-008  0.3877945E+03  0.7957747E-01  0.3417906E+00
         13   -1    0    0    0    0  0.00000000000E+00  0.00000000000E+00  0.14999999963E+04  0.15000000000E+04  0.10566000000E+00 0. -1.
        994   -1    0    0    0    0 -0.00000000000E+00 -0.00000000000E+00  0.11368683772E-12  0.17120000000E+03  0.17120000000E+03 0.  0.
         13    1    1    2    0    0 -0.10791002057E+03  0.93527604371E+02  0.33710438950E+03  0.36610294440E+03  0.10566000000E+00 0. -1.
        994    1    1    2    0    0  0.93378898648E+02 -0.12725405453E+03  0.12083724286E+03  0.26234384378E+03  0.17120000000E+03 0.  0.
        998    1    1    2    0    0  0.14531121920E+02  0.33726450156E+02  0.10420583639E+04  0.10427532118E+04  0.10000000000E+02 0. -1.
</event>
<event>
 5    1  0.1688215E-008  0.3852148E+03  0.7957747E-01  0.3428762E+00
         13   -1    0    0    0    0  0.00000000000E+00  0.00000000000E+00  0.14999999963E+04  0.15000000000E+04  0.10566000000E+00 0.  1.
        994   -1    0    0    0    0 -0.00000000000E+00 -0.00000000000E+00  0.11368683772E-12  0.17120000000E+03  0.17120000000E+03 0.  0.
         13    1    1    2    0    0  0.99629321139E+01 -0.60573246301E+01  0.44836546021E+02  0.46327942120E+02  0.10566000000E+00 0.  1.
        994    1    1    2    0    0 -0.74290289406E+01  0.12674925478E+01  0.17102263232E+01  0.17137433262E+03  0.17120000000E+03 0.  0.
        998    1    1    2    0    0 -0.25339031733E+01  0.47898320823E+01  0.14534532239E+04  0.14534977253E+04  0.10000000000E+02 0.  1.
</event>
<event>
 5    1  0.1688215E-008  0.3843854E+03  0.7957747E-01  0.3432283E+00
         13   -1    0    0    0    0  0.00000000000E+00  0.00000000000E+00  0.14999999963E+04  0.15000000000E+04  0.10566000000E+00 0.  1.
        994   -1    0    0    0    0 -0.00000000000E+00 -0.00000000000E+00  0.11368683772E-12  0.17120000000E+03  0.17120000000E+03 0.  0.
         13    1    1    2    0    0  0.54711701056E-01  0.24151216291E+02  0.13550215133E+03  0.13763767079E+03  0.10566000000E+00 0.  1.
        994    1    1    2    0    0  0.68986908838E+00 -0.27259220408E+02  0.43895525736E+01  0.17341352078E+03  0.17120000000E+03 0.  0.
        998    1    1    2    0    0 -0.74458078943E+00  0.31080041177E+01  0.13601082924E+04  0.13601488084E+04  0.10000000000E+02 0.  1.
</event>
<event>
 5    1  0.1688215E-008  0.3815216E+03  0.7957747E-01  0.3444560E+00
         13   -1    0    0    0    0  0.00000000000E+00  0.00000000000E+00  0.14999999963E+04  0.15000000000E+04  0.10566000000E+00 0. -1.
        994   -1    0    0    0    0 -0.00000000000E+00 -0.00000000000E+00  0.11368683772E-12  0.17120000000E+03  0.17120000000E+03 0.  0.
         13    1    1    2    0    0  0.14934848774E+02 -0.15659256677E+02  0.70501709095E+02  0.73747977443E+02  0.10566000000E+00 0. -1.
        994    1    1    2    0    0 -0.16888734055E+01  0.86200187911E+01  0.36237174086E+01  0.17146348983E+03  0.17120000000E+03 0.  0.
        998    1    1    2    0    0 -0.13245975368E+02  0.70392378860E+01  0.14258745698E+04  0.14259885327E+04  0.10000000000E+02 0. -1.
</event>
<event>
 5    1  0.1688215E-008  0.3852092E+03  0.7957747E-01  0.3428785E+00
         13   -1    0    0    0    0  0.00000000000E+00  0.00000000000E+00  0.14999999963E+04  0.15000000000E+04  0.10566000000E+00 0.  1.
        994   -1    0    0    0    0 -0.00000000000E+00 -0.00000000000E+00  0.11368683772E-12  0.17120000000E+03  0.17120000000E+03 0.  0.
         13    1    1    2    0    0 -0.15333620905E+02  0.23586421848E+01  0.75706271688E+02  0.77279582426E+02  0.10566000000E+00 0.  1.
        994    1    1    2    0    0  0.16929292153E+02  0.27714996229E+01  0.24940207778E+01  0.17207539709E+03  0.17120000000E+03 0.  0.
        998    1    1    2    0    0 -0.15956712477E+01 -0.51301418077E+01  0.14217997038E+04  0.14218450205E+04  0.10000000000E+02 0.  1.
</event>
<event>
 5    1  0.1688215E-008  0.3819122E+03  0.7957747E-01  0.3442874E+00
         13   -1    0    0    0    0  0.00000000000E+00  0.00000000000E+00  0.14999999963E+04  0.15000000000E+04  0.10566000000E+00 0. -1.
        994   -1    0    0    0    0 -0.00000000000E+00 -0.00000000000E+00  0.11368683772E-12  0.17120000000E+03  0.17120000000E+03 0.  0.
         13    1    1    2    0    0  0.27975446319E+02  0.20986498842E+02  0.16867002250E+03  0.17225750023E+03  0.10566000000E+00 0. -1.
        994    1    1    2    0    0 -0.33369863243E+02 -0.18500194855E+02  0.80221875789E+01  0.17558359968E+03  0.17120000000E+03 0.  0.
        998    1    1    2    0    0  0.53944169236E+01 -0.24863039872E+01  0.13233077862E+04  0.13233589001E+04  0.10000000000E+02 0. -1.
</event>
<event>
 5    1  0.1688215E-008  0.3825147E+03  0.7957747E-01  0.3440281E+00
         13   -1    0    0    0    0  0.00000000000E+00  0.00000000000E+00  0.14999999963E+04  0.15000000000E+04  0.10566000000E+00 0.  1.
        994   -1    0    0    0    0 -0.00000000000E+00 -0.00000000000E+00  0.11368683772E-12  0.17120000000E+03  0.17120000000E+03 0.  0.
         13    1    1    2    0    0 -0.11385408159E+02  0.80209074819E+01  0.32481142106E+02  0.35341169085E+02  0.10566000000E+00 0.  1.
        994    1    1    2    0    0  0.13213758132E+02 -0.23608689167E+01  0.34666562710E+01  0.17176039943E+03  0.17120000000E+03 0.  0.
        998    1    1    2    0    0 -0.18283499726E+01 -0.56600385652E+01  0.14640521979E+04  0.14640984315E+04  0.10000000000E+02 0.  1.
</event>
<event>
 5    1  0.1688215E-008  0.3788206E+03  0.7957747E-01  0.3456310E+00
         13   -1    0    0    0    0  0.00000000000E+00  0.00000000000E+00  0.14999999963E+04  0.15000000000E+04  0.10566000000E+00 0.  1.
        994   -1    0    0    0    0 -0.00000000000E+00 -0.00000000000E+00  0.11368683772E-12  0.17120000000E+03  0.17120000000E+03 0.  0.
         13    1    1    2    0    0 -0.98080822221E+01  0.44231615929E+01  0.10063298706E+02  0.14732412574E+02  0.10566000000E+00 0.  1.
        994    1    1    2    0    0  0.10146483950E+02 -0.32126801021E+01  0.51099112581E+01  0.17160659557E+03  0.17120000000E+03 0.  0.
        998    1    1    2    0    0 -0.33840172776E+00 -0.12104814908E+01  0.14848267863E+04  0.14848609919E+04  0.10000000000E+02 0.  1.
</event>
<event>
 5    1  0.1688215E-008  0.3838203E+03  0.7957747E-01  0.3434691E+00
         13   -1    0    0    0    0  0.00000000000E+00  0.00000000000E+00  0.14999999963E+04  0.15000000000E+04  0.10566000000E+00 0. -1.
        994   -1    0    0    0    0 -0.00000000000E+00 -0.00000000000E+00  0.11368683772E-12  0.17120000000E+03  0.17120000000E+03 0.  0.
         13    1    1    2    0    0 -0.16078444266E+02 -0.72361579304E+01  0.65212006204E+02  0.67553647339E+02  0.10566000000E+00 0. -1.
        994    1    1    2    0    0  0.26182040879E+02 -0.82606154693E+00  0.44855165455E+01  0.17325051660E+03  0.17120000000E+03 0.  0.
        998    1    1    2    0    0 -0.10103596614E+02  0.80622194773E+01  0.14303024735E+04  0.14303958361E+04  0.10000000000E+02 0. -1.
</event>
<event>
 5    1  0.1688215E-008  0.4085923E+03  0.7957747E-01  0.3335389E+00
         13   -1    0    0    0    0  0.00000000000E+00  0.00000000000E+00  0.14999999963E+04  0.15000000000E+04  0.10566000000E+00 0. -1.
        994   -1    0    0    0    0 -0.00000000000E+00 -0.00000000000E+00  0.11368683772E-12  0.17120000000E+03  0.17120000000E+03 0.  0.
         13    1    1    2    0    0  0.68406828086E+02  0.20915481966E+02  0.67950344438E+02  0.98662110193E+02  0.10566000000E+00 0. -1.
        994    1    1    2    0    0 -0.41473799978E+02 -0.33970505225E+02  0.44770307572E+02  0.18489968023E+03  0.17120000000E+03 0.  0.
        998    1    1    2    0    0 -0.26933028107E+02  0.13055023259E+02  0.13872793443E+04  0.13876382096E+04  0.10000000000E+02 0. -1.
</event>
<event>
 5    1  0.1688215E-008  0.3828903E+03  0.7957747E-01  0.3438669E+00
         13   -1    0    0    0    0  0.00000000000E+00  0.00000000000E+00  0.14999999963E+04  0.15000000000E+04  0.10566000000E+00 0.  1.
        994   -1    0    0    0    0 -0.00000000000E+00 -0.00000000000E+00  0.11368683772E-12  0.17120000000E+03  0.17120000000E+03 0.  0.
         13    1    1    2    0    0  0.14162129119E+01  0.18100278493E+02  0.73235306746E+02  0.75452283323E+02  0.10566000000E+00 0.  1.
        994    1    1    2    0    0  0.17672107586E+01  0.22363564312E+02  0.43493916478E+01  0.17271829449E+03  0.17120000000E+03 0.  0.
        998    1    1    2    0    0 -0.31834236705E+01 -0.40463842805E+02  0.14224152979E+04  0.14230294222E+04  0.10000000000E+02 0.  1.
</event>
<event>
 5    1  0.1688215E-008  0.3339240E+03  0.7957747E-01  0.3680117E+00
         13   -1    0    0    0    0  0.00000000000E+00  0.00000000000E+00  0.14999999963E+04  0.15000000000E+04  0.10566000000E+00 0. -1.
        994   -1    0    0    0    0 -0.00000000000E+00 -0.00000000000E+00  0.11368683772E-12  0.17120000000E+03  0.17120000000E+03 0.  0.
         13    1    1    2    0    0 -0.89496979956E+02 -0.27501122519E+03  0.58348332838E+03  0.65122476079E+03  0.10566000000E+00 0. -1.
        994    1    1    2    0    0  0.87460132111E+02  0.26132286643E+03  0.45864900753E+03  0.56178934427E+03  0.17120000000E+03 0.  0.
        998    1    1    2    0    0  0.20368478450E+01  0.13688358757E+02  0.45786766037E+03  0.45818589494E+03  0.10000000000E+02 0. -1.
</event>
<event>
 5    1  0.1688215E-008  0.3781235E+03  0.7957747E-01  0.3459370E+00
         13   -1    0    0    0    0  0.00000000000E+00  0.00000000000E+00  0.14999999963E+04  0.15000000000E+04  0.10566000000E+00 0. -1.
        994   -1    0    0    0    0 -0.00000000000E+00 -0.00000000000E+00  0.11368683772E-12  0.17120000000E+03  0.17120000000E+03 0.  0.
         13    1    1    2    0    0 -0.46163552411E+02 -0.69281109208E+01  0.18442871748E+03  0.19024467216E+03  0.10566000000E+00 0. -1.
        994    1    1    2    0    0  0.55842022963E+02 -0.28497118697E+02  0.18420413649E+02  0.18324619762E+03  0.17120000000E+03 0.  0.
        998    1    1    2    0    0 -0.96784705517E+01  0.35425229618E+02  0.12971508652E+04  0.12977091302E+04  0.10000000000E+02 0. -1.
</event>
<event>
 5    1  0.1688215E-008  0.3800945E+03  0.7957747E-01  0.3450747E+00
         13   -1    0    0    0    0  0.00000000000E+00  0.00000000000E+00  0.14999999963E+04  0.15000000000E+04  0.10566000000E+00 0.  1.
        994   -1    0    0    0    0 -0.00000000000E+00 -0.00000000000E+00  0.11368683772E-12  0.17120000000E+03  0.17120000000E+03 0.  0.
         13    1    1    2    0    0 -0.13468301262E+02 -0.47580450465E+01  0.23254047119E+02  0.27290950936E+02  0.10566000000E+00 0.  1.
        994    1    1    2    0    0  0.14668081255E+02 -0.97797550599E+01  0.51247575478E+01  0.17218158832E+03  0.17120000000E+03 0.  0.
        998    1    1    2    0    0 -0.11997799928E+01  0.14537800106E+02  0.14716211916E+04  0.14717274607E+04  0.10000000000E+02 0.  1.
</event>
<event>
 5    1  0.1688215E-008  0.3734544E+03  0.7957747E-01  0.3480164E+00
         13   -1    0    0    0    0  0.00000000000E+00  0.00000000000E+00  0.14999999963E+04  0.15000000000E+04  0.10566000000E+00 0. -1.
        994   -1    0    0    0    0 -0.00000000000E+00 -0.00000000000E+00  0.11368683772E-12  0.17120000000E+03  0.17120000000E+03 0.  0.
         13    1    1    2    0    0 -0.39755110692E+02  0.37207082788E+01  0.97435152408E+02  0.10529925254E+03  0.10566000000E+00 0. -1.
        994    1    1    2    0    0  0.41253140014E+02  0.13358802133E+01  0.13318195043E+02  0.17660809850E+03  0.17120000000E+03 0.  0.
        998    1    1    2    0    0 -0.14980293220E+01 -0.50565884921E+01  0.13892466488E+04  0.13892926490E+04  0.10000000000E+02 0. -1.
</event>
<event>
 5    1  0.1688215E-008  0.3847009E+03  0.7957747E-01  0.3430942E+00
         13   -1    0    0    0    0  0.00000000000E+00  0.00000000000E+00  0.14999999963E+04  0.15000000000E+04  0.10566000000E+00 0. -1.
        994   -1    0    0    0    0 -0.00000000000E+00 -0.00000000000E+00  0.11368683772E-12  0.17120000000E+03  0.17120000000E+03 0.  0.
         13    1    1    2    0    0 -0.10390600071E+02  0.48092696314E+01  0.36346215542E+02  0.38107114723E+02  0.10566000000E+00 0. -1.
        994    1    1    2    0    0  0.77693033299E+01 -0.47546301771E+01  0.20518775197E+01  0.17145442188E+03  0.17120000000E+03 0.  0.
        998    1    1    2    0    0  0.26212967415E+01 -0.54639454267E-01  0.14616019032E+04  0.14616384634E+04  0.10000000000E+02 0.  0.
</event>
<event>
 5    1  0.1688215E-008  0.3814212E+03  0.7957747E-01  0.3444993E+00
         13   -1    0    0    0    0  0.00000000000E+00  0.00000000000E+00  0.14999999963E+04  0.15000000000E+04  0.10566000000E+00 0.  1.
        994   -1    0    0    0    0 -0.00000000000E+00 -0.00000000000E+00  0.11368683772E-12  0.17120000000E+03  0.17120000000E+03 0.  0.
         13    1    1    2    0    0  0.21561617184E+01 -0.20376508149E+02  0.64058045349E+02  0.67255449264E+02  0.10566000000E+00 0.  1.
        994    1    1    2    0    0  0.62346619314E+01  0.36651693904E+00  0.35472353713E+01  0.17135060030E+03  0.17120000000E+03 0.  0.
        998    1    1    2    0    0 -0.83908236498E+01  0.20009991210E+02  0.14323947156E+04  0.14325939504E+04  0.10000000000E+02 0.  1.
</event>
<event>
 5    1  0.1688215E-008  0.3796383E+03  0.7957747E-01  0.3452735E+00
         13   -1    0    0    0    0  0.00000000000E+00  0.00000000000E+00  0.14999999963E+04  0.15000000000E+04  0.10566000000E+00 0. -1.
        994   -1    0    0    0    0 -0.00000000000E+00 -0.00000000000E+00  0.11368683772E-12  0.17120000000E+03  0.17120000000E+03 0.  0.
         13    1    1    2    0    0  0.10530440488E+02 -0.25277092906E+00  0.11120842608E+02  0.15317910248E+02  0.10566000000E+00 0. -1.
        994    1    1    2    0    0  0.46308531328E+00  0.28975324629E+02  0.71316447940E+01  0.17378171435E+03  0.17120000000E+03 0.  0.
        998    1    1    2    0    0 -0.10993525802E+02 -0.28722553700E+02  0.14817475089E+04  0.14821003754E+04  0.10000000000E+02 0. -1.
</event>
<event>
 5    1  0.1688215E-008  0.3885470E+03  0.7957747E-01  0.3414767E+00
         13   -1    0    0    0    0  0.00000000000E+00  0.00000000000E+00  0.14999999963E+04  0.15000000000E+04  0.10566000000E+00 0.  1.
        994   -1    0    0    0    0 -0.00000000000E+00 -0.00000000000E+00  0.11368683772E-12  0.17120000000E+03  0.17120000000E+03 0.  0.
         13    1    1    2    0    0 -0.39992030343E+02  0.39254320383E+02  0.68669304189E+02  0.88632661370E+02  0.10566000000E+00 0.  1.
        994    1    1    2    0    0  0.59750047085E+02  0.18118296190E+02  0.35838467195E+02  0.18572069490E+03  0.17120000000E+03 0.  0.
        998    1    1    2    0    0 -0.19758016742E+02 -0.57372616573E+02  0.13954922249E+04  0.13968466437E+04  0.10000000000E+02 0.  1.
</event>
<event>
 5    1  0.1688215E-008  0.3698661E+03  0.7957747E-01  0.3496507E+00
         13   -1    0    0    0    0  0.00000000000E+00  0.00000000000E+00  0.14999999963E+04  0.15000000000E+04  0.10566000000E+00 0.  1.
        994   -1    0    0    0    0 -0.00000000000E+00 -0.00000000000E+00  0.11368683772E-12  0.17120000000E+03  0.17120000000E+03 0.  0.
         13    1    1    2    0    0  0.33424774634E+02  0.14676375142E+03  0.63444739657E+03  0.65205852841E+03  0.10566000000E+00 0.  1.
        994    1    1    2    0    0 -0.23465503968E+02 -0.15002020383E+03  0.93899546582E+02  0.24735249399E+03  0.17120000000E+03 0.  0.
        998    1    1    2    0    0 -0.99592706665E+01  0.32564524115E+01  0.77165305313E+03  0.77178897761E+03  0.10000000000E+02 0. -1.
</event>
<event>
 5    1  0.1688215E-008  0.3706160E+03  0.7957747E-01  0.3493065E+00
         13   -1    0    0    0    0  0.00000000000E+00  0.00000000000E+00  0.14999999963E+04  0.15000000000E+04  0.10566000000E+00 0. -1.
        994   -1    0    0    0    0 -0.00000000000E+00 -0.00000000000E+00  0.11368683772E-12  0.17120000000E+03  0.17120000000E+03 0.  0.
         13    1    1    2    0    0 -0.62382215162E+02 -0.65939931572E+02  0.36370347215E+03  0.37485976333E+03  0.10566000000E+00 0. -1.
        994    1    1    2    0    0  0.48797961387E+02  0.69174626854E+02  0.34096181866E+02  0.19400608149E+03  0.17120000000E+03 0.  0.
        998    1    1    2    0    0  0.13584253775E+02 -0.32346952821E+01  0.11022003423E+04  0.11023341552E+04  0.10000000000E+02 0. -1.
</event>
<event>
 5    1  0.1688215E-008  0.3806210E+03  0.7957747E-01  0.3448459E+00
         13   -1    0    0    0    0  0.00000000000E+00  0.00000000000E+00  0.14999999963E+04  0.15000000000E+04  0.10566000000E+00 0. -1.
        994   -1    0    0    0    0 -0.00000000000E+00 -0.00000000000E+00  0.11368683772E-12  0.17120000000E+03  0.17120000000E+03 0.  0.
         13    1    1    2    0    0  0.14502789026E+02 -0.26624799401E+02  0.10845658160E+03  0.11261461757E+03  0.10566000000E+00 0. -1.
        994    1    1    2    0    0 -0.23071873770E+02  0.27608846415E+02  0.81508318847E+01  0.17512976851E+03  0.17120000000E+03 0.  0.
        998    1    1    2    0    0  0.85690847439E+01 -0.98404701454E+00  0.13833925828E+04  0.13834556139E+04  0.10000000000E+02 0. -1.
</event>
<event>
 5    1  0.1688215E-008  0.3844596E+03  0.7957747E-01  0.3431967E+00
         13   -1    0    0    0    0  0.00000000000E+00  0.00000000000E+00  0.14999999963E+04  0.15000000000E+04  0.10566000000E+00 0.  1.
        994   -1    0    0    0    0 -0.00000000000E+00 -0.00000000000E+00  0.11368683772E-12  0.17120000000E+03  0.17120000000E+03 0.  0.
         13    1    1    2    0    0  0.19282256303E+01 -0.10283544933E+02  0.29371136555E+02  0.31179226691E+02  0.10566000000E+00 0.  1.
        994    1    1    2    0    0 -0.66089893062E+01 -0.24650043186E+01  0.20625890146E+01  0.17135766472E+03  0.17120000000E+03 0.  0.
        998    1    1    2    0    0  0.46807636759E+01  0.12748549252E+02  0.14685662707E+04  0.14686631086E+04  0.10000000000E+02 0.  1.
</event>
<event>
 5    1  0.1688215E-008  0.3792325E+03  0.7957747E-01  0.3454507E+00
         13   -1    0    0    0    0  0.00000000000E+00  0.00000000000E+00  0.14999999963E+04  0.15000000000E+04  0.10566000000E+00 0. -1.
        994   -1    0    0    0    0 -0.00000000000E+00 -0.00000000000E+00  0.11368683772E-12  0.17120000000E+03  0.17120000000E+03 0.  0.
         13    1    1    2    0    0  0.10029997075E+03 -0.92306801703E+02  0.66733179906E+03  0.68111112968E+03  0.10566000000E+00 0. -1.
        994    1    1    2    0    0 -0.11120218020E+03  0.12349574761E+03  0.10345108723E+03  0.26005517108E+03  0.17120000000E+03 0.  0.
        998    1    1    2    0    0  0.10902209448E+02 -0.31188945905E+02  0.72921710999E+03  0.73003369923E+03  0.10000000000E+02 0. -1.
</event>
<event>
 5    1  0.1688215E-008  0.3799131E+03  0.7957747E-01  0.3451537E+00
         13   -1    0    0    0    0  0.00000000000E+00  0.00000000000E+00  0.14999999963E+04  0.15000000000E+04  0.10566000000E+00 0.  1.
        994   -1    0    0    0    0 -0.00000000000E+00 -0.00000000000E+00  0.11368683772E-12  0.17120000000E+03  0.17120000000E+03 0.  0.
         13    1    1    2    0    0 -0.67642357544E+01 -0.73736416513E+01  0.10071354846E+02  0.14197493758E+02  0.10566000000E+00 0.  1.
        994    1    1    2    0    0 -0.44970614190E+01  0.17315103919E+02  0.52479293528E+01  0.17221212834E+03  0.17120000000E+03 0.  0.
        998    1    1    2    0    0  0.11261297173E+02 -0.99414622675E+01  0.14846807121E+04  0.14847903779E+04  0.10000000000E+02 0.  1.
</event>
<event>
 5    1  0.1688215E-008  0.3719491E+03  0.7957747E-01  0.3486981E+00
         13   -1    0    0    0    0  0.00000000000E+00  0.00000000000E+00  0.14999999963E+04  0.15000000000E+04  0.10566000000E+00 0. -1.
        994   -1    0    0    0    0 -0.00000000000E+00 -0.00000000000E+00  0.11368683772E-12  0.17120000000E+03  0.17120000000E+03 0.  0.
         13    1    1    2    0    0  0.65741605032E+01 -0.23961601186E+02  0.32819859058E+02  0.41164696408E+02  0.10566000000E+00 0. -1.
        994    1    1    2    0    0 -0.32903016375E+01  0.31129771834E+02  0.11626771170E+02  0.17442623251E+03  0.17120000000E+03 0.  0.
        998    1    1    2    0    0 -0.32838588657E+01 -0.71681706486E+01  0.14555533661E+04  0.14556090711E+04  0.10000000000E+02 0. -1.
</event>
<event>
 5    1  0.1688215E-008  0.3694721E+03  0.7957747E-01  0.3498321E+00
         13   -1    0    0    0    0  0.00000000000E+00  0.00000000000E+00  0.14999999963E+04  0.15000000000E+04  0.10566000000E+00 0. -1.
        994   -1    0    0    0    0 -0.00000000000E+00 -0.00000000000E+00  0.11368683772E-12  0.17120000000E+03  0.17120000000E+03 0.  0.
         13    1    1    2    0    0  0.54189243794E+02 -0.51594377685E+02  0.22775371291E+03  0.23972947015E+03  0.10566000000E+00 0. -1.
        994    1    1    2    0    0 -0.70822763597E+02  0.26003924507E+02  0.30795685188E+02  0.18960454151E+03  0.17120000000E+03 0.  0.
        998    1    1    2    0    0  0.16633519803E+02  0.25590453179E+02  0.12414505982E+04  0.12418659883E+04  0.10000000000E+02 0. -1.
</event>
<event>
 5    1  0.1688215E-008  0.3745106E+03  0.7957747E-01  0.3475414E+00
         13   -1    0    0    0    0  0.00000000000E+00  0.00000000000E+00  0.14999999963E+04  0.15000000000E+04  0.10566000000E+00 0.  1.
        994   -1    0    0    0    0 -0.00000000000E+00 -0.00000000000E+00  0.11368683772E-12  0.17120000000E+03  0.17120000000E+03 0.  0.
         13    1    1    2    0    0 -0.24956960550E+02 -0.32752868241E+01  0.46988968152E+02  0.53306206728E+02  0.10566000000E+00 0.  1.
        994    1    1    2    0    0 -0.12267465709E+02 -0.34641896092E+01  0.74836777066E+01  0.17183694817E+03  0.17120000000E+03 0.  0.
        998    1    1    2    0    0  0.37224426259E+02  0.67394764332E+01  0.14455273504E+04  0.14460568451E+04  0.10000000000E+02 0.  1.
</event>
<event>
 5    1  0.1688215E-008  0.3780090E+03  0.7957747E-01  0.3459874E+00
         13   -1    0    0    0    0  0.00000000000E+00  0.00000000000E+00  0.14999999963E+04  0.15000000000E+04  0.10566000000E+00 0.  1.
        994   -1    0    0    0    0 -0.00000000000E+00 -0.00000000000E+00  0.11368683772E-12  0.17120000000E+03  0.17120000000E+03 0.  0.
         13    1    1    2    0    0 -0.23804053387E+02  0.61486789635E+01  0.59097921773E+02  0.64007927107E+02  0.10566000000E+00 0.  1.
        994    1    1    2    0    0  0.67651805107E+01  0.48926833459E+01  0.53761561499E+01  0.17148775196E+03  0.17120000000E+03 0.  0.
        998    1    1    2    0    0  0.17038872877E+02 -0.11041362309E+02  0.14355259184E+04  0.14357043209E+04  0.10000000000E+02 0.  1.
</event>
<event>
 5    1  0.1688215E-008  0.3856070E+03  0.7957747E-01  0.3427102E+00
         13   -1    0    0    0    0  0.00000000000E+00  0.00000000000E+00  0.14999999963E+04  0.15000000000E+04  0.10566000000E+00 0.  1.
        994   -1    0    0    0    0 -0.00000000000E+00 -0.00000000000E+00  0.11368683772E-12  0.17120000000E+03  0.17120000000E+03 0.  0.
         13    1    1    2    0    0  0.13389037067E+02  0.19494993513E+01  0.71306062620E+02  0.72578458179E+02  0.10566000000E+00 0.  1.
        994    1    1    2    0    0 -0.24996664652E+01 -0.23487787231E+02  0.31624509539E+01  0.17285070314E+03  0.17120000000E+03 0.  0.
        998    1    1    2    0    0 -0.10889370602E+02  0.21538287880E+02  0.14255314827E+04  0.14257708387E+04  0.10000000000E+02 0.  1.
</event>
<event>
 5    1  0.1688215E-008  0.3803510E+03  0.7957747E-01  0.3449632E+00
         13   -1    0    0    0    0  0.00000000000E+00  0.00000000000E+00  0.14999999963E+04  0.15000000000E+04  0.10566000000E+00 0.  1.
        994   -1    0    0    0    0 -0.00000000000E+00 -0.00000000000E+00  0.11368683772E-12  0.17120000000E+03  0.17120000000E+03 0.  0.
         13    1    1    2    0    0 -0.63269663509E+01 -0.91832780675E+01  0.14013520141E+02  0.17909578723E+02  0.10566000000E+00 0.  1.
        994    1    1    2    0    0  0.20312988214E+01  0.84469936141E+01  0.42081475504E+01  0.17147194051E+03  0.17120000000E+03 0.  0.
        998    1    1    2    0    0  0.42956675295E+01  0.73628445345E+00  0.14817783286E+04  0.14818184808E+04  0.10000000000E+02 0.  1.
</event>
<event>
 5    1  0.1688215E-008  0.3831410E+03  0.7957747E-01  0.3437595E+00
         13   -1    0    0    0    0  0.00000000000E+00  0.00000000000E+00  0.14999999963E+04  0.15000000000E+04  0.10566000000E+00 0.  1.
        994   -1    0    0    0    0 -0.00000000000E+00 -0.00000000000E+00  0.11368683772E-12  0.17120000000E+03  0.17120000000E+03 0.  0.
         13    1    1    2    0    0  0.18360162089E+02 -0.10124400020E+02  0.80457698155E+02  0.83144761616E+02  0.10566000000E+00 0.  1.
        994    1    1    2    0    0 -0.19922149711E+02  0.12605625593E+02  0.43969621015E+01  0.17287153358E+03  0.17120000000E+03 0.  0.
        998    1    1    2    0    0  0.15619876227E+01 -0.24812255737E+01  0.14151453360E+04  0.14151837048E+04  0.10000000000E+02 0.  1.
</event>
<event>
 5    1  0.1688215E-008  0.3979309E+03  0.7957747E-01  0.3376616E+00
         13   -1    0    0    0    0  0.00000000000E+00  0.00000000000E+00  0.14999999963E+04  0.15000000000E+04  0.10566000000E+00 0.  1.
        994   -1    0    0    0    0 -0.00000000000E+00 -0.00000000000E+00  0.11368683772E-12  0.17120000000E+03  0.17120000000E+03 0.  0.
         13    1    1    2    0    0 -0.57543973559E+02 -0.64951891041E+02  0.12864089720E+03  0.15517264140E+03  0.10566000000E+00 0.  1.
        994    1    1    2    0    0  0.38819504958E+02  0.62788157901E+02  0.48027479724E+02  0.19252372723E+03  0.17120000000E+03 0.  0.
        998    1    1    2    0    0  0.18724468601E+02  0.21637331397E+01  0.13233316194E+04  0.13235036314E+04  0.10000000000E+02 0.  1.
</event>
<event>
 5    1  0.1688215E-008  0.3862264E+03  0.7957747E-01  0.3424487E+00
         13   -1    0    0    0    0  0.00000000000E+00  0.00000000000E+00  0.14999999963E+04  0.15000000000E+04  0.10566000000E+00 0.  1.
        994   -1    0    0    0    0 -0.00000000000E+00 -0.00000000000E+00  0.11368683772E-12  0.17120000000E+03  0.17120000000E+03 0.  0.
         13    1    1    2    0    0  0.84305331070E+01 -0.60500829805E+01  0.51531773182E+02  0.52566264884E+02  0.10566000000E+00 0.  1.
        994    1    1    2    0    0 -0.92537787918E+01  0.82408968269E+01  0.15255663408E+01  0.17165463045E+03  0.17120000000E+03 0.  0.
        998    1    1    2    0    0  0.82324568479E+00 -0.21908138464E+01  0.14469426568E+04  0.14469791047E+04  0.10000000000E+02 0.  1.
</event>
<event>
 5    1  0.1688215E-008  0.3739164E+03  0.7957747E-01  0.3478083E+00
         13   -1    0    0    0    0  0.00000000000E+00  0.00000000000E+00  0.14999999963E+04  0.15000000000E+04  0.10566000000E+00 0. -1.
        994   -1    0    0    0    0 -0.00000000000E+00 -0.00000000000E+00  0.11368683772E-12  0.17120000000E+03  0.17120000000E+03 0.  0.
         13    1    1    2    0    0  0.45664634822E+02  0.26735834047E+02  0.19508795336E+03  0.20213704363E+03  0.10566000000E+00 0. -1.
        994    1    1    2    0    0 -0.18116456757E+02 -0.23135260356E+02  0.10187682412E+02  0.17400194008E+03  0.17120000000E+03 0.  0.
        998    1    1    2    0    0 -0.27548178065E+02 -0.36005736914E+01  0.12947243605E+04  0.12950610163E+04  0.10000000000E+02 0. -1.
</event>
<event>
 5    1  0.1688215E-008  0.3817179E+03  0.7957747E-01  0.3443712E+00
         13   -1    0    0    0    0  0.00000000000E+00  0.00000000000E+00  0.14999999963E+04  0.15000000000E+04  0.10566000000E+00 0. -1.
        994   -1    0    0    0    0 -0.00000000000E+00 -0.00000000000E+00  0.11368683772E-12  0.17120000000E+03  0.17120000000E+03 0.  0.
         13    1    1    2    0    0 -0.19081193978E+02  0.16482106671E+02  0.10898719375E+03  0.11186586329E+03  0.10566000000E+00 0. -1.
        994    1    1    2    0    0  0.19831715217E+01  0.99948074131E+01  0.36136839029E+01  0.17154103840E+03  0.17120000000E+03 0.  0.
        998    1    1    2    0    0  0.17098022456E+02 -0.26476914084E+02  0.13873991186E+04  0.13877930983E+04  0.10000000000E+02 0. -1.
</event>
<event>
 5    1  0.1688215E-008  0.3757705E+03  0.7957747E-01  0.3469784E+00
         13   -1    0    0    0    0  0.00000000000E+00  0.00000000000E+00  0.14999999963E+04  0.15000000000E+04  0.10566000000E+00 0.  1.
        994   -1    0    0    0    0 -0.00000000000E+00 -0.00000000000E+00  0.11368683772E-12  0.17120000000E+03  0.17120000000E+03 0.  0.
         13    1    1    2    0    0  0.29776538129E+02  0.21237797332E+01  0.67474369506E+02  0.73783157750E+02  0.10566000000E+00 0.  1.
        994    1    1    2    0    0 -0.24234784164E+02  0.10720358178E+02  0.86681625491E+01  0.17345555017E+03  0.17120000000E+03 0.  0.
        998    1    1    2    0    0 -0.55417539653E+01 -0.12844137912E+02  0.14238574642E+04  0.14239612921E+04  0.10000000000E+02 0.  1.
</event>
<event>
 5    1  0.1688215E-008  0.3775267E+03  0.7957747E-01  0.3461999E+00
         13   -1    0    0    0    0  0.00000000000E+00  0.00000000000E+00  0.14999999963E+04  0.15000000000E+04  0.10566000000E+00 0.  1.
        994   -1    0    0    0    0 -0.00000000000E+00 -0.00000000000E+00  0.11368683772E-12  0.17120000000E+03  0.17120000000E+03 0.  0.
         13    1    1    2    0    0  0.39854159256E+02 -0.63490330245E+00  0.17540798042E+03  0.17987975949E+03  0.10566000000E+00 0.  1.
        994    1    1    2    0    0  0.51367210334E+01 -0.25058324937E+02  0.75953715972E+01  0.17326694786E+03  0.17120000000E+03 0.  0.
        998    1    1    2    0    0 -0.44990880289E+02  0.25693228240E+02  0.13169966443E+04  0.13180532927E+04  0.10000000000E+02 0.  1.
</event>
<event>
 5    1  0.1688215E-008  0.3787450E+03  0.7957747E-01  0.3456641E+00
         13   -1    0    0    0    0  0.00000000000E+00  0.00000000000E+00  0.14999999963E+04  0.15000000000E+04  0.10566000000E+00 0. -1.
        994   -1    0    0    0    0 -0.00000000000E+00 -0.00000000000E+00  0.11368683772E-12  0.17120000000E+03  0.17120000000E+03 0.  0.
         13    1    1    2    0    0  0.51236223349E+00  0.41078989331E+02  0.18890466367E+03  0.19332027571E+03  0.10566000000E+00 0. -1.
        994    1    1    2    0    0  0.19546822623E+01 -0.12901818699E+02  0.53398067221E+01  0.17177960078E+03  0.17120000000E+03 0.  0.
        998    1    1    2    0    0 -0.24670444958E+01 -0.28177170632E+02  0.13057555259E+04  0.13061001235E+04  0.10000000000E+02 0. -1.
</event>
<event>
 5    1  0.1688215E-008  0.3830369E+03  0.7957747E-01  0.3438041E+00
         13   -1    0    0    0    0  0.00000000000E+00  0.00000000000E+00  0.14999999963E+04  0.15000000000E+04  0.10566000000E+00 0. -1.
        994   -1    0    0    0    0 -0.00000000000E+00 -0.00000000000E+00  0.11368683772E-12  0.17120000000E+03  0.17120000000E+03 0.  0.
         13    1    1    2    0    0  0.10222077038E+02  0.17527601280E+02  0.85977226304E+02  0.88339132170E+02  0.10566000000E+00 0. -1.
        994    1    1    2    0    0  0.21164259946E+01  0.23709532190E+01  0.26413823507E+01  0.17124986884E+03  0.17120000000E+03 0.  0.
        998    1    1    2    0    0 -0.12338503033E+02 -0.19898554499E+02  0.14113813876E+04  0.14116109990E+04  0.10000000000E+02 0. -1.
</event>
<event>
 5    1  0.1688215E-008  0.3817553E+03  0.7957747E-01  0.3443551E+00
         13   -1    0    0    0    0  0.00000000000E+00  0.00000000000E+00  0.14999999963E+04  0.15000000000E+04  0.10566000000E+00 0.  1.
        994   -1    0    0    0    0 -0.00000000000E+00 -0.00000000000E+00  0.11368683772E-12  0.17120000000E+03  0.17120000000E+03 0.  0.
         13    1    1    2    0    0 -0.13894043121E+02  0.13718656619E+02  0.56908841567E+02  0.60165383621E+02  0.10566000000E+00 0.  1.
        994    1    1    2    0    0  0.15411662878E+02 -0.60795159496E+01  0.41624903573E+01  0.17205012698E+03  0.17120000000E+03 0.  0.
        998    1    1    2    0    0 -0.15176197573E+01 -0.76391406695E+01  0.14389286644E+04  0.14389844894E+04  0.10000000000E+02 0.  1.
</event>
<event>
 5    1  0.1688215E-008  0.3713138E+03  0.7957747E-01  0.3489874E+00
         13   -1    0    0    0    0  0.00000000000E+00  0.00000000000E+00  0.14999999963E+04  0.15000000000E+04  0.10566000000E+00 0. -1.
        994   -1    0    0    0    0 -0.00000000000E+00 -0.00000000000E+00  0.11368683772E-12  0.17120000000E+03  0.17120000000E+03 0.  0.
         13    1    1    2    0    0  0.28316253026E+02 -0.14550773106E+02  0.55143476042E+02  0.63673772445E+02  0.10566000000E+00 0. -1.
        994    1    1    2    0    0 -0.22113221759E+02  0.10871633132E+02  0.10676738166E+02  0.17329344974E+03  0.17120000000E+03 0.  0.
        998    1    1    2    0    0 -0.62030312675E+01  0.36791399738E+01  0.14341797821E+04  0.14342327778E+04  0.10000000000E+02 0. -1.
</event>
<event>
 5    1  0.1688215E-008  0.3751202E+03  0.7957747E-01  0.3472685E+00
         13   -1    0    0    0    0  0.00000000000E+00  0.00000000000E+00  0.14999999963E+04  0.15000000000E+04  0.10566000000E+00 0.  1.
        994   -1    0    0    0    0 -0.00000000000E+00 -0.00000000000E+00  0.11368683772E-12  0.17120000000E+03  0.17120000000E+03 0.  0.
         13    1    1    2    0    0 -0.44294214390E+02 -0.37267731586E+02  0.32807291229E+03  0.33314067328E+03  0.10566000000E+00 0.  1.
        994    1    1    2    0    0 -0.10322429990E+02  0.14970614106E+02  0.77413550458E+01  0.17233699668E+03  0.17120000000E+03 0.  0.
        998    1    1    2    0    0  0.54616644380E+02  0.22297117480E+02  0.11641857289E+04  0.11657223300E+04  0.10000000000E+02 0.  1.
</event>
<event>
 5    1  0.1688215E-008  0.3742735E+03  0.7957747E-01  0.3476478E+00
         13   -1    0    0    0    0  0.00000000000E+00  0.00000000000E+00  0.14999999963E+04  0.15000000000E+04  0.10566000000E+00 0. -1.
        994   -1    0    0    0    0 -0.00000000000E+00 -0.00000000000E+00  0.11368683772E-12  0.17120000000E+03  0.17120000000E+03 0.  0.
         13    1    1    2    0    0  0.17886518072E+02 -0.14771315221E+02  0.34600102345E+02  0.41656902530E+02  0.10566000000E+00 0. -1.
        994    1    1    2    0    0 -0.18346472730E+02  0.13825567331E+02  0.88526212901E+01  0.17296111782E+03  0.17120000000E+03 0.  0.
        998    1    1    2    0    0  0.45995465790E+00  0.94574788957E+00  0.14565472726E+04  0.14565819797E+04  0.10000000000E+02 0. -1.
</event>
<event>
 5    1  0.1688215E-008  0.2711351E+03  0.7957747E-01  0.4126398E+00
         13   -1    0    0    0    0  0.00000000000E+00  0.00000000000E+00  0.14999999963E+04  0.15000000000E+04  0.10566000000E+00 0.  1.
        994   -1    0    0    0    0 -0.00000000000E+00 -0.00000000000E+00  0.11368683772E-12  0.17120000000E+03  0.17120000000E+03 0.  0.
         13    1    1    2    0    0 -0.15959962274E+03  0.46040647015E+02  0.48068681414E+03  0.50857802273E+03  0.10566000000E+00 0.  1.
        994    1    1    2    0    0  0.17062779547E+03  0.26841453151E+02  0.14089699207E+03  0.28106175579E+03  0.17120000000E+03 0.  0.
        998    1    1    2    0    0 -0.11028172725E+02 -0.72882100166E+02  0.87841619007E+03  0.88156022148E+03  0.10000000000E+02 0.  1.
</event>
<event>
 5    1  0.1688215E-008  0.3731208E+03  0.7957747E-01  0.3481670E+00
         13   -1    0    0    0    0  0.00000000000E+00  0.00000000000E+00  0.14999999963E+04  0.15000000000E+04  0.10566000000E+00 0. -1.
        994   -1    0    0    0    0 -0.00000000000E+00 -0.00000000000E+00  0.11368683772E-12  0.17120000000E+03  0.17120000000E+03 0.  0.
         13    1    1    2    0    0 -0.61234817457E+01  0.62492035758E+02  0.16077573001E+03  0.17260242781E+03  0.10566000000E+00 0. -1.
        994    1    1    2    0    0 -0.15523605981E+02 -0.27639893983E+02  0.16158945292E+02  0.17485850736E+03  0.17120000000E+03 0.  0.
        998    1    1    2    0    0  0.21647087727E+02 -0.34852141775E+02  0.13230653210E+04  0.13237390648E+04  0.10000000000E+02 0. -1.
</event>
<event>
 5    1  0.1688215E-008  0.3854429E+03  0.7957747E-01  0.3427796E+00
         13   -1    0    0    0    0  0.00000000000E+00  0.00000000000E+00  0.14999999963E+04  0.15000000000E+04  0.10566000000E+00 0.  1.
        994   -1    0    0    0    0 -0.00000000000E+00 -0.00000000000E+00  0.11368683772E-12  0.17120000000E+03  0.17120000000E+03 0.  0.
         13    1    1    2    0    0 -0.38548524584E+01 -0.13199633044E+02  0.67406471706E+02  0.68794867481E+02  0.10566000000E+00 0.  1.
        994    1    1    2    0    0  0.95025037917E-01  0.92850140533E+01  0.16936208268E+01  0.17145999203E+03  0.17120000000E+03 0.  0.
        998    1    1    2    0    0  0.37598274205E+01  0.39146189903E+01  0.14308999037E+04  0.14309451405E+04  0.10000000000E+02 0.  1.
</event>
<event>
 5    1  0.1688215E-008  0.3816399E+03  0.7957747E-01  0.3444049E+00
         13   -1    0    0    0    0  0.00000000000E+00  0.00000000000E+00  0.14999999963E+04  0.15000000000E+04  0.10566000000E+00 0. -1.
        994   -1    0    0    0    0 -0.00000000000E+00 -0.00000000000E+00  0.11368683772E-12  0.17120000000E+03  0.17120000000E+03 0.  0.
         13    1    1    2    0    0 -0.36863026188E+01  0.21969232950E+02  0.72315936954E+02  0.75669293144E+02  0.10566000000E+00 0. -1.
        994    1    1    2    0    0  0.13541646670E+01 -0.18612227764E+02  0.44663388988E+01  0.17227198544E+03  0.17120000000E+03 0.  0.
        998    1    1    2    0    0  0.23321379518E+01 -0.33570051865E+01  0.14232177204E+04  0.14232587214E+04  0.10000000000E+02 0. -1.
</event>
<event>
 5    1  0.1688215E-008  0.3788965E+03  0.7957747E-01  0.3455977E+00
         13   -1    0    0    0    0  0.00000000000E+00  0.00000000000E+00  0.14999999963E+04  0.15000000000E+04  0.10566000000E+00 0. -1.
        994   -1    0    0    0    0 -0.00000000000E+00 -0.00000000000E+00  0.11368683772E-12  0.17120000000E+03  0.17120000000E+03 0.  0.
         13    1    1    2    0    0 -0.46056311755E+00  0.14177817558E+02  0.19453423818E+02  0.24076326368E+02  0.10566000000E+00 0. -1.
        994    1    1    2    0    0 -0.97479282235E+01 -0.10412723387E+02  0.53741071030E+01  0.17187718854E+03  0.17120000000E+03 0.  0.
        998    1    1    2    0    0  0.10208491341E+02 -0.37650941711E+01  0.14751724654E+04  0.14752464851E+04  0.10000000000E+02 0. -1.
</event>
<event>
 5    1  0.1688215E-008  0.3732544E+03  0.7957747E-01  0.3481067E+00
         13   -1    0    0    0    0  0.00000000000E+00  0.00000000000E+00  0.14999999963E+04  0.15000000000E+04  0.10566000000E+00 0.  1.
        994   -1    0    0    0    0 -0.00000000000E+00 -0.00000000000E+00  0.11368683772E-12  0.17120000000E+03  0.17120000000E+03 0.  0.
         13    1    1    2    0    0  0.21532171750E+02  0.49131002934E+02  0.11640211317E+03  0.12816767527E+03  0.10566000000E+00 0.  1.
        994    1    1    2    0    0 -0.85316242199E+02  0.18505565802E+02  0.40135829466E+02  0.19632025355E+03  0.17120000000E+03 0.  0.
        998    1    1    2    0    0  0.63784070449E+02 -0.67636568736E+02  0.13434620536E+04  0.13467120712E+04  0.10000000000E+02 0.  1.
</event>
<event>
 5    1  0.1688215E-008  0.3861209E+03  0.7957747E-01  0.3424932E+00
         13   -1    0    0    0    0  0.00000000000E+00  0.00000000000E+00  0.14999999963E+04  0.15000000000E+04  0.10566000000E+00 0. -1.
        994   -1    0    0    0    0 -0.00000000000E+00 -0.00000000000E+00  0.11368683772E-12  0.17120000000E+03  0.17120000000E+03 0.  0.
         13    1    1    2    0    0 -0.94120135516E+01 -0.93580102939E+01  0.80050332728E+02  0.81143239334E+02  0.10566000000E+00 0. -1.
        994    1    1    2    0    0  0.81171794597E+01  0.10308711023E+02  0.16389493630E+01  0.17170988405E+03  0.17120000000E+03 0.  0.
        998    1    1    2    0    0  0.12948340919E+01 -0.95070072899E+00  0.14183107142E+04  0.14183468766E+04  0.10000000000E+02 0. -1.
</event>
<event>
 5    1  0.1688215E-008  0.3847224E+03  0.7957747E-01  0.3430850E+00
         13   -1    0    0    0    0  0.00000000000E+00  0.00000000000E+00  0.14999999963E+04  0.15000000000E+04  0.10566000000E+00 0.  1.
        994   -1    0    0    0    0 -0.00000000000E+00 -0.00000000000E+00  0.11368683772E-12  0.17120000000E+03  0.17120000000E+03 0.  0.
         13    1    1    2    0    0  0.11970218278E+02 -0.13439009703E+02  0.94737319659E+02  0.96431654593E+02  0.10566000000E+00 0.  1.
        994    1    1    2    0    0 -0.19011465868E+02 -0.70780386705E+01  0.31237861724E+01  0.17242602039E+03  0.17120000000E+03 0.  0.
        998    1    1    2    0    0  0.70412475893E+01  0.20517048373E+02  0.14021388904E+04  0.14023423250E+04  0.10000000000E+02 0.  1.
</event>
<event>
 5    1  0.1688215E-008  0.3854703E+03  0.7957747E-01  0.3427680E+00
         13   -1    0    0    0    0  0.00000000000E+00  0.00000000000E+00  0.14999999963E+04  0.15000000000E+04  0.10566000000E+00 0.  1.
        994   -1    0    0    0    0 -0.00000000000E+00 -0.00000000000E+00  0.11368683772E-12  0.17120000000E+03  0.17120000000E+03 0.  0.
         13    1    1    2    0    0  0.92373597431E+01  0.45723042143E+01  0.40579772038E+02  0.41868411047E+02  0.10566000000E+00 0.  1.
        994    1    1    2    0    0  0.15832497793E+01  0.68295928741E+01  0.15582416582E+01  0.17135057086E+03  0.17120000000E+03 0.  0.
        998    1    1    2    0    0 -0.10820609522E+02 -0.11401897088E+02  0.14578619826E+04  0.14579810181E+04  0.10000000000E+02 0.  1.
</event>
<event>
 5    1  0.1688215E-008  0.3801734E+03  0.7957747E-01  0.3450404E+00
         13   -1    0    0    0    0  0.00000000000E+00  0.00000000000E+00  0.14999999963E+04  0.15000000000E+04  0.10566000000E+00 0. -1.
        994   -1    0    0    0    0 -0.00000000000E+00 -0.00000000000E+00  0.11368683772E-12  0.17120000000E+03  0.17120000000E+03 0.  0.
         13    1    1    2    0    0  0.27949637769E+02 -0.22396184260E+02  0.14744172510E+03  0.15172951192E+03  0.10566000000E+00 0. -1.
        994    1    1    2    0    0 -0.20242387858E+02  0.24786476758E+02  0.74748216380E+01  0.17432566264E+03  0.17120000000E+03 0.  0.
        998    1    1    2    0    0 -0.77072499103E+01 -0.23902924980E+01  0.13450834495E+04  0.13451448254E+04  0.10000000000E+02 0. -1.
</event>
<event>
 5    1  0.1688215E-008  0.3809116E+03  0.7957747E-01  0.3447199E+00
         13   -1    0    0    0    0  0.00000000000E+00  0.00000000000E+00  0.14999999963E+04  0.15000000000E+04  0.10566000000E+00 0.  1.
        994   -1    0    0    0    0 -0.00000000000E+00 -0.00000000000E+00  0.11368683772E-12  0.17120000000E+03  0.17120000000E+03 0.  0.
         13    1    1    2    0    0 -0.70801631740E+01  0.88233111852E+01  0.16075638518E+02  0.19657488360E+02  0.10566000000E+00 0.  1.
        994    1    1    2    0    0 -0.21473059894E+01 -0.58263922726E+01  0.38021847025E+01  0.17135476176E+03  0.17120000000E+03 0.  0.
        998    1    1    2    0    0  0.92274691634E+01 -0.29969189126E+01  0.14801221731E+04  0.14801877499E+04  0.10000000000E+02 0.  1.
</event>
<event>
 5    1  0.1688215E-008  0.3844568E+03  0.7957747E-01  0.3431979E+00
         13   -1    0    0    0    0  0.00000000000E+00  0.00000000000E+00  0.14999999963E+04  0.15000000000E+04  0.10566000000E+00 0.  1.
        994   -1    0    0    0    0 -0.00000000000E+00 -0.00000000000E+00  0.11368683772E-12  0.17120000000E+03  0.17120000000E+03 0.  0.
         13    1    1    2    0    0  0.11496440907E+02 -0.28197450607E+01  0.35646469505E+02  0.37560631889E+02  0.10566000000E+00 0.  1.
        994    1    1    2    0    0 -0.13650183999E+02  0.12001136259E+00  0.25142039182E+01  0.17176176276E+03  0.17120000000E+03 0.  0.
        998    1    1    2    0    0  0.21537430925E+01  0.26997336981E+01  0.14618393229E+04  0.14618776053E+04  0.10000000000E+02 0.  1.
</event>
<event>
 5    1  0.1688215E-008  0.3851522E+03  0.7957747E-01  0.3429027E+00
         13   -1    0    0    0    0  0.00000000000E+00  0.00000000000E+00  0.14999999963E+04  0.15000000000E+04  0.10566000000E+00 0.  1.
        994   -1    0    0    0    0 -0.00000000000E+00 -0.00000000000E+00  0.11368683772E-12  0.17120000000E+03  0.17120000000E+03 0.  0.
         13    1    1    2    0    0 -0.82014361098E+01  0.11327413273E+02  0.61031148293E+02  0.62612986446E+02  0.10566000000E+00 0.  1.
        994    1    1    2    0    0  0.84700685298E+01 -0.11556269801E+02  0.22296604788E+01  0.17181298210E+03  0.17120000000E+03 0.  0.
        998    1    1    2    0    0 -0.26863241998E+00  0.22885652758E+00  0.14367391875E+04  0.14367740315E+04  0.10000000000E+02 0.  0.
</event>
<event>
 5    1  0.1688215E-008  0.3760446E+03  0.7957747E-01  0.3468564E+00
         13   -1    0    0    0    0  0.00000000000E+00  0.00000000000E+00  0.14999999963E+04  0.15000000000E+04  0.10566000000E+00 0. -1.
        994   -1    0    0    0    0 -0.00000000000E+00 -0.00000000000E+00  0.11368683772E-12  0.17120000000E+03  0.17120000000E+03 0.  0.
         13    1    1    2    0    0  0.59699234630E+02  0.15577394178E+03  0.79166746436E+03  0.80905309148E+03  0.10566000000E+00 0. -1.
        994    1    1    2    0    0 -0.48990322947E+02 -0.16964773221E+03  0.12034197047E+03  0.27381021647E+03  0.17120000000E+03 0.  0.
        998    1    1    2    0    0 -0.10708911683E+02  0.13873790429E+02  0.58799056145E+03  0.58833669205E+03  0.10000000000E+02 0.  1.
</event>
<event>
 5    1  0.1688215E-008  0.3852083E+03  0.7957747E-01  0.3428789E+00
         13   -1    0    0    0    0  0.00000000000E+00  0.00000000000E+00  0.14999999963E+04  0.15000000000E+04  0.10566000000E+00 0. -1.
        994   -1    0    0    0    0 -0.00000000000E+00 -0.00000000000E+00  0.11368683772E-12  0.17120000000E+03  0.17120000000E+03 0.  0.
         13    1    1    2    0    0 -0.50824962274E+01 -0.10991153909E+02  0.48339259832E+02  0.49833045636E+02  0.10566000000E+00 0. -1.
        994    1    1    2    0    0  0.52015879319E+01  0.54198629038E+01  0.17122601588E+01  0.17137328632E+03  0.17120000000E+03 0.  0.
        998    1    1    2    0    0 -0.11909170443E+00  0.55712910050E+01  0.14499484763E+04  0.14499936680E+04  0.10000000000E+02 0. -1.
</event>
<event>
 5    1  0.1688215E-008  0.3818221E+03  0.7957747E-01  0.3443263E+00
         13   -1    0    0    0    0  0.00000000000E+00  0.00000000000E+00  0.14999999963E+04  0.15000000000E+04  0.10566000000E+00 0.  1.
        994   -1    0    0    0    0 -0.00000000000E+00 -0.00000000000E+00  0.11368683772E-12  0.17120000000E+03  0.17120000000E+03 0.  0.
         13    1    1    2    0    0  0.19261562684E+02 -0.20851851841E+02  0.11947704193E+03  0.12280302209E+03  0.10566000000E+00 0.  1.
        994    1    1    2    0    0 -0.10755130925E+02  0.21912012888E+02  0.51985060114E+01  0.17300946106E+03  0.17120000000E+03 0.  0.
        998    1    1    2    0    0 -0.85064317595E+01 -0.10601610470E+01  0.13753244483E+04  0.13753875169E+04  0.10000000000E+02 0.  1.
</event>
<event>
 5    1  0.1688215E-008  0.3770186E+03  0.7957747E-01  0.3464244E+00
         13   -1    0    0    0    0  0.00000000000E+00  0.00000000000E+00  0.14999999963E+04  0.15000000000E+04  0.10566000000E+00 0. -1.
        994   -1    0    0    0    0 -0.00000000000E+00 -0.00000000000E+00  0.11368683772E-12  0.17120000000E+03  0.17120000000E+03 0.  0.
         13    1    1    2    0    0 -0.41530047852E+01  0.14088696562E+02  0.16373376277E+02  0.21996305015E+02  0.10566000000E+00 0. -1.
        994    1    1    2    0    0  0.72050680991E+01 -0.16192638263E+02  0.67070069876E+01  0.17224557609E+03  0.17120000000E+03 0.  0.
        998    1    1    2    0    0 -0.30520633140E+01  0.21039417010E+01  0.14769196130E+04  0.14769581189E+04  0.10000000000E+02 0. -1.
</event>
<event>
 5    1  0.1688215E-008  0.3826390E+03  0.7957747E-01  0.3439748E+00
         13   -1    0    0    0    0  0.00000000000E+00  0.00000000000E+00  0.14999999963E+04  0.15000000000E+04  0.10566000000E+00 0. -1.
        994   -1    0    0    0    0 -0.00000000000E+00 -0.00000000000E+00  0.11368683772E-12  0.17120000000E+03  0.17120000000E+03 0.  0.
         13    1    1    2    0    0 -0.69402999306E+02  0.21973250650E+03  0.10372110183E+04  0.10624998158E+04  0.10566000000E+00 0. -1.
        994    1    1    2    0    0  0.58307427065E+02 -0.23608422967E+03  0.23288138010E+03  0.37772833723E+03  0.17120000000E+03 0.  0.
        998    1    1    2    0    0  0.11095572241E+02  0.16351723175E+02  0.22990759784E+03  0.23097184702E+03  0.10000000000E+02 0. -1.
</event>
<event>
 5    1  0.1688215E-008  0.3810500E+03  0.7957747E-01  0.3446599E+00
         13   -1    0    0    0    0  0.00000000000E+00  0.00000000000E+00  0.14999999963E+04  0.15000000000E+04  0.10566000000E+00 0. -1.
        994   -1    0    0    0    0 -0.00000000000E+00 -0.00000000000E+00  0.11368683772E-12  0.17120000000E+03  0.17120000000E+03 0.  0.
         13    1    1    2    0    0 -0.82244904683E+01  0.79458039340E+01  0.16091572623E+02  0.19741527730E+02  0.10566000000E+00 0. -1.
        994    1    1    2    0    0  0.17267387937E+02 -0.11965998929E+02  0.50757051977E+01  0.17255883229E+03  0.17120000000E+03 0.  0.
        998    1    1    2    0    0 -0.90428974688E+01  0.40201949947E+01  0.14788327185E+04  0.14788996400E+04  0.10000000000E+02 0. -1.
</event>
<event>
 5    1  0.1688215E-008  0.3797035E+03  0.7957747E-01  0.3452451E+00
         13   -1    0    0    0    0  0.00000000000E+00  0.00000000000E+00  0.14999999963E+04  0.15000000000E+04  0.10566000000E+00 0. -1.
        994   -1    0    0    0    0 -0.00000000000E+00 -0.00000000000E+00  0.11368683772E-12  0.17120000000E+03  0.17120000000E+03 0.  0.
         13    1    1    2    0    0 -0.29571050368E+02  0.15263951758E+02  0.13431107894E+03  0.13837236839E+03  0.10566000000E+00 0. -1.
        994    1    1    2    0    0  0.11682278387E+02 -0.22420923861E+01  0.47565510469E+01  0.17167867481E+03  0.17120000000E+03 0.  0.
        998    1    1    2    0    0  0.17888771981E+02 -0.13021859372E+02  0.13609323663E+04  0.13611489568E+04  0.10000000000E+02 0. -1.
</event>
<event>
 5    1  0.1688215E-008  0.3840908E+03  0.7957747E-01  0.3433537E+00
         13   -1    0    0    0    0  0.00000000000E+00  0.00000000000E+00  0.14999999963E+04  0.15000000000E+04  0.10566000000E+00 0.  1.
        994   -1    0    0    0    0 -0.00000000000E+00 -0.00000000000E+00  0.11368683772E-12  0.17120000000E+03  0.17120000000E+03 0.  0.
         13    1    1    2    0    0  0.14243559159E+02  0.11738486684E+02  0.68328397985E+02  0.70777483583E+02  0.10566000000E+00 0.  1.
        994    1    1    2    0    0 -0.35009331942E+02 -0.25011538220E+02  0.82123134296E+01  0.17671477714E+03  0.17120000000E+03 0.  0.
        998    1    1    2    0    0  0.20765772784E+02  0.13273051536E+02  0.14234592849E+04  0.14237077393E+04  0.10000000000E+02 0.  1.
</event>
<event>
 5    1  0.1688215E-008  0.3839561E+03  0.7957747E-01  0.3434112E+00
         13   -1    0    0    0    0  0.00000000000E+00  0.00000000000E+00  0.14999999963E+04  0.15000000000E+04  0.10566000000E+00 0.  1.
        994   -1    0    0    0    0 -0.00000000000E+00 -0.00000000000E+00  0.11368683772E-12  0.17120000000E+03  0.17120000000E+03 0.  0.
         13    1    1    2    0    0 -0.14570644726E+02 -0.95027370166E+01  0.69216794692E+02  0.71369331859E+02  0.10566000000E+00 0.  1.
        994    1    1    2    0    0  0.11476583331E+02  0.64112005510E+01  0.27197585760E+01  0.17172551512E+03  0.17120000000E+03 0.  0.
        998    1    1    2    0    0  0.30940613949E+01  0.30915364656E+01  0.14280634430E+04  0.14281051530E+04  0.10000000000E+02 0.  1.
</event>
<event>
 5    1  0.1688215E-008  0.3764122E+03  0.7957747E-01  0.3466931E+00
         13   -1    0    0    0    0  0.00000000000E+00  0.00000000000E+00  0.14999999963E+04  0.15000000000E+04  0.10566000000E+00 0.  1.
        994   -1    0    0    0    0 -0.00000000000E+00 -0.00000000000E+00  0.11368683772E-12  0.17120000000E+03  0.17120000000E+03 0.  0.
         13    1    1    2    0    0  0.12204790205E+02 -0.26993063056E+00 -0.14964534156E+01  0.12299605821E+02  0.10566000000E+00 0.  1.
        994    1    1    2    0    0 -0.12975483356E+02 -0.47796148479E+01  0.15054493892E+02  0.17241602499E+03  0.17120000000E+03 0.  0.
        998    1    1    2    0    0  0.77069315047E+00  0.50495454785E+01  0.14864419558E+04  0.14864843692E+04  0.10000000000E+02 0.  1.
</event>
<event>
 5    1  0.1688215E-008  0.3775238E+03  0.7957747E-01  0.3462012E+00
         13   -1    0    0    0    0  0.00000000000E+00  0.00000000000E+00  0.14999999963E+04  0.15000000000E+04  0.10566000000E+00 0.  1.
        994   -1    0    0    0    0 -0.00000000000E+00 -0.00000000000E+00  0.11368683772E-12  0.17120000000E+03  0.17120000000E+03 0.  0.
         13    1    1    2    0    0 -0.18499628682E+02  0.97836833444E+01  0.37888259737E+02  0.43283808879E+02  0.10566000000E+00 0.  1.
        994    1    1    2    0    0  0.16465760019E+02 -0.99262963781E+01  0.66352685692E+01  0.17240394254E+03  0.17120000000E+03 0.  0.
        998    1    1    2    0    0  0.20338686633E+01  0.14261303367E+00  0.14554764680E+04  0.14555122486E+04  0.10000000000E+02 0.  1.
</event>
<event>
 5    1  0.1688215E-008  0.3854619E+03  0.7957747E-01  0.3427716E+00
         13   -1    0    0    0    0  0.00000000000E+00  0.00000000000E+00  0.14999999963E+04  0.15000000000E+04  0.10566000000E+00 0.  1.
        994   -1    0    0    0    0 -0.00000000000E+00 -0.00000000000E+00  0.11368683772E-12  0.17120000000E+03  0.17120000000E+03 0.  0.
         13    1    1    2    0    0 -0.14054195491E+02  0.60503606001E+01  0.86936633326E+02  0.88272966713E+02  0.10566000000E+00 0.  1.
        994    1    1    2    0    0  0.68057754078E+01  0.17384023587E+01  0.15630222711E+01  0.17135117058E+03  0.17120000000E+03 0.  0.
        998    1    1    2    0    0  0.72484200835E+01 -0.77887629588E+01  0.14115003407E+04  0.14115758627E+04  0.10000000000E+02 0.  1.
</event>
<event>
 5    1  0.1688215E-008  0.3725771E+03  0.7957747E-01  0.3484130E+00
         13   -1    0    0    0    0  0.00000000000E+00  0.00000000000E+00  0.14999999963E+04  0.15000000000E+04  0.10566000000E+00 0. -1.
        994   -1    0    0    0    0 -0.00000000000E+00 -0.00000000000E+00  0.11368683772E-12  0.17120000000E+03  0.17120000000E+03 0.  0.
         13    1    1    2    0    0 -0.31292565507E+01 -0.12466414327E+02  0.98502622728E+00  0.12891282847E+02  0.10566000000E+00 0. -1.
        994    1    1    2    0    0  0.41425073817E+01  0.13749516540E+02  0.13035845671E+02  0.17229504591E+03  0.17120000000E+03 0.  0.
        998    1    1    2    0    0 -0.10132508310E+01 -0.12831022121E+01  0.14859791244E+04  0.14860136712E+04  0.10000000000E+02 0. -1.
</event>
<event>
 5    1  0.1688215E-008  0.3856880E+03  0.7957747E-01  0.3426759E+00
         13   -1    0    0    0    0  0.00000000000E+00  0.00000000000E+00  0.14999999963E+04  0.15000000000E+04  0.10566000000E+00 0. -1.
        994   -1    0    0    0    0 -0.00000000000E+00 -0.00000000000E+00  0.11368683772E-12  0.17120000000E+03  0.17120000000E+03 0.  0.
         13    1    1    2    0    0  0.67092351211E+01 -0.77944112494E+01  0.41493670267E+02  0.42749298461E+02  0.10566000000E+00 0. -1.
        994    1    1    2    0    0 -0.13637413711E+01  0.67703332120E+01  0.14454476542E+01  0.17134534286E+03  0.17120000000E+03 0.  0.
        998    1    1    2    0    0 -0.53454937500E+01  0.10240780374E+01  0.14570608784E+04  0.14571053587E+04  0.10000000000E+02 0. -1.
</event>
<event>
 5    1  0.1688215E-008  0.3686288E+03  0.7957747E-01  0.3502216E+00
         13   -1    0    0    0    0  0.00000000000E+00  0.00000000000E+00  0.14999999963E+04  0.15000000000E+04  0.10566000000E+00 0.  1.
        994   -1    0    0    0    0 -0.00000000000E+00 -0.00000000000E+00  0.11368683772E-12  0.17120000000E+03  0.17120000000E+03 0.  0.
         13    1    1    2    0    0  0.80066949660E+00 -0.39971282397E+02  0.73216818063E+02  0.83420969183E+02  0.10566000000E+00 0.  1.
        994    1    1    2    0    0 -0.42134316004E+01  0.38928563112E+02  0.15332827472E+02  0.17628874505E+03  0.17120000000E+03 0.  0.
        998    1    1    2    0    0  0.34127621038E+01  0.10427192848E+01  0.14114503507E+04  0.14114902858E+04  0.10000000000E+02 0.  1.
</event>
<event>
 5    1  0.1688215E-008  0.3854467E+03  0.7957747E-01  0.3427780E+00
         13   -1    0    0    0    0  0.00000000000E+00  0.00000000000E+00  0.14999999963E+04  0.15000000000E+04  0.10566000000E+00 0. -1.
        994   -1    0    0    0    0 -0.00000000000E+00 -0.00000000000E+00  0.11368683772E-12  0.17120000000E+03  0.17120000000E+03 0.  0.
         13    1    1    2    0    0 -0.10059891844E+02  0.46609732740E+01  0.43365485549E+02  0.44760502642E+02  0.10566000000E+00 0. -1.
        994    1    1    2    0    0  0.90958517696E+01 -0.20668835765E+01  0.16943013814E+01  0.17146229085E+03  0.17120000000E+03 0.  0.
        998    1    1    2    0    0  0.96404007433E+00 -0.25940896975E+01  0.14549402093E+04  0.14549772065E+04  0.10000000000E+02 0. -1.
</event>
<event>
 5    1  0.1688215E-008  0.3827806E+03  0.7957747E-01  0.3439140E+00
         13   -1    0    0    0    0  0.00000000000E+00  0.00000000000E+00  0.14999999963E+04  0.15000000000E+04  0.10566000000E+00 0.  1.
        994   -1    0    0    0    0 -0.00000000000E+00 -0.00000000000E+00  0.11368683772E-12  0.17120000000E+03  0.17120000000E+03 0.  0.
         13    1    1    2    0    0 -0.39515558127E+02  0.63839095470E+01  0.23422781572E+03  0.23762347202E+03  0.10566000000E+00 0.  1.
        994    1    1    2    0    0  0.45938275586E+02 -0.74053054776E+01  0.99414614460E+01  0.17768915659E+03  0.17120000000E+03 0.  0.
        998    1    1    2    0    0 -0.64227174596E+01  0.10213959307E+01  0.12558307191E+04  0.12558873714E+04  0.10000000000E+02 0.  1.
</event>
<event>
 5    1  0.1688215E-008  0.3824386E+03  0.7957747E-01  0.3440609E+00
         13   -1    0    0    0    0  0.00000000000E+00  0.00000000000E+00  0.14999999963E+04  0.15000000000E+04  0.10566000000E+00 0.  1.
        994   -1    0    0    0    0 -0.00000000000E+00 -0.00000000000E+00  0.11368683772E-12  0.17120000000E+03  0.17120000000E+03 0.  0.
         13    1    1    2    0    0  0.21283701722E+02  0.13039325870E+02  0.11548822535E+03  0.11815481935E+03  0.10566000000E+00 0.  1.
        994    1    1    2    0    0 -0.96376142039E+00 -0.32975556689E+01  0.29463548787E+01  0.17125981349E+03  0.17120000000E+03 0.  0.
        998    1    1    2    0    0 -0.20319940302E+02 -0.97417702010E+01  0.13815654161E+04  0.13817853672E+04  0.10000000000E+02 0.  1.
</event>
<event>
 5    1  0.1688215E-008  0.3836012E+03  0.7957747E-01  0.3435626E+00
         13   -1    0    0    0    0  0.00000000000E+00  0.00000000000E+00  0.14999999963E+04  0.15000000000E+04  0.10566000000E+00 0. -1.
        994   -1    0    0    0    0 -0.00000000000E+00 -0.00000000000E+00  0.11368683772E-12  0.17120000000E+03  0.17120000000E+03 0.  0.
         13    1    1    2    0    0  0.16637697363E+02  0.35140834229E+01  0.67731237564E+02  0.69833326297E+02  0.10566000000E+00 0. -1.
        994    1    1    2    0    0  0.42573352244E+01  0.87927024000E+01  0.26415541250E+01  0.17149884643E+03  0.17120000000E+03 0.  0.
        998    1    1    2    0    0 -0.20895032588E+02 -0.12306785823E+02  0.14296272046E+04  0.14298678273E+04  0.10000000000E+02 0. -1.
</event>
<event>
 5    1  0.1688215E-008  0.3701280E+03  0.7957747E-01  0.3495303E+00
         13   -1    0    0    0    0  0.00000000000E+00  0.00000000000E+00  0.14999999963E+04  0.15000000000E+04  0.10566000000E+00 0. -1.
        994   -1    0    0    0    0 -0.00000000000E+00 -0.00000000000E+00  0.11368683772E-12  0.17120000000E+03  0.17120000000E+03 0.  0.
         13    1    1    2    0    0 -0.27247568711E+02 -0.10096451081E+02  0.37332659094E+02  0.47308634774E+02  0.10566000000E+00 0. -1.
        994    1    1    2    0    0 -0.21482349214E+02  0.64664056553E+01  0.12768807354E+02  0.17313517312E+03  0.17120000000E+03 0.  0.
        998    1    1    2    0    0  0.48729917925E+02  0.36300454256E+01  0.14498985298E+04  0.14507561921E+04  0.10000000000E+02 0. -1.
</event>
<event>
 5    1  0.1688215E-008  0.3845999E+03  0.7957747E-01  0.3431371E+00
         13   -1    0    0    0    0  0.00000000000E+00  0.00000000000E+00  0.14999999963E+04  0.15000000000E+04  0.10566000000E+00 0.  1.
        994   -1    0    0    0    0 -0.00000000000E+00 -0.00000000000E+00  0.11368683772E-12  0.17120000000E+03  0.17120000000E+03 0.  0.
         13    1    1    2    0    0  0.11367564437E+02 -0.17601902595E+02  0.12347962056E+03  0.12524486558E+03  0.10566000000E+00 0.  1.
        994    1    1    2    0    0 -0.22143771686E+02 -0.21710734841E+01  0.34607814403E+01  0.17267448333E+03  0.17120000000E+03 0.  0.
        998    1    1    2    0    0  0.10776207249E+02  0.19772976079E+02  0.13730595943E+04  0.13732806511E+04  0.10000000000E+02 0.  1.
</event>
<event>
 5    1  0.1688215E-008  0.3844799E+03  0.7957747E-01  0.3431881E+00
         13   -1    0    0    0    0  0.00000000000E+00  0.00000000000E+00  0.14999999963E+04  0.15000000000E+04  0.10566000000E+00 0. -1.
        994   -1    0    0    0    0 -0.00000000000E+00 -0.00000000000E+00  0.11368683772E-12  0.17120000000E+03  0.17120000000E+03 0.  0.
         13    1    1    2    0    0 -0.16670410775E+02 -0.28983915537E+01  0.79436672489E+02  0.81218836295E+02  0.10566000000E+00 0. -1.
        994    1    1    2    0    0 -0.22000701096E+00  0.25919733013E+02  0.41050105706E+01  0.17319980391E+03  0.17120000000E+03 0.  0.
        998    1    1    2    0    0  0.16890417786E+02 -0.23021341459E+02  0.14164583132E+04  0.14167813598E+04  0.10000000000E+02 0. -1.
</event>
<event>
 5    1  0.1688215E-008  0.3834474E+03  0.7957747E-01  0.3436284E+00
         13   -1    0    0    0    0  0.00000000000E+00  0.00000000000E+00  0.14999999963E+04  0.15000000000E+04  0.10566000000E+00 0. -1.
        994   -1    0    0    0    0 -0.00000000000E+00 -0.00000000000E+00  0.11368683772E-12  0.17120000000E+03  0.17120000000E+03 0.  0.
         13    1    1    2    0    0 -0.10121068265E+02  0.14617066333E+02  0.68791967080E+02  0.71052378917E+02  0.10566000000E+00 0. -1.
        994    1    1    2    0    0  0.37499172921E+01  0.62957289019E+00  0.24507097835E+01  0.17125975657E+03  0.17120000000E+03 0.  0.
        998    1    1    2    0    0  0.63711509726E+01 -0.15246639223E+02  0.14287573194E+04  0.14288878645E+04  0.10000000000E+02 0. -1.
</event>
<event>
 5    1  0.1688215E-008  0.4005986E+03  0.7957747E-01  0.3366096E+00
         13   -1    0    0    0    0  0.00000000000E+00  0.00000000000E+00  0.14999999963E+04  0.15000000000E+04  0.10566000000E+00 0.  1.
        994   -1    0    0    0    0 -0.00000000000E+00 -0.00000000000E+00  0.11368683772E-12  0.17120000000E+03  0.17120000000E+03 0.  0.
         13    1    1    2    0    0  0.21010850746E+02  0.40423979522E+02  0.26740550014E+02  0.52826339534E+02  0.10566000000E+00 0.  1.
        994    1    1    2    0    0 -0.23450728544E+02 -0.21387904951E+02  0.32099689694E+02  0.17705143102E+03  0.17120000000E+03 0.  0.
        998    1    1    2    0    0  0.24398777981E+01 -0.19036074571E+02  0.14411597566E+04  0.14413222294E+04  0.10000000000E+02 0.  1.
</event>
<event>
 5    1  0.1688215E-008  0.3853077E+03  0.7957747E-01  0.3428368E+00
         13   -1    0    0    0    0  0.00000000000E+00  0.00000000000E+00  0.14999999963E+04  0.15000000000E+04  0.10566000000E+00 0.  1.
        994   -1    0    0    0    0 -0.00000000000E+00 -0.00000000000E+00  0.11368683772E-12  0.17120000000E+03  0.17120000000E+03 0.  0.
         13    1    1    2    0    0 -0.13428789402E+02  0.21606929704E+01  0.65705883227E+02  0.67098995772E+02  0.10566000000E+00 0.  1.
        994    1    1    2    0    0  0.27539770928E+01  0.27297373518E+01  0.15268304478E+01  0.17125071406E+03  0.17120000000E+03 0.  0.
        998    1    1    2    0    0  0.10674812309E+02 -0.48904303222E+01  0.14327672826E+04  0.14328502902E+04  0.10000000000E+02 0.  1.
</event>
<event>
 5    1  0.1688215E-008  0.3833769E+03  0.7957747E-01  0.3436585E+00
         13   -1    0    0    0    0  0.00000000000E+00  0.00000000000E+00  0.14999999963E+04  0.15000000000E+04  0.10566000000E+00 0. -1.
        994   -1    0    0    0    0 -0.00000000000E+00 -0.00000000000E+00  0.11368683772E-12  0.17120000000E+03  0.17120000000E+03 0.  0.
         13    1    1    2    0    0 -0.20131997526E+02  0.66504210021E+01  0.97264047118E+02  0.99548136344E+02  0.10566000000E+00 0. -1.
        994    1    1    2    0    0  0.29787433721E+01 -0.36037035589E+01  0.25103961050E+01  0.17128222815E+03  0.17120000000E+03 0.  0.
        998    1    1    2    0    0  0.17153254154E+02 -0.30467174431E+01  0.14002255531E+04  0.14003696355E+04  0.10000000000E+02 0. -1.
</event>
<event>
 5    1  0.1688215E-008  0.3695459E+03  0.7957747E-01  0.3497981E+00
         13   -1    0    0    0    0  0.00000000000E+00  0.00000000000E+00  0.14999999963E+04  0.15000000000E+04  0.10566000000E+00 0.  1.
        994   -1    0    0    0    0 -0.00000000000E+00 -0.00000000000E+00  0.11368683772E-12  0.17120000000E+03  0.17120000000E+03 0.  0.
         13    1    1    2    0    0 -0.74024423780E+02 -0.59784023238E+02  0.35437688120E+03  0.36692878034E+03  0.10566000000E+00 0.  1.
        994    1    1    2    0    0  0.77207777072E+02  0.57490838521E+02  0.42318412052E+02  0.20091422387E+03  0.17120000000E+03 0.  0.
        998    1    1    2    0    0 -0.31833532920E+01  0.22931847174E+01  0.11033047030E+04  0.11033569958E+04  0.10000000000E+02 0.  1.
</event>
<event>
 5    1  0.1688215E-008  0.3782611E+03  0.7957747E-01  0.3458765E+00
         13   -1    0    0    0    0  0.00000000000E+00  0.00000000000E+00  0.14999999963E+04  0.15000000000E+04  0.10566000000E+00 0. -1.
        994   -1    0    0    0    0 -0.00000000000E+00 -0.00000000000E+00  0.11368683772E-12  0.17120000000E+03  0.17120000000E+03 0.  0.
         13    1    1    2    0    0 -0.33561684893E+02 -0.33247298879E+02  0.26214378425E+03  0.26636656014E+03  0.10566000000E+00 0. -1.
        994    1    1    2    0    0  0.31768579188E+01  0.53426404432E+01  0.51434233747E+01  0.17138999690E+03  0.17120000000E+03 0.  0.
        998    1    1    2    0    0  0.30384826975E+02  0.27904658436E+02  0.12327127887E+04  0.12334434430E+04  0.10000000000E+02 0. -1.
</event>
<event>
 5    1  0.1688215E-008  0.3707119E+03  0.7957747E-01  0.3492626E+00
         13   -1    0    0    0    0  0.00000000000E+00  0.00000000000E+00  0.14999999963E+04  0.15000000000E+04  0.10566000000E+00 0. -1.
        994   -1    0    0    0    0 -0.00000000000E+00 -0.00000000000E+00  0.11368683772E-12  0.17120000000E+03  0.17120000000E+03 0.  0.
         13    1    1    2    0    0 -0.77283662166E+02  0.13704633499E+02  0.29866797633E+03  0.30880924965E+03  0.10566000000E+00 0. -1.
        994    1    1    2    0    0  0.68908059096E+02  0.57730203105E+01  0.25575578327E+02  0.18640063996E+03  0.17120000000E+03 0.  0.
        998    1    1    2    0    0  0.83756030700E+01 -0.19477653809E+02  0.11757564416E+04  0.11759901104E+04  0.10000000000E+02 0. -1.
</event>
<event>
 5    1  0.1688215E-008  0.3837289E+03  0.7957747E-01  0.3435081E+00
         13   -1    0    0    0    0  0.00000000000E+00  0.00000000000E+00  0.14999999963E+04  0.15000000000E+04  0.10566000000E+00 0.  1.
        994   -1    0    0    0    0 -0.00000000000E+00 -0.00000000000E+00  0.11368683772E-12  0.17120000000E+03  0.17120000000E+03 0.  0.
         13    1    1    2    0    0 -0.82715415422E+01  0.16306405077E+02  0.80123750421E+02  0.82183598069E+02  0.10566000000E+00 0.  1.
        994    1    1    2    0    0 -0.65450665393E+01 -0.37087856441E+00  0.24044548952E+01  0.17134233817E+03  0.17120000000E+03 0.  0.
        998    1    1    2    0    0  0.14816608082E+02 -0.15935526512E+02  0.14174717910E+04  0.14176740638E+04  0.10000000000E+02 0.  1.
</event>
<event>
 5    1  0.1688215E-008  0.3842415E+03  0.7957747E-01  0.3432896E+00
         13   -1    0    0    0    0  0.00000000000E+00  0.00000000000E+00  0.14999999963E+04  0.15000000000E+04  0.10566000000E+00 0. -1.
        994   -1    0    0    0    0 -0.00000000000E+00 -0.00000000000E+00  0.11368683772E-12  0.17120000000E+03  0.17120000000E+03 0.  0.
         13    1    1    2    0    0 -0.66662932434E+01  0.86457306562E+01  0.29528127392E+02  0.31481893137E+02  0.10566000000E+00 0. -1.
        994    1    1    2    0    0  0.19453159459E+01 -0.41081700878E+01  0.20753177268E+01  0.17127290579E+03  0.17120000000E+03 0.  0.
        998    1    1    2    0    0  0.47209772974E+01 -0.45375605684E+01  0.14683965512E+04  0.14684452011E+04  0.10000000000E+02 0. -1.
</event>
<event>
 5    1  0.1688215E-008  0.3796801E+03  0.7957747E-01  0.3452553E+00
         13   -1    0    0    0    0  0.00000000000E+00  0.00000000000E+00  0.14999999963E+04  0.15000000000E+04  0.10566000000E+00 0.  1.
        994   -1    0    0    0    0 -0.00000000000E+00 -0.00000000000E+00  0.11368683772E-12  0.17120000000E+03  0.17120000000E+03 0.  0.
         13    1    1    2    0    0 -0.14687627174E+02 -0.15494248920E+02  0.50118683654E+02  0.54476524823E+02  0.10566000000E+00 0.  1.
        994    1    1    2    0    0  0.16068516603E+02  0.13734874119E+02  0.57914851019E+01  0.17259729225E+03  0.17120000000E+03 0.  0.
        998    1    1    2    0    0 -0.13808894296E+01  0.17593748003E+01  0.14440898275E+04  0.14441261829E+04  0.10000000000E+02 0.  1.
</event>
<event>
 5    1  0.1688215E-008  0.3719532E+03  0.7957747E-01  0.3486962E+00
         13   -1    0    0    0    0  0.00000000000E+00  0.00000000000E+00  0.14999999963E+04  0.15000000000E+04  0.10566000000E+00 0.  1.
        994   -1    0    0    0    0 -0.00000000000E+00 -0.00000000000E+00  0.11368683772E-12  0.17120000000E+03  0.17120000000E+03 0.  0.
         13    1    1    2    0    0  0.67498541567E+01  0.24333422615E+02  0.36878046811E+02  0.44695385532E+02  0.10566000000E+00 0.  1.
        994    1    1    2    0    0 -0.12057794741E+02  0.23457580862E+01  0.87701177645E+01  0.17186403917E+03  0.17120000000E+03 0.  0.
        998    1    1    2    0    0  0.53079405842E+01 -0.26679180701E+02  0.14543518317E+04  0.14546405753E+04  0.10000000000E+02 0.  1.
</event>
<event>
 5    1  0.1688215E-008  0.3853654E+03  0.7957747E-01  0.3428124E+00
         13   -1    0    0    0    0  0.00000000000E+00  0.00000000000E+00  0.14999999963E+04  0.15000000000E+04  0.10566000000E+00 0. -1.
        994   -1    0    0    0    0 -0.00000000000E+00 -0.00000000000E+00  0.11368683772E-12  0.17120000000E+03  0.17120000000E+03 0.  0.
         13    1    1    2    0    0 -0.35265937540E+01  0.12838923418E+02  0.62679531748E+02  0.64078152925E+02  0.10566000000E+00 0. -1.
        994    1    1    2    0    0 -0.44231683829E+01 -0.71788733707E+01  0.16823959752E+01  0.17141578427E+03  0.17120000000E+03 0.  0.
        998    1    1    2    0    0  0.79497621369E+01 -0.56600500472E+01  0.14356380686E+04  0.14357060628E+04  0.10000000000E+02 0. -1.
</event>
<event>
 5    1  0.1688215E-008  0.3859465E+03  0.7957747E-01  0.3425668E+00
         13   -1    0    0    0    0  0.00000000000E+00  0.00000000000E+00  0.14999999963E+04  0.15000000000E+04  0.10566000000E+00 0. -1.
        994   -1    0    0    0    0 -0.00000000000E+00 -0.00000000000E+00  0.11368683772E-12  0.17120000000E+03  0.17120000000E+03 0.  0.
         13    1    1    2    0    0 -0.75492166831E+01 -0.11506799463E+02  0.73955415707E+02  0.75225074164E+02  0.10566000000E+00 0. -1.
        994    1    1    2    0    0 -0.83402338623E+01  0.34287031749E+02  0.52539703745E+01  0.17487768369E+03  0.17120000000E+03 0.  0.
        998    1    1    2    0    0  0.15889450545E+02 -0.22780232285E+02  0.14207906102E+04  0.14210972421E+04  0.10000000000E+02 0. -1.
</event>
<event>
 5    1  0.1688215E-008  0.4080575E+03  0.7957747E-01  0.3337406E+00
         13   -1    0    0    0    0  0.00000000000E+00  0.00000000000E+00  0.14999999963E+04  0.15000000000E+04  0.10566000000E+00 0. -1.
        994   -1    0    0    0    0 -0.00000000000E+00 -0.00000000000E+00  0.11368683772E-12  0.17120000000E+03  0.17120000000E+03 0.  0.
         13    1    1    2    0    0 -0.72905311185E+02 -0.28855230241E+02  0.73819101343E+02  0.10768973767E+03  0.10566000000E+00 0. -1.
        994    1    1    2    0    0  0.92986507765E+02  0.44236759795E+02  0.77080970474E+02  0.21413616591E+03  0.17120000000E+03 0.  0.
        998    1    1    2    0    0 -0.20081196579E+02 -0.15381529554E+02  0.13490999245E+04  0.13493740964E+04  0.10000000000E+02 0. -1.
</event>
<event>
 5    1  0.1688215E-008  0.3700704E+03  0.7957747E-01  0.3495567E+00
         13   -1    0    0    0    0  0.00000000000E+00  0.00000000000E+00  0.14999999963E+04  0.15000000000E+04  0.10566000000E+00 0.  1.
        994   -1    0    0    0    0 -0.00000000000E+00 -0.00000000000E+00  0.11368683772E-12  0.17120000000E+03  0.17120000000E+03 0.  0.
         13    1    1    2    0    0  0.27800420528E+02  0.10019236272E+03  0.51457284039E+03  0.52497294422E+03  0.10566000000E+00 0.  1.
        994    1    1    2    0    0 -0.61548199783E+02 -0.62990129641E+02  0.36542188988E+02  0.19596098822E+03  0.17120000000E+03 0.  0.
        998    1    1    2    0    0  0.33747779255E+02 -0.37202233075E+02  0.94888496690E+03  0.95026606756E+03  0.10000000000E+02 0.  1.
</event>
<event>
 5    1  0.1688215E-008  0.3854465E+03  0.7957747E-01  0.3427781E+00
         13   -1    0    0    0    0  0.00000000000E+00  0.00000000000E+00  0.14999999963E+04  0.15000000000E+04  0.10566000000E+00 0.  1.
        994   -1    0    0    0    0 -0.00000000000E+00 -0.00000000000E+00  0.11368683772E-12  0.17120000000E+03  0.17120000000E+03 0.  0.
         13    1    1    2    0    0 -0.57595599510E+01  0.11091265618E+02  0.58028471211E+02  0.59359104937E+02  0.10566000000E+00 0.  1.
        994    1    1    2    0    0 -0.27029176139E+01 -0.36011985379E+01  0.14752242016E+01  0.17126555603E+03  0.17120000000E+03 0.  0.
        998    1    1    2    0    0  0.84624775649E+01 -0.74900670797E+01  0.14404963009E+04  0.14405753390E+04  0.10000000000E+02 0.  1.
</event>
<event>
 5    1  0.1688215E-008  0.3859881E+03  0.7957747E-01  0.3425492E+00
         13   -1    0    0    0    0  0.00000000000E+00  0.00000000000E+00  0.14999999963E+04  0.15000000000E+04  0.10566000000E+00 0. -1.
        994   -1    0    0    0    0 -0.00000000000E+00 -0.00000000000E+00  0.11368683772E-12  0.17120000000E+03  0.17120000000E+03 0.  0.
         13    1    1    2    0    0  0.30981100398E+01 -0.13991573863E+02  0.86522704765E+02  0.87701493881E+02  0.10566000000E+00 0. -1.
        994    1    1    2    0    0  0.22832088248E+01  0.16169359888E+02  0.20149882781E+01  0.17198884097E+03  0.17120000000E+03 0.  0.
        998    1    1    2    0    0 -0.53813188645E+01 -0.21777860249E+01  0.14114623032E+04  0.14115096651E+04  0.10000000000E+02 0. -1.
</event>
<event>
 5    1  0.1688215E-008  0.3731889E+03  0.7957747E-01  0.3481362E+00
         13   -1    0    0    0    0  0.00000000000E+00  0.00000000000E+00  0.14999999963E+04  0.15000000000E+04  0.10566000000E+00 0. -1.
        994   -1    0    0    0    0 -0.00000000000E+00 -0.00000000000E+00  0.11368683772E-12  0.17120000000E+03  0.17120000000E+03 0.  0.
         13    1    1    2    0    0  0.59889358706E+02 -0.51059270668E+02  0.37004026729E+03  0.37831679184E+03  0.10566000000E+00 0. -1.
        994    1    1    2    0    0 -0.34206663477E+02  0.46734601764E+02  0.19171717592E+02  0.18174491350E+03  0.17120000000E+03 0.  0.
        998    1    1    2    0    0 -0.25682695229E+02  0.43246689042E+01  0.11107880114E+04  0.11111382947E+04  0.10000000000E+02 0. -1.
</event>
<event>
 5    1  0.1688215E-008  0.3794704E+03  0.7957747E-01  0.3453468E+00
         13   -1    0    0    0    0  0.00000000000E+00  0.00000000000E+00  0.14999999963E+04  0.15000000000E+04  0.10566000000E+00 0. -1.
        994   -1    0    0    0    0 -0.00000000000E+00 -0.00000000000E+00  0.11368683772E-12  0.17120000000E+03  0.17120000000E+03 0.  0.
         13    1    1    2    0    0 -0.11488126432E+01 -0.25837772468E+02  0.82717866767E+02  0.86666988543E+02  0.10566000000E+00 0. -1.
        994    1    1    2    0    0 -0.16386262242E+01 -0.66243336747E+01  0.45566932314E+01  0.17139652956E+03  0.17120000000E+03 0.  0.
        998    1    1    2    0    0  0.27874388674E+01  0.32462106143E+02  0.14127254363E+04  0.14131364819E+04  0.10000000000E+02 0. -1.
</event>
<event>
 5    1  0.1688215E-008  0.3715674E+03  0.7957747E-01  0.3488718E+00
         13   -1    0    0    0    0  0.00000000000E+00  0.00000000000E+00  0.14999999963E+04  0.15000000000E+04  0.10566000000E+00 0. -1.
        994   -1    0    0    0    0 -0.00000000000E+00 -0.00000000000E+00  0.11368683772E-12  0.17120000000E+03  0.17120000000E+03 0.  0.
         13    1    1    2    0    0  0.28067885067E+02  0.45932109667E+02  0.12751285215E+03  0.13840918863E+03  0.10566000000E+00 0. -1.
        994    1    1    2    0    0  0.19839689899E+02 -0.12773243908E+03  0.68307577771E+02  0.22513230436E+03  0.17120000000E+03 0.  0.
        998    1    1    2    0    0 -0.47907574966E+02  0.81800329408E+02  0.13041795664E+04  0.13076585070E+04  0.10000000000E+02 0. -1.
</event>
<event>
 5    1  0.1688215E-008  0.3959280E+03  0.7957747E-01  0.3384607E+00
         13   -1    0    0    0    0  0.00000000000E+00  0.00000000000E+00  0.14999999963E+04  0.15000000000E+04  0.10566000000E+00 0. -1.
        994   -1    0    0    0    0 -0.00000000000E+00 -0.00000000000E+00  0.11368683772E-12  0.17120000000E+03  0.17120000000E+03 0.  0.
         13    1    1    2    0    0 -0.51499499940E+02  0.32754934344E+02  0.62162236381E+02  0.87116238520E+02  0.10566000000E+00 0. -1.
        994    1    1    2    0    0  0.56184787170E+02 -0.25493613450E+02  0.40177154066E+02  0.18636066738E+03  0.17120000000E+03 0.  0.
        998    1    1    2    0    0 -0.46852872297E+01 -0.72613208933E+01  0.13976606058E+04  0.13977230941E+04  0.10000000000E+02 0. -1.
</event>
<event>
 5    1  0.1688215E-008  0.3779613E+03  0.7957747E-01  0.3460084E+00
         13   -1    0    0    0    0  0.00000000000E+00  0.00000000000E+00  0.14999999963E+04  0.15000000000E+04  0.10566000000E+00 0.  1.
        994   -1    0    0    0    0 -0.00000000000E+00 -0.00000000000E+00  0.11368683772E-12  0.17120000000E+03  0.17120000000E+03 0.  0.
         13    1    1    2    0    0  0.32911329441E+02 -0.70222663695E+01  0.10117518313E+03  0.10662502838E+03  0.10566000000E+00 0.  1.
        994    1    1    2    0    0 -0.37215036184E+02 -0.10880249113E+02  0.10242156877E+02  0.17583424159E+03  0.17120000000E+03 0.  0.
        998    1    1    2    0    0  0.43037067432E+01  0.17902515482E+02  0.13885826563E+04  0.13887407300E+04  0.10000000000E+02 0.  1.
</event>
<event>
 5    1  0.1898510E-008  0.3860108E+03  0.7957747E-01  0.3425397E+00
         13   -1    0    0    0    0  0.00000000000E+00  0.00000000000E+00  0.14999999963E+04  0.15000000000E+04  0.10566000000E+00 0. -1.
        994   -1    0    0    0    0 -0.00000000000E+00 -0.00000000000E+00  0.11368683772E-12  0.17120000000E+03  0.17120000000E+03 0.  0.
         13    1    1    2    0    0 -0.57395887110E+01 -0.84967172027E+01  0.47878405098E+02  0.48964169763E+02  0.10566000000E+00 0. -1.
        994    1    1    2    0    0 -0.15608883348E+01  0.64237749830E+01  0.12723801927E+01  0.17133230930E+03  0.17120000000E+03 0.  0.
        998    1    1    2    0    0  0.73004770458E+01  0.20729422197E+01  0.14508492110E+04  0.14509035209E+04  0.10000000000E+02 0. -1.
</event>
<event>
 5    1  0.1688215E-008  0.3745177E+03  0.7957747E-01  0.3475383E+00
         13   -1    0    0    0    0  0.00000000000E+00  0.00000000000E+00  0.14999999963E+04  0.15000000000E+04  0.10566000000E+00 0. -1.
        994   -1    0    0    0    0 -0.00000000000E+00 -0.00000000000E+00  0.11368683772E-12  0.17120000000E+03  0.17120000000E+03 0.  0.
         13    1    1    2    0    0 -0.25282776513E+02  0.18999580724E+03  0.98130965464E+03  0.99985312672E+03  0.10566000000E+00 0. -1.
        994    1    1    2    0    0  0.26363831921E+02 -0.17690060582E+03  0.12507317536E+03  0.27738351639E+03  0.17120000000E+03 0.  0.
        998    1    1    2    0    0 -0.10810554077E+01 -0.13095201419E+02  0.39361716628E+03  0.39396335689E+03  0.10000000000E+02 0. -1.
</event>
<event>
 5    1  0.1688215E-008  0.3851699E+03  0.7957747E-01  0.3428952E+00
         13   -1    0    0    0    0  0.00000000000E+00  0.00000000000E+00  0.14999999963E+04  0.15000000000E+04  0.10566000000E+00 0.  1.
        994   -1    0    0    0    0 -0.00000000000E+00 -0.00000000000E+00  0.11368683772E-12  0.17120000000E+03  0.17120000000E+03 0.  0.
         13    1    1    2    0    0 -0.12456329164E+02  0.81700460274E+00  0.50601472324E+02  0.52118593593E+02  0.10566000000E+00 0.  1.
        994    1    1    2    0    0  0.74338856327E+01 -0.61306190823E+01  0.18510656331E+01  0.17148094235E+03  0.17120000000E+03 0.  0.
        998    1    1    2    0    0  0.50224435316E+01  0.53136144796E+01  0.14475474583E+04  0.14476004641E+04  0.10000000000E+02 0.  1.
</event>
<event>
 5    1  0.1688215E-008  0.3757946E+03  0.7957747E-01  0.3469677E+00
         13   -1    0    0    0    0  0.00000000000E+00  0.00000000000E+00  0.14999999963E+04  0.15000000000E+04  0.10566000000E+00 0.  1.
        994   -1    0    0    0    0 -0.00000000000E+00 -0.00000000000E+00  0.11368683772E-12  0.17120000000E+03  0.17120000000E+03 0.  0.
         13    1    1    2    0    0 -0.65293850850E+02  0.47505792176E+02  0.39329892915E+03  0.40150236125E+03  0.10566000000E+00 0.  1.
        994    1    1    2    0    0  0.61332630581E+02 -0.46964373345E+02  0.26777495807E+02  0.18972036849E+03  0.17120000000E+03 0.  0.
        998    1    1    2    0    0  0.39612202694E+01 -0.54141883148E+00  0.10799235713E+04  0.10799772703E+04  0.10000000000E+02 0.  1.
</event>
<event>
 5    1  0.1688215E-008  0.3801714E+03  0.7957747E-01  0.3450413E+00
         13   -1    0    0    0    0  0.00000000000E+00  0.00000000000E+00  0.14999999963E+04  0.15000000000E+04  0.10566000000E+00 0. -1.
        994   -1    0    0    0    0 -0.00000000000E+00 -0.00000000000E+00  0.11368683772E-12  0.17120000000E+03  0.17120000000E+03 0.  0.
         13    1    1    2    0    0 -0.64571252732E+01 -0.14489583924E+03  0.42980553850E+03  0.45361802300E+03  0.10566000000E+00 0. -1.
        994    1    1    2    0    0  0.23409013025E+01  0.14463939823E+03  0.96825521903E+02  0.24415293779E+03  0.17120000000E+03 0.  0.
        998    1    1    2    0    0  0.41162239707E+01  0.25644100875E+00  0.97336893587E+03  0.97342903922E+03  0.10000000000E+02 0. -1.
</event>
<event>
 5    1  0.1688215E-008  0.3749900E+03  0.7957747E-01  0.3473267E+00
         13   -1    0    0    0    0  0.00000000000E+00  0.00000000000E+00  0.14999999963E+04  0.15000000000E+04  0.10566000000E+00 0.  1.
        994   -1    0    0    0    0 -0.00000000000E+00 -0.00000000000E+00  0.11368683772E-12  0.17120000000E+03  0.17120000000E+03 0.  0.
         13    1    1    2    0    0  0.14638527344E+02  0.58609774491E+01  0.15449272927E+02  0.22075523493E+02  0.10566000000E+00 0.  1.
        994    1    1    2    0    0 -0.15654445069E+02 -0.82127323933E+01  0.77468708157E+01  0.17228454554E+03  0.17120000000E+03 0.  0.
        998    1    1    2    0    0  0.10159177249E+01  0.23517549441E+01  0.14768038525E+04  0.14768399310E+04  0.10000000000E+02 0.  1.
</event>
<event>
 5    1  0.1688215E-008  0.3773557E+03  0.7957747E-01  0.3462754E+00
         13   -1    0    0    0    0  0.00000000000E+00  0.00000000000E+00  0.14999999963E+04  0.15000000000E+04  0.10566000000E+00 0. -1.
        994   -1    0    0    0    0 -0.00000000000E+00 -0.00000000000E+00  0.11368683772E-12  0.17120000000E+03  0.17120000000E+03 0.  0.
         13    1    1    2    0    0 -0.46938065380E+02 -0.90417919912E+01  0.23107817120E+03  0.23597048195E+03  0.10566000000E+00 0. -1.
        994    1    1    2    0    0  0.14838293096E+02 -0.11650370010E+02  0.66751420752E+01  0.17236561022E+03  0.17120000000E+03 0.  0.
        998    1    1    2    0    0  0.32099772283E+02  0.20692162001E+02  0.12622466830E+04  0.12628639078E+04  0.10000000000E+02 0. -1.
</event>
<event>
 5    1  0.1688215E-008  0.3720433E+03  0.7957747E-01  0.3486553E+00
         13   -1    0    0    0    0  0.00000000000E+00  0.00000000000E+00  0.14999999963E+04  0.15000000000E+04  0.10566000000E+00 0. -1.
        994   -1    0    0    0    0 -0.00000000000E+00 -0.00000000000E+00  0.11368683772E-12  0.17120000000E+03  0.17120000000E+03 0.  0.
         13    1    1    2    0    0  0.45059940293E+02  0.30628569834E+02  0.19921538660E+03  0.20653156885E+03  0.10566000000E+00 0. -1.
        994    1    1    2    0    0 -0.69490957965E+01 -0.10904951133E+02  0.87792589094E+01  0.17191196374E+03  0.17120000000E+03 0.  0.
        998    1    1    2    0    0 -0.38110844496E+02 -0.19723618701E+02  0.12920053508E+04  0.12927564674E+04  0.10000000000E+02 0. -1.
</event>
<event>
 5    1  0.1688215E-008  0.3745081E+03  0.7957747E-01  0.3475426E+00
         13   -1    0    0    0    0  0.00000000000E+00  0.00000000000E+00  0.14999999963E+04  0.15000000000E+04  0.10566000000E+00 0. -1.
        994   -1    0    0    0    0 -0.00000000000E+00 -0.00000000000E+00  0.11368683772E-12  0.17120000000E+03  0.17120000000E+03 0.  0.
         13    1    1    2    0    0  0.29600991339E+02 -0.18897996345E+02  0.75001186441E+02  0.82816315335E+02  0.10566000000E+00 0. -1.
        994    1    1    2    0    0 -0.60085127535E+02  0.18441232351E+02  0.20503004577E+02  0.18352142872E+03  0.17120000000E+03 0.  0.
        998    1    1    2    0    0  0.30484136196E+02  0.45676399377E+00  0.14044958053E+04  0.14048622559E+04  0.10000000000E+02 0. -1.
</event>
<event>
 5    1  0.1688215E-008  0.3835070E+03  0.7957747E-01  0.3436029E+00
         13   -1    0    0    0    0  0.00000000000E+00  0.00000000000E+00  0.14999999963E+04  0.15000000000E+04  0.10566000000E+00 0.  1.
        994   -1    0    0    0    0 -0.00000000000E+00 -0.00000000000E+00  0.11368683772E-12  0.17120000000E+03  0.17120000000E+03 0.  0.
         13    1    1    2    0    0 -0.11028714820E+02  0.91981725391E+01  0.46968899964E+02  0.49115452319E+02  0.10566000000E+00 0.  1.
        994    1    1    2    0    0 -0.13304006778E+02  0.37307062934E+00  0.29587935594E+01  0.17174204563E+03  0.17120000000E+03 0.  0.
        998    1    1    2    0    0  0.24332721597E+02 -0.95712431685E+01  0.14500723028E+04  0.14503425021E+04  0.10000000000E+02 0.  1.
</event>
<event>
 5    1  0.1688215E-008  0.2729211E+03  0.7957747E-01  0.4110563E+00
         13   -1    0    0    0    0  0.00000000000E+00  0.00000000000E+00  0.14999999963E+04  0.15000000000E+04  0.10566000000E+00 0. -1.
        994   -1    0    0    0    0 -0.00000000000E+00 -0.00000000000E+00  0.11368683772E-12  0.17120000000E+03  0.17120000000E+03 0.  0.
         13    1    1    2    0    0  0.96688135412E+02  0.12614604663E+03  0.64925780683E+03  0.66842885299E+03  0.10566000000E+00 0. -1.
        994    1    1    2    0    0 -0.37005969206E+02 -0.24025974865E+02  0.37264761502E+02  0.18067869735E+03  0.17120000000E+03 0.  0.
        998    1    1    2    0    0 -0.59682166206E+02 -0.10212007177E+03  0.81347742794E+03  0.82209244967E+03  0.10000000000E+02 0. -1.
</event>
<event>
 5    1  0.1688215E-008  0.3706605E+03  0.7957747E-01  0.3492861E+00
         13   -1    0    0    0    0  0.00000000000E+00  0.00000000000E+00  0.14999999963E+04  0.15000000000E+04  0.10566000000E+00 0. -1.
        994   -1    0    0    0    0 -0.00000000000E+00 -0.00000000000E+00  0.11368683772E-12  0.17120000000E+03  0.17120000000E+03 0.  0.
         13    1    1    2    0    0 -0.89517822400E+02  0.82382274055E+01  0.28983216664E+03  0.30345346414E+03  0.10566000000E+00 0. -1.
        994    1    1    2    0    0  0.86979065295E+02 -0.18290795784E+01  0.38303871821E+02  0.19581963622E+03  0.17120000000E+03 0.  0.
        998    1    1    2    0    0  0.25387571049E+01 -0.64091478271E+01  0.11718639578E+04  0.11719268996E+04  0.10000000000E+02 0. -1.
</event>
<event>
 5    1  0.1688215E-008  0.3842525E+03  0.7957747E-01  0.3432849E+00
         13   -1    0    0    0    0  0.00000000000E+00  0.00000000000E+00  0.14999999963E+04  0.15000000000E+04  0.10566000000E+00 0. -1.
        994   -1    0    0    0    0 -0.00000000000E+00 -0.00000000000E+00  0.11368683772E-12  0.17120000000E+03  0.17120000000E+03 0.  0.
         13    1    1    2    0    0 -0.99410527750E+01 -0.73665760603E+01  0.39793602247E+02  0.41672927866E+02  0.10566000000E+00 0. -1.
        994    1    1    2    0    0 -0.98482652444E+00 -0.33906961803E+01  0.20428106198E+01  0.17124859059E+03  0.17120000000E+03 0.  0.
        998    1    1    2    0    0  0.10925879299E+02  0.10757272241E+02  0.14581635834E+04  0.14582784815E+04  0.10000000000E+02 0. -1.
</event>
<event>
 5    1  0.1688215E-008  0.3819560E+03  0.7957747E-01  0.3442685E+00
         13   -1    0    0    0    0  0.00000000000E+00  0.00000000000E+00  0.14999999963E+04  0.15000000000E+04  0.10566000000E+00 0.  1.
        994   -1    0    0    0    0 -0.00000000000E+00 -0.00000000000E+00  0.11368683772E-12  0.17120000000E+03  0.17120000000E+03 0.  0.
         13    1    1    2    0    0  0.13410954287E+02 -0.12197882195E+02  0.56677601376E+02  0.59506333165E+02  0.10566000000E+00 0.  1.
        994    1    1    2    0    0  0.53121645430E+01 -0.10857287775E+02  0.36344073821E+01  0.17166464023E+03  0.17120000000E+03 0.  0.
        998    1    1    2    0    0 -0.18723118830E+02  0.23055169970E+02  0.14396879875E+04  0.14400290266E+04  0.10000000000E+02 0.  1.
</event>
<event>
 5    1  0.1688215E-008  0.3853959E+03  0.7957747E-01  0.3427995E+00
         13   -1    0    0    0    0  0.00000000000E+00  0.00000000000E+00  0.14999999963E+04  0.15000000000E+04  0.10566000000E+00 0. -1.
        994   -1    0    0    0    0 -0.00000000000E+00 -0.00000000000E+00  0.11368683772E-12  0.17120000000E+03  0.17120000000E+03 0.  0.
         13    1    1    2    0    0  0.10493428459E+02  0.16507224361E+00  0.32933227967E+02  0.34565126327E+02  0.10566000000E+00 0. -1.
        994    1    1    2    0    0 -0.39649637701E+02 -0.34618842891E+02  0.10586894413E+02  0.17942151595E+03  0.17120000000E+03 0.  0.
        998    1    1    2    0    0  0.29156209242E+02  0.34453770647E+02  0.14564798739E+04  0.14572133577E+04  0.10000000000E+02 0. -1.
</event>
<event>
 5    1  0.1688215E-008  0.3837051E+03  0.7957747E-01  0.3435183E+00
         13   -1    0    0    0    0  0.00000000000E+00  0.00000000000E+00  0.14999999963E+04  0.15000000000E+04  0.10566000000E+00 0. -1.
        994   -1    0    0    0    0 -0.00000000000E+00 -0.00000000000E+00  0.11368683772E-12  0.17120000000E+03  0.17120000000E+03 0.  0.
         13    1    1    2    0    0  0.12687216622E+01  0.17844532438E+02  0.66602768234E+02  0.68963591069E+02  0.10566000000E+00 0. -1.
        994    1    1    2    0    0  0.65731115709E+01 -0.20793751237E+02  0.38465943123E+01  0.17262624996E+03  0.17120000000E+03 0.  0.
        998    1    1    2    0    0 -0.78418332331E+01  0.29492187982E+01  0.14295506337E+04  0.14296101590E+04  0.10000000000E+02 0. -1.
</event>
<event>
 5    1  0.1688215E-008  0.3827649E+03  0.7957747E-01  0.3439207E+00
         13   -1    0    0    0    0  0.00000000000E+00  0.00000000000E+00  0.14999999963E+04  0.15000000000E+04  0.10566000000E+00 0. -1.
        994   -1    0    0    0    0 -0.00000000000E+00 -0.00000000000E+00  0.11368683772E-12  0.17120000000E+03  0.17120000000E+03 0.  0.
         13    1    1    2    0    0 -0.20011836279E+02 -0.14914583149E+02  0.10388909460E+03  0.10684509124E+03  0.10566000000E+00 0. -1.
        994    1    1    2    0    0  0.20758332814E+02  0.19703173276E+02  0.54621267046E+01  0.17366173512E+03  0.17120000000E+03 0.  0.
        998    1    1    2    0    0 -0.74649653557E+00 -0.47885901271E+01  0.13906487750E+04  0.13906931736E+04  0.10000000000E+02 0. -1.
</event>
<event>
 5    1  0.1688215E-008  0.3847114E+03  0.7957747E-01  0.3430897E+00
         13   -1    0    0    0    0  0.00000000000E+00  0.00000000000E+00  0.14999999963E+04  0.15000000000E+04  0.10566000000E+00 0. -1.
        994   -1    0    0    0    0 -0.00000000000E+00 -0.00000000000E+00  0.11368683772E-12  0.17120000000E+03  0.17120000000E+03 0.  0.
         13    1    1    2    0    0 -0.92067817790E+01  0.51069958913E+01  0.32688657903E+02  0.34342477449E+02  0.10566000000E+00 0. -1.
        994    1    1    2    0    0 -0.43088992748E+01  0.32583242963E+01  0.18695466596E+01  0.17129541294E+03  0.17120000000E+03 0.  0.
        998    1    1    2    0    0  0.13515681054E+02 -0.83653201876E+01  0.14654417917E+04  0.14655621096E+04  0.10000000000E+02 0. -1.
</event>
<event>
 5    1  0.1688215E-008  0.4494077E+03  0.7957747E-01  0.3195348E+00
         13   -1    0    0    0    0  0.00000000000E+00  0.00000000000E+00  0.14999999963E+04  0.15000000000E+04  0.10566000000E+00 0.  1.
        994   -1    0    0    0    0 -0.00000000000E+00 -0.00000000000E+00  0.11368683772E-12  0.17120000000E+03  0.17120000000E+03 0.  0.
         13    1    1    2    0    0  0.86740479079E+02 -0.12519953724E+03  0.25162102772E+03  0.29412920221E+03  0.10566000000E+00 0.  1.
        994    1    1    2    0    0  0.43358812549E+02  0.42588377915E+02  0.79954102902E+02  0.19848389136E+03  0.17120000000E+03 0.  0.
        998    1    1    2    0    0 -0.13009929163E+03  0.82611159325E+02  0.11684248657E+04  0.11785869064E+04  0.10000000000E+02 0.  1.
</event>
<event>
 5    1  0.2517632E-008  0.3863691E+03  0.7957747E-01  0.3423886E+00
         13   -1    0    0    0    0  0.00000000000E+00  0.00000000000E+00  0.14999999963E+04  0.15000000000E+04  0.10566000000E+00 0. -1.
        994   -1    0    0    0    0 -0.00000000000E+00 -0.00000000000E+00  0.11368683772E-12  0.17120000000E+03  0.17120000000E+03 0.  0.
         13    1    1    2    0    0  0.89134919695E+01  0.48241499078E+01  0.53103447770E+02  0.54062094766E+02  0.10566000000E+00 0. -1.
        994    1    1    2    0    0 -0.82810180156E+01 -0.89813377914E+01  0.14407070414E+01  0.17164135669E+03  0.17120000000E+03 0.  0.
        998    1    1    2    0    0 -0.63247395392E+00  0.41571878837E+01  0.14454558415E+04  0.14454965485E+04  0.10000000000E+02 0. -1.
</event>
<event>
 5    1  0.1688215E-008  0.3777439E+03  0.7957747E-01  0.3461041E+00
         13   -1    0    0    0    0  0.00000000000E+00  0.00000000000E+00  0.14999999963E+04  0.15000000000E+04  0.10566000000E+00 0. -1.
        994   -1    0    0    0    0 -0.00000000000E+00 -0.00000000000E+00  0.11368683772E-12  0.17120000000E+03  0.17120000000E+03 0.  0.
         13    1    1    2    0    0 -0.14439980441E+02 -0.23580081802E+02  0.77110719366E+02  0.81918297701E+02  0.10566000000E+00 0. -1.
        994    1    1    2    0    0 -0.76223142310E+01 -0.27081204232E+00  0.54723273170E+01  0.17145716485E+03  0.17120000000E+03 0.  0.
        998    1    1    2    0    0  0.22062294672E+02  0.23850893844E+02  0.14174169496E+04  0.14178245374E+04  0.10000000000E+02 0. -1.
</event>
<event>
 5    1  0.1688215E-008  0.3731449E+03  0.7957747E-01  0.3481561E+00
         13   -1    0    0    0    0  0.00000000000E+00  0.00000000000E+00  0.14999999963E+04  0.15000000000E+04  0.10566000000E+00 0. -1.
        994   -1    0    0    0    0 -0.00000000000E+00 -0.00000000000E+00  0.11368683772E-12  0.17120000000E+03  0.17120000000E+03 0.  0.
         13    1    1    2    0    0  0.46755278681E+02  0.22477073767E+02  0.16804199336E+03  0.17586755706E+03  0.10566000000E+00 0. -1.
        994    1    1    2    0    0 -0.19163443024E+02 -0.47619869171E+02  0.16701606797E+02  0.17950842086E+03  0.17120000000E+03 0.  0.
        998    1    1    2    0    0 -0.27591835657E+02  0.25142795403E+02  0.13152563961E+04  0.13158240221E+04  0.10000000000E+02 0. -1.
</event>
<event>
 5    1  0.1688215E-008  0.3741999E+03  0.7957747E-01  0.3476809E+00
         13   -1    0    0    0    0  0.00000000000E+00  0.00000000000E+00  0.14999999963E+04  0.15000000000E+04  0.10566000000E+00 0.  1.
        994   -1    0    0    0    0 -0.00000000000E+00 -0.00000000000E+00  0.11368683772E-12  0.17120000000E+03  0.17120000000E+03 0.  0.
         13    1    1    2    0    0  0.11361374631E+02  0.24829646926E+02  0.47315160688E+02  0.54629001409E+02  0.10566000000E+00 0.  1.
        994    1    1    2    0    0 -0.15298389976E+02 -0.31304911009E+02  0.11239286106E+02  0.17507084206E+03  0.17120000000E+03 0.  0.
        998    1    1    2    0    0  0.39370153447E+01  0.64752640832E+01  0.14414455495E+04  0.14415001565E+04  0.10000000000E+02 0.  1.
</event>
<event>
 5    1  0.1688215E-008  0.3693080E+03  0.7957747E-01  0.3499077E+00
         13   -1    0    0    0    0  0.00000000000E+00  0.00000000000E+00  0.14999999963E+04  0.15000000000E+04  0.10566000000E+00 0.  1.
        994   -1    0    0    0    0 -0.00000000000E+00 -0.00000000000E+00  0.11368683772E-12  0.17120000000E+03  0.17120000000E+03 0.  0.
         13    1    1    2    0    0 -0.28409972986E+02 -0.21127823759E+02  0.62915994411E+02  0.72193801802E+02  0.10566000000E+00 0.  1.
        994    1    1    2    0    0  0.26459197375E+02 -0.93824196025E+01  0.12367633873E+02  0.17392675841E+03  0.17120000000E+03 0.  0.
        998    1    1    2    0    0  0.19507756101E+01  0.30510243361E+02  0.14247163680E+04  0.14250794398E+04  0.10000000000E+02 0.  1.
</event>
<event>
 5    1  0.1688215E-008  0.3824863E+03  0.7957747E-01  0.3440404E+00
         13   -1    0    0    0    0  0.00000000000E+00  0.00000000000E+00  0.14999999963E+04  0.15000000000E+04  0.10566000000E+00 0.  1.
        994   -1    0    0    0    0 -0.00000000000E+00 -0.00000000000E+00  0.11368683772E-12  0.17120000000E+03  0.17120000000E+03 0.  0.
         13    1    1    2    0    0  0.10261438509E+02 -0.35401766472E+01  0.19136731203E+02  0.22001263967E+02  0.10566000000E+00 0.  1.
        994    1    1    2    0    0 -0.10549849278E+02  0.24073169345E+01  0.32716666308E+01  0.17157283671E+03  0.17120000000E+03 0.  0.
        998    1    1    2    0    0  0.28841076930E+00  0.11328597127E+01  0.14775915984E+04  0.14776258993E+04  0.10000000000E+02 0.  1.
</event>
<event>
 5    1  0.1688215E-008  0.3755283E+03  0.7957747E-01  0.3470863E+00
         13   -1    0    0    0    0  0.00000000000E+00  0.00000000000E+00  0.14999999963E+04  0.15000000000E+04  0.10566000000E+00 0.  1.
        994   -1    0    0    0    0 -0.00000000000E+00 -0.00000000000E+00  0.11368683772E-12  0.17120000000E+03  0.17120000000E+03 0.  0.
         13    1    1    2    0    0 -0.70205950716E+01 -0.93851790795E+01  0.81212281084E+01  0.14259588056E+02  0.10566000000E+00 0.  1.
        994    1    1    2    0    0 -0.12148975882E+02 -0.21822729505E+01  0.69248300391E+01  0.17178403069E+03  0.17120000000E+03 0.  0.
        998    1    1    2    0    0  0.19169570954E+02  0.11567452030E+02  0.14849539381E+04  0.14851563813E+04  0.10000000000E+02 0.  1.
</event>
<event>
 5    1  0.1688215E-008  0.3847122E+03  0.7957747E-01  0.3430894E+00
         13   -1    0    0    0    0  0.00000000000E+00  0.00000000000E+00  0.14999999963E+04  0.15000000000E+04  0.10566000000E+00 0.  1.
        994   -1    0    0    0    0 -0.00000000000E+00 -0.00000000000E+00  0.11368683772E-12  0.17120000000E+03  0.17120000000E+03 0.  0.
         13    1    1    2    0    0 -0.16245305642E+01 -0.10282113345E+02  0.30131708952E+02  0.31879335043E+02  0.10566000000E+00 0.  1.
        994    1    1    2    0    0  0.77968918129E+00  0.77098141420E+01  0.19708002603E+01  0.17138661909E+03  0.17120000000E+03 0.  0.
        998    1    1    2    0    0  0.84484138292E+00  0.25722992030E+01  0.14678974871E+04  0.14679340459E+04  0.10000000000E+02 0.  1.
</event>
<event>
 5    1  0.1688215E-008  0.3838010E+03  0.7957747E-01  0.3434773E+00
         13   -1    0    0    0    0  0.00000000000E+00  0.00000000000E+00  0.14999999963E+04  0.15000000000E+04  0.10566000000E+00 0.  1.
        994   -1    0    0    0    0 -0.00000000000E+00 -0.00000000000E+00  0.11368683772E-12  0.17120000000E+03  0.17120000000E+03 0.  0.
         13    1    1    2    0    0 -0.85830092589E+01  0.78839986018E+01  0.29548884880E+02  0.31764339181E+02  0.10566000000E+00 0.  1.
        994    1    1    2    0    0  0.11291195319E+02 -0.33491178150E+01  0.26846438627E+01  0.17162562453E+03  0.17120000000E+03 0.  0.
        998    1    1    2    0    0 -0.27081860602E+01 -0.45348807868E+01  0.14677664675E+04  0.14678100363E+04  0.10000000000E+02 0.  1.
</event>
<event>
 5    1  0.1688215E-008  0.3811803E+03  0.7957747E-01  0.3446035E+00
         13   -1    0    0    0    0  0.00000000000E+00  0.00000000000E+00  0.14999999963E+04  0.15000000000E+04  0.10566000000E+00 0. -1.
        994   -1    0    0    0    0 -0.00000000000E+00 -0.00000000000E+00  0.11368683772E-12  0.17120000000E+03  0.17120000000E+03 0.  0.
         13    1    1    2    0    0  0.53158588616E+01  0.12304906432E+02  0.23231650877E+02  0.26821443739E+02  0.10566000000E+00 0. -1.
        994    1    1    2    0    0 -0.83809907812E+01 -0.18169546287E+02  0.48728468854E+01  0.17243421370E+03  0.17120000000E+03 0.  0.
        998    1    1    2    0    0  0.30651319196E+01  0.58646398545E+01  0.14718954985E+04  0.14719443426E+04  0.10000000000E+02 0. -1.
</event>
<event>
 5    1  0.1688215E-008  0.3736875E+03  0.7957747E-01  0.3479113E+00
         13   -1    0    0    0    0  0.00000000000E+00  0.00000000000E+00  0.14999999963E+04  0.15000000000E+04  0.10566000000E+00 0.  1.
        994   -1    0    0    0    0 -0.00000000000E+00 -0.00000000000E+00  0.11368683772E-12  0.17120000000E+03  0.17120000000E+03 0.  0.
         13    1    1    2    0    0  0.41508546264E+02 -0.75696795991E+02  0.45255450973E+03  0.46071526975E+03  0.10566000000E+00 0.  1.
        994    1    1    2    0    0  0.27473181086E+02  0.96262762682E+02  0.42382759379E+02  0.20279801146E+03  0.17120000000E+03 0.  0.
        998    1    1    2    0    0 -0.68981727351E+02 -0.20565966691E+02  0.10050627272E+04  0.10076867188E+04  0.10000000000E+02 0.  1.
</event>
<event>
 5    1  0.1688215E-008  0.3813392E+03  0.7957747E-01  0.3445348E+00
         13   -1    0    0    0    0  0.00000000000E+00  0.00000000000E+00  0.14999999963E+04  0.15000000000E+04  0.10566000000E+00 0.  1.
        994   -1    0    0    0    0 -0.00000000000E+00 -0.00000000000E+00  0.11368683772E-12  0.17120000000E+03  0.17120000000E+03 0.  0.
         13    1    1    2    0    0 -0.85466544897E+01 -0.22883494378E+02  0.88305589234E+02  0.91621983562E+02  0.10566000000E+00 0.  1.
        994    1    1    2    0    0  0.36147052213E+01  0.73263392213E+01  0.36808095105E+01  0.17143433057E+03  0.17120000000E+03 0.  0.
        998    1    1    2    0    0  0.49319492684E+01  0.15557155157E+02  0.14080135975E+04  0.14081436859E+04  0.10000000000E+02 0.  1.
</event>
<event>
 5    1  0.1688215E-008  0.3802030E+03  0.7957747E-01  0.3450275E+00
         13   -1    0    0    0    0  0.00000000000E+00  0.00000000000E+00  0.14999999963E+04  0.15000000000E+04  0.10566000000E+00 0.  1.
        994   -1    0    0    0    0 -0.00000000000E+00 -0.00000000000E+00  0.11368683772E-12  0.17120000000E+03  0.17120000000E+03 0.  0.
         13    1    1    2    0    0 -0.11454612000E+02  0.18641347110E+01  0.15213800758E+02  0.19135151732E+02  0.10566000000E+00 0.  1.
        994    1    1    2    0    0  0.17592583635E+01 -0.29187375973E+01  0.40694966356E+01  0.17128226651E+03  0.17120000000E+03 0.  0.
        998    1    1    2    0    0  0.96953536361E+01  0.10546028863E+01  0.14807166989E+04  0.14807825818E+04  0.10000000000E+02 0.  1.
</event>
<event>
 5    1  0.1688215E-008  0.3769478E+03  0.7957747E-01  0.3464557E+00
         13   -1    0    0    0    0  0.00000000000E+00  0.00000000000E+00  0.14999999963E+04  0.15000000000E+04  0.10566000000E+00 0. -1.
        994   -1    0    0    0    0 -0.00000000000E+00 -0.00000000000E+00  0.11368683772E-12  0.17120000000E+03  0.17120000000E+03 0.  0.
         13    1    1    2    0    0 -0.10256061375E+02 -0.57301303966E+01  0.96476769707E+01  0.15202303255E+02  0.10566000000E+00 0. -1.
        994    1    1    2    0    0  0.58264242152E+01  0.17037943154E+01  0.58063323609E+01  0.17140596148E+03  0.17120000000E+03 0.  0.
        998    1    1    2    0    0  0.44296371594E+01  0.40263360812E+01  0.14845459869E+04  0.14845917353E+04  0.10000000000E+02 0. -1.
</event>
<event>
 5    1  0.1688215E-008  0.3766944E+03  0.7957747E-01  0.3465679E+00
         13   -1    0    0    0    0  0.00000000000E+00  0.00000000000E+00  0.14999999963E+04  0.15000000000E+04  0.10566000000E+00 0. -1.
        994   -1    0    0    0    0 -0.00000000000E+00 -0.00000000000E+00  0.11368683772E-12  0.17120000000E+03  0.17120000000E+03 0.  0.
         13    1    1    2    0    0  0.47817027266E+02  0.28846672219E+02  0.23250527111E+03  0.23911777612E+03  0.10566000000E+00 0. -1.
        994    1    1    2    0    0 -0.30350845500E+02 -0.52620490268E+02  0.18386693953E+02  0.18258587112E+03  0.17120000000E+03 0.  0.
        998    1    1    2    0    0 -0.17466181766E+02  0.23773818049E+02  0.12491080312E+04  0.12494963528E+04  0.10000000000E+02 0. -1.
</event>
<event>
 5    1  0.1688215E-008  0.3734136E+03  0.7957747E-01  0.3480348E+00
         13   -1    0    0    0    0  0.00000000000E+00  0.00000000000E+00  0.14999999963E+04  0.15000000000E+04  0.10566000000E+00 0. -1.
        994   -1    0    0    0    0 -0.00000000000E+00 -0.00000000000E+00  0.11368683772E-12  0.17120000000E+03  0.17120000000E+03 0.  0.
         13    1    1    2    0    0  0.76950366889E+01 -0.40899317785E+02  0.15008726747E+03  0.15575033485E+03  0.10566000000E+00 0. -1.
        994    1    1    2    0    0 -0.15549611200E+02 -0.34118049836E+02  0.12315273097E+02  0.17568989067E+03  0.17120000000E+03 0.  0.
        998    1    1    2    0    0  0.78545745109E+01  0.75017367621E+02  0.13375974557E+04  0.13397597745E+04  0.10000000000E+02 0. -1.
</event>
<event>
 5    1  0.1688215E-008  0.3834279E+03  0.7957747E-01  0.3436367E+00
         13   -1    0    0    0    0  0.00000000000E+00  0.00000000000E+00  0.14999999963E+04  0.15000000000E+04  0.10566000000E+00 0.  1.
        994   -1    0    0    0    0 -0.00000000000E+00 -0.00000000000E+00  0.11368683772E-12  0.17120000000E+03  0.17120000000E+03 0.  0.
         13    1    1    2    0    0  0.53738313681E+01 -0.22071220222E+02  0.11144520714E+03  0.11373681104E+03  0.10566000000E+00 0.  1.
        994    1    1    2    0    0  0.15170281710E+02  0.11625839237E+02  0.36210746901E+01  0.17230162439E+03  0.17120000000E+03 0.  0.
        998    1    1    2    0    0 -0.20544113078E+02  0.10445380985E+02  0.13849337144E+04  0.13851615646E+04  0.10000000000E+02 0.  1.
</event>
<event>
 5    1  0.1688215E-008  0.3834031E+03  0.7957747E-01  0.3436473E+00
         13   -1    0    0    0    0  0.00000000000E+00  0.00000000000E+00  0.14999999963E+04  0.15000000000E+04  0.10566000000E+00 0. -1.
        994   -1    0    0    0    0 -0.00000000000E+00 -0.00000000000E+00  0.11368683772E-12  0.17120000000E+03  0.17120000000E+03 0.  0.
         13    1    1    2    0    0 -0.67769532851E+01 -0.96985605033E+01  0.28417749346E+02  0.30782605698E+02  0.10566000000E+00 0. -1.
        994    1    1    2    0    0 -0.19369480511E+01  0.72203275279E+01  0.26098345303E+01  0.17138301005E+03  0.17120000000E+03 0.  0.
        998    1    1    2    0    0  0.87139013361E+01  0.24782329753E+01  0.14689724124E+04  0.14690343843E+04  0.10000000000E+02 0. -1.
</event>
<event>
 5    1  0.1688215E-008  0.3853821E+03  0.7957747E-01  0.3428053E+00
         13   -1    0    0    0    0  0.00000000000E+00  0.00000000000E+00  0.14999999963E+04  0.15000000000E+04  0.10566000000E+00 0.  1.
        994   -1    0    0    0    0 -0.00000000000E+00 -0.00000000000E+00  0.11368683772E-12  0.17120000000E+03  0.17120000000E+03 0.  0.
         13    1    1    2    0    0  0.27391991566E+01 -0.12928432477E+02  0.63858997404E+02  0.65212194349E+02  0.10566000000E+00 0.  1.
        994    1    1    2    0    0  0.22911621938E+01  0.20993598487E+01  0.14722606466E+01  0.17123453007E+03  0.17120000000E+03 0.  0.
        998    1    1    2    0    0 -0.50303613504E+01  0.10829072628E+02  0.14346687382E+04  0.14347532756E+04  0.10000000000E+02 0.  1.
</event>
<event>
 5    1  0.1688215E-008  0.3764612E+03  0.7957747E-01  0.3466713E+00
         13   -1    0    0    0    0  0.00000000000E+00  0.00000000000E+00  0.14999999963E+04  0.15000000000E+04  0.10566000000E+00 0. -1.
        994   -1    0    0    0    0 -0.00000000000E+00 -0.00000000000E+00  0.11368683772E-12  0.17120000000E+03  0.17120000000E+03 0.  0.
         13    1    1    2    0    0 -0.51074273181E+02 -0.10679988245E+03  0.61647700443E+03  0.62774095328E+03  0.10566000000E+00 0. -1.
        994    1    1    2    0    0  0.24530345662E+02  0.12910121776E+03  0.66774611147E+02  0.22591403449E+03  0.17120000000E+03 0.  0.
        998    1    1    2    0    0  0.26543927520E+02 -0.22301335305E+02  0.81674838070E+03  0.81754501223E+03  0.10000000000E+02 0.  1.
</event>
<event>
 5    1  0.1688215E-008  0.3851998E+03  0.7957747E-01  0.3428825E+00
         13   -1    0    0    0    0  0.00000000000E+00  0.00000000000E+00  0.14999999963E+04  0.15000000000E+04  0.10566000000E+00 0. -1.
        994   -1    0    0    0    0 -0.00000000000E+00 -0.00000000000E+00  0.11368683772E-12  0.17120000000E+03  0.17120000000E+03 0.  0.
         13    1    1    2    0    0  0.16905714360E+02  0.39500122060E+01  0.10125528560E+03  0.10273290515E+03  0.10566000000E+00 0. -1.
        994    1    1    2    0    0 -0.74438858140E+01 -0.29823095044E+01  0.17423442189E+01  0.17139656172E+03  0.17120000000E+03 0.  0.
        998    1    1    2    0    0 -0.94618285465E+01 -0.96770270161E+00  0.13970023665E+04  0.13970705331E+04  0.10000000000E+02 0. -1.
</event>
<event>
 5    1  0.1688215E-008  0.3693494E+03  0.7957747E-01  0.3498886E+00
         13   -1    0    0    0    0  0.00000000000E+00  0.00000000000E+00  0.14999999963E+04  0.15000000000E+04  0.10566000000E+00 0. -1.
        994   -1    0    0    0    0 -0.00000000000E+00 -0.00000000000E+00  0.11368683772E-12  0.17120000000E+03  0.17120000000E+03 0.  0.
         13    1    1    2    0    0 -0.43612809514E+02 -0.23808207773E+01  0.12079195866E+03  0.12844630747E+03  0.10566000000E+00 0. -1.
        994    1    1    2    0    0 -0.29707529276E+02  0.26428718023E+01  0.12698313953E+02  0.17424181256E+03  0.17120000000E+03 0.  0.
        998    1    1    2    0    0  0.73320338789E+02 -0.26205102497E+00  0.13665097237E+04  0.13685118800E+04  0.10000000000E+02 0. -1.
</event>
<event>
 5    1  0.1688215E-008  0.3696038E+03  0.7957747E-01  0.3497714E+00
         13   -1    0    0    0    0  0.00000000000E+00  0.00000000000E+00  0.14999999963E+04  0.15000000000E+04  0.10566000000E+00 0. -1.
        994   -1    0    0    0    0 -0.00000000000E+00 -0.00000000000E+00  0.11368683772E-12  0.17120000000E+03  0.17120000000E+03 0.  0.
         13    1    1    2    0    0  0.16285560067E+02 -0.12184156790E+03  0.57165173921E+03  0.58471900024E+03  0.10566000000E+00 0. -1.
        994    1    1    2    0    0 -0.51405660462E+01  0.10618777891E+03  0.49694480913E+02  0.20756023521E+03  0.17120000000E+03 0.  0.
        998    1    1    2    0    0 -0.11144994020E+02  0.15653788993E+02  0.87865377615E+03  0.87892076455E+03  0.10000000000E+02 0. -1.
</event>
<event>
 5    1  0.1688215E-008  0.3799172E+03  0.7957747E-01  0.3451519E+00
         13   -1    0    0    0    0  0.00000000000E+00  0.00000000000E+00  0.14999999963E+04  0.15000000000E+04  0.10566000000E+00 0.  1.
        994   -1    0    0    0    0 -0.00000000000E+00 -0.00000000000E+00  0.11368683772E-12  0.17120000000E+03  0.17120000000E+03 0.  0.
         13    1    1    2    0    0  0.39530993005E+02 -0.19792280683E+02  0.25996603067E+03  0.26369827844E+03  0.10566000000E+00 0.  1.
        994    1    1    2    0    0 -0.30340770746E+02 -0.26717000291E+02  0.96593881793E+01  0.17617350611E+03  0.17120000000E+03 0.  0.
        998    1    1    2    0    0 -0.91902222587E+01  0.46509280975E+02  0.12303745774E+04  0.12313282155E+04  0.10000000000E+02 0.  1.
</event>
<event>
 5    1  0.1688215E-008  0.3853802E+03  0.7957747E-01  0.3428061E+00
         13   -1    0    0    0    0  0.00000000000E+00  0.00000000000E+00  0.14999999963E+04  0.15000000000E+04  0.10566000000E+00 0.  1.
        994   -1    0    0    0    0 -0.00000000000E+00 -0.00000000000E+00  0.11368683772E-12  0.17120000000E+03  0.17120000000E+03 0.  0.
         13    1    1    2    0    0  0.11226238365E+02  0.44216003282E+01  0.53808858650E+02  0.55145112299E+02  0.10566000000E+00 0.  1.
        994    1    1    2    0    0  0.32077679622E+01 -0.35773314318E+01  0.15173442436E+01  0.17127413526E+03  0.17120000000E+03 0.  0.
        998    1    1    2    0    0 -0.14434006328E+02 -0.84426889640E+00  0.14446737934E+04  0.14447807524E+04  0.10000000000E+02 0.  1.
</event>
<event>
 5    1  0.1688215E-008  0.3795893E+03  0.7957747E-01  0.3452949E+00
         13   -1    0    0    0    0  0.00000000000E+00  0.00000000000E+00  0.14999999963E+04  0.15000000000E+04  0.10566000000E+00 0. -1.
        994   -1    0    0    0    0 -0.00000000000E+00 -0.00000000000E+00  0.11368683772E-12  0.17120000000E+03  0.17120000000E+03 0.  0.
         13    1    1    2    0    0  0.38472551405E+02  0.16945753761E+02  0.47207431903E+02  0.63212724771E+02  0.10566000000E+00 0. -1.
        994    1    1    2    0    0 -0.39209088929E+02 -0.18102471076E+02  0.22880226117E+02  0.17803931268E+03  0.17120000000E+03 0.  0.
        998    1    1    2    0    0  0.73653752361E+00  0.11567173150E+01  0.14299123383E+04  0.14299479625E+04  0.10000000000E+02 0.  0.
</event>
<event>
 5    1  0.5218451E-008  0.3856792E+03  0.7957747E-01  0.3426797E+00
         13   -1    0    0    0    0  0.00000000000E+00  0.00000000000E+00  0.14999999963E+04  0.15000000000E+04  0.10566000000E+00 0. -1.
        994   -1    0    0    0    0 -0.00000000000E+00 -0.00000000000E+00  0.11368683772E-12  0.17120000000E+03  0.17120000000E+03 0.  0.
         13    1    1    2    0    0  0.10693620177E+02  0.93161260845E+01  0.84751812775E+02  0.85930347668E+02  0.10566000000E+00 0. -1.
        994    1    1    2    0    0 -0.13873879891E+01  0.20897908981E+01  0.13139364493E+01  0.17122341692E+03  0.17120000000E+03 0.  0.
        998    1    1    2    0    0 -0.93062321878E+01 -0.11405916983E+02  0.14139342471E+04  0.14140462354E+04  0.10000000000E+02 0. -1.
</event>
<event>
 5    1  0.1688215E-008  0.4511152E+03  0.7957747E-01  0.3190027E+00
         13   -1    0    0    0    0  0.00000000000E+00  0.00000000000E+00  0.14999999963E+04  0.15000000000E+04  0.10566000000E+00 0. -1.
        994   -1    0    0    0    0 -0.00000000000E+00 -0.00000000000E+00  0.11368683772E-12  0.17120000000E+03  0.17120000000E+03 0.  0.
         13    1    1    2    0    0  0.20333060281E+02 -0.73101005997E+01 -0.22854941666E+02  0.31452033857E+02  0.10566000000E+00 0. -1.
        994    1    1    2    0    0 -0.70269364114E+00  0.11064944813E+03  0.12758105562E+03  0.24047902175E+03  0.17120000000E+03 0.  0.
        998    1    1    2    0    0 -0.19630366639E+02 -0.10333934753E+03  0.13952738823E+04  0.13992689444E+04  0.10000000000E+02 0. -1.
</event>
<event>
 5    1  0.1688215E-008  0.3839571E+03  0.7957747E-01  0.3434108E+00
         13   -1    0    0    0    0  0.00000000000E+00  0.00000000000E+00  0.14999999963E+04  0.15000000000E+04  0.10566000000E+00 0.  1.
        994   -1    0    0    0    0 -0.00000000000E+00 -0.00000000000E+00  0.11368683772E-12  0.17120000000E+03  0.17120000000E+03 0.  0.
         13    1    1    2    0    0 -0.23239949877E+02 -0.62613729121E+01  0.11944638644E+03  0.12184724231E+03  0.10566000000E+00 0.  1.
        994    1    1    2    0    0  0.29151092752E+02  0.94951239986E+01  0.52566308051E+01  0.17400291881E+03  0.17120000000E+03 0.  0.
        998    1    1    2    0    0 -0.59111428752E+01 -0.32337510865E+01  0.13752969790E+04  0.13753498389E+04  0.10000000000E+02 0.  1.
</event>
<event>
 5    1  0.1688215E-008  0.3815212E+03  0.7957747E-01  0.3444561E+00
         13   -1    0    0    0    0  0.00000000000E+00  0.00000000000E+00  0.14999999963E+04  0.15000000000E+04  0.10566000000E+00 0.  1.
        994   -1    0    0    0    0 -0.00000000000E+00 -0.00000000000E+00  0.11368683772E-12  0.17120000000E+03  0.17120000000E+03 0.  0.
         13    1    1    2    0    0  0.78195527982E+01 -0.10832601203E+02  0.24928664005E+02  0.28283212475E+02  0.10566000000E+00 0.  1.
        994    1    1    2    0    0 -0.67929167815E+01  0.10705274831E+02  0.39020645958E+01  0.17171316995E+03  0.17120000000E+03 0.  0.
        998    1    1    2    0    0 -0.10266360167E+01  0.12732637211E+00  0.14711692677E+04  0.14712036176E+04  0.10000000000E+02 0.  1.
</event>
<event>
 5    1  0.1688215E-008  0.3857754E+03  0.7957747E-01  0.3426390E+00
         13   -1    0    0    0    0  0.00000000000E+00  0.00000000000E+00  0.14999999963E+04  0.15000000000E+04  0.10566000000E+00 0. -1.
        994   -1    0    0    0    0 -0.00000000000E+00 -0.00000000000E+00  0.11368683772E-12  0.17120000000E+03  0.17120000000E+03 0.  0.
         13    1    1    2    0    0  0.12118523519E+02  0.54947063432E+01  0.77453917253E+02  0.78588617954E+02  0.10566000000E+00 0. -1.
        994    1    1    2    0    0  0.43534243422E+01 -0.76028976877E+01  0.14974718858E+01  0.17143056547E+03  0.17120000000E+03 0.  0.
        998    1    1    2    0    0 -0.16471947861E+02  0.21081913445E+01  0.14210486071E+04  0.14211808166E+04  0.10000000000E+02 0. -1.
</event>
<event>
 5    1  0.1688215E-008  0.3810009E+03  0.7957747E-01  0.3446812E+00
         13   -1    0    0    0    0  0.00000000000E+00  0.00000000000E+00  0.14999999963E+04  0.15000000000E+04  0.10566000000E+00 0.  1.
        994   -1    0    0    0    0 -0.00000000000E+00 -0.00000000000E+00  0.11368683772E-12  0.17120000000E+03  0.17120000000E+03 0.  0.
         13    1    1    2    0    0  0.13881618071E+02 -0.97703377645E+01  0.36741771679E+02  0.40473791155E+02  0.10566000000E+00 0.  1.
        994    1    1    2    0    0 -0.27024105419E+02  0.27424448649E+01  0.60909856977E+01  0.17344844590E+03  0.17120000000E+03 0.  0.
        998    1    1    2    0    0  0.13142487349E+02  0.70278928996E+01  0.14571672389E+04  0.14572777629E+04  0.10000000000E+02 0.  1.
</event>
<event>
 5    1  0.1688215E-008  0.3700144E+03  0.7957747E-01  0.3495825E+00
         13   -1    0    0    0    0  0.00000000000E+00  0.00000000000E+00  0.14999999963E+04  0.15000000000E+04  0.10566000000E+00 0.  1.
        994   -1    0    0    0    0 -0.00000000000E+00 -0.00000000000E+00  0.11368683772E-12  0.17120000000E+03  0.17120000000E+03 0.  0.
         13    1    1    2    0    0  0.64312005899E+02  0.68224417909E+02  0.32531292578E+03  0.33855445079E+03  0.10566000000E+00 0.  1.
        994    1    1    2    0    0 -0.57068024505E+02 -0.64756403513E+02  0.37468622633E+02  0.19535477701E+03  0.17120000000E+03 0.  0.
        998    1    1    2    0    0 -0.72439813947E+01 -0.34680143964E+01  0.11372184479E+04  0.11372907722E+04  0.10000000000E+02 0.  1.
</event>
<event>
 5    1  0.1688215E-008  0.3794922E+03  0.7957747E-01  0.3453373E+00
         13   -1    0    0    0    0  0.00000000000E+00  0.00000000000E+00  0.14999999963E+04  0.15000000000E+04  0.10566000000E+00 0. -1.
        994   -1    0    0    0    0 -0.00000000000E+00 -0.00000000000E+00  0.11368683772E-12  0.17120000000E+03  0.17120000000E+03 0.  0.
         13    1    1    2    0    0  0.19847278399E+02 -0.69150759524E+01  0.51498776580E+02  0.55622548382E+02  0.10566000000E+00 0. -1.
        994    1    1    2    0    0  0.58827977722E+01  0.12409670481E+02  0.50215053415E+01  0.17182334750E+03  0.17120000000E+03 0.  0.
        998    1    1    2    0    0 -0.25730076171E+02 -0.54945945286E+01  0.14434797144E+04  0.14437541041E+04  0.10000000000E+02 0. -1.
</event>
<event>
 5    1  0.1688215E-008  0.3832415E+03  0.7957747E-01  0.3437165E+00
         13   -1    0    0    0    0  0.00000000000E+00  0.00000000000E+00  0.14999999963E+04  0.15000000000E+04  0.10566000000E+00 0. -1.
        994   -1    0    0    0    0 -0.00000000000E+00 -0.00000000000E+00  0.11368683772E-12  0.17120000000E+03  0.17120000000E+03 0.  0.
         13    1    1    2    0    0 -0.15833163913E+02  0.14388472431E+02  0.99960814719E+02  0.10222471747E+03  0.10566000000E+00 0. -1.
        994    1    1    2    0    0  0.74429917067E+00  0.31292228330E+01  0.25399596335E+01  0.17124905083E+03  0.17120000000E+03 0.  0.
        998    1    1    2    0    0  0.15088864743E+02 -0.17517695264E+02  0.13974992219E+04  0.13977262317E+04  0.10000000000E+02 0. -1.
</event>
<event>
 5    1  0.1688215E-008  0.3855561E+03  0.7957747E-01  0.3427317E+00
         13   -1    0    0    0    0  0.00000000000E+00  0.00000000000E+00  0.14999999963E+04  0.15000000000E+04  0.10566000000E+00 0.  1.
        994   -1    0    0    0    0 -0.00000000000E+00 -0.00000000000E+00  0.11368683772E-12  0.17120000000E+03  0.17120000000E+03 0.  0.
         13    1    1    2    0    0 -0.79229579164E+01  0.10432652752E+02  0.69998410971E+02  0.71213778218E+02  0.10566000000E+00 0.  1.
        994    1    1    2    0    0  0.28010064736E+02  0.23944959830E+02  0.58247635965E+01  0.17521784355E+03  0.17120000000E+03 0.  0.
        998    1    1    2    0    0 -0.20087106820E+02 -0.34377612582E+02  0.14241768217E+04  0.14247683782E+04  0.10000000000E+02 0.  1.
</event>
<event>
 5    1  0.1688215E-008  0.3820347E+03  0.7957747E-01  0.3442347E+00
         13   -1    0    0    0    0  0.00000000000E+00  0.00000000000E+00  0.14999999963E+04  0.15000000000E+04  0.10566000000E+00 0. -1.
        994   -1    0    0    0    0 -0.00000000000E+00 -0.00000000000E+00  0.11368683772E-12  0.17120000000E+03  0.17120000000E+03 0.  0.
         13    1    1    2    0    0  0.99783525768E+01  0.12192247899E+02  0.39215304228E+02  0.42261917594E+02  0.10566000000E+00 0. -1.
        994    1    1    2    0    0 -0.32522200916E+02  0.16028208625E+02  0.74871225680E+01  0.17515734078E+03  0.17120000000E+03 0.  0.
        998    1    1    2    0    0  0.22543848339E+02 -0.28220456524E+02  0.14532975695E+04  0.14537807416E+04  0.10000000000E+02 0. -1.
</event>
<event>
 5    1  0.1688215E-008  0.3809728E+03  0.7957747E-01  0.3446933E+00
         13   -1    0    0    0    0  0.00000000000E+00  0.00000000000E+00  0.14999999963E+04  0.15000000000E+04  0.10566000000E+00 0. -1.
        994   -1    0    0    0    0 -0.00000000000E+00 -0.00000000000E+00  0.11368683772E-12  0.17120000000E+03  0.17120000000E+03 0.  0.
         13    1    1    2    0    0  0.29393168783E+02  0.26046356161E+02  0.20353767252E+03  0.20729198330E+03  0.10566000000E+00 0. -1.
        994    1    1    2    0    0 -0.20037566828E+02 -0.17994268958E+02  0.60634586312E+01  0.17341137025E+03  0.17120000000E+03 0.  0.
        998    1    1    2    0    0 -0.93556019559E+01 -0.80520872031E+01  0.12903988651E+04  0.12904966465E+04  0.10000000000E+02 0. -1.
</event>
<event>
 5    1  0.1688215E-008  0.3838416E+03  0.7957747E-01  0.3434600E+00
         13   -1    0    0    0    0  0.00000000000E+00  0.00000000000E+00  0.14999999963E+04  0.15000000000E+04  0.10566000000E+00 0. -1.
        994   -1    0    0    0    0 -0.00000000000E+00 -0.00000000000E+00  0.11368683772E-12  0.17120000000E+03  0.17120000000E+03 0.  0.
         13    1    1    2    0    0  0.74086166639E+01 -0.22683933794E+02  0.12578544559E+03  0.12802905115E+03  0.10566000000E+00 0. -1.
        994    1    1    2    0    0 -0.27855030719E-01  0.18395505844E+02  0.33242027989E+01  0.17221755351E+03  0.17120000000E+03 0.  0.
        998    1    1    2    0    0 -0.73807616331E+01  0.42884279506E+01  0.13708903479E+04  0.13709533953E+04  0.10000000000E+02 0. -1.
</event>
<event>
 5    1  0.1709145E-008  0.3864231E+03  0.7957747E-01  0.3423659E+00
         13   -1    0    0    0    0  0.00000000000E+00  0.00000000000E+00  0.14999999963E+04  0.15000000000E+04  0.10566000000E+00 0. -1.
        994   -1    0    0    0    0 -0.00000000000E+00 -0.00000000000E+00  0.11368683772E-12  0.17120000000E+03  0.17120000000E+03 0.  0.
         13    1    1    2    0    0  0.77321169600E+01 -0.78591338820E+01  0.62260310824E+02  0.63229020916E+02  0.10566000000E+00 0. -1.
        994    1    1    2    0    0 -0.10753033464E+02  0.12545000985E+02  0.18194521991E+01  0.17200510221E+03  0.17120000000E+03 0.  0.
        998    1    1    2    0    0  0.30209165037E+01 -0.46858671031E+01  0.14359202333E+04  0.14359658769E+04  0.10000000000E+02 0. -1.
</event>
<event>
 5    1  0.1688215E-008  0.3858412E+03  0.7957747E-01  0.3426113E+00
         13   -1    0    0    0    0  0.00000000000E+00  0.00000000000E+00  0.14999999963E+04  0.15000000000E+04  0.10566000000E+00 0.  1.
        994   -1    0    0    0    0 -0.00000000000E+00 -0.00000000000E+00  0.11368683772E-12  0.17120000000E+03  0.17120000000E+03 0.  0.
         13    1    1    2    0    0  0.12116686207E+02 -0.10853847589E+02  0.95162484215E+02  0.96542890252E+02  0.10566000000E+00 0.  1.
        994    1    1    2    0    0 -0.26270624832E+02  0.11797924851E+02  0.39377958005E+01  0.17364988625E+03  0.17120000000E+03 0.  0.
        998    1    1    2    0    0  0.14153938625E+02 -0.94407726262E+00  0.14008997163E+04  0.14010072235E+04  0.10000000000E+02 0.  1.
</event>
<event>
 5    1  0.1688215E-008  0.3813004E+03  0.7957747E-01  0.3445516E+00
         13   -1    0    0    0    0  0.00000000000E+00  0.00000000000E+00  0.14999999963E+04  0.15000000000E+04  0.10566000000E+00 0. -1.
        994   -1    0    0    0    0 -0.00000000000E+00 -0.00000000000E+00  0.11368683772E-12  0.17120000000E+03  0.17120000000E+03 0.  0.
         13    1    1    2    0    0 -0.17138096046E+02  0.52201332917E+01  0.44416620597E+02  0.47893751961E+02  0.10566000000E+00 0. -1.
        994    1    1    2    0    0  0.13084184870E+02 -0.71099812420E+01  0.42166003812E+01  0.17189813101E+03  0.17120000000E+03 0.  0.
        998    1    1    2    0    0  0.40539111764E+01  0.18898479502E+01  0.14513667753E+04  0.14514081170E+04  0.10000000000E+02 0. -1.
</event>
<event>
 5    1  0.1688215E-008  0.3757508E+03  0.7957747E-01  0.3469872E+00
         13   -1    0    0    0    0  0.00000000000E+00  0.00000000000E+00  0.14999999963E+04  0.15000000000E+04  0.10566000000E+00 0.  1.
        994   -1    0    0    0    0 -0.00000000000E+00 -0.00000000000E+00  0.11368683772E-12  0.17120000000E+03  0.17120000000E+03 0.  0.
         13    1    1    2    0    0 -0.17528283001E+02 -0.41061278774E+02  0.13111793760E+03  0.13851062791E+03  0.10566000000E+00 0.  1.
        994    1    1    2    0    0 -0.29552380641E+01  0.69809826754E+02  0.23031118531E+02  0.18633844951E+03  0.17120000000E+03 0.  0.
        998    1    1    2    0    0  0.20483521065E+02 -0.28748547980E+02  0.13458509401E+04  0.13463509226E+04  0.10000000000E+02 0.  1.
</event>
<event>
 5    1  0.1688215E-008  0.3843218E+03  0.7957747E-01  0.3432553E+00
         13   -1    0    0    0    0  0.00000000000E+00  0.00000000000E+00  0.14999999963E+04  0.15000000000E+04  0.10566000000E+00 0. -1.
        994   -1    0    0    0    0 -0.00000000000E+00 -0.00000000000E+00  0.11368683772E-12  0.17120000000E+03  0.17120000000E+03 0.  0.
         13    1    1    2    0    0 -0.24009922784E+01 -0.15712484652E+02  0.62865300911E+02  0.64843690214E+02  0.10566000000E+00 0. -1.
        994    1    1    2    0    0  0.31696549329E+01  0.12965513529E+02  0.25545883588E+01  0.17173851395E+03  0.17120000000E+03 0.  0.
        998    1    1    2    0    0 -0.76866265450E+00  0.27469711233E+01  0.14345801070E+04  0.14346177958E+04  0.10000000000E+02 0. -1.
</event>
<event>
 5    1  0.1688215E-008  0.3782249E+03  0.7957747E-01  0.3458924E+00
         13   -1    0    0    0    0  0.00000000000E+00  0.00000000000E+00  0.14999999963E+04  0.15000000000E+04  0.10566000000E+00 0.  1.
        994   -1    0    0    0    0 -0.00000000000E+00 -0.00000000000E+00  0.11368683772E-12  0.17120000000E+03  0.17120000000E+03 0.  0.
         13    1    1    2    0    0  0.89596531015E+01  0.11777999616E+02  0.19501239343E+02  0.24480730353E+02  0.10566000000E+00 0.  1.
        994    1    1    2    0    0 -0.18433545336E+02 -0.19749159519E+01  0.61884511363E+01  0.17231202168E+03  0.17120000000E+03 0.  0.
        998    1    1    2    0    0  0.94738922342E+01 -0.98030836641E+01  0.14743103058E+04  0.14744072480E+04  0.10000000000E+02 0.  1.
</event>
<event>
 5    1  0.1688215E-008  0.3850467E+03  0.7957747E-01  0.3429474E+00
         13   -1    0    0    0    0  0.00000000000E+00  0.00000000000E+00  0.14999999963E+04  0.15000000000E+04  0.10566000000E+00 0.  1.
        994   -1    0    0    0    0 -0.00000000000E+00 -0.00000000000E+00  0.11368683772E-12  0.17120000000E+03  0.17120000000E+03 0.  0.
         13    1    1    2    0    0  0.52957647307E+01  0.12610663038E+02  0.56266271636E+02  0.57904908550E+02  0.10566000000E+00 0.  1.
        994    1    1    2    0    0  0.51948800558E+01 -0.18457897979E+02  0.28168997401E+01  0.17229351613E+03  0.17120000000E+03 0.  0.
        998    1    1    2    0    0 -0.10490644786E+02  0.58472349403E+01  0.14409168249E+04  0.14410015753E+04  0.10000000000E+02 0.  1.
</event>
<event>
 5    1  0.1688215E-008  0.3780656E+03  0.7957747E-01  0.3459625E+00
         13   -1    0    0    0    0  0.00000000000E+00  0.00000000000E+00  0.14999999963E+04  0.15000000000E+04  0.10566000000E+00 0. -1.
        994   -1    0    0    0    0 -0.00000000000E+00 -0.00000000000E+00  0.11368683772E-12  0.17120000000E+03  0.17120000000E+03 0.  0.
         13    1    1    2    0    0  0.13372637200E+02 -0.20216542772E+02  0.55923364556E+02  0.60950552866E+02  0.10566000000E+00 0. -1.
        994    1    1    2    0    0  0.23154657619E+01  0.17938218297E+02  0.62142487667E+01  0.17226490631E+03  0.17120000000E+03 0.  0.
        998    1    1    2    0    0 -0.15688102962E+02  0.22783244747E+01  0.14378623830E+04  0.14379845408E+04  0.10000000000E+02 0. -1.
</event>
<event>
 5    1  0.1688215E-008  0.3824577E+03  0.7957747E-01  0.3440526E+00
         13   -1    0    0    0    0  0.00000000000E+00  0.00000000000E+00  0.14999999963E+04  0.15000000000E+04  0.10566000000E+00 0.  1.
        994   -1    0    0    0    0 -0.00000000000E+00 -0.00000000000E+00  0.11368683772E-12  0.17120000000E+03  0.17120000000E+03 0.  0.
         13    1    1    2    0    0 -0.14634171711E+02  0.68139975958E+01  0.43406876575E+02  0.46311528186E+02  0.10566000000E+00 0.  1.
        994    1    1    2    0    0  0.11879647528E+02 -0.78553191409E+01  0.35705051081E+01  0.17182846263E+03  0.17120000000E+03 0.  0.
        998    1    1    2    0    0  0.27545241831E+01  0.10413215451E+01  0.14530226146E+04  0.14530600092E+04  0.10000000000E+02 0.  1.
</event>
<event>
 5    1  0.1688215E-008  0.3848319E+03  0.7957747E-01  0.3430386E+00
         13   -1    0    0    0    0  0.00000000000E+00  0.00000000000E+00  0.14999999963E+04  0.15000000000E+04  0.10566000000E+00 0. -1.
        994   -1    0    0    0    0 -0.00000000000E+00 -0.00000000000E+00  0.11368683772E-12  0.17120000000E+03  0.17120000000E+03 0.  0.
         13    1    1    2    0    0 -0.69264259463E+01  0.11858454664E+02  0.56590952320E+02  0.58233541640E+02  0.10566000000E+00 0. -1.
        994    1    1    2    0    0  0.61312059518E+00 -0.42370314911E+01  0.17739447735E+01  0.17126270824E+03  0.17120000000E+03 0.  0.
        998    1    1    2    0    0  0.63133053511E+01 -0.76214231727E+01  0.14416350992E+04  0.14417037501E+04  0.10000000000E+02 0. -1.
</event>
<event>
 5    1  0.1688215E-008  0.3706846E+03  0.7957747E-01  0.3492751E+00
         13   -1    0    0    0    0  0.00000000000E+00  0.00000000000E+00  0.14999999963E+04  0.15000000000E+04  0.10566000000E+00 0. -1.
        994   -1    0    0    0    0 -0.00000000000E+00 -0.00000000000E+00  0.11368683772E-12  0.17120000000E+03  0.17120000000E+03 0.  0.
         13    1    1    2    0    0  0.58480921528E+01  0.85787010260E+01  0.18584361320E+01  0.10547949659E+02  0.10566000000E+00 0. -1.
        994    1    1    2    0    0 -0.38943472640E+01 -0.10722580820E+02  0.93607325716E+01  0.17183481310E+03  0.17120000000E+03 0.  0.
        998    1    1    2    0    0 -0.19537448888E+01  0.21438797939E+01  0.14887808276E+04  0.14888172372E+04  0.10000000000E+02 0. -1.
</event>
<event>
 5    1  0.1688215E-008  0.3852810E+03  0.7957747E-01  0.3428481E+00
         13   -1    0    0    0    0  0.00000000000E+00  0.00000000000E+00  0.14999999963E+04  0.15000000000E+04  0.10566000000E+00 0. -1.
        994   -1    0    0    0    0 -0.00000000000E+00 -0.00000000000E+00  0.11368683772E-12  0.17120000000E+03  0.17120000000E+03 0.  0.
         13    1    1    2    0    0 -0.11465902015E+02  0.50083952957E+01  0.51692237819E+02  0.53185050035E+02  0.10566000000E+00 0. -1.
        994    1    1    2    0    0  0.94873940602E+01 -0.67250169858E+01  0.19351727091E+01  0.17160542355E+03  0.17120000000E+03 0.  0.
        998    1    1    2    0    0  0.19785079546E+01  0.17166216901E+01  0.14463725858E+04  0.14464095264E+04  0.10000000000E+02 0. -1.
</event>
<event>
 5    1  0.1688215E-008  0.3793038E+03  0.7957747E-01  0.3454196E+00
         13   -1    0    0    0    0  0.00000000000E+00  0.00000000000E+00  0.14999999963E+04  0.15000000000E+04  0.10566000000E+00 0. -1.
        994   -1    0    0    0    0 -0.00000000000E+00 -0.00000000000E+00  0.11368683772E-12  0.17120000000E+03  0.17120000000E+03 0.  0.
         13    1    1    2    0    0  0.27755000203E+02 -0.51852782497E+01  0.82339003483E+02  0.87045676547E+02  0.10566000000E+00 0. -1.
        994    1    1    2    0    0 -0.32082547064E+02 -0.58989224130E+01  0.80585978494E+01  0.17446623774E+03  0.17120000000E+03 0.  0.
        998    1    1    2    0    0  0.43275468611E+01  0.11084200663E+02  0.14096023949E+04  0.14096880857E+04  0.10000000000E+02 0. -1.
</event>
<event>
 5    1  0.1688215E-008  0.3750059E+03  0.7957747E-01  0.3473196E+00
         13   -1    0    0    0    0  0.00000000000E+00  0.00000000000E+00  0.14999999963E+04  0.15000000000E+04  0.10566000000E+00 0. -1.
        994   -1    0    0    0    0 -0.00000000000E+00 -0.00000000000E+00  0.11368683772E-12  0.17120000000E+03  0.17120000000E+03 0.  0.
         13    1    1    2    0    0  0.26852560424E+02  0.21785708195E+02  0.98616148952E+02  0.10450278982E+03  0.10566000000E+00 0. -1.
        994    1    1    2    0    0  0.27049658223E+01  0.90593014141E+01  0.69796110215E+01  0.17160286347E+03  0.17120000000E+03 0.  0.
        998    1    1    2    0    0 -0.29557526246E+02 -0.30845009609E+02  0.13944042363E+04  0.13950943467E+04  0.10000000000E+02 0. -1.
</event>
<event>
 5    1  0.3015296E-008  0.3862665E+03  0.7957747E-01  0.3424319E+00
         13   -1    0    0    0    0  0.00000000000E+00  0.00000000000E+00  0.14999999963E+04  0.15000000000E+04  0.10566000000E+00 0. -1.
        994   -1    0    0    0    0 -0.00000000000E+00 -0.00000000000E+00  0.11368683772E-12  0.17120000000E+03  0.17120000000E+03 0.  0.
         13    1    1    2    0    0  0.98354445460E+01 -0.22280169751E+01  0.50854083625E+02  0.51844469468E+02  0.10566000000E+00 0. -1.
        994    1    1    2    0    0 -0.88139769863E+01  0.79510503714E+00  0.12591896143E+01  0.17143320548E+03  0.17120000000E+03 0.  0.
        998    1    1    2    0    0 -0.10214675597E+01  0.14329119380E+01  0.14478867230E+04  0.14479223251E+04  0.10000000000E+02 0. -1.
</event>
<event>
 5    1  0.1688215E-008  0.4182544E+03  0.7957747E-01  0.3299822E+00
         13   -1    0    0    0    0  0.00000000000E+00  0.00000000000E+00  0.14999999963E+04  0.15000000000E+04  0.10566000000E+00 0. -1.
        994   -1    0    0    0    0 -0.00000000000E+00 -0.00000000000E+00  0.11368683772E-12  0.17120000000E+03  0.17120000000E+03 0.  0.
         13    1    1    2    0    0  0.11060769088E+03 -0.62605209363E+02  0.18257347695E+03  0.22245574655E+03  0.10566000000E+00 0. -1.
        994    1    1    2    0    0 -0.88919008459E+02  0.62839631423E+02  0.91473197090E+02  0.22255829602E+03  0.17120000000E+03 0.  0.
        998    1    1    2    0    0 -0.21688682420E+02 -0.23442206011E+00  0.12259533222E+04  0.12261859574E+04  0.10000000000E+02 0. -1.
</event>
<event>
 5    1  0.1688215E-008  0.3787868E+03  0.7957747E-01  0.3456458E+00
         13   -1    0    0    0    0  0.00000000000E+00  0.00000000000E+00  0.14999999963E+04  0.15000000000E+04  0.10566000000E+00 0. -1.
        994   -1    0    0    0    0 -0.00000000000E+00 -0.00000000000E+00  0.11368683772E-12  0.17120000000E+03  0.17120000000E+03 0.  0.
         13    1    1    2    0    0  0.13380673706E+02  0.35875777177E+02  0.21069654665E+03  0.21414751867E+03  0.10566000000E+00 0. -1.
        994    1    1    2    0    0  0.13383515086E+02  0.16466430562E+02  0.62595301187E+01  0.17262353121E+03  0.17120000000E+03 0.  0.
        998    1    1    2    0    0 -0.26764188793E+02 -0.52342207739E+02  0.12830439195E+04  0.12844289501E+04  0.10000000000E+02 0. -1.
</event>
<event>
 5    1  0.1688215E-008  0.3823048E+03  0.7957747E-01  0.3441184E+00
         13   -1    0    0    0    0  0.00000000000E+00  0.00000000000E+00  0.14999999963E+04  0.15000000000E+04  0.10566000000E+00 0. -1.
        994   -1    0    0    0    0 -0.00000000000E+00 -0.00000000000E+00  0.11368683772E-12  0.17120000000E+03  0.17120000000E+03 0.  0.
         13    1    1    2    0    0  0.30970021059E+02  0.28708746297E+02  0.24776124805E+03  0.25133440178E+03  0.10566000000E+00 0. -1.
        994    1    1    2    0    0 -0.28487211961E+02 -0.34380464249E+02  0.96164322219E+01  0.17718762185E+03  0.17120000000E+03 0.  0.
        998    1    1    2    0    0 -0.24828090982E+01  0.56717179523E+01  0.12426223160E+04  0.12426779764E+04  0.10000000000E+02 0. -1.
</event>
<event>
 5    1  0.1688215E-008  0.3817102E+03  0.7957747E-01  0.3443745E+00
         13   -1    0    0    0    0  0.00000000000E+00  0.00000000000E+00  0.14999999963E+04  0.15000000000E+04  0.10566000000E+00 0.  1.
        994   -1    0    0    0    0 -0.00000000000E+00 -0.00000000000E+00  0.11368683772E-12  0.17120000000E+03  0.17120000000E+03 0.  0.
         13    1    1    2    0    0  0.27958985412E+02 -0.25038125590E+02  0.19333715880E+03  0.19694639051E+03  0.10566000000E+00 0.  1.
        994    1    1    2    0    0 -0.28008844055E+02  0.20686488261E+02  0.73130731903E+01  0.17485807726E+03  0.17120000000E+03 0.  0.
        998    1    1    2    0    0  0.49858643167E-01  0.43516373292E+01  0.12993497643E+04  0.12993955322E+04  0.10000000000E+02 0.  1.
</event>
<event>
 5    1  0.1688215E-008  0.3808949E+03  0.7957747E-01  0.3447271E+00
         13   -1    0    0    0    0  0.00000000000E+00  0.00000000000E+00  0.14999999963E+04  0.15000000000E+04  0.10566000000E+00 0.  1.
        994   -1    0    0    0    0 -0.00000000000E+00 -0.00000000000E+00  0.11368683772E-12  0.17120000000E+03  0.17120000000E+03 0.  0.
         13    1    1    2    0    0  0.59627929998E+00  0.16710853844E+02  0.36973644603E+02  0.40579178706E+02  0.10566000000E+00 0.  1.
        994    1    1    2    0    0  0.71579592048E+01 -0.83994402543E+01  0.40881008242E+01  0.17160401961E+03  0.17120000000E+03 0.  0.
        998    1    1    2    0    0 -0.77542385047E+01 -0.83114135895E+01  0.14589382509E+04  0.14590168017E+04  0.10000000000E+02 0.  1.
</event>
<event>
 5    1  0.1688215E-008  0.3841272E+03  0.7957747E-01  0.3433382E+00
         13   -1    0    0    0    0  0.00000000000E+00  0.00000000000E+00  0.14999999963E+04  0.15000000000E+04  0.10566000000E+00 0. -1.
        994   -1    0    0    0    0 -0.00000000000E+00 -0.00000000000E+00  0.11368683772E-12  0.17120000000E+03  0.17120000000E+03 0.  0.
         13    1    1    2    0    0  0.49832774085E+01 -0.16672843547E+02  0.75640919746E+02  0.77616858154E+02  0.10566000000E+00 0. -1.
        994    1    1    2    0    0  0.85342406949E+01  0.83396754152E+01  0.25338117627E+01  0.17163403990E+03  0.17120000000E+03 0.  0.
        998    1    1    2    0    0 -0.13517518103E+02  0.83331681319E+01  0.14218252648E+04  0.14219491019E+04  0.10000000000E+02 0. -1.
</event>
<event>
 5    1  0.1688215E-008  0.3845429E+03  0.7957747E-01  0.3431613E+00
         13   -1    0    0    0    0  0.00000000000E+00  0.00000000000E+00  0.14999999963E+04  0.15000000000E+04  0.10566000000E+00 0. -1.
        994   -1    0    0    0    0 -0.00000000000E+00 -0.00000000000E+00  0.11368683772E-12  0.17120000000E+03  0.17120000000E+03 0.  0.
         13    1    1    2    0    0 -0.11315474528E+02 -0.15390666938E+02  0.10854579233E+03  0.11021394099E+03  0.10566000000E+00 0. -1.
        994    1    1    2    0    0  0.23897043401E+01 -0.27922822765E+01  0.19017540830E+01  0.17125000495E+03  0.17120000000E+03 0.  0.
        998    1    1    2    0    0  0.89257701881E+01  0.18182949215E+02  0.13895524499E+04  0.13897360541E+04  0.10000000000E+02 0. -1.
</event>
<event>
 5    1  0.1688215E-008  0.3800795E+03  0.7957747E-01  0.3450812E+00
         13   -1    0    0    0    0  0.00000000000E+00  0.00000000000E+00  0.14999999963E+04  0.15000000000E+04  0.10566000000E+00 0.  1.
        994   -1    0    0    0    0 -0.00000000000E+00 -0.00000000000E+00  0.11368683772E-12  0.17120000000E+03  0.17120000000E+03 0.  0.
         13    1    1    2    0    0  0.57951192772E-01 -0.11735337360E+02  0.15089630694E+02  0.19116213532E+02  0.10566000000E+00 0.  1.
        994    1    1    2    0    0 -0.91752742979E+00  0.78761391303E+01  0.43031751816E+01  0.17143754764E+03  0.17120000000E+03 0.  0.
        998    1    1    2    0    0  0.85957623702E+00  0.38591982292E+01  0.14806071904E+04  0.14806462388E+04  0.10000000000E+02 0.  1.
</event>
<event>
 5    1  0.1688215E-008  0.3761962E+03  0.7957747E-01  0.3467890E+00
         13   -1    0    0    0    0  0.00000000000E+00  0.00000000000E+00  0.14999999963E+04  0.15000000000E+04  0.10566000000E+00 0.  1.
        994   -1    0    0    0    0 -0.00000000000E+00 -0.00000000000E+00  0.11368683772E-12  0.17120000000E+03  0.17120000000E+03 0.  0.
         13    1    1    2    0    0  0.19340946967E+02 -0.46301772986E+02  0.80914463511E+02  0.95210755593E+02  0.10566000000E+00 0.  1.
        994    1    1    2    0    0 -0.24408995090E+02  0.36656519022E+02  0.21216920840E+02  0.17804240270E+03  0.17120000000E+03 0.  0.
        998    1    1    2    0    0  0.50680481234E+01  0.96452539644E+01  0.13978686119E+04  0.13979468417E+04  0.10000000000E+02 0.  1.
</event>
<event>
 5    1  0.1688215E-008  0.3775934E+03  0.7957747E-01  0.3461705E+00
         13   -1    0    0    0    0  0.00000000000E+00  0.00000000000E+00  0.14999999963E+04  0.15000000000E+04  0.10566000000E+00 0. -1.
        994   -1    0    0    0    0 -0.00000000000E+00 -0.00000000000E+00  0.11368683772E-12  0.17120000000E+03  0.17120000000E+03 0.  0.
         13    1    1    2    0    0 -0.18374872640E+02  0.45828326255E+02  0.19720165313E+03  0.20328889441E+03  0.10566000000E+00 0. -1.
        994    1    1    2    0    0  0.19895080663E+02 -0.45554731034E+02  0.13725365522E+02  0.17879841558E+03  0.17120000000E+03 0.  0.
        998    1    1    2    0    0 -0.15202080234E+01 -0.27359522117E+00  0.12890729776E+04  0.12891126900E+04  0.10000000000E+02 0.  0.
</event>
<event>
 5    1  0.1688215E-008  0.3689128E+03  0.7957747E-01  0.3500902E+00
         13   -1    0    0    0    0  0.00000000000E+00  0.00000000000E+00  0.14999999963E+04  0.15000000000E+04  0.10566000000E+00 0. -1.
        994   -1    0    0    0    0 -0.00000000000E+00 -0.00000000000E+00  0.11368683772E-12  0.17120000000E+03  0.17120000000E+03 0.  0.
         13    1    1    2    0    0 -0.29707738631E+02  0.28851170334E+02  0.84987539925E+02  0.94540112496E+02  0.10566000000E+00 0. -1.
        994    1    1    2    0    0  0.28395743403E+02 -0.20593095408E+01  0.12656783201E+02  0.17401204889E+03  0.17120000000E+03 0.  0.
        998    1    1    2    0    0  0.13119952275E+01 -0.26791860793E+02  0.14023556732E+04  0.14026478386E+04  0.10000000000E+02 0. -1.
</event>
<event>
 5    1  0.1688215E-008  0.3811649E+03  0.7957747E-01  0.3446102E+00
         13   -1    0    0    0    0  0.00000000000E+00  0.00000000000E+00  0.14999999963E+04  0.15000000000E+04  0.10566000000E+00 0.  1.
        994   -1    0    0    0    0 -0.00000000000E+00 -0.00000000000E+00  0.11368683772E-12  0.17120000000E+03  0.17120000000E+03 0.  0.
         13    1    1    2    0    0 -0.75950013662E+01  0.13967384529E+02  0.34249412073E+02  0.37759836701E+02  0.10566000000E+00 0.  1.
        994    1    1    2    0    0  0.45001255876E+01 -0.10282647146E+02  0.39659263534E+01  0.17161338099E+03  0.17120000000E+03 0.  0.
        998    1    1    2    0    0  0.30948757787E+01 -0.36847373823E+01  0.14617846579E+04  0.14618267823E+04  0.10000000000E+02 0.  1.
</event>
<event>
 5    1  0.1688215E-008  0.3804577E+03  0.7957747E-01  0.3449168E+00
         13   -1    0    0    0    0  0.00000000000E+00  0.00000000000E+00  0.14999999963E+04  0.15000000000E+04  0.10566000000E+00 0. -1.
        994   -1    0    0    0    0 -0.00000000000E+00 -0.00000000000E+00  0.11368683772E-12  0.17120000000E+03  0.17120000000E+03 0.  0.
         13    1    1    2    0    0 -0.15607320052E+02 -0.35763993593E+01  0.33154188341E+02  0.36818343800E+02  0.10566000000E+00 0. -1.
        994    1    1    2    0    0 -0.63708610235E+01 -0.15985548623E+01  0.40463114820E+01  0.17137373161E+03  0.17120000000E+03 0.  0.
        998    1    1    2    0    0  0.21978181076E+02  0.51749542216E+01  0.14627994965E+04  0.14630079246E+04  0.10000000000E+02 0. -1.
</event>
<event>
 5    1  0.1688215E-008  0.3790615E+03  0.7957747E-01  0.3455255E+00
         13   -1    0    0    0    0  0.00000000000E+00  0.00000000000E+00  0.14999999963E+04  0.15000000000E+04  0.10566000000E+00 0. -1.
        994   -1    0    0    0    0 -0.00000000000E+00 -0.00000000000E+00  0.11368683772E-12  0.17120000000E+03  0.17120000000E+03 0.  0.
         13    1    1    2    0    0 -0.98785365111E+00 -0.16925734265E+02  0.31746683393E+01  0.17249522264E+02  0.10566000000E+00 0. -1.
        994    1    1    2    0    0  0.80606171907E+01 -0.11093969747E+03  0.61973578123E+02  0.21336062057E+03  0.17120000000E+03 0.  0.
        998    1    1    2    0    0 -0.70727635396E+01  0.12786543174E+03  0.14348517498E+04  0.14405898572E+04  0.10000000000E+02 0. -1.
</event>
<event>
 5    1  0.1688215E-008  0.3850868E+03  0.7957747E-01  0.3429304E+00
         13   -1    0    0    0    0  0.00000000000E+00  0.00000000000E+00  0.14999999963E+04  0.15000000000E+04  0.10566000000E+00 0.  1.
        994   -1    0    0    0    0 -0.00000000000E+00 -0.00000000000E+00  0.11368683772E-12  0.17120000000E+03  0.17120000000E+03 0.  0.
         13    1    1    2    0    0  0.12689264811E+02  0.81638284874E+01  0.81616093237E+02  0.82999176961E+02  0.10566000000E+00 0.  1.
        994    1    1    2    0    0  0.54561835237E+00  0.12738067556E+02  0.21216499247E+01  0.17168720821E+03  0.17120000000E+03 0.  0.
        998    1    1    2    0    0 -0.13234883164E+02 -0.20901896044E+02  0.14162622531E+04  0.14165136148E+04  0.10000000000E+02 0.  1.
</event>
<event>
 5    1  0.1688215E-008  0.3818230E+03  0.7957747E-01  0.3443259E+00
         13   -1    0    0    0    0  0.00000000000E+00  0.00000000000E+00  0.14999999963E+04  0.15000000000E+04  0.10566000000E+00 0. -1.
        994   -1    0    0    0    0 -0.00000000000E+00 -0.00000000000E+00  0.11368683772E-12  0.17120000000E+03  0.17120000000E+03 0.  0.
         13    1    1    2    0    0  0.17282229410E+02 -0.12395962583E+02  0.68899227835E+02  0.72107212552E+02  0.10566000000E+00 0. -1.
        994    1    1    2    0    0 -0.78585328437E+01  0.14201927593E+02  0.40916505559E+01  0.17201637390E+03  0.17120000000E+03 0.  0.
        998    1    1    2    0    0 -0.94236965665E+01 -0.18059650107E+01  0.14270091179E+04  0.14270764135E+04  0.10000000000E+02 0. -1.
</event>
<event>
 5    1  0.1688215E-008  0.3703507E+03  0.7957747E-01  0.3494281E+00
         13   -1    0    0    0    0  0.00000000000E+00  0.00000000000E+00  0.14999999963E+04  0.15000000000E+04  0.10566000000E+00 0. -1.
        994   -1    0    0    0    0 -0.00000000000E+00 -0.00000000000E+00  0.11368683772E-12  0.17120000000E+03  0.17120000000E+03 0.  0.
         13    1    1    2    0    0  0.12590176044E+02 -0.57190178779E+01  0.34523354337E+01  0.14253051683E+02  0.10566000000E+00 0. -1.
        994    1    1    2    0    0 -0.15312258950E+02  0.11515465491E+00  0.11945499532E+02  0.17229803683E+03  0.17120000000E+03 0.  0.
        998    1    1    2    0    0  0.27220829062E+01  0.56038632230E+01  0.14846021613E+04  0.14846489115E+04  0.10000000000E+02 0. -1.
</event>
<event>
 5    1  0.1688215E-008  0.3834758E+03  0.7957747E-01  0.3436162E+00
         13   -1    0    0    0    0  0.00000000000E+00  0.00000000000E+00  0.14999999963E+04  0.15000000000E+04  0.10566000000E+00 0. -1.
        994   -1    0    0    0    0 -0.00000000000E+00 -0.00000000000E+00  0.11368683772E-12  0.17120000000E+03  0.17120000000E+03 0.  0.
         13    1    1    2    0    0  0.14098325917E+02  0.47111814572E+00  0.39375344308E+02  0.41825992509E+02  0.10566000000E+00 0. -1.
        994    1    1    2    0    0 -0.18862751223E+02 -0.56533076432E+00  0.35666147897E+01  0.17227386257E+03  0.17120000000E+03 0.  0.
        998    1    1    2    0    0  0.47644253058E+01  0.94212618602E-01  0.14570580372E+04  0.14571001449E+04  0.10000000000E+02 0. -1.
</event>
<event>
 5    1  0.1688215E-008  0.3827196E+03  0.7957747E-01  0.3439402E+00
         13   -1    0    0    0    0  0.00000000000E+00  0.00000000000E+00  0.14999999963E+04  0.15000000000E+04  0.10566000000E+00 0.  1.
        994   -1    0    0    0    0 -0.00000000000E+00 -0.00000000000E+00  0.11368683772E-12  0.17120000000E+03  0.17120000000E+03 0.  0.
         13    1    1    2    0    0  0.23556293567E+02  0.78217514800E+01  0.12281688696E+03  0.12529995071E+03  0.10566000000E+00 0.  1.
        994    1    1    2    0    0  0.34847780395E+01 -0.10955764567E+02  0.32045925409E+01  0.17161550591E+03  0.17120000000E+03 0.  0.
        998    1    1    2    0    0 -0.27041071606E+02  0.31340130865E+01  0.13739785168E+04  0.13742845434E+04  0.10000000000E+02 0.  1.
</event>
<event>
 5    1  0.1688215E-008  0.3845637E+03  0.7957747E-01  0.3431525E+00
         13   -1    0    0    0    0  0.00000000000E+00  0.00000000000E+00  0.14999999963E+04  0.15000000000E+04  0.10566000000E+00 0.  1.
        994   -1    0    0    0    0 -0.00000000000E+00 -0.00000000000E+00  0.11368683772E-12  0.17120000000E+03  0.17120000000E+03 0.  0.
         13    1    1    2    0    0  0.97766963824E+01 -0.19019387273E+02  0.11481908407E+03  0.11679363902E+03  0.10566000000E+00 0.  1.
        994    1    1    2    0    0 -0.14050878041E+02  0.18363591944E+02  0.36096324581E+01  0.17279212404E+03  0.17120000000E+03 0.  0.
        998    1    1    2    0    0  0.42741816586E+01  0.65579532925E+00  0.13815712797E+04  0.13816142369E+04  0.10000000000E+02 0.  1.
</event>
<event>
 5    1  0.1688215E-008  0.3825016E+03  0.7957747E-01  0.3440338E+00
         13   -1    0    0    0    0  0.00000000000E+00  0.00000000000E+00  0.14999999963E+04  0.15000000000E+04  0.10566000000E+00 0.  1.
        994   -1    0    0    0    0 -0.00000000000E+00 -0.00000000000E+00  0.11368683772E-12  0.17120000000E+03  0.17120000000E+03 0.  0.
         13    1    1    2    0    0  0.24673334749E+02  0.11650343274E+02  0.12550820160E+03  0.12843996177E+03  0.10566000000E+00 0.  1.
        994    1    1    2    0    0 -0.21011963676E+02 -0.24991778638E+01  0.43615501672E+01  0.17255785009E+03  0.17120000000E+03 0.  0.
        998    1    1    2    0    0 -0.36613710734E+01 -0.91511654102E+01  0.13701302445E+04  0.13702021881E+04  0.10000000000E+02 0.  1.
</event>
<event>
 5    1  0.1688215E-008  0.3858449E+03  0.7957747E-01  0.3426097E+00
         13   -1    0    0    0    0  0.00000000000E+00  0.00000000000E+00  0.14999999963E+04  0.15000000000E+04  0.10566000000E+00 0.  1.
        994   -1    0    0    0    0 -0.00000000000E+00 -0.00000000000E+00  0.11368683772E-12  0.17120000000E+03  0.17120000000E+03 0.  0.
         13    1    1    2    0    0  0.20639373812E+03 -0.32643673622E+02  0.12180897562E+04  0.12358829435E+04  0.10566000000E+00 0.  1.
        994    1    1    2    0    0 -0.21398796941E+03  0.25757541898E+02  0.17220678380E+03  0.32468279659E+03  0.17120000000E+03 0.  0.
        998    1    1    2    0    0  0.75942312900E+01  0.68861317246E+01  0.10970345625E+03  0.11063425994E+03  0.10000000000E+02 0.  1.
</event>
<event>
 5    1  0.1688215E-008  0.3757016E+03  0.7957747E-01  0.3470091E+00
         13   -1    0    0    0    0  0.00000000000E+00  0.00000000000E+00  0.14999999963E+04  0.15000000000E+04  0.10566000000E+00 0.  1.
        994   -1    0    0    0    0 -0.00000000000E+00 -0.00000000000E+00  0.11368683772E-12  0.17120000000E+03  0.17120000000E+03 0.  0.
         13    1    1    2    0    0 -0.29213257471E+02 -0.13361063944E+02  0.77046930360E+02  0.83475583758E+02  0.10566000000E+00 0.  1.
        994    1    1    2    0    0  0.26950751890E+02  0.78554570674E+01  0.89959037665E+01  0.17371936426E+03  0.17120000000E+03 0.  0.
        998    1    1    2    0    0  0.22625055814E+01  0.55056068770E+01  0.14139571622E+04  0.14140050520E+04  0.10000000000E+02 0.  1.
</event>
<event>
 5    1  0.1688215E-008  0.3845875E+03  0.7957747E-01  0.3431424E+00
         13   -1    0    0    0    0  0.00000000000E+00  0.00000000000E+00  0.14999999963E+04  0.15000000000E+04  0.10566000000E+00 0.  1.
        994   -1    0    0    0    0 -0.00000000000E+00 -0.00000000000E+00  0.11368683772E-12  0.17120000000E+03  0.17120000000E+03 0.  0.
         13    1    1    2    0    0  0.17691920855E+02  0.43678597363E+00  0.91235034390E+02  0.92935663282E+02  0.10566000000E+00 0.  1.
        994    1    1    2    0    0 -0.16799368338E+01 -0.53585758089E+01  0.19389435906E+01  0.17130305317E+03  0.17120000000E+03 0.  0.
        998    1    1    2    0    0 -0.16011984021E+02  0.49217898353E+01  0.14068260183E+04  0.14069612835E+04  0.10000000000E+02 0.  1.
</event>
<event>
 5    1  0.1688215E-008  0.3725569E+03  0.7957747E-01  0.3484222E+00
         13   -1    0    0    0    0  0.00000000000E+00  0.00000000000E+00  0.14999999963E+04  0.15000000000E+04  0.10566000000E+00 0. -1.
        994   -1    0    0    0    0 -0.00000000000E+00 -0.00000000000E+00  0.11368683772E-12  0.17120000000E+03  0.17120000000E+03 0.  0.
         13    1    1    2    0    0  0.66089113705E+02  0.64161095176E+02  0.26675132042E+03  0.28220683053E+03  0.10566000000E+00 0. -1.
        994    1    1    2    0    0 -0.70695023719E+02 -0.69971365312E+02  0.48070774575E+02  0.20374989009E+03  0.17120000000E+03 0.  0.
        998    1    1    2    0    0  0.46059100136E+01  0.58102701356E+01  0.11851779013E+04  0.11852432794E+04  0.10000000000E+02 0. -1.
</event>
<event>
 5    1  0.1688215E-008  0.4080255E+03  0.7957747E-01  0.3337527E+00
         13   -1    0    0    0    0  0.00000000000E+00  0.00000000000E+00  0.14999999963E+04  0.15000000000E+04  0.10566000000E+00 0.  1.
        994   -1    0    0    0    0 -0.00000000000E+00 -0.00000000000E+00  0.11368683772E-12  0.17120000000E+03  0.17120000000E+03 0.  0.
         13    1    1    2    0    0  0.52645461917E+02 -0.59889028128E+02  0.99669287573E+02  0.12764097461E+03  0.10566000000E+00 0.  1.
        994    1    1    2    0    0 -0.47512250188E+02 -0.27694591419E+02  0.45008653314E+02  0.18536348935E+03  0.17120000000E+03 0.  0.
        998    1    1    2    0    0 -0.51332117289E+01  0.87583619547E+02  0.13553220554E+04  0.13581955360E+04  0.10000000000E+02 0.  1.
</event>
<event>
 5    1  0.1688215E-008  0.3732825E+03  0.7957747E-01  0.3480940E+00
         13   -1    0    0    0    0  0.00000000000E+00  0.00000000000E+00  0.14999999963E+04  0.15000000000E+04  0.10566000000E+00 0.  1.
        994   -1    0    0    0    0 -0.00000000000E+00 -0.00000000000E+00  0.11368683772E-12  0.17120000000E+03  0.17120000000E+03 0.  0.
         13    1    1    2    0    0  0.13133045672E+02 -0.20058538595E+02  0.17033919428E+02  0.29410668716E+02  0.10566000000E+00 0.  1.
        994    1    1    2    0    0 -0.71304961434E+01  0.22986417591E+02  0.14736267879E+02  0.17351027912E+03  0.17120000000E+03 0.  0.
        998    1    1    2    0    0 -0.60025495289E+01 -0.29278789967E+01  0.14682298090E+04  0.14682790522E+04  0.10000000000E+02 0.  1.
</event>
<event>
 5    1  0.1688215E-008  0.3855744E+03  0.7957747E-01  0.3427240E+00
         13   -1    0    0    0    0  0.00000000000E+00  0.00000000000E+00  0.14999999963E+04  0.15000000000E+04  0.10566000000E+00 0.  1.
        994   -1    0    0    0    0 -0.00000000000E+00 -0.00000000000E+00  0.11368683772E-12  0.17120000000E+03  0.17120000000E+03 0.  0.
         13    1    1    2    0    0 -0.12660089863E+02 -0.61444057399E+01  0.70615474246E+02  0.72004082969E+02  0.10566000000E+00 0.  1.
        994    1    1    2    0    0  0.11736955202E+02  0.12308108830E+02  0.22952453262E+01  0.17205799549E+03  0.17120000000E+03 0.  0.
        998    1    1    2    0    0  0.92313466103E+00 -0.61637030901E+01  0.14270892767E+04  0.14271379215E+04  0.10000000000E+02 0.  1.
</event>
<event>
 5    1  0.1688215E-008  0.3825642E+03  0.7957747E-01  0.3440069E+00
         13   -1    0    0    0    0  0.00000000000E+00  0.00000000000E+00  0.14999999963E+04  0.15000000000E+04  0.10566000000E+00 0. -1.
        994   -1    0    0    0    0 -0.00000000000E+00 -0.00000000000E+00  0.11368683772E-12  0.17120000000E+03  0.17120000000E+03 0.  0.
         13    1    1    2    0    0 -0.12793943248E+02 -0.56141604566E+01  0.32870852592E+02  0.35717053289E+02  0.10566000000E+00 0. -1.
        994    1    1    2    0    0  0.13352897526E+02  0.25990591145E+01  0.34579932729E+01  0.17177442388E+03  0.17120000000E+03 0.  0.
        998    1    1    2    0    0 -0.55895427836E+00  0.30151013421E+01  0.14636711504E+04  0.14637085228E+04  0.10000000000E+02 0. -1.
</event>
<event>
 5    1  0.1688215E-008  0.3763562E+03  0.7957747E-01  0.3467179E+00
         13   -1    0    0    0    0  0.00000000000E+00  0.00000000000E+00  0.14999999963E+04  0.15000000000E+04  0.10566000000E+00 0.  1.
        994   -1    0    0    0    0 -0.00000000000E+00 -0.00000000000E+00  0.11368683772E-12  0.17120000000E+03  0.17120000000E+03 0.  0.
         13    1    1    2    0    0  0.59194700966E+02 -0.45555603502E+02  0.20304638383E+03  0.21634964937E+03  0.10566000000E+00 0.  1.
        994    1    1    2    0    0 -0.37631690018E+02  0.21117122146E+01  0.19436838013E+02  0.17637413102E+03  0.17120000000E+03 0.  0.
        998    1    1    2    0    0 -0.21563010948E+02  0.43443891287E+02  0.12775167744E+04  0.12784762196E+04  0.10000000000E+02 0.  1.
</event>
<event>
 5    1  0.1688215E-008  0.3833426E+03  0.7957747E-01  0.3436732E+00
         13   -1    0    0    0    0  0.00000000000E+00  0.00000000000E+00  0.14999999963E+04  0.15000000000E+04  0.10566000000E+00 0. -1.
        994   -1    0    0    0    0 -0.00000000000E+00 -0.00000000000E+00  0.11368683772E-12  0.17120000000E+03  0.17120000000E+03 0.  0.
         13    1    1    2    0    0  0.19278712816E+01  0.17589454938E+02  0.68737315537E+02  0.70978414493E+02  0.10566000000E+00 0. -1.
        994    1    1    2    0    0  0.82014870796E+01  0.32523456730E+01  0.27126792322E+01  0.17144865345E+03  0.17120000000E+03 0.  0.
        998    1    1    2    0    0 -0.10129358361E+02 -0.20841800611E+02  0.14285500015E+04  0.14287729321E+04  0.10000000000E+02 0. -1.
</event>
<event>
 5    1  0.1688215E-008  0.3756221E+03  0.7957747E-01  0.3470445E+00
         13   -1    0    0    0    0  0.00000000000E+00  0.00000000000E+00  0.14999999963E+04  0.15000000000E+04  0.10566000000E+00 0.  1.
        994   -1    0    0    0    0 -0.00000000000E+00 -0.00000000000E+00  0.11368683772E-12  0.17120000000E+03  0.17120000000E+03 0.  0.
         13    1    1    2    0    0 -0.36912949871E+01 -0.12345025405E+02  0.10118765139E+02  0.16383707850E+02  0.10566000000E+00 0.  1.
        994    1    1    2    0    0  0.31675889327E+01  0.12431350337E+02  0.69180488145E+01  0.17181929895E+03  0.17120000000E+03 0.  0.
        998    1    1    2    0    0  0.52370605441E+00 -0.86324931901E-01  0.14829631823E+04  0.14829969932E+04  0.10000000000E+02 0.  0.
</event>
<event>
 5    1  0.1832015E-008  0.3859687E+03  0.7957747E-01  0.3425574E+00
         13   -1    0    0    0    0  0.00000000000E+00  0.00000000000E+00  0.14999999963E+04  0.15000000000E+04  0.10566000000E+00 0. -1.
        994   -1    0    0    0    0 -0.00000000000E+00 -0.00000000000E+00  0.11368683772E-12  0.17120000000E+03  0.17120000000E+03 0.  0.
         13    1    1    2    0    0  0.43498504819E+01  0.10709690637E+02  0.58985719205E+02  0.60107777425E+02  0.10566000000E+00 0. -1.
        994    1    1    2    0    0  0.10523812899E+01 -0.82080077517E+01  0.13744852783E+01  0.17140539113E+03  0.17120000000E+03 0.  0.
        998    1    1    2    0    0 -0.54022317718E+01 -0.25016828855E+01  0.14396397918E+04  0.14396868314E+04  0.10000000000E+02 0. -1.
</event>
<event>
 5    1  0.1688215E-008  0.3790325E+03  0.7957747E-01  0.3455382E+00
         13   -1    0    0    0    0  0.00000000000E+00  0.00000000000E+00  0.14999999963E+04  0.15000000000E+04  0.10566000000E+00 0.  1.
        994   -1    0    0    0    0 -0.00000000000E+00 -0.00000000000E+00  0.11368683772E-12  0.17120000000E+03  0.17120000000E+03 0.  0.
         13    1    1    2    0    0 -0.28250390861E+01  0.11105032627E+02  0.12730274083E+02  0.17128153367E+02  0.10566000000E+00 0.  1.
        994    1    1    2    0    0  0.12541508431E+01  0.11653317601E+02  0.50831560433E+01  0.17167600642E+03  0.17120000000E+03 0.  0.
        998    1    1    2    0    0  0.15708882430E+01 -0.22758350228E+02  0.14821865662E+04  0.14823958402E+04  0.10000000000E+02 0.  1.
</event>
<event>
 5    1  0.1688215E-008  0.3804253E+03  0.7957747E-01  0.3449309E+00
         13   -1    0    0    0    0  0.00000000000E+00  0.00000000000E+00  0.14999999963E+04  0.15000000000E+04  0.10566000000E+00 0.  1.
        994   -1    0    0    0    0 -0.00000000000E+00 -0.00000000000E+00  0.11368683772E-12  0.17120000000E+03  0.17120000000E+03 0.  0.
         13    1    1    2    0    0 -0.20446721364E+02 -0.26300285969E+01  0.53813325686E+02  0.57626995847E+02  0.10566000000E+00 0.  1.
        994    1    1    2    0    0  0.89413911712E+01 -0.24533888396E+01  0.42056621258E+01  0.17150246408E+03  0.17120000000E+03 0.  0.
        998    1    1    2    0    0  0.11505330193E+02  0.50834174364E+01  0.14419810085E+04  0.14420705401E+04  0.10000000000E+02 0.  1.
</event>
<event>
 5    1  0.1688215E-008  0.3775243E+03  0.7957747E-01  0.3462009E+00
         13   -1    0    0    0    0  0.00000000000E+00  0.00000000000E+00  0.14999999963E+04  0.15000000000E+04  0.10566000000E+00 0.  1.
        994   -1    0    0    0    0 -0.00000000000E+00 -0.00000000000E+00  0.11368683772E-12  0.17120000000E+03  0.17120000000E+03 0.  0.
         13    1    1    2    0    0 -0.21267090205E+02 -0.33761371796E+02  0.14729504634E+03  0.15260393570E+03  0.10566000000E+00 0.  1.
        994    1    1    2    0    0  0.28489546124E+01  0.24094425389E+02  0.73747037764E+01  0.17306785991E+03  0.17120000000E+03 0.  0.
        998    1    1    2    0    0  0.18418135593E+02  0.96669464066E+01  0.13453302462E+04  0.13455282044E+04  0.10000000000E+02 0.  1.
</event>
<event>
 5    1  0.1688215E-008  0.3854602E+03  0.7957747E-01  0.3427723E+00
         13   -1    0    0    0    0  0.00000000000E+00  0.00000000000E+00  0.14999999963E+04  0.15000000000E+04  0.10566000000E+00 0.  1.
        994   -1    0    0    0    0 -0.00000000000E+00 -0.00000000000E+00  0.11368683772E-12  0.17120000000E+03  0.17120000000E+03 0.  0.
         13    1    1    2    0    0  0.26969413042E+01  0.12526705232E+02  0.61465411290E+02  0.62786939609E+02  0.10566000000E+00 0.  1.
        994    1    1    2    0    0 -0.34237673172E+01 -0.12700874986E+01  0.14456290895E+01  0.17124504416E+03  0.17120000000E+03 0.  0.
        998    1    1    2    0    0  0.72682601297E+00 -0.11256617733E+02  0.14370889559E+04  0.14371680162E+04  0.10000000000E+02 0.  1.
</event>
<event>
 5    1  0.1688215E-008  0.3766088E+03  0.7957747E-01  0.3466059E+00
         13   -1    0    0    0    0  0.00000000000E+00  0.00000000000E+00  0.14999999963E+04  0.15000000000E+04  0.10566000000E+00 0.  1.
        994   -1    0    0    0    0 -0.00000000000E+00 -0.00000000000E+00  0.11368683772E-12  0.17120000000E+03  0.17120000000E+03 0.  0.
         13    1    1    2    0    0  0.56511151014E+02  0.10820846042E+01  0.11861344674E+03  0.13139194042E+03  0.10566000000E+00 0.  1.
        994    1    1    2    0    0 -0.32802445391E+01  0.22066770055E+02  0.16260077696E+02  0.17341145427E+03  0.17120000000E+03 0.  0.
        998    1    1    2    0    0 -0.53230906475E+02 -0.23148854660E+02  0.13651264718E+04  0.13663966053E+04  0.10000000000E+02 0.  1.
</event>
<event>
 5    1  0.1688215E-008  0.3844057E+03  0.7957747E-01  0.3432197E+00
         13   -1    0    0    0    0  0.00000000000E+00  0.00000000000E+00  0.14999999963E+04  0.15000000000E+04  0.10566000000E+00 0. -1.
        994   -1    0    0    0    0 -0.00000000000E+00 -0.00000000000E+00  0.11368683772E-12  0.17120000000E+03  0.17120000000E+03 0.  0.
         13    1    1    2    0    0  0.19502958128E+02  0.32402919732E+01  0.11285209653E+03  0.11457081532E+03  0.10566000000E+00 0. -1.
        994    1    1    2    0    0  0.15918487161E+01 -0.16082855531E+01  0.19423522126E+01  0.17122597144E+03  0.17120000000E+03 0.  0.
        998    1    1    2    0    0 -0.21094806844E+02 -0.16320064201E+01  0.13852055475E+04  0.13854032132E+04  0.10000000000E+02 0. -1.
</event>
<event>
 5    1  0.1688215E-008  0.3819358E+03  0.7957747E-01  0.3442773E+00
         13   -1    0    0    0    0  0.00000000000E+00  0.00000000000E+00  0.14999999963E+04  0.15000000000E+04  0.10566000000E+00 0.  1.
        994   -1    0    0    0    0 -0.00000000000E+00 -0.00000000000E+00  0.11368683772E-12  0.17120000000E+03  0.17120000000E+03 0.  0.
         13    1    1    2    0    0  0.20044968688E+02 -0.23638263536E+02  0.17180342689E+03  0.17457662194E+03  0.10566000000E+00 0.  1.
        994    1    1    2    0    0  0.61902292355E+01  0.78928553674E+01  0.34934229224E+01  0.17152918150E+03  0.17120000000E+03 0.  0.
        998    1    1    2    0    0 -0.26235197924E+02  0.15745408168E+02  0.13247031465E+04  0.13250941966E+04  0.10000000000E+02 0.  1.
</event>
<event>
 5    1  0.1688215E-008  0.3692757E+03  0.7957747E-01  0.3499226E+00
         13   -1    0    0    0    0  0.00000000000E+00  0.00000000000E+00  0.14999999963E+04  0.15000000000E+04  0.10566000000E+00 0.  1.
        994   -1    0    0    0    0 -0.00000000000E+00 -0.00000000000E+00  0.11368683772E-12  0.17120000000E+03  0.17120000000E+03 0.  0.
         13    1    1    2    0    0 -0.39657086513E+02 -0.12705610604E+02  0.81961017938E+02  0.91933327347E+02  0.10566000000E+00 0.  1.
        994    1    1    2    0    0  0.43313201508E+02  0.27263253970E+01  0.16205293779E+02  0.17735703488E+03  0.17120000000E+03 0.  0.
        998    1    1    2    0    0 -0.36561149947E+01  0.99792852072E+01  0.14018336846E+04  0.14019096378E+04  0.10000000000E+02 0.  1.
</event>
<event>
 5    1  0.1688215E-008  0.3794154E+03  0.7957747E-01  0.3453708E+00
         13   -1    0    0    0    0  0.00000000000E+00  0.00000000000E+00  0.14999999963E+04  0.15000000000E+04  0.10566000000E+00 0. -1.
        994   -1    0    0    0    0 -0.00000000000E+00 -0.00000000000E+00  0.11368683772E-12  0.17120000000E+03  0.17120000000E+03 0.  0.
         13    1    1    2    0    0 -0.19058483504E+01 -0.38023669798E+02  0.18962629299E+03  0.19341037686E+03  0.10566000000E+00 0. -1.
        994    1    1    2    0    0 -0.48538163895E+02  0.60306387625E+01  0.12483399343E+02  0.17848696652E+03  0.17120000000E+03 0.  0.
        998    1    1    2    0    0  0.50444012246E+02  0.31993031036E+02  0.12978903039E+04  0.12993026566E+04  0.10000000000E+02 0. -1.
</event>
<event>
 5    1  0.1688215E-008  0.3838466E+03  0.7957747E-01  0.3434579E+00
         13   -1    0    0    0    0  0.00000000000E+00  0.00000000000E+00  0.14999999963E+04  0.15000000000E+04  0.10566000000E+00 0. -1.
        994   -1    0    0    0    0 -0.00000000000E+00 -0.00000000000E+00  0.11368683772E-12  0.17120000000E+03  0.17120000000E+03 0.  0.
         13    1    1    2    0    0  0.24500480512E+02  0.10010610852E+02  0.14724202524E+03  0.14960184168E+03  0.10566000000E+00 0. -1.
        994    1    1    2    0    0 -0.25142960908E+02 -0.41807933388E+01  0.43512696414E+01  0.17314162141E+03  0.17120000000E+03 0.  0.
        998    1    1    2    0    0  0.64248039546E+00 -0.58298175135E+01  0.13484067014E+04  0.13484565369E+04  0.10000000000E+02 0. -1.
</event>
<event>
 5    1  0.1688215E-008  0.3797023E+03  0.7957747E-01  0.3452456E+00
         13   -1    0    0    0    0  0.00000000000E+00  0.00000000000E+00  0.14999999963E+04  0.15000000000E+04  0.10566000000E+00 0.  1.
        994   -1    0    0    0    0 -0.00000000000E+00 -0.00000000000E+00  0.11368683772E-12  0.17120000000E+03  0.17120000000E+03 0.  0.
         13    1    1    2    0    0  0.10996836831E+02 -0.23814800782E+02  0.70958191199E+02  0.75651511676E+02  0.10566000000E+00 0.  1.
        994    1    1    2    0    0 -0.21544648239E+02  0.35045930515E+02  0.99674545334E+01  0.17635526435E+03  0.17120000000E+03 0.  0.
        998    1    1    2    0    0  0.10547811408E+02 -0.11231129733E+02  0.14190743505E+04  0.14191932240E+04  0.10000000000E+02 0.  1.
</event>
<event>
 5    1  0.1688215E-008  0.3749959E+03  0.7957747E-01  0.3473241E+00
         13   -1    0    0    0    0  0.00000000000E+00  0.00000000000E+00  0.14999999963E+04  0.15000000000E+04  0.10566000000E+00 0. -1.
        994   -1    0    0    0    0 -0.00000000000E+00 -0.00000000000E+00  0.11368683772E-12  0.17120000000E+03  0.17120000000E+03 0.  0.
         13    1    1    2    0    0  0.11816608519E+02  0.60339446108E+01  0.10230905487E+02  0.16754799777E+02  0.10566000000E+00 0. -1.
        994    1    1    2    0    0 -0.99749981811E+01  0.35161195025E+01  0.70611857854E+01  0.17167167509E+03  0.17120000000E+03 0.  0.
        998    1    1    2    0    0 -0.18416103376E+01 -0.95500641133E+01  0.14827079050E+04  0.14827735251E+04  0.10000000000E+02 0. -1.
</event>
<event>
 5    1  0.1907975E-008  0.3858860E+03  0.7957747E-01  0.3425923E+00
         13   -1    0    0    0    0  0.00000000000E+00  0.00000000000E+00  0.14999999963E+04  0.15000000000E+04  0.10566000000E+00 0. -1.
        994   -1    0    0    0    0 -0.00000000000E+00 -0.00000000000E+00  0.11368683772E-12  0.17120000000E+03  0.17120000000E+03 0.  0.
         13    1    1    2    0    0  0.78900208377E+00 -0.10804811043E+02  0.53265036760E+02  0.54355696767E+02  0.10566000000E+00 0. -1.
        994    1    1    2    0    0 -0.29292018058E+01 -0.29885900586E+01  0.12483251878E+01  0.17125568665E+03  0.17120000000E+03 0.  0.
        998    1    1    2    0    0  0.21401997220E+01  0.13793401101E+02  0.14454866343E+04  0.14455886166E+04  0.10000000000E+02 0. -1.
</event>
<event>
 5    1  0.1688215E-008  0.3825809E+03  0.7957747E-01  0.3439997E+00
         13   -1    0    0    0    0  0.00000000000E+00  0.00000000000E+00  0.14999999963E+04  0.15000000000E+04  0.10566000000E+00 0.  1.
        994   -1    0    0    0    0 -0.00000000000E+00 -0.00000000000E+00  0.11368683772E-12  0.17120000000E+03  0.17120000000E+03 0.  0.
         13    1    1    2    0    0 -0.45868417379E+01 -0.35531444723E+02  0.18930929723E+03  0.19266951981E+03  0.10566000000E+00 0.  1.
        994    1    1    2    0    0  0.90966293007E+01  0.41179878935E+02  0.87536612155E+01  0.17653497579E+03  0.17120000000E+03 0.  0.
        998    1    1    2    0    0 -0.45097875627E+01 -0.56484342121E+01  0.13019370378E+04  0.13019955044E+04  0.10000000000E+02 0.  1.
</event>
<event>
 5    1  0.1688215E-008  0.3814197E+03  0.7957747E-01  0.3445000E+00
         13   -1    0    0    0    0  0.00000000000E+00  0.00000000000E+00  0.14999999963E+04  0.15000000000E+04  0.10566000000E+00 0.  1.
        994   -1    0    0    0    0 -0.00000000000E+00 -0.00000000000E+00  0.11368683772E-12  0.17120000000E+03  0.17120000000E+03 0.  0.
         13    1    1    2    0    0 -0.13296666057E+02  0.35190493833E+01  0.25328826117E+02  0.28822658331E+02  0.10566000000E+00 0.  1.
        994    1    1    2    0    0  0.21160505339E+02 -0.67609421215E+01  0.50618741194E+01  0.17270940882E+03  0.17120000000E+03 0.  0.
        998    1    1    2    0    0 -0.78638392821E+01  0.32418927383E+01  0.14696092960E+04  0.14696679329E+04  0.10000000000E+02 0.  1.
</event>
<event>
 5    1  0.1688215E-008  0.3751527E+03  0.7957747E-01  0.3472540E+00
         13   -1    0    0    0    0  0.00000000000E+00  0.00000000000E+00  0.14999999963E+04  0.15000000000E+04  0.10566000000E+00 0. -1.
        994   -1    0    0    0    0 -0.00000000000E+00 -0.00000000000E+00  0.11368683772E-12  0.17120000000E+03  0.17120000000E+03 0.  0.
         13    1    1    2    0    0  0.13371510981E+01 -0.54786608105E+02  0.19504467045E+03  0.20259761854E+03  0.10566000000E+00 0. -1.
        994    1    1    2    0    0 -0.67893172204E+01  0.56396155575E+02  0.17642643325E+02  0.18123830736E+03  0.17120000000E+03 0.  0.
        998    1    1    2    0    0  0.54521661224E+01 -0.16095474700E+01  0.12873126825E+04  0.12873640741E+04  0.10000000000E+02 0.  0.
</event>
<event>
 5    1  0.1688215E-008  0.3816655E+03  0.7957747E-01  0.3443938E+00
         13   -1    0    0    0    0  0.00000000000E+00  0.00000000000E+00  0.14999999963E+04  0.15000000000E+04  0.10566000000E+00 0.  1.
        994   -1    0    0    0    0 -0.00000000000E+00 -0.00000000000E+00  0.11368683772E-12  0.17120000000E+03  0.17120000000E+03 0.  0.
         13    1    1    2    0    0  0.92136860717E+01 -0.10931943717E+02  0.30560869854E+02  0.33739847877E+02  0.10566000000E+00 0.  1.
        994    1    1    2    0    0 -0.34328059007E+01 -0.24874786910E+00  0.33341559469E+01  0.17126705062E+03  0.17120000000E+03 0.  0.
        998    1    1    2    0    0 -0.57808801710E+01  0.11180691586E+02  0.14661049705E+04  0.14661931015E+04  0.10000000000E+02 0.  1.
</event>
<event>
 5    1  0.1688215E-008  0.3839663E+03  0.7957747E-01  0.3434068E+00
         13   -1    0    0    0    0  0.00000000000E+00  0.00000000000E+00  0.14999999963E+04  0.15000000000E+04  0.10566000000E+00 0. -1.
        994   -1    0    0    0    0 -0.00000000000E+00 -0.00000000000E+00  0.11368683772E-12  0.17120000000E+03  0.17120000000E+03 0.  0.
         13    1    1    2    0    0 -0.10464488305E+02  0.21497196584E+02  0.12622717401E+03  0.12847157506E+03  0.10566000000E+00 0. -1.
        994    1    1    2    0    0  0.23637309646E+02 -0.12564515938E+02  0.45123561498E+01  0.17333894780E+03  0.17120000000E+03 0.  0.
        998    1    1    2    0    0 -0.13172821341E+02 -0.89326806460E+01  0.13692604661E+04  0.13693894771E+04  0.10000000000E+02 0. -1.
</event>
<event>
 5    1  0.1688215E-008  0.3858060E+03  0.7957747E-01  0.3426261E+00
         13   -1    0    0    0    0  0.00000000000E+00  0.00000000000E+00  0.14999999963E+04  0.15000000000E+04  0.10566000000E+00 0.  1.
        994   -1    0    0    0    0 -0.00000000000E+00 -0.00000000000E+00  0.11368683772E-12  0.17120000000E+03  0.17120000000E+03 0.  0.
         13    1    1    2    0    0 -0.43366713836E+01 -0.10668984256E+02  0.57215716733E+02  0.58363373352E+02  0.10566000000E+00 0.  1.
        994    1    1    2    0    0 -0.28172791617E+01  0.14680024031E+01  0.12635863472E+01  0.17123413428E+03  0.17120000000E+03 0.  0.
        998    1    1    2    0    0  0.71539505453E+01  0.92009818526E+01  0.14415206932E+04  0.14416024924E+04  0.10000000000E+02 0.  1.
</event>
<event>
 5    1  0.1688215E-008  0.3792102E+03  0.7957747E-01  0.3454605E+00
         13   -1    0    0    0    0  0.00000000000E+00  0.00000000000E+00  0.14999999963E+04  0.15000000000E+04  0.10566000000E+00 0. -1.
        994   -1    0    0    0    0 -0.00000000000E+00 -0.00000000000E+00  0.11368683772E-12  0.17120000000E+03  0.17120000000E+03 0.  0.
         13    1    1    2    0    0  0.19833576914E+02  0.33777553458E+02  0.18238870154E+03  0.18654742964E+03  0.10566000000E+00 0. -1.
        994    1    1    2    0    0 -0.21969170145E+02  0.18610444456E+00  0.61518211820E+01  0.17271353154E+03  0.17120000000E+03 0.  0.
        998    1    1    2    0    0  0.21355932318E+01 -0.33963657902E+02  0.13114594736E+04  0.13119390388E+04  0.10000000000E+02 0. -1.
</event>
<event>
 5    1  0.1688215E-008  0.3727283E+03  0.7957747E-01  0.3483446E+00
         13   -1    0    0    0    0  0.00000000000E+00  0.00000000000E+00  0.14999999963E+04  0.15000000000E+04  0.10566000000E+00 0.  1.
        994   -1    0    0    0    0 -0.00000000000E+00 -0.00000000000E+00  0.11368683772E-12  0.17120000000E+03  0.17120000000E+03 0.  0.
         13    1    1    2    0    0  0.28375928362E+02 -0.36099020716E+01  0.47599423328E+02  0.55533242014E+02  0.10566000000E+00 0.  1.
        994    1    1    2    0    0 -0.27184286720E+02  0.16833279925E+02  0.11359997123E+02  0.17453032485E+03  0.17120000000E+03 0.  0.
        998    1    1    2    0    0 -0.11916416417E+01 -0.13223377853E+02  0.14410405758E+04  0.14411364331E+04  0.10000000000E+02 0.  1.
</event>
<event>
 5    1  0.1688215E-008  0.3715792E+03  0.7957747E-01  0.3488664E+00
         13   -1    0    0    0    0  0.00000000000E+00  0.00000000000E+00  0.14999999963E+04  0.15000000000E+04  0.10566000000E+00 0. -1.
        994   -1    0    0    0    0 -0.00000000000E+00 -0.00000000000E+00  0.11368683772E-12  0.17120000000E+03  0.17120000000E+03 0.  0.
         13    1    1    2    0    0  0.39372122516E+02 -0.25995060656E+02  0.94204864851E+02  0.10535879145E+03  0.10566000000E+00 0. -1.
        994    1    1    2    0    0 -0.19050938829E+01  0.30122596081E+02  0.14985526798E+02  0.17448497411E+03  0.17120000000E+03 0.  0.
        998    1    1    2    0    0 -0.37467028633E+02 -0.41275354250E+01  0.13908096046E+04  0.13913562344E+04  0.10000000000E+02 0. -1.
</event>
<event>
 5    1  0.1688215E-008  0.4175536E+03  0.7957747E-01  0.3302347E+00
         13   -1    0    0    0    0  0.00000000000E+00  0.00000000000E+00  0.14999999963E+04  0.15000000000E+04  0.10566000000E+00 0.  1.
        994   -1    0    0    0    0 -0.00000000000E+00 -0.00000000000E+00  0.11368683772E-12  0.17120000000E+03  0.17120000000E+03 0.  0.
         13    1    1    2    0    0  0.39191484001E+02 -0.17688536292E+02  0.95674688118E+01  0.44050021088E+02  0.10566000000E+00 0.  1.
        994    1    1    2    0    0 -0.26022335729E+02 -0.86189554514E+00  0.41588077565E+02  0.17809242830E+03  0.17120000000E+03 0.  0.
        998    1    1    2    0    0 -0.13169148271E+02  0.18550431837E+02  0.14488444499E+04  0.14490575506E+04  0.10000000000E+02 0.  1.
</event>
<event>
 5    1  0.1688215E-008  0.3830469E+03  0.7957747E-01  0.3437998E+00
         13   -1    0    0    0    0  0.00000000000E+00  0.00000000000E+00  0.14999999963E+04  0.15000000000E+04  0.10566000000E+00 0.  1.
        994   -1    0    0    0    0 -0.00000000000E+00 -0.00000000000E+00  0.11368683772E-12  0.17120000000E+03  0.17120000000E+03 0.  0.
         13    1    1    2    0    0  0.21592102219E+02  0.24316830128E+01  0.87715659016E+02  0.90366918511E+02  0.10566000000E+00 0.  1.
        994    1    1    2    0    0 -0.17461330256E+02 -0.50396044938E+01  0.36968557326E+01  0.17220163301E+03  0.17120000000E+03 0.  0.
        998    1    1    2    0    0 -0.41307719628E+01  0.26079214810E+01  0.14085874815E+04  0.14086314485E+04  0.10000000000E+02 0.  1.
</event>
<event>
 5    1  0.1688215E-008  0.3796866E+03  0.7957747E-01  0.3452524E+00
         13   -1    0    0    0    0  0.00000000000E+00  0.00000000000E+00  0.14999999963E+04  0.15000000000E+04  0.10566000000E+00 0. -1.
        994   -1    0    0    0    0 -0.00000000000E+00 -0.00000000000E+00  0.11368683772E-12  0.17120000000E+03  0.17120000000E+03 0.  0.
         13    1    1    2    0    0  0.20692737330E+02  0.32136517079E+02  0.14420350713E+03  0.14918313490E+03  0.10566000000E+00 0. -1.
        994    1    1    2    0    0 -0.37703500912E+02 -0.33983974362E+02  0.12961941904E+02  0.17903607578E+03  0.17120000000E+03 0.  0.
        998    1    1    2    0    0  0.17010763582E+02  0.18474572828E+01  0.13428345472E+04  0.13429807893E+04  0.10000000000E+02 0. -1.
</event>
<event>
 5    1  0.1688215E-008  0.3859413E+03  0.7957747E-01  0.3425690E+00
         13   -1    0    0    0    0  0.00000000000E+00  0.00000000000E+00  0.14999999963E+04  0.15000000000E+04  0.10566000000E+00 0.  1.
        994   -1    0    0    0    0 -0.00000000000E+00 -0.00000000000E+00  0.11368683772E-12  0.17120000000E+03  0.17120000000E+03 0.  0.
         13    1    1    2    0    0 -0.85963194020E+00  0.10308599362E+02  0.47532214792E+02  0.48644925686E+02  0.10566000000E+00 0.  1.
        994    1    1    2    0    0  0.84838641883E+01 -0.28334345106E+01  0.14258756877E+01  0.17143942786E+03  0.17120000000E+03 0.  0.
        998    1    1    2    0    0 -0.76242322481E+01 -0.74751648518E+01  0.14510419058E+04  0.14511156465E+04  0.10000000000E+02 0.  1.
</event>
<event>
 5    1  0.1688215E-008  0.3885764E+03  0.7957747E-01  0.3414645E+00
         13   -1    0    0    0    0  0.00000000000E+00  0.00000000000E+00  0.14999999963E+04  0.15000000000E+04  0.10566000000E+00 0. -1.
        994   -1    0    0    0    0 -0.00000000000E+00 -0.00000000000E+00  0.11368683772E-12  0.17120000000E+03  0.17120000000E+03 0.  0.
         13    1    1    2    0    0 -0.53789471511E+02 -0.89633400739E+02  0.23271861877E+03  0.25511844398E+03  0.10566000000E+00 0. -1.
        994    1    1    2    0    0  0.50030273980E+02  0.68420796386E+02  0.48533731339E+02  0.19710250321E+03  0.17120000000E+03 0.  0.
        998    1    1    2    0    0  0.37591975315E+01  0.21212604353E+02  0.12187476462E+04  0.12189790528E+04  0.10000000000E+02 0. -1.
</event>
<event>
 5    1  0.1688215E-008  0.3852056E+03  0.7957747E-01  0.3428801E+00
         13   -1    0    0    0    0  0.00000000000E+00  0.00000000000E+00  0.14999999963E+04  0.15000000000E+04  0.10566000000E+00 0. -1.
        994   -1    0    0    0    0 -0.00000000000E+00 -0.00000000000E+00  0.11368683772E-12  0.17120000000E+03  0.17120000000E+03 0.  0.
         13    1    1    2    0    0  0.65136672629E+01 -0.10797106232E+02  0.55805359585E+02  0.57212364806E+02  0.10566000000E+00 0. -1.
        994    1    1    2    0    0  0.63507760410E+00 -0.28836596918E+01  0.15567749681E+01  0.17123253886E+03  0.17120000000E+03 0.  0.
        998    1    1    2    0    0 -0.71487448670E+01  0.13680765924E+02  0.14426378617E+04  0.14427550963E+04  0.10000000000E+02 0. -1.
</event>
<event>
 5    1  0.1688215E-008  0.3823608E+03  0.7957747E-01  0.3440943E+00
         13   -1    0    0    0    0  0.00000000000E+00  0.00000000000E+00  0.14999999963E+04  0.15000000000E+04  0.10566000000E+00 0.  1.
        994   -1    0    0    0    0 -0.00000000000E+00 -0.00000000000E+00  0.11368683772E-12  0.17120000000E+03  0.17120000000E+03 0.  0.
         13    1    1    2    0    0 -0.12392676670E+02  0.23250334728E+02  0.11464999174E+03  0.11763837924E+03  0.10566000000E+00 0.  1.
        994    1    1    2    0    0  0.35228764272E+00 -0.21506494140E+02  0.44823103465E+01  0.17260412655E+03  0.17120000000E+03 0.  0.
        998    1    1    2    0    0  0.12040389027E+02 -0.17438405876E+01  0.13808676942E+04  0.13809574942E+04  0.10000000000E+02 0.  1.
</event>
<event>
 5    1  0.1688215E-008  0.3485747E+03  0.7957747E-01  0.3600550E+00
         13   -1    0    0    0    0  0.00000000000E+00  0.00000000000E+00  0.14999999963E+04  0.15000000000E+04  0.10566000000E+00 0. -1.
        994   -1    0    0    0    0 -0.00000000000E+00 -0.00000000000E+00  0.11368683772E-12  0.17120000000E+03  0.17120000000E+03 0.  0.
         13    1    1    2    0    0 -0.27295623763E+03 -0.12658345664E+03  0.56669549893E+03  0.64161692530E+03  0.10566000000E+00 0. -1.
        994    1    1    2    0    0  0.27533414140E+03  0.13351647226E+03  0.59195512897E+03  0.68800861368E+03  0.17120000000E+03 0.  0.
        998    1    1    2    0    0 -0.23779037731E+01 -0.69330156129E+01  0.34134936837E+03  0.34157446102E+03  0.10000000000E+02 0. -1.
</event>
<event>
 5    1  0.1688215E-008  0.3847348E+03  0.7957747E-01  0.3430798E+00
         13   -1    0    0    0    0  0.00000000000E+00  0.00000000000E+00  0.14999999963E+04  0.15000000000E+04  0.10566000000E+00 0.  1.
        994   -1    0    0    0    0 -0.00000000000E+00 -0.00000000000E+00  0.11368683772E-12  0.17120000000E+03  0.17120000000E+03 0.  0.
         13    1    1    2    0    0 -0.10986497056E+02 -0.13122611908E+02  0.77538199706E+02  0.79404594568E+02  0.10566000000E+00 0.  1.
        994    1    1    2    0    0  0.19817716746E+02  0.11500983971E+02  0.34918578451E+01  0.17276182333E+03  0.17120000000E+03 0.  0.
        998    1    1    2    0    0 -0.88312196904E+01  0.16216279370E+01  0.14189699387E+04  0.14190335821E+04  0.10000000000E+02 0.  1.
</event>
<event>
 5    1  0.1688215E-008  0.3752399E+03  0.7957747E-01  0.3472151E+00
         13   -1    0    0    0    0  0.00000000000E+00  0.00000000000E+00  0.14999999963E+04  0.15000000000E+04  0.10566000000E+00 0.  1.
        994   -1    0    0    0    0 -0.00000000000E+00 -0.00000000000E+00  0.11368683772E-12  0.17120000000E+03  0.17120000000E+03 0.  0.
         13    1    1    2    0    0  0.39276198227E+02  0.22915284371E+01  0.50965817248E+02  0.64384753953E+02  0.10566000000E+00 0.  1.
        994    1    1    2    0    0 -0.28374390345E+02 -0.92757448246E+01  0.16916977372E+02  0.17460460931E+03  0.17120000000E+03 0.  0.
        998    1    1    2    0    0 -0.10901807882E+02  0.69842163875E+01  0.14321172017E+04  0.14322106367E+04  0.10000000000E+02 0.  1.
</event>
<event>
 5    1  0.1688215E-008  0.3794805E+03  0.7957747E-01  0.3453423E+00
         13   -1    0    0    0    0  0.00000000000E+00  0.00000000000E+00  0.14999999963E+04  0.15000000000E+04  0.10566000000E+00 0.  1.
        994   -1    0    0    0    0 -0.00000000000E+00 -0.00000000000E+00  0.11368683772E-12  0.17120000000E+03  0.17120000000E+03 0.  0.
         13    1    1    2    0    0 -0.58110343274E+01  0.12238131303E+02  0.18741259436E+02  0.23125439391E+02  0.10566000000E+00 0.  1.
        994    1    1    2    0    0  0.11545846781E+02 -0.11386499095E+02  0.52766465217E+01  0.17204720846E+03  0.17120000000E+03 0.  0.
        998    1    1    2    0    0 -0.57348124537E+01 -0.85163220767E+00  0.14759820903E+04  0.14760273522E+04  0.10000000000E+02 0.  1.
</event>
<event>
 5    1  0.1688215E-008  0.3807640E+03  0.7957747E-01  0.3447839E+00
         13   -1    0    0    0    0  0.00000000000E+00  0.00000000000E+00  0.14999999963E+04  0.15000000000E+04  0.10566000000E+00 0. -1.
        994   -1    0    0    0    0 -0.00000000000E+00 -0.00000000000E+00  0.11368683772E-12  0.17120000000E+03  0.17120000000E+03 0.  0.
         13    1    1    2    0    0 -0.67463586774E+01  0.19563852502E+02  0.56407485988E+02  0.60083885690E+02  0.10566000000E+00 0. -1.
        994    1    1    2    0    0  0.69318834704E+01 -0.89133516512E+01  0.41732556002E+01  0.17162271093E+03  0.17120000000E+03 0.  0.
        998    1    1    2    0    0 -0.18552479300E+00 -0.10650500851E+02  0.14394192547E+04  0.14394934034E+04  0.10000000000E+02 0. -1.
</event>
<event>
 5    1  0.1688215E-008  0.3823915E+03  0.7957747E-01  0.3440811E+00
         13   -1    0    0    0    0  0.00000000000E+00  0.00000000000E+00  0.14999999963E+04  0.15000000000E+04  0.10566000000E+00 0. -1.
        994   -1    0    0    0    0 -0.00000000000E+00 -0.00000000000E+00  0.11368683772E-12  0.17120000000E+03  0.17120000000E+03 0.  0.
         13    1    1    2    0    0  0.46233176482E+01  0.15468041328E+02  0.43754633653E+02  0.46638122804E+02  0.10566000000E+00 0. -1.
        994    1    1    2    0    0  0.44651965485E+00 -0.97427816849E+01  0.32463288517E+01  0.17150830833E+03  0.17120000000E+03 0.  0.
        998    1    1    2    0    0 -0.50698373030E+01 -0.57252596426E+01  0.14529990338E+04  0.14530535689E+04  0.10000000000E+02 0. -1.
</event>
<event>
 5    1  0.1688215E-008  0.3821828E+03  0.7957747E-01  0.3441709E+00
         13   -1    0    0    0    0  0.00000000000E+00  0.00000000000E+00  0.14999999963E+04  0.15000000000E+04  0.10566000000E+00 0. -1.
        994   -1    0    0    0    0 -0.00000000000E+00 -0.00000000000E+00  0.11368683772E-12  0.17120000000E+03  0.17120000000E+03 0.  0.
         13    1    1    2    0    0 -0.20833478448E+02  0.47515142100E+01  0.69836923088E+02  0.73032990504E+02  0.10566000000E+00 0. -1.
        994    1    1    2    0    0  0.25172629713E+02 -0.65856510257E+01  0.52856145176E+01  0.17324667329E+03  0.17120000000E+03 0.  0.
        998    1    1    2    0    0 -0.43391512647E+01  0.18341368158E+01  0.14248774587E+04  0.14249203362E+04  0.10000000000E+02 0. -1.
</event>
<event>
 5    1  0.1688215E-008  0.3790175E+03  0.7957747E-01  0.3455448E+00
         13   -1    0    0    0    0  0.00000000000E+00  0.00000000000E+00  0.14999999963E+04  0.15000000000E+04  0.10566000000E+00 0. -1.
        994   -1    0    0    0    0 -0.00000000000E+00 -0.00000000000E+00  0.11368683772E-12  0.17120000000E+03  0.17120000000E+03 0.  0.
         13    1    1    2    0    0 -0.47341733844E+02  0.13083823976E+02  0.29227598083E+03  0.29637423360E+03  0.10566000000E+00 0. -1.
        994    1    1    2    0    0  0.27186034463E+02  0.33096765366E+02  0.10807099869E+02  0.17680698446E+03  0.17120000000E+03 0.  0.
        998    1    1    2    0    0  0.20155699381E+02 -0.46180589343E+02  0.11969169156E+04  0.11980187819E+04  0.10000000000E+02 0. -1.
</event>
<event>
 5    1  0.1688215E-008  0.3853172E+03  0.7957747E-01  0.3428328E+00
         13   -1    0    0    0    0  0.00000000000E+00  0.00000000000E+00  0.14999999963E+04  0.15000000000E+04  0.10566000000E+00 0. -1.
        994   -1    0    0    0    0 -0.00000000000E+00 -0.00000000000E+00  0.11368683772E-12  0.17120000000E+03  0.17120000000E+03 0.  0.
         13    1    1    2    0    0 -0.82555305557E+01  0.71313457803E+01  0.40854684614E+02  0.42286242400E+02  0.10566000000E+00 0. -1.
        994    1    1    2    0    0  0.46742611419E+01 -0.28563707406E+01  0.15713496154E+01  0.17129482395E+03  0.17120000000E+03 0.  0.
        998    1    1    2    0    0  0.35812694138E+01 -0.42749750397E+01  0.14575739620E+04  0.14576189337E+04  0.10000000000E+02 0. -1.
</event>
<event>
 5    1  0.1688215E-008  0.3788956E+03  0.7957747E-01  0.3455982E+00
         13   -1    0    0    0    0  0.00000000000E+00  0.00000000000E+00  0.14999999963E+04  0.15000000000E+04  0.10566000000E+00 0.  1.
        994   -1    0    0    0    0 -0.00000000000E+00 -0.00000000000E+00  0.11368683772E-12  0.17120000000E+03  0.17120000000E+03 0.  0.
         13    1    1    2    0    0 -0.36328166086E+02  0.38915665726E+02  0.25557988068E+03  0.26106560720E+03  0.10566000000E+00 0.  1.
        994    1    1    2    0    0  0.28101460847E+02 -0.43790626486E+02  0.13829388416E+02  0.17946588270E+03  0.17120000000E+03 0.  0.
        998    1    1    2    0    0  0.82267052391E+01  0.48749607599E+01  0.12305907272E+04  0.12306685101E+04  0.10000000000E+02 0.  1.
</event>
<event>
 5    1  0.1688215E-008  0.3839587E+03  0.7957747E-01  0.3434100E+00
         13   -1    0    0    0    0  0.00000000000E+00  0.00000000000E+00  0.14999999963E+04  0.15000000000E+04  0.10566000000E+00 0. -1.
        994   -1    0    0    0    0 -0.00000000000E+00 -0.00000000000E+00  0.11368683772E-12  0.17120000000E+03  0.17120000000E+03 0.  0.
         13    1    1    2    0    0 -0.16619286990E+02  0.12392497642E+02  0.97149317171E+02  0.99336678466E+02  0.10566000000E+00 0. -1.
        994    1    1    2    0    0  0.13243898269E+02 -0.10180548553E+02  0.30693111458E+01  0.17204041700E+03  0.17120000000E+03 0.  0.
        998    1    1    2    0    0  0.33753887210E+01 -0.22119490886E+01  0.13997813680E+04  0.13998229045E+04  0.10000000000E+02 0.  0.
</event>
<event>
 5    1  0.1688215E-008  0.3766342E+03  0.7957747E-01  0.3465946E+00
         13   -1    0    0    0    0  0.00000000000E+00  0.00000000000E+00  0.14999999963E+04  0.15000000000E+04  0.10566000000E+00 0. -1.
        994   -1    0    0    0    0 -0.00000000000E+00 -0.00000000000E+00  0.11368683772E-12  0.17120000000E+03  0.17120000000E+03 0.  0.
         13    1    1    2    0    0  0.10159762484E+03 -0.78255001560E+02  0.74727405445E+03  0.75819815765E+03  0.10566000000E+00 0. -1.
        994    1    1    2    0    0 -0.92653186815E+02  0.78937563437E+02  0.57692397916E+02  0.21783848311E+03  0.17120000000E+03 0.  0.
        998    1    1    2    0    0 -0.89444380296E+01 -0.68256187681E+00  0.69503354391E+03  0.69516335924E+03  0.10000000000E+02 0. -1.
</event>
<event>
 5    1  0.1688215E-008  0.3830998E+03  0.7957747E-01  0.3437772E+00
         13   -1    0    0    0    0  0.00000000000E+00  0.00000000000E+00  0.14999999963E+04  0.15000000000E+04  0.10566000000E+00 0.  1.
        994   -1    0    0    0    0 -0.00000000000E+00 -0.00000000000E+00  0.11368683772E-12  0.17120000000E+03  0.17120000000E+03 0.  0.
         13    1    1    2    0    0 -0.15636731171E+02  0.13599567958E+01  0.46438907809E+02  0.49019793622E+02  0.10566000000E+00 0.  1.
        994    1    1    2    0    0  0.13094210400E+02 -0.31995597839E+01  0.31779863286E+01  0.17175923593E+03  0.17120000000E+03 0.  0.
        998    1    1    2    0    0  0.25425207704E+01  0.18396029880E+01  0.14503831021E+04  0.14504209705E+04  0.10000000000E+02 0.  1.
</event>
<event>
 5    1  0.1688215E-008  0.3839335E+03  0.7957747E-01  0.3434208E+00
         13   -1    0    0    0    0  0.00000000000E+00  0.00000000000E+00  0.14999999963E+04  0.15000000000E+04  0.10566000000E+00 0.  1.
        994   -1    0    0    0    0 -0.00000000000E+00 -0.00000000000E+00  0.11368683772E-12  0.17120000000E+03  0.17120000000E+03 0.  0.
         13    1    1    2    0    0 -0.53015604433E+01 -0.12720361037E+02  0.42438487105E+02  0.44620068129E+02  0.10566000000E+00 0.  1.
        994    1    1    2    0    0  0.82831595187E+01  0.12041354704E+02  0.28657730363E+01  0.17184661070E+03  0.17120000000E+03 0.  0.
        998    1    1    2    0    0 -0.29815990754E+01  0.67900633240E+00  0.14546957361E+04  0.14547333212E+04  0.10000000000E+02 0.  1.
</event>
<event>
 5    1  0.1688215E-008  0.3763188E+03  0.7957747E-01  0.3467345E+00
         13   -1    0    0    0    0  0.00000000000E+00  0.00000000000E+00  0.14999999963E+04  0.15000000000E+04  0.10566000000E+00 0. -1.
        994   -1    0    0    0    0 -0.00000000000E+00 -0.00000000000E+00  0.11368683772E-12  0.17120000000E+03  0.17120000000E+03 0.  0.
         13    1    1    2    0    0 -0.19034090979E+02 -0.12788753717E+02  0.40223390090E+02  0.46300983957E+02  0.10566000000E+00 0. -1.
        994    1    1    2    0    0  0.43314546041E+02 -0.20379432751E+02  0.13797392545E+02  0.17830109147E+03  0.17120000000E+03 0.  0.
        998    1    1    2    0    0 -0.24280455062E+02  0.33168186467E+02  0.14459792136E+04  0.14465979246E+04  0.10000000000E+02 0. -1.
</event>
<event>
 5    1  0.1688215E-008  0.3806572E+03  0.7957747E-01  0.3448302E+00
         13   -1    0    0    0    0  0.00000000000E+00  0.00000000000E+00  0.14999999963E+04  0.15000000000E+04  0.10566000000E+00 0.  1.
        994   -1    0    0    0    0 -0.00000000000E+00 -0.00000000000E+00  0.11368683772E-12  0.17120000000E+03  0.17120000000E+03 0.  0.
         13    1    1    2    0    0  0.15637467632E+02  0.24610359211E+02  0.10405735227E+03  0.10806546118E+03  0.10566000000E+00 0.  1.
        994    1    1    2    0    0 -0.21430889774E+02 -0.20592292237E+02  0.67538506543E+01  0.17389186305E+03  0.17120000000E+03 0.  0.
        998    1    1    2    0    0  0.57934221422E+01 -0.40180669733E+01  0.13891887934E+04  0.13892426758E+04  0.10000000000E+02 0.  1.
</event>
<event>
 5    1  0.1688215E-008  0.3802846E+03  0.7957747E-01  0.3449920E+00
         13   -1    0    0    0    0  0.00000000000E+00  0.00000000000E+00  0.14999999963E+04  0.15000000000E+04  0.10566000000E+00 0.  1.
        994   -1    0    0    0    0 -0.00000000000E+00 -0.00000000000E+00  0.11368683772E-12  0.17120000000E+03  0.17120000000E+03 0.  0.
         13    1    1    2    0    0  0.16875192463E+02  0.14770812628E+02  0.60520008621E+02  0.64541704610E+02  0.10566000000E+00 0.  1.
        994    1    1    2    0    0 -0.15628771117E+02 -0.10399206937E+02  0.51673940055E+01  0.17230363883E+03  0.17120000000E+03 0.  0.
        998    1    1    2    0    0 -0.12464213458E+01 -0.43716056910E+01  0.14343125937E+04  0.14343546566E+04  0.10000000000E+02 0.  1.
</event>
<event>
 5    1  0.1688215E-008  0.3795893E+03  0.7957747E-01  0.3452949E+00
         13   -1    0    0    0    0  0.00000000000E+00  0.00000000000E+00  0.14999999963E+04  0.15000000000E+04  0.10566000000E+00 0. -1.
        994   -1    0    0    0    0 -0.00000000000E+00 -0.00000000000E+00  0.11368683772E-12  0.17120000000E+03  0.17120000000E+03 0.  0.
         13    1    1    2    0    0 -0.13044758498E+02  0.64731202599E+01  0.24969188726E+02  0.28905683867E+02  0.10566000000E+00 0. -1.
        994    1    1    2    0    0 -0.32630672588E+02 -0.99517959105E+01  0.82461943274E+01  0.17476051830E+03  0.17120000000E+03 0.  0.
        998    1    1    2    0    0  0.45675431085E+02  0.34786756505E+01  0.14667846132E+04  0.14675337978E+04  0.10000000000E+02 0. -1.
</event>
<event>
 5    1  0.1688215E-008  0.3703185E+03  0.7957747E-01  0.3494429E+00
         13   -1    0    0    0    0  0.00000000000E+00  0.00000000000E+00  0.14999999963E+04  0.15000000000E+04  0.10566000000E+00 0.  1.
        994   -1    0    0    0    0 -0.00000000000E+00 -0.00000000000E+00  0.11368683772E-12  0.17120000000E+03  0.17120000000E+03 0.  0.
         13    1    1    2    0    0  0.21645336475E+02 -0.22687010618E+02  0.50781739490E+02  0.59682637941E+02  0.10566000000E+00 0.  1.
        994    1    1    2    0    0 -0.12827080473E+02  0.14020827930E+02  0.10350921648E+02  0.17256216036E+03  0.17120000000E+03 0.  0.
        998    1    1    2    0    0 -0.88182560012E+01  0.86661826884E+01  0.14388673351E+04  0.14389552017E+04  0.10000000000E+02 0.  1.
</event>
<event>
 5    1  0.1688215E-008  0.3779430E+03  0.7957747E-01  0.3460164E+00
         13   -1    0    0    0    0  0.00000000000E+00  0.00000000000E+00  0.14999999963E+04  0.15000000000E+04  0.10566000000E+00 0.  1.
        994   -1    0    0    0    0 -0.00000000000E+00 -0.00000000000E+00  0.11368683772E-12  0.17120000000E+03  0.17120000000E+03 0.  0.
         13    1    1    2    0    0 -0.31348947449E+02 -0.26132097383E+01  0.98058457521E+02  0.10298086049E+03  0.10566000000E+00 0.  1.
        994    1    1    2    0    0  0.10264193046E+02 -0.68366129830E+01  0.56871834985E+01  0.17173781468E+03  0.17120000000E+03 0.  0.
        998    1    1    2    0    0  0.21084754403E+02  0.94498227213E+01  0.13962543553E+04  0.13964813248E+04  0.10000000000E+02 0.  1.
</event>
<event>
 5    1  0.1688215E-008  0.3730519E+03  0.7957747E-01  0.3481982E+00
         13   -1    0    0    0    0  0.00000000000E+00  0.00000000000E+00  0.14999999963E+04  0.15000000000E+04  0.10566000000E+00 0. -1.
        994   -1    0    0    0    0 -0.00000000000E+00 -0.00000000000E+00  0.11368683772E-12  0.17120000000E+03  0.17120000000E+03 0.  0.
         13    1    1    2    0    0 -0.52718959251E+02  0.23046318221E+01  0.19326694751E+03  0.20034151880E+03  0.10566000000E+00 0. -1.
        994    1    1    2    0    0  0.18546974278E+02  0.24842824586E+02  0.10978399803E+02  0.17433049490E+03  0.17120000000E+03 0.  0.
        998    1    1    2    0    0  0.34171984973E+02 -0.27147456408E+02  0.12957546490E+04  0.12965279863E+04  0.10000000000E+02 0. -1.
</event>
<event>
 5    1  0.1688215E-008  0.3802837E+03  0.7957747E-01  0.3449924E+00
         13   -1    0    0    0    0  0.00000000000E+00  0.00000000000E+00  0.14999999963E+04  0.15000000000E+04  0.10566000000E+00 0.  1.
        994   -1    0    0    0    0 -0.00000000000E+00 -0.00000000000E+00  0.11368683772E-12  0.17120000000E+03  0.17120000000E+03 0.  0.
         13    1    1    2    0    0  0.21918274934E+02 -0.20998409828E+01  0.57574213727E+02  0.61641068765E+02  0.10566000000E+00 0.  1.
        994    1    1    2    0    0 -0.21696833976E+02 -0.10605544933E+01  0.55675731892E+01  0.17266243150E+03  0.17120000000E+03 0.  0.
        998    1    1    2    0    0 -0.22144095832E+00  0.31603954761E+01  0.14368582094E+04  0.14368964997E+04  0.10000000000E+02 0.  1.
</event>
<event>
 5    1  0.1688215E-008  0.3852614E+03  0.7957747E-01  0.3428564E+00
         13   -1    0    0    0    0  0.00000000000E+00  0.00000000000E+00  0.14999999963E+04  0.15000000000E+04  0.10566000000E+00 0.  1.
        994   -1    0    0    0    0 -0.00000000000E+00 -0.00000000000E+00  0.11368683772E-12  0.17120000000E+03  0.17120000000E+03 0.  0.
         13    1    1    2    0    0  0.16453671986E+02  0.20605809507E+01  0.97889344429E+02  0.99283957579E+02  0.10566000000E+00 0.  1.
        994    1    1    2    0    0 -0.23677018702E+01 -0.50595251786E+01  0.16029654909E+01  0.17129861151E+03  0.17120000000E+03 0.  0.
        998    1    1    2    0    0 -0.14085970116E+02  0.29989442280E+01  0.14005076864E+04  0.14006174309E+04  0.10000000000E+02 0.  1.
</event>
<event>
 5    1  0.1688215E-008  0.3707845E+03  0.7957747E-01  0.3492293E+00
         13   -1    0    0    0    0  0.00000000000E+00  0.00000000000E+00  0.14999999963E+04  0.15000000000E+04  0.10566000000E+00 0.  1.
        994   -1    0    0    0    0 -0.00000000000E+00 -0.00000000000E+00  0.11368683772E-12  0.17120000000E+03  0.17120000000E+03 0.  0.
         13    1    1    2    0    0  0.53077668413E+02  0.78755956163E+01  0.14255037863E+03  0.15231508626E+03  0.10566000000E+00 0.  1.
        994    1    1    2    0    0  0.21691468345E+01  0.36899485247E+01  0.11418514094E+02  0.17163374780E+03  0.17120000000E+03 0.  0.
        998    1    1    2    0    0 -0.55246815247E+02 -0.11565544141E+02  0.13460311036E+04  0.13472511659E+04  0.10000000000E+02 0.  1.
</event>
<event>
 5    1  0.1688215E-008  0.3820556E+03  0.7957747E-01  0.3442257E+00
         13   -1    0    0    0    0  0.00000000000E+00  0.00000000000E+00  0.14999999963E+04  0.15000000000E+04  0.10566000000E+00 0.  1.
        994   -1    0    0    0    0 -0.00000000000E+00 -0.00000000000E+00  0.11368683772E-12  0.17120000000E+03  0.17120000000E+03 0.  0.
         13    1    1    2    0    0  0.90792784253E+01  0.83764370228E+01  0.23158976814E+02  0.26247806862E+02  0.10566000000E+00 0.  1.
        994    1    1    2    0    0 -0.10912816721E+02 -0.63542890661E+01  0.36287429349E+01  0.17170344881E+03  0.17120000000E+03 0.  0.
        998    1    1    2    0    0  0.18335382953E+01 -0.20221479567E+01  0.14732122765E+04  0.14732487443E+04  0.10000000000E+02 0.  1.
</event>
<event>
 5    1  0.1688215E-008  0.3832861E+03  0.7957747E-01  0.3436974E+00
         13   -1    0    0    0    0  0.00000000000E+00  0.00000000000E+00  0.14999999963E+04  0.15000000000E+04  0.10566000000E+00 0.  1.
        994   -1    0    0    0    0 -0.00000000000E+00 -0.00000000000E+00  0.11368683772E-12  0.17120000000E+03  0.17120000000E+03 0.  0.
         13    1    1    2    0    0 -0.14144410438E+01 -0.18385517814E+02  0.78578895973E+02  0.80713579806E+02  0.10566000000E+00 0.  1.
        994    1    1    2    0    0 -0.96194787108E+01 -0.12546401256E+02  0.33104503309E+01  0.17196030250E+03  0.17120000000E+03 0.  0.
        998    1    1    2    0    0  0.11033919755E+02  0.30931919070E+02  0.14181106500E+04  0.14185261177E+04  0.10000000000E+02 0.  1.
</event>
<event>
 5    1  0.1688215E-008  0.3821854E+03  0.7957747E-01  0.3441698E+00
         13   -1    0    0    0    0  0.00000000000E+00  0.00000000000E+00  0.14999999963E+04  0.15000000000E+04  0.10566000000E+00 0. -1.
        994   -1    0    0    0    0 -0.00000000000E+00 -0.00000000000E+00  0.11368683772E-12  0.17120000000E+03  0.17120000000E+03 0.  0.
         13    1    1    2    0    0 -0.12910752606E+01 -0.10807874202E+02  0.18033567840E+02  0.21064134285E+02  0.10566000000E+00 0. -1.
        994    1    1    2    0    0 -0.12353634491E+02  0.14687095208E+02  0.42574338437E+01  0.17232495116E+03  0.17120000000E+03 0.  0.
        998    1    1    2    0    0  0.13644709751E+02 -0.38792210069E+01  0.14777089946E+04  0.14778109146E+04  0.10000000000E+02 0. -1.
</event>
<event>
 5    1  0.1688215E-008  0.3847529E+03  0.7957747E-01  0.3430721E+00
         13   -1    0    0    0    0  0.00000000000E+00  0.00000000000E+00  0.14999999963E+04  0.15000000000E+04  0.10566000000E+00 0.  1.
        994   -1    0    0    0    0 -0.00000000000E+00 -0.00000000000E+00  0.11368683772E-12  0.17120000000E+03  0.17120000000E+03 0.  0.
         13    1    1    2    0    0  0.10729506205E+02 -0.14857142348E+02  0.10403744834E+03  0.10563928627E+03  0.10566000000E+00 0.  1.
        994    1    1    2    0    0  0.48084277116E+01  0.49061353815E+01  0.19081943477E+01  0.17134839464E+03  0.17120000000E+03 0.  0.
        998    1    1    2    0    0 -0.15537933916E+02  0.99510069664E+01  0.13940543536E+04  0.13942123191E+04  0.10000000000E+02 0.  1.
</event>
<event>
 5    1  0.1688215E-008  0.4005813E+03  0.7957747E-01  0.3366164E+00
         13   -1    0    0    0    0  0.00000000000E+00  0.00000000000E+00  0.14999999963E+04  0.15000000000E+04  0.10566000000E+00 0. -1.
        994   -1    0    0    0    0 -0.00000000000E+00 -0.00000000000E+00  0.11368683772E-12  0.17120000000E+03  0.17120000000E+03 0.  0.
         13    1    1    2    0    0  0.74917568706E+02  0.27809437295E+02  0.10709098046E+03  0.13362071757E+03  0.10566000000E+00 0. -1.
        994    1    1    2    0    0 -0.46484522438E+02 -0.20797431116E+02  0.38371948484E+02  0.18268878016E+03  0.17120000000E+03 0.  0.
        998    1    1    2    0    0 -0.28433046268E+02 -0.70120061785E+01  0.13545370673E+04  0.13548905023E+04  0.10000000000E+02 0. -1.
</event>
<event>
 5    1  0.1688215E-008  0.3855333E+03  0.7957747E-01  0.3427413E+00
         13   -1    0    0    0    0  0.00000000000E+00  0.00000000000E+00  0.14999999963E+04  0.15000000000E+04  0.10566000000E+00 0.  1.
        994   -1    0    0    0    0 -0.00000000000E+00 -0.00000000000E+00  0.11368683772E-12  0.17120000000E+03  0.17120000000E+03 0.  0.
         13    1    1    2    0    0 -0.90414592650E+01  0.12709488550E+02  0.85743545097E+02  0.87150707253E+02  0.10566000000E+00 0.  1.
        994    1    1    2    0    0  0.76301637887E+01 -0.13787442602E+02  0.21812030671E+01  0.17193751952E+03  0.17120000000E+03 0.  0.
        998    1    1    2    0    0  0.14112954764E+01  0.10779540517E+01  0.14120752481E+04  0.14121117732E+04  0.10000000000E+02 0.  1.
</event>
<event>
 5    1  0.1688215E-008  0.3841172E+03  0.7957747E-01  0.3433425E+00
         13   -1    0    0    0    0  0.00000000000E+00  0.00000000000E+00  0.14999999963E+04  0.15000000000E+04  0.10566000000E+00 0.  1.
        994   -1    0    0    0    0 -0.00000000000E+00 -0.00000000000E+00  0.11368683772E-12  0.17120000000E+03  0.17120000000E+03 0.  0.
         13    1    1    2    0    0 -0.10293535394E+02  0.36597245429E+01  0.28833591780E+02  0.30834033690E+02  0.10566000000E+00 0.  1.
        994    1    1    2    0    0  0.80146541752E+00 -0.52125630331E+01  0.21608009117E+01  0.17129484003E+03  0.17120000000E+03 0.  0.
        998    1    1    2    0    0  0.94920699769E+01  0.15528384902E+01  0.14690056036E+04  0.14690711263E+04  0.10000000000E+02 0.  1.
</event>
<event>
 5    1  0.1688215E-008  0.3730130E+03  0.7957747E-01  0.3482157E+00
         13   -1    0    0    0    0  0.00000000000E+00  0.00000000000E+00  0.14999999963E+04  0.15000000000E+04  0.10566000000E+00 0.  1.
        994   -1    0    0    0    0 -0.00000000000E+00 -0.00000000000E+00  0.11368683772E-12  0.17120000000E+03  0.17120000000E+03 0.  0.
         13    1    1    2    0    0 -0.80605997497E+02 -0.10187799853E+03  0.65735316596E+03  0.67006689918E+03  0.10566000000E+00 0.  1.
        994    1    1    2    0    0  0.36216325807E+02  0.72858310030E+02  0.36315796300E+02  0.19299801205E+03  0.17120000000E+03 0.  0.
        998    1    1    2    0    0  0.44389671691E+02  0.29019688498E+02  0.80633103402E+03  0.80813508876E+03  0.10000000000E+02 0.  1.
</event>
<event>
 5    1  0.1688215E-008  0.3748014E+03  0.7957747E-01  0.3474112E+00
         13   -1    0    0    0    0  0.00000000000E+00  0.00000000000E+00  0.14999999963E+04  0.15000000000E+04  0.10566000000E+00 0. -1.
        994   -1    0    0    0    0 -0.00000000000E+00 -0.00000000000E+00  0.11368683772E-12  0.17120000000E+03  0.17120000000E+03 0.  0.
         13    1    1    2    0    0 -0.30199923163E+02 -0.75778312333E+02  0.39087051482E+03  0.39929207167E+03  0.10566000000E+00 0. -1.
        994    1    1    2    0    0  0.39877539140E+02  0.62610837819E+02  0.25761380017E+02  0.18837044312E+03  0.17120000000E+03 0.  0.
        998    1    1    2    0    0 -0.96776159771E+01  0.13167474515E+02  0.10833681014E+04  0.10835374852E+04  0.10000000000E+02 0.  1.
</event>
<event>
 5    1  0.1688215E-008  0.3722950E+03  0.7957747E-01  0.3485410E+00
         13   -1    0    0    0    0  0.00000000000E+00  0.00000000000E+00  0.14999999963E+04  0.15000000000E+04  0.10566000000E+00 0. -1.
        994   -1    0    0    0    0 -0.00000000000E+00 -0.00000000000E+00  0.11368683772E-12  0.17120000000E+03  0.17120000000E+03 0.  0.
         13    1    1    2    0    0 -0.42903629519E+02  0.10486377227E+02  0.15028284130E+03  0.15663853002E+03  0.10566000000E+00 0. -1.
        994    1    1    2    0    0 -0.23382923332E+02  0.48006073803E+00  0.99531515761E+01  0.17307656337E+03  0.17120000000E+03 0.  0.
        998    1    1    2    0    0  0.66286552851E+02 -0.10966437965E+02  0.13397640034E+04  0.13414849066E+04  0.10000000000E+02 0. -1.
</event>
<event>
 5    1  0.1688215E-008  0.3807805E+03  0.7957747E-01  0.3447767E+00
         13   -1    0    0    0    0  0.00000000000E+00  0.00000000000E+00  0.14999999963E+04  0.15000000000E+04  0.10566000000E+00 0.  1.
        994   -1    0    0    0    0 -0.00000000000E+00 -0.00000000000E+00  0.11368683772E-12  0.17120000000E+03  0.17120000000E+03 0.  0.
         13    1    1    2    0    0  0.29530813286E+02  0.65117849924E+01  0.11687328197E+03  0.12072219133E+03  0.10566000000E+00 0.  1.
        994    1    1    2    0    0 -0.22572664936E+02 -0.99710398066E+01  0.57727533400E+01  0.17306562778E+03  0.17120000000E+03 0.  0.
        998    1    1    2    0    0 -0.69581483505E+01  0.34592548142E+01  0.13773539610E+04  0.13774121809E+04  0.10000000000E+02 0.  1.
</event>
<event>
 5    1  0.1688215E-008  0.3797613E+03  0.7957747E-01  0.3452199E+00
         13   -1    0    0    0    0  0.00000000000E+00  0.00000000000E+00  0.14999999963E+04  0.15000000000E+04  0.10566000000E+00 0.  1.
        994   -1    0    0    0    0 -0.00000000000E+00 -0.00000000000E+00  0.11368683772E-12  0.17120000000E+03  0.17120000000E+03 0.  0.
         13    1    1    2    0    0  0.26410896641E+02 -0.12689199235E+02  0.95080030643E+02  0.99492585803E+02  0.10566000000E+00 0.  1.
        994    1    1    2    0    0 -0.21706076531E+02  0.17121978157E+02  0.68149774603E+01  0.17355172086E+03  0.17120000000E+03 0.  0.
        998    1    1    2    0    0 -0.47048201094E+01 -0.44327789212E+01  0.13981049882E+04  0.13981556933E+04  0.10000000000E+02 0.  1.
</event>
<event>
 5    1  0.1688215E-008  0.3810728E+03  0.7957747E-01  0.3446501E+00
         13   -1    0    0    0    0  0.00000000000E+00  0.00000000000E+00  0.14999999963E+04  0.15000000000E+04  0.10566000000E+00 0.  1.
        994   -1    0    0    0    0 -0.00000000000E+00 -0.00000000000E+00  0.11368683772E-12  0.17120000000E+03  0.17120000000E+03 0.  0.
         13    1    1    2    0    0 -0.60160699739E+02  0.17838684139E+03  0.11356844076E+04  0.11511821141E+04  0.10566000000E+00 0.  1.
        994    1    1    2    0    0  0.68286032557E+02 -0.17003852988E+03  0.12497638872E+03  0.28018676204E+03  0.17120000000E+03 0.  0.
        998    1    1    2    0    0 -0.81253328182E+01 -0.83483115158E+01  0.23933920000E+03  0.23983112390E+03  0.10000000000E+02 0.  1.
</event>
<event>
 5    1  0.1688215E-008  0.3710663E+03  0.7957747E-01  0.3491005E+00
         13   -1    0    0    0    0  0.00000000000E+00  0.00000000000E+00  0.14999999963E+04  0.15000000000E+04  0.10566000000E+00 0. -1.
        994   -1    0    0    0    0 -0.00000000000E+00 -0.00000000000E+00  0.11368683772E-12  0.17120000000E+03  0.17120000000E+03 0.  0.
         13    1    1    2    0    0  0.15484386124E+02  0.82020321223E+01  0.13683533093E+02  0.22232628871E+02  0.10566000000E+00 0. -1.
        994    1    1    2    0    0 -0.14278344840E+02 -0.75898609917E+01  0.96140774521E+01  0.17223050719E+03  0.17120000000E+03 0.  0.
        998    1    1    2    0    0 -0.12060412837E+01 -0.61217113065E+00  0.14767023857E+04  0.14767368639E+04  0.10000000000E+02 0. -1.
</event>
<event>
 5    1  0.1688215E-008  0.3824788E+03  0.7957747E-01  0.3440436E+00
         13   -1    0    0    0    0  0.00000000000E+00  0.00000000000E+00  0.14999999963E+04  0.15000000000E+04  0.10566000000E+00 0. -1.
        994   -1    0    0    0    0 -0.00000000000E+00 -0.00000000000E+00  0.11368683772E-12  0.17120000000E+03  0.17120000000E+03 0.  0.
         13    1    1    2    0    0  0.96736548403E+01  0.26204380365E+01  0.16096898395E+02  0.18962267676E+02  0.10566000000E+00 0. -1.
        994    1    1    2    0    0 -0.92776746297E+01 -0.53640549352E+01  0.32679492561E+01  0.17156621994E+03  0.17120000000E+03 0.  0.
        998    1    1    2    0    0 -0.39598021067E+00  0.27436168987E+01  0.14806351486E+04  0.14806715124E+04  0.10000000000E+02 0. -1.
</event>
<event>
 5    1  0.1688215E-008  0.4252837E+03  0.7957747E-01  0.3274945E+00
         13   -1    0    0    0    0  0.00000000000E+00  0.00000000000E+00  0.14999999963E+04  0.15000000000E+04  0.10566000000E+00 0.  1.
        994   -1    0    0    0    0 -0.00000000000E+00 -0.00000000000E+00  0.11368683772E-12  0.17120000000E+03  0.17120000000E+03 0.  0.
         13    1    1    2    0    0 -0.10167409379E+03  0.10820710630E+03  0.24198633472E+03  0.28390807765E+03  0.10566000000E+00 0.  1.
        994    1    1    2    0    0  0.16262095481E+03  0.26116729573E+02  0.17709669967E+03  0.29631122075E+03  0.17120000000E+03 0.  0.
        998    1    1    2    0    0 -0.60946861021E+02 -0.13432383588E+03  0.10809169619E+04  0.10909807016E+04  0.10000000000E+02 0.  1.
</event>
<event>
 5    1  0.1688215E-008  0.3722572E+03  0.7957747E-01  0.3485581E+00
         13   -1    0    0    0    0  0.00000000000E+00  0.00000000000E+00  0.14999999963E+04  0.15000000000E+04  0.10566000000E+00 0.  1.
        994   -1    0    0    0    0 -0.00000000000E+00 -0.00000000000E+00  0.11368683772E-12  0.17120000000E+03  0.17120000000E+03 0.  0.
         13    1    1    2    0    0  0.23667056713E+00  0.14530948647E+02  0.94793316439E+01  0.17351466047E+02  0.10566000000E+00 0.  1.
        994    1    1    2    0    0  0.31629016909E+01 -0.75370838830E+01  0.83232560578E+01  0.17159699348E+03  0.17120000000E+03 0.  0.
        998    1    1    2    0    0 -0.33995722580E+01 -0.69938647642E+01  0.14821974086E+04  0.14822515405E+04  0.10000000000E+02 0.  1.
</event>
<event>
 5    1  0.1688215E-008  0.3832771E+03  0.7957747E-01  0.3437012E+00
         13   -1    0    0    0    0  0.00000000000E+00  0.00000000000E+00  0.14999999963E+04  0.15000000000E+04  0.10566000000E+00 0. -1.
        994   -1    0    0    0    0 -0.00000000000E+00 -0.00000000000E+00  0.11368683772E-12  0.17120000000E+03  0.17120000000E+03 0.  0.
         13    1    1    2    0    0 -0.66996174494E+01  0.24870923465E+02  0.13313476187E+03  0.13560355338E+03  0.10566000000E+00 0. -1.
        994    1    1    2    0    0 -0.13526778088E+02 -0.19807001347E+02  0.43928277307E+01  0.17292781142E+03  0.17120000000E+03 0.  0.
        998    1    1    2    0    0  0.20226395538E+02 -0.50639221178E+01  0.13624724067E+04  0.13626686352E+04  0.10000000000E+02 0. -1.
</event>
<event>
 5    1  0.1688215E-008  0.3722007E+03  0.7957747E-01  0.3485838E+00
         13   -1    0    0    0    0  0.00000000000E+00  0.00000000000E+00  0.14999999963E+04  0.15000000000E+04  0.10566000000E+00 0.  1.
        994   -1    0    0    0    0 -0.00000000000E+00 -0.00000000000E+00  0.11368683772E-12  0.17120000000E+03  0.17120000000E+03 0.  0.
         13    1    1    2    0    0  0.65390671392E+02 -0.17860096495E+02  0.16205565566E+03  0.17566152011E+03  0.10566000000E+00 0.  1.
        994    1    1    2    0    0 -0.70710991303E+02  0.20172064474E+02  0.31409209588E+02  0.18895220275E+03  0.17120000000E+03 0.  0.
        998    1    1    2    0    0  0.53203199112E+01 -0.23119679792E+01  0.13065351310E+04  0.13065862771E+04  0.10000000000E+02 0.  1.
</event>
<event>
 5    1  0.1688215E-008  0.3786745E+03  0.7957747E-01  0.3456950E+00
         13   -1    0    0    0    0  0.00000000000E+00  0.00000000000E+00  0.14999999963E+04  0.15000000000E+04  0.10566000000E+00 0. -1.
        994   -1    0    0    0    0 -0.00000000000E+00 -0.00000000000E+00  0.11368683772E-12  0.17120000000E+03  0.17120000000E+03 0.  0.
         13    1    1    2    0    0  0.11856992339E+03  0.55722427068E+02  0.77766909331E+03  0.78862731722E+03  0.10566000000E+00 0. -1.
        994    1    1    2    0    0 -0.11928588358E+03 -0.57950345419E+02  0.66324139528E+02  0.22648553163E+03  0.17120000000E+03 0.  0.
        998    1    1    2    0    0  0.71596018524E+00  0.22279183517E+01  0.65600676344E+03  0.65608715115E+03  0.10000000000E+02 0.  0.
</event>
<event>
 5    1  0.1688215E-008  0.3688485E+03  0.7957747E-01  0.3501200E+00
         13   -1    0    0    0    0  0.00000000000E+00  0.00000000000E+00  0.14999999963E+04  0.15000000000E+04  0.10566000000E+00 0.  1.
        994   -1    0    0    0    0 -0.00000000000E+00 -0.00000000000E+00  0.11368683772E-12  0.17120000000E+03  0.17120000000E+03 0.  0.
         13    1    1    2    0    0  0.40998976121E+02  0.10189407231E+03  0.40898254255E+03  0.42347378820E+03  0.10566000000E+00 0.  1.
        994    1    1    2    0    0 -0.34588792970E+02 -0.11156425921E+03  0.58847227869E+02  0.21544234672E+03  0.17120000000E+03 0.  0.
        998    1    1    2    0    0 -0.64101831505E+01  0.96701868929E+01  0.10321702259E+04  0.10322838651E+04  0.10000000000E+02 0.  1.
</event>
<event>
 5    1  0.1688215E-008  0.3848144E+03  0.7957747E-01  0.3430460E+00
         13   -1    0    0    0    0  0.00000000000E+00  0.00000000000E+00  0.14999999963E+04  0.15000000000E+04  0.10566000000E+00 0.  1.
        994   -1    0    0    0    0 -0.00000000000E+00 -0.00000000000E+00  0.11368683772E-12  0.17120000000E+03  0.17120000000E+03 0.  0.
         13    1    1    2    0    0  0.14124371641E+02 -0.35227082305E+01  0.56380614442E+02  0.58229650492E+02  0.10566000000E+00 0.  1.
        994    1    1    2    0    0 -0.24773152111E+02  0.27540010626E+01  0.37694084358E+01  0.17304606909E+03  0.17120000000E+03 0.  0.
        998    1    1    2    0    0  0.10648780470E+02  0.76870716785E+00  0.14398499734E+04  0.14399242804E+04  0.10000000000E+02 0.  1.
</event>
<event>
 5    1  0.1688215E-008  0.3196277E+03  0.7957747E-01  0.3765149E+00
         13   -1    0    0    0    0  0.00000000000E+00  0.00000000000E+00  0.14999999963E+04  0.15000000000E+04  0.10566000000E+00 0. -1.
        994   -1    0    0    0    0 -0.00000000000E+00 -0.00000000000E+00  0.11368683772E-12  0.17120000000E+03  0.17120000000E+03 0.  0.
         13    1    1    2    0    0  0.21081829613E+03 -0.57390130581E+02  0.71292697962E+03  0.74565600012E+03  0.10566000000E+00 0. -1.
        994    1    1    2    0    0 -0.21560298275E+03  0.59045176403E+02  0.21731859360E+03  0.35567933613E+03  0.17120000000E+03 0.  0.
        998    1    1    2    0    0  0.47846866232E+01 -0.16550458221E+01  0.56975442305E+03  0.56986466375E+03  0.10000000000E+02 0.  1.
</event>
<event>
 5    1  0.1688215E-008  0.3703458E+03  0.7957747E-01  0.3494303E+00
         13   -1    0    0    0    0  0.00000000000E+00  0.00000000000E+00  0.14999999963E+04  0.15000000000E+04  0.10566000000E+00 0.  1.
        994   -1    0    0    0    0 -0.00000000000E+00 -0.00000000000E+00  0.11368683772E-12  0.17120000000E+03  0.17120000000E+03 0.  0.
         13    1    1    2    0    0 -0.35621407877E+02 -0.63345541300E+02  0.30143655988E+03  0.31007346403E+03  0.10566000000E+00 0.  1.
        994    1    1    2    0    0 -0.79224953795E+02  0.10618766742E+03  0.72391867749E+02  0.22825958147E+03  0.17120000000E+03 0.  0.
        998    1    1    2    0    0  0.11484636167E+03 -0.42842126118E+02  0.11261715687E+04  0.11328669545E+04  0.10000000000E+02 0.  1.
</event>
<event>
 5    1  0.1688215E-008  0.3840932E+03  0.7957747E-01  0.3433527E+00
         13   -1    0    0    0    0  0.00000000000E+00  0.00000000000E+00  0.14999999963E+04  0.15000000000E+04  0.10566000000E+00 0.  1.
        994   -1    0    0    0    0 -0.00000000000E+00 -0.00000000000E+00  0.11368683772E-12  0.17120000000E+03  0.17120000000E+03 0.  0.
         13    1    1    2    0    0 -0.11045308519E+02 -0.21878642436E+01  0.29822813501E+02  0.31877844334E+02  0.10566000000E+00 0.  1.
        994    1    1    2    0    0  0.73818499043E+01  0.57820875941E+01  0.23710528094E+01  0.17147298952E+03  0.17120000000E+03 0.  0.
        998    1    1    2    0    0  0.36634586148E+01 -0.35942233506E+01  0.14678061300E+04  0.14678491661E+04  0.10000000000E+02 0.  1.
</event>
<event>
 5    1  0.1688215E-008  0.3787735E+03  0.7957747E-01  0.3456516E+00
         13   -1    0    0    0    0  0.00000000000E+00  0.00000000000E+00  0.14999999963E+04  0.15000000000E+04  0.10566000000E+00 0.  1.
        994   -1    0    0    0    0 -0.00000000000E+00 -0.00000000000E+00  0.11368683772E-12  0.17120000000E+03  0.17120000000E+03 0.  0.
         13    1    1    2    0    0  0.16517268259E+02  0.18082028530E+01  0.27164435861E+02  0.31843484231E+02  0.10566000000E+00 0.  1.
        994    1    1    2    0    0 -0.96859566357E+01 -0.81723338219E+01  0.52928012541E+01  0.17174998847E+03  0.17120000000E+03 0.  0.
        998    1    1    2    0    0 -0.68313116238E+01  0.63641309689E+01  0.14675427592E+04  0.14676065273E+04  0.10000000000E+02 0.  1.
</event>
<event>
 5    1  0.1688215E-008  0.3839407E+03  0.7957747E-01  0.3434177E+00
         13   -1    0    0    0    0  0.00000000000E+00  0.00000000000E+00  0.14999999963E+04  0.15000000000E+04  0.10566000000E+00 0.  1.
        994   -1    0    0    0    0 -0.00000000000E+00 -0.00000000000E+00  0.11368683772E-12  0.17120000000E+03  0.17120000000E+03 0.  0.
         13    1    1    2    0    0 -0.76188605975E+01 -0.21268665128E+02  0.13290242396E+03  0.13480900790E+03  0.10566000000E+00 0.  1.
        994    1    1    2    0    0  0.18083728003E+01 -0.14856771901E+01  0.21750367714E+01  0.17122981117E+03  0.17120000000E+03 0.  0.
        998    1    1    2    0    0  0.58104877972E+01  0.22754342318E+02  0.13649225355E+04  0.13651611809E+04  0.10000000000E+02 0.  1.
</event>
<event>
 5    1  0.1688215E-008  0.3809021E+03  0.7957747E-01  0.3447240E+00
         13   -1    0    0    0    0  0.00000000000E+00  0.00000000000E+00  0.14999999963E+04  0.15000000000E+04  0.10566000000E+00 0. -1.
        994   -1    0    0    0    0 -0.00000000000E+00 -0.00000000000E+00  0.11368683772E-12  0.17120000000E+03  0.17120000000E+03 0.  0.
         13    1    1    2    0    0  0.14144295997E+02 -0.18521075619E+02  0.75541431066E+02  0.79054476931E+02  0.10566000000E+00 0. -1.
        994    1    1    2    0    0 -0.19206385709E+02 -0.66235015141E+01  0.50553546629E+01  0.17247536820E+03  0.17120000000E+03 0.  0.
        998    1    1    2    0    0  0.50620897124E+01  0.25144577133E+02  0.14194032105E+04  0.14196701549E+04  0.10000000000E+02 0. -1.
</event>
<event>
 5    1  0.1688215E-008  0.3741540E+03  0.7957747E-01  0.3477015E+00
         13   -1    0    0    0    0  0.00000000000E+00  0.00000000000E+00  0.14999999963E+04  0.15000000000E+04  0.10566000000E+00 0.  1.
        994   -1    0    0    0    0 -0.00000000000E+00 -0.00000000000E+00  0.11368683772E-12  0.17120000000E+03  0.17120000000E+03 0.  0.
         13    1    1    2    0    0  0.41916635735E+02  0.64070099543E+01  0.11338690709E+03  0.12105641656E+03  0.10566000000E+00 0.  1.
        994    1    1    2    0    0 -0.49223199143E+02  0.15733769030E+02  0.16272429569E+02  0.17956811183E+03  0.17120000000E+03 0.  0.
        998    1    1    2    0    0  0.73065634082E+01 -0.22140778984E+02  0.13703406596E+04  0.13705754716E+04  0.10000000000E+02 0.  1.
</event>
<event>
 5    1  0.1688215E-008  0.3817757E+03  0.7957747E-01  0.3443463E+00
         13   -1    0    0    0    0  0.00000000000E+00  0.00000000000E+00  0.14999999963E+04  0.15000000000E+04  0.10566000000E+00 0. -1.
        994   -1    0    0    0    0 -0.00000000000E+00 -0.00000000000E+00  0.11368683772E-12  0.17120000000E+03  0.17120000000E+03 0.  0.
         13    1    1    2    0    0  0.22133136167E+02 -0.23314483803E+01  0.73114103697E+02  0.76426400488E+02  0.10566000000E+00 0. -1.
        994    1    1    2    0    0 -0.20435393009E+02 -0.46688734002E+00  0.46293106889E+01  0.17247809655E+03  0.17120000000E+03 0.  0.
        998    1    1    2    0    0 -0.16977431584E+01  0.27983357203E+01  0.14222565819E+04  0.14222955030E+04  0.10000000000E+02 0. -1.
</event>
<event>
 5    1  0.1688215E-008  0.3856810E+03  0.7957747E-01  0.3426789E+00
         13   -1    0    0    0    0  0.00000000000E+00  0.00000000000E+00  0.14999999963E+04  0.15000000000E+04  0.10566000000E+00 0. -1.
        994   -1    0    0    0    0 -0.00000000000E+00 -0.00000000000E+00  0.11368683772E-12  0.17120000000E+03  0.17120000000E+03 0.  0.
         13    1    1    2    0    0 -0.67315165658E+01  0.10161757803E+02  0.59462682438E+02  0.60699229021E+02  0.10566000000E+00 0. -1.
        994    1    1    2    0    0 -0.22307379688E+01 -0.65632098650E+01  0.14501093716E+01  0.17134641733E+03  0.17120000000E+03 0.  0.
        998    1    1    2    0    0  0.89622545346E+01 -0.35985479381E+01  0.14390872045E+04  0.14391543536E+04  0.10000000000E+02 0. -1.
</event>
<event>
 5    1  0.1688215E-008  0.3774292E+03  0.7957747E-01  0.3462429E+00
         13   -1    0    0    0    0  0.00000000000E+00  0.00000000000E+00  0.14999999963E+04  0.15000000000E+04  0.10566000000E+00 0.  1.
        994   -1    0    0    0    0 -0.00000000000E+00 -0.00000000000E+00  0.11368683772E-12  0.17120000000E+03  0.17120000000E+03 0.  0.
         13    1    1    2    0    0 -0.10957194666E+02  0.11067072139E+02  0.20621593556E+02  0.25841855303E+02  0.10566000000E+00 0.  1.
        994    1    1    2    0    0 -0.18261061446E+02 -0.15788625130E+02  0.74037716324E+01  0.17305202363E+03  0.17120000000E+03 0.  0.
        998    1    1    2    0    0  0.29218256112E+02  0.47215529904E+01  0.14719746311E+04  0.14723061211E+04  0.10000000000E+02 0.  1.
</event>
<event>
 5    1  0.1688215E-008  0.3836367E+03  0.7957747E-01  0.3435475E+00
         13   -1    0    0    0    0  0.00000000000E+00  0.00000000000E+00  0.14999999963E+04  0.15000000000E+04  0.10566000000E+00 0. -1.
        994   -1    0    0    0    0 -0.00000000000E+00 -0.00000000000E+00  0.11368683772E-12  0.17120000000E+03  0.17120000000E+03 0.  0.
         13    1    1    2    0    0 -0.12671517186E+02  0.79443147001E+01  0.55929125840E+02  0.57894367300E+02  0.10566000000E+00 0. -1.
        994    1    1    2    0    0 -0.14219075530E+02  0.15685039576E+02  0.37904092497E+01  0.17254567447E+03  0.17120000000E+03 0.  0.
        998    1    1    2    0    0  0.26890592716E+02 -0.23629354276E+02  0.14402804612E+04  0.14407599582E+04  0.10000000000E+02 0. -1.
</event>
<event>
 5    1  0.1688215E-008  0.3845621E+03  0.7957747E-01  0.3431532E+00
         13   -1    0    0    0    0  0.00000000000E+00  0.00000000000E+00  0.14999999963E+04  0.15000000000E+04  0.10566000000E+00 0.  1.
        994   -1    0    0    0    0 -0.00000000000E+00 -0.00000000000E+00  0.11368683772E-12  0.17120000000E+03  0.17120000000E+03 0.  0.
         13    1    1    2    0    0  0.10397116209E+02  0.91844713340E+01  0.52369805365E+02  0.54176214497E+02  0.10566000000E+00 0.  1.
        994    1    1    2    0    0 -0.38512971060E+01 -0.67098306633E+01  0.20448490678E+01  0.17138691818E+03  0.17120000000E+03 0.  0.
        998    1    1    2    0    0 -0.65458191030E+01 -0.24746406707E+01  0.14455853418E+04  0.14456368673E+04  0.10000000000E+02 0.  1.
</event>
<event>
 5    1  0.1688215E-008  0.3856305E+03  0.7957747E-01  0.3427003E+00
         13   -1    0    0    0    0  0.00000000000E+00  0.00000000000E+00  0.14999999963E+04  0.15000000000E+04  0.10566000000E+00 0.  1.
        994   -1    0    0    0    0 -0.00000000000E+00 -0.00000000000E+00  0.11368683772E-12  0.17120000000E+03  0.17120000000E+03 0.  0.
         13    1    1    2    0    0  0.94793288510E+01  0.73359541787E+01  0.56616827600E+02  0.57871843160E+02  0.10566000000E+00 0.  1.
        994    1    1    2    0    0  0.36182786995E+01 -0.10255850384E+02  0.17057026765E+01  0.17155355965E+03  0.17120000000E+03 0.  0.
        998    1    1    2    0    0 -0.13097607551E+02  0.29198962048E+01  0.14416774660E+04  0.14417745972E+04  0.10000000000E+02 0.  1.
</event>
<event>
 5    1  0.1688215E-008  0.3829939E+03  0.7957747E-01  0.3438225E+00
         13   -1    0    0    0    0  0.00000000000E+00  0.00000000000E+00  0.14999999963E+04  0.15000000000E+04  0.10566000000E+00 0. -1.
        994   -1    0    0    0    0 -0.00000000000E+00 -0.00000000000E+00  0.11368683772E-12  0.17120000000E+03  0.17120000000E+03 0.  0.
         13    1    1    2    0    0 -0.23314110683E+02  0.24316103845E+01  0.10439763762E+03  0.10699690832E+03  0.10566000000E+00 0. -1.
        994    1    1    2    0    0  0.13348693072E+02 -0.19190436069E+01  0.32316781131E+01  0.17176074662E+03  0.17120000000E+03 0.  0.
        998    1    1    2    0    0  0.99654176109E+01 -0.51256677761E+00  0.13923706805E+04  0.13924423451E+04  0.10000000000E+02 0. -1.
</event>
<event>
 5    1  0.1688215E-008  0.3836953E+03  0.7957747E-01  0.3435224E+00
         13   -1    0    0    0    0  0.00000000000E+00  0.00000000000E+00  0.14999999963E+04  0.15000000000E+04  0.10566000000E+00 0.  1.
        994   -1    0    0    0    0 -0.00000000000E+00 -0.00000000000E+00  0.11368683772E-12  0.17120000000E+03  0.17120000000E+03 0.  0.
         13    1    1    2    0    0  0.62741899188E+01  0.82980994659E+01  0.22613959954E+02  0.24892293239E+02  0.10566000000E+00 0.  1.
        994    1    1    2    0    0 -0.77101543550E+01 -0.92599636453E+01  0.27589455627E+01  0.17164569668E+03  0.17120000000E+03 0.  0.
        998    1    1    2    0    0  0.14359644362E+01  0.96186417939E+00  0.14746270908E+04  0.14746620101E+04  0.10000000000E+02 0.  1.
</event>
<event>
 5    1  0.1688215E-008  0.3758503E+03  0.7957747E-01  0.3469428E+00
         13   -1    0    0    0    0  0.00000000000E+00  0.00000000000E+00  0.14999999963E+04  0.15000000000E+04  0.10566000000E+00 0.  1.
        994   -1    0    0    0    0 -0.00000000000E+00 -0.00000000000E+00  0.11368683772E-12  0.17120000000E+03  0.17120000000E+03 0.  0.
         13    1    1    2    0    0 -0.42319375656E+01 -0.24422562638E+02  0.49999252184E+02  0.55805978572E+02  0.10566000000E+00 0.  1.
        994    1    1    2    0    0 -0.15011674831E+02 -0.18265830246E+01  0.70182127490E+01  0.17200983140E+03  0.17120000000E+03 0.  0.
        998    1    1    2    0    0  0.19243612396E+02  0.26249145662E+02  0.14429825313E+04  0.14433841900E+04  0.10000000000E+02 0.  1.
</event>
<event>
 5    1  0.1688215E-008  0.3850928E+03  0.7957747E-01  0.3429279E+00
         13   -1    0    0    0    0  0.00000000000E+00  0.00000000000E+00  0.14999999963E+04  0.15000000000E+04  0.10566000000E+00 0.  1.
        994   -1    0    0    0    0 -0.00000000000E+00 -0.00000000000E+00  0.11368683772E-12  0.17120000000E+03  0.17120000000E+03 0.  0.
         13    1    1    2    0    0  0.74808954481E+01  0.14160920551E+02  0.80070673107E+02  0.81656716340E+02  0.10566000000E+00 0.  1.
        994    1    1    2    0    0 -0.56629476331E+01 -0.10761139206E+02  0.20703547377E+01  0.17164380986E+03  0.17120000000E+03 0.  0.
        998    1    1    2    0    0 -0.18179478150E+01 -0.33997813450E+01  0.14178589684E+04  0.14178994738E+04  0.10000000000E+02 0.  1.
</event>
<event>
 5    1  0.1688215E-008  0.3833298E+03  0.7957747E-01  0.3436787E+00
         13   -1    0    0    0    0  0.00000000000E+00  0.00000000000E+00  0.14999999963E+04  0.15000000000E+04  0.10566000000E+00 0.  1.
        994   -1    0    0    0    0 -0.00000000000E+00 -0.00000000000E+00  0.11368683772E-12  0.17120000000E+03  0.17120000000E+03 0.  0.
         13    1    1    2    0    0 -0.63738555317E+01 -0.96815342496E+01  0.27076105262E+02  0.29453094573E+02  0.10566000000E+00 0.  1.
        994    1    1    2    0    0  0.32077356983E+01 -0.17650186448E+00  0.24957685769E+01  0.17124832724E+03  0.17120000000E+03 0.  0.
        998    1    1    2    0    0  0.31661198334E+01  0.98580361141E+01  0.14704281224E+04  0.14704985782E+04  0.10000000000E+02 0.  1.
</event>
<event>
 5    1  0.1688215E-008  0.3787054E+03  0.7957747E-01  0.3456815E+00
         13   -1    0    0    0    0  0.00000000000E+00  0.00000000000E+00  0.14999999963E+04  0.15000000000E+04  0.10566000000E+00 0.  1.
        994   -1    0    0    0    0 -0.00000000000E+00 -0.00000000000E+00  0.11368683772E-12  0.17120000000E+03  0.17120000000E+03 0.  0.
         13    1    1    2    0    0  0.19860074012E+02 -0.31497446805E+02  0.14908053668E+03  0.15366043497E+03  0.10566000000E+00 0.  1.
        994    1    1    2    0    0  0.22790086761E+00  0.18094373780E+02  0.58882045948E+01  0.17225437369E+03  0.17120000000E+03 0.  0.
        998    1    1    2    0    0 -0.20087974879E+02  0.13403073025E+02  0.13450312550E+04  0.13452851913E+04  0.10000000000E+02 0.  1.
</event>
<event>
 5    1  0.1688215E-008  0.3803892E+03  0.7957747E-01  0.3449466E+00
         13   -1    0    0    0    0  0.00000000000E+00  0.00000000000E+00  0.14999999963E+04  0.15000000000E+04  0.10566000000E+00 0.  1.
        994   -1    0    0    0    0 -0.00000000000E+00 -0.00000000000E+00  0.11368683772E-12  0.17120000000E+03  0.17120000000E+03 0.  0.
         13    1    1    2    0    0  0.22795209939E+02  0.31552886577E+01  0.66322986223E+02  0.70202044901E+02  0.10566000000E+00 0.  1.
        994    1    1    2    0    0 -0.11035441241E+02 -0.15656265659E+02  0.51627155860E+01  0.17234556348E+03  0.17120000000E+03 0.  0.
        998    1    1    2    0    0 -0.11759768698E+02  0.12500977002E+02  0.14285142945E+04  0.14286523916E+04  0.10000000000E+02 0.  1.
</event>
<event>
 5    1  0.1688215E-008  0.3808975E+03  0.7957747E-01  0.3447260E+00
         13   -1    0    0    0    0  0.00000000000E+00  0.00000000000E+00  0.14999999963E+04  0.15000000000E+04  0.10566000000E+00 0.  1.
        994   -1    0    0    0    0 -0.00000000000E+00 -0.00000000000E+00  0.11368683772E-12  0.17120000000E+03  0.17120000000E+03 0.  0.
         13    1    1    2    0    0  0.59851818963E+02 -0.73669426592E+02  0.56839159184E+03  0.57626247274E+03  0.10566000000E+00 0.  1.
        994    1    1    2    0    0 -0.40921971012E+02  0.12083115290E+03  0.59977364640E+02  0.22176902284E+03  0.17120000000E+03 0.  0.
        998    1    1    2    0    0 -0.18929847951E+02 -0.47161726309E+02  0.87163103980E+03  0.87316850442E+03  0.10000000000E+02 0.  1.
</event>
<event>
 5    1  0.1688215E-008  0.3847247E+03  0.7957747E-01  0.3430841E+00
         13   -1    0    0    0    0  0.00000000000E+00  0.00000000000E+00  0.14999999963E+04  0.15000000000E+04  0.10566000000E+00 0.  1.
        994   -1    0    0    0    0 -0.00000000000E+00 -0.00000000000E+00  0.11368683772E-12  0.17120000000E+03  0.17120000000E+03 0.  0.
         13    1    1    2    0    0  0.16878603472E+02 -0.16678913929E+01  0.85053361467E+02  0.86728049544E+02  0.10566000000E+00 0.  1.
        994    1    1    2    0    0 -0.43588858408E+01  0.20375266795E+01  0.18430921895E+01  0.17127751863E+03  0.17120000000E+03 0.  0.
        998    1    1    2    0    0 -0.12519717631E+02 -0.36963528656E+00  0.14131035426E+04  0.14131944318E+04  0.10000000000E+02 0.  1.
</event>
<event>
 5    1  0.1688215E-008  0.3823227E+03  0.7957747E-01  0.3441107E+00
         13   -1    0    0    0    0  0.00000000000E+00  0.00000000000E+00  0.14999999963E+04  0.15000000000E+04  0.10566000000E+00 0. -1.
        994   -1    0    0    0    0 -0.00000000000E+00 -0.00000000000E+00  0.11368683772E-12  0.17120000000E+03  0.17120000000E+03 0.  0.
         13    1    1    2    0    0 -0.23777779902E+02 -0.13726524602E+02  0.13408332781E+03  0.13686544580E+03  0.10566000000E+00 0. -1.
        994    1    1    2    0    0 -0.11526473576E+02  0.40201620800E+02  0.87893642034E+01  0.17645317461E+03  0.17120000000E+03 0.  0.
        998    1    1    2    0    0  0.35304253478E+02 -0.26475096199E+02  0.13571273043E+04  0.13578813796E+04  0.10000000000E+02 0. -1.
</event>
<event>
 5    1  0.1688215E-008  0.3696157E+03  0.7957747E-01  0.3497659E+00
         13   -1    0    0    0    0  0.00000000000E+00  0.00000000000E+00  0.14999999963E+04  0.15000000000E+04  0.10566000000E+00 0. -1.
        994   -1    0    0    0    0 -0.00000000000E+00 -0.00000000000E+00  0.11368683772E-12  0.17120000000E+03  0.17120000000E+03 0.  0.
         13    1    1    2    0    0  0.11750262635E+02 -0.22226242337E+02  0.28520499429E+02  0.38019791848E+02  0.10566000000E+00 0. -1.
        994    1    1    2    0    0 -0.87593946513E+01  0.30109822678E+02  0.12882205003E+02  0.17452426657E+03  0.17120000000E+03 0.  0.
        998    1    1    2    0    0 -0.29908679837E+01 -0.78835803415E+01  0.14585972918E+04  0.14586559416E+04  0.10000000000E+02 0. -1.
</event>
<event>
 5    1  0.1688215E-008  0.3811135E+03  0.7957747E-01  0.3446324E+00
         13   -1    0    0    0    0  0.00000000000E+00  0.00000000000E+00  0.14999999963E+04  0.15000000000E+04  0.10566000000E+00 0.  1.
        994   -1    0    0    0    0 -0.00000000000E+00 -0.00000000000E+00  0.11368683772E-12  0.17120000000E+03  0.17120000000E+03 0.  0.
         13    1    1    2    0    0 -0.69749370985E+01  0.20667962730E+02  0.67310981206E+02  0.70757287864E+02  0.10566000000E+00 0.  1.
        994    1    1    2    0    0 -0.29344855456E+01 -0.88500570641E+01  0.38617218927E+01  0.17149719418E+03  0.17120000000E+03 0.  0.
        998    1    1    2    0    0  0.99094226441E+01 -0.11817905666E+02  0.14288272932E+04  0.14289455180E+04  0.10000000000E+02 0.  1.
</event>
<event>
 5    1  0.1688215E-008  0.3760959E+03  0.7957747E-01  0.3468336E+00
         13   -1    0    0    0    0  0.00000000000E+00  0.00000000000E+00  0.14999999963E+04  0.15000000000E+04  0.10566000000E+00 0.  1.
        994   -1    0    0    0    0 -0.00000000000E+00 -0.00000000000E+00  0.11368683772E-12  0.17120000000E+03  0.17120000000E+03 0.  0.
         13    1    1    2    0    0 -0.37461151621E+02  0.12155621454E+02  0.11543594707E+03  0.12196952920E+03  0.10566000000E+00 0.  1.
        994    1    1    2    0    0  0.35997386567E+02 -0.19377020918E+02  0.11798156575E+02  0.17640838211E+03  0.17120000000E+03 0.  0.
        998    1    1    2    0    0  0.14637650538E+01  0.72213994640E+01  0.13727658926E+04  0.13728220887E+04  0.10000000000E+02 0.  1.
</event>
<event>
 5    1  0.1688215E-008  0.3773392E+03  0.7957747E-01  0.3462827E+00
         13   -1    0    0    0    0  0.00000000000E+00  0.00000000000E+00  0.14999999963E+04  0.15000000000E+04  0.10566000000E+00 0.  1.
        994   -1    0    0    0    0 -0.00000000000E+00 -0.00000000000E+00  0.11368683772E-12  0.17120000000E+03  0.17120000000E+03 0.  0.
         13    1    1    2    0    0 -0.87180340615E+02 -0.43427226562E+02  0.54292209921E+03  0.55158929719E+03  0.10566000000E+00 0.  1.
        994    1    1    2    0    0  0.91188429342E+02  0.35167791308E+02  0.38407403493E+02  0.20083991594E+03  0.17120000000E+03 0.  0.
        998    1    1    2    0    0 -0.40080887267E+01  0.82594352536E+01  0.91867049357E+03  0.91877078687E+03  0.10000000000E+02 0.  1.
</event>
<event>
 5    1  0.1688215E-008  0.3850289E+03  0.7957747E-01  0.3429550E+00
         13   -1    0    0    0    0  0.00000000000E+00  0.00000000000E+00  0.14999999963E+04  0.15000000000E+04  0.10566000000E+00 0. -1.
        994   -1    0    0    0    0 -0.00000000000E+00 -0.00000000000E+00  0.11368683772E-12  0.17120000000E+03  0.17120000000E+03 0.  0.
         13    1    1    2    0    0  0.17428949405E+02 -0.69801691996E+00  0.10401294789E+03  0.10546544456E+03  0.10566000000E+00 0. -1.
        994    1    1    2    0    0  0.96539561873E+00  0.31999122616E+01  0.16525163418E+01  0.17124059752E+03  0.17120000000E+03 0.  0.
        998    1    1    2    0    0 -0.18394345024E+02 -0.25018953416E+01  0.13943345321E+04  0.13944939579E+04  0.10000000000E+02 0. -1.
</event>
<event>
 5    1  0.1688215E-008  0.3819172E+03  0.7957747E-01  0.3442853E+00
         13   -1    0    0    0    0  0.00000000000E+00  0.00000000000E+00  0.14999999963E+04  0.15000000000E+04  0.10566000000E+00 0. -1.
        994   -1    0    0    0    0 -0.00000000000E+00 -0.00000000000E+00  0.11368683772E-12  0.17120000000E+03  0.17120000000E+03 0.  0.
         13    1    1    2    0    0  0.16973495907E+02  0.13243094417E+02  0.68540624599E+02  0.71842240343E+02  0.10566000000E+00 0. -1.
        994    1    1    2    0    0 -0.29222799067E+02 -0.22145433148E+01  0.60267956507E+01  0.17379481711E+03  0.17120000000E+03 0.  0.
        998    1    1    2    0    0  0.12249303161E+02 -0.11028551103E+02  0.14254325760E+04  0.14255629426E+04  0.10000000000E+02 0. -1.
</event>
<event>
 5    1  0.1688215E-008  0.3798820E+03  0.7957747E-01  0.3451673E+00
         13   -1    0    0    0    0  0.00000000000E+00  0.00000000000E+00  0.14999999963E+04  0.15000000000E+04  0.10566000000E+00 0.  1.
        994   -1    0    0    0    0 -0.00000000000E+00 -0.00000000000E+00  0.11368683772E-12  0.17120000000E+03  0.17120000000E+03 0.  0.
         13    1    1    2    0    0  0.77117066476E+00  0.18456287337E+02  0.37813537635E+02  0.42084486916E+02  0.10566000000E+00 0.  1.
        994    1    1    2    0    0  0.89282805910E-01 -0.22192551518E+02  0.58415642056E+01  0.17273123975E+03  0.17120000000E+03 0.  0.
        998    1    1    2    0    0 -0.86045347067E+00  0.37362641807E+01  0.14563448944E+04  0.14563842733E+04  0.10000000000E+02 0.  1.
</event>
<event>
 5    1  0.1688215E-008  0.3742333E+03  0.7957747E-01  0.3476659E+00
         13   -1    0    0    0    0  0.00000000000E+00  0.00000000000E+00  0.14999999963E+04  0.15000000000E+04  0.10566000000E+00 0.  1.
        994   -1    0    0    0    0 -0.00000000000E+00 -0.00000000000E+00  0.11368683772E-12  0.17120000000E+03  0.17120000000E+03 0.  0.
         13    1    1    2    0    0  0.27391265521E+02  0.27105895493E+02  0.96735674959E+02  0.10412882872E+03  0.10566000000E+00 0.  1.
        994    1    1    2    0    0 -0.29117371942E+02 -0.24420297804E+02  0.12010644733E+02  0.17577789361E+03  0.17120000000E+03 0.  0.
        998    1    1    2    0    0  0.17261064210E+01 -0.26855976888E+01  0.13912536766E+04  0.13912932777E+04  0.10000000000E+02 0.  1.
</event>
<event>
 5    1  0.1688215E-008  0.3854427E+03  0.7957747E-01  0.3427797E+00
         13   -1    0    0    0    0  0.00000000000E+00  0.00000000000E+00  0.14999999963E+04  0.15000000000E+04  0.10566000000E+00 0.  1.
        994   -1    0    0    0    0 -0.00000000000E+00 -0.00000000000E+00  0.11368683772E-12  0.17120000000E+03  0.17120000000E+03 0.  0.
         13    1    1    2    0    0 -0.11261245945E+02  0.54786830545E+01  0.55909789245E+02  0.57295264426E+02  0.10566000000E+00 0.  1.
        994    1    1    2    0    0  0.10058740718E+02  0.20157242019E+01  0.17561880379E+01  0.17151607973E+03  0.17120000000E+03 0.  0.
        998    1    1    2    0    0  0.12025052274E+01 -0.74944072564E+01  0.14423340190E+04  0.14423886558E+04  0.10000000000E+02 0.  1.
</event>
<event>
 5    1  0.1688215E-008  0.3858635E+03  0.7957747E-01  0.3426018E+00
         13   -1    0    0    0    0  0.00000000000E+00  0.00000000000E+00  0.14999999963E+04  0.15000000000E+04  0.10566000000E+00 0.  1.
        994   -1    0    0    0    0 -0.00000000000E+00 -0.00000000000E+00  0.11368683772E-12  0.17120000000E+03  0.17120000000E+03 0.  0.
         13    1    1    2    0    0 -0.11065743259E+02  0.64191351596E+01  0.70884360867E+02  0.72029575520E+02  0.10566000000E+00 0.  1.
        994    1    1    2    0    0  0.35245918714E+01 -0.28298442774E+01  0.12690134988E+01  0.17126436045E+03  0.17120000000E+03 0.  0.
        998    1    1    2    0    0  0.75411513874E+01 -0.35892908822E+01  0.14278466219E+04  0.14279060640E+04  0.10000000000E+02 0.  1.
</event>
<event>
 5    1  0.1688215E-008  0.3798314E+03  0.7957747E-01  0.3451893E+00
         13   -1    0    0    0    0  0.00000000000E+00  0.00000000000E+00  0.14999999963E+04  0.15000000000E+04  0.10566000000E+00 0. -1.
        994   -1    0    0    0    0 -0.00000000000E+00 -0.00000000000E+00  0.11368683772E-12  0.17120000000E+03  0.17120000000E+03 0.  0.
         13    1    1    2    0    0 -0.34589991539E+02  0.38678482346E+02  0.26852865398E+03  0.27349614565E+03  0.10566000000E+00 0. -1.
        994    1    1    2    0    0  0.34352796299E+02 -0.35709932060E+02  0.12474887778E+02  0.17866274566E+03  0.17120000000E+03 0.  0.
        998    1    1    2    0    0  0.23719523999E+00 -0.29685502860E+01  0.12189964545E+04  0.12190411087E+04  0.10000000000E+02 0. -1.
</event>
<event>
 5    1  0.1688215E-008  0.3737050E+03  0.7957747E-01  0.3479035E+00
         13   -1    0    0    0    0  0.00000000000E+00  0.00000000000E+00  0.14999999963E+04  0.15000000000E+04  0.10566000000E+00 0. -1.
        994   -1    0    0    0    0 -0.00000000000E+00 -0.00000000000E+00  0.11368683772E-12  0.17120000000E+03  0.17120000000E+03 0.  0.
         13    1    1    2    0    0 -0.74548015929E+02 -0.71504896757E+01  0.44696552657E+03  0.45319612674E+03  0.10566000000E+00 0. -1.
        994    1    1    2    0    0  0.26685603709E+02 -0.49258276852E+01  0.98634440056E+01  0.17361772015E+03  0.17120000000E+03 0.  0.
        998    1    1    2    0    0  0.47862412220E+02  0.12076317361E+02  0.10431710257E+04  0.10443861531E+04  0.10000000000E+02 0.  1.
</event>
<event>
 5    1  0.1688215E-008  0.3783632E+03  0.7957747E-01  0.3458316E+00
         13   -1    0    0    0    0  0.00000000000E+00  0.00000000000E+00  0.14999999963E+04  0.15000000000E+04  0.10566000000E+00 0.  1.
        994   -1    0    0    0    0 -0.00000000000E+00 -0.00000000000E+00  0.11368683772E-12  0.17120000000E+03  0.17120000000E+03 0.  0.
         13    1    1    2    0    0  0.11907298754E+02  0.27282436172E+02  0.81903091944E+02  0.87144952356E+02  0.10566000000E+00 0.  1.
        994    1    1    2    0    0 -0.79303479083E+01 -0.33380940534E+02  0.89284506920E+01  0.17483230491E+03  0.17120000000E+03 0.  0.
        998    1    1    2    0    0 -0.39769508461E+01  0.60985043622E+01  0.14091684536E+04  0.14092227427E+04  0.10000000000E+02 0.  1.
</event>
<event>
 5    1  0.1688215E-008  0.3824968E+03  0.7957747E-01  0.3440359E+00
         13   -1    0    0    0    0  0.00000000000E+00  0.00000000000E+00  0.14999999963E+04  0.15000000000E+04  0.10566000000E+00 0.  1.
        994   -1    0    0    0    0 -0.00000000000E+00 -0.00000000000E+00  0.11368683772E-12  0.17120000000E+03  0.17120000000E+03 0.  0.
         13    1    1    2    0    0  0.10483512479E+02  0.64287377038E+01  0.25248920770E+02  0.28084726568E+02  0.10566000000E+00 0.  1.
        994    1    1    2    0    0 -0.70827551434E+01 -0.38505416632E+01  0.30935901644E+01  0.17141762567E+03  0.17120000000E+03 0.  0.
        998    1    1    2    0    0 -0.34007573352E+01 -0.25781960405E+01  0.14716574853E+04  0.14716976478E+04  0.10000000000E+02 0.  1.
</event>
<event>
 5    1  0.1688215E-008  0.3747875E+03  0.7957747E-01  0.3474174E+00
         13   -1    0    0    0    0  0.00000000000E+00  0.00000000000E+00  0.14999999963E+04  0.15000000000E+04  0.10566000000E+00 0. -1.
        994   -1    0    0    0    0 -0.00000000000E+00 -0.00000000000E+00  0.11368683772E-12  0.17120000000E+03  0.17120000000E+03 0.  0.
         13    1    1    2    0    0  0.32679681608E+02 -0.28706338195E+02  0.65583068433E+02  0.78696667475E+02  0.10566000000E+00 0. -1.
        994    1    1    2    0    0 -0.21006021772E+02  0.17802404629E+02  0.16193470504E+02  0.17415466416E+03  0.17120000000E+03 0.  0.
        998    1    1    2    0    0 -0.11673659836E+02  0.10903933567E+02  0.14182234573E+04  0.14183486684E+04  0.10000000000E+02 0. -1.
</event>
<event>
 5    1  0.1688215E-008  0.3834728E+03  0.7957747E-01  0.3436175E+00
         13   -1    0    0    0    0  0.00000000000E+00  0.00000000000E+00  0.14999999963E+04  0.15000000000E+04  0.10566000000E+00 0. -1.
        994   -1    0    0    0    0 -0.00000000000E+00 -0.00000000000E+00  0.11368683772E-12  0.17120000000E+03  0.17120000000E+03 0.  0.
         13    1    1    2    0    0 -0.13150374841E+02  0.28827372418E+02  0.19122094172E+03  0.19382829895E+03  0.10566000000E+00 0. -1.
        994    1    1    2    0    0 -0.46401117086E+01 -0.34223060863E+02  0.63422903086E+01  0.17476387836E+03  0.17120000000E+03 0.  0.
        998    1    1    2    0    0  0.17790486549E+02  0.53956884450E+01  0.13024367642E+04  0.13026078227E+04  0.10000000000E+02 0. -1.
</event>
<event>
 5    1  0.1688215E-008  0.3717523E+03  0.7957747E-01  0.3487876E+00
         13   -1    0    0    0    0  0.00000000000E+00  0.00000000000E+00  0.14999999963E+04  0.15000000000E+04  0.10566000000E+00 0.  1.
        994   -1    0    0    0    0 -0.00000000000E+00 -0.00000000000E+00  0.11368683772E-12  0.17120000000E+03  0.17120000000E+03 0.  0.
         13    1    1    2    0    0  0.33912049830E+02 -0.27049822872E+02  0.79182282031E+02  0.90286017703E+02  0.10566000000E+00 0.  1.
        994    1    1    2    0    0  0.59758024232E+01  0.25526408327E+02  0.14289759054E+02  0.17378419074E+03  0.17120000000E+03 0.  0.
        998    1    1    2    0    0 -0.39887852254E+02  0.15234145451E+01  0.14065279552E+04  0.14071297916E+04  0.10000000000E+02 0.  1.
</event>
<event>
 5    1  0.1688215E-008  0.3835956E+03  0.7957747E-01  0.3435650E+00
         13   -1    0    0    0    0  0.00000000000E+00  0.00000000000E+00  0.14999999963E+04  0.15000000000E+04  0.10566000000E+00 0. -1.
        994   -1    0    0    0    0 -0.00000000000E+00 -0.00000000000E+00  0.11368683772E-12  0.17120000000E+03  0.17120000000E+03 0.  0.
         13    1    1    2    0    0 -0.32578551112E+01 -0.18511282226E+02  0.72206571030E+02  0.74612875923E+02  0.10566000000E+00 0. -1.
        994    1    1    2    0    0 -0.62797429011E+01  0.20969710339E+02  0.39135992076E+01  0.17263811914E+03  0.17120000000E+03 0.  0.
        998    1    1    2    0    0  0.95375980123E+01 -0.24584281131E+01  0.14238798260E+04  0.14239490049E+04  0.10000000000E+02 0. -1.
</event>
<event>
 5    1  0.1688215E-008  0.3844469E+03  0.7957747E-01  0.3432022E+00
         13   -1    0    0    0    0  0.00000000000E+00  0.00000000000E+00  0.14999999963E+04  0.15000000000E+04  0.10566000000E+00 0. -1.
        994   -1    0    0    0    0 -0.00000000000E+00 -0.00000000000E+00  0.11368683772E-12  0.17120000000E+03  0.17120000000E+03 0.  0.
         13    1    1    2    0    0 -0.44333036020E+01  0.16315938380E+02  0.81010852450E+02  0.82756470470E+02  0.10566000000E+00 0. -1.
        994    1    1    2    0    0  0.32089624446E+01  0.19527239539E+01  0.19515063306E+01  0.17125232538E+03  0.17120000000E+03 0.  0.
        998    1    1    2    0    0  0.12243411573E+01 -0.18268662334E+02  0.14170376375E+04  0.14171912042E+04  0.10000000000E+02 0. -1.
</event>
<event>
 5    1  0.1688215E-008  0.3860579E+03  0.7957747E-01  0.3425198E+00
         13   -1    0    0    0    0  0.00000000000E+00  0.00000000000E+00  0.14999999963E+04  0.15000000000E+04  0.10566000000E+00 0.  1.
        994   -1    0    0    0    0 -0.00000000000E+00 -0.00000000000E+00  0.11368683772E-12  0.17120000000E+03  0.17120000000E+03 0.  0.
         13    1    1    2    0    0  0.13605557315E+02 -0.72468828679E+00  0.80412622968E+02  0.81558797561E+02  0.10566000000E+00 0.  1.
        994    1    1    2    0    0 -0.15913900161E+02 -0.61794387462E+01  0.20615420872E+01  0.17206140659E+03  0.17120000000E+03 0.  0.
        998    1    1    2    0    0  0.23083428459E+01  0.69041270330E+01  0.14175258312E+04  0.14175797959E+04  0.10000000000E+02 0.  1.
</event>
<event>
 5    1  0.1688215E-008  0.3866507E+03  0.7957747E-01  0.3422701E+00
         13   -1    0    0    0    0  0.00000000000E+00  0.00000000000E+00  0.14999999963E+04  0.15000000000E+04  0.10566000000E+00 0. -1.
        994   -1    0    0    0    0 -0.00000000000E+00 -0.00000000000E+00  0.11368683772E-12  0.17120000000E+03  0.17120000000E+03 0.  0.
         13    1    1    2    0    0  0.32594528216E+02 -0.36422104391E+02  0.51376747919E+02  0.70912300405E+02  0.10566000000E+00 0. -1.
        994    1    1    2    0    0 -0.16740871954E+02  0.42918678038E+02  0.27954273427E+02  0.17948022488E+03  0.17120000000E+03 0.  0.
        998    1    1    2    0    0 -0.15853656262E+02 -0.64965736472E+01  0.14206689749E+04  0.14208074747E+04  0.10000000000E+02 0. -1.
</event>
<event>
 5    1  0.1688215E-008  0.3773909E+03  0.7957747E-01  0.3462599E+00
         13   -1    0    0    0    0  0.00000000000E+00  0.00000000000E+00  0.14999999963E+04  0.15000000000E+04  0.10566000000E+00 0. -1.
        994   -1    0    0    0    0 -0.00000000000E+00 -0.00000000000E+00  0.11368683772E-12  0.17120000000E+03  0.17120000000E+03 0.  0.
         13    1    1    2    0    0 -0.83237110957E+01 -0.59556991703E+02  0.27566135125E+03  0.28214448633E+03  0.10566000000E+00 0. -1.
        994    1    1    2    0    0  0.11249189298E+02  0.56687042253E+02  0.16802506123E+02  0.18147101485E+03  0.17120000000E+03 0.  0.
        998    1    1    2    0    0 -0.29254782025E+01  0.28699494497E+01  0.12075361389E+04  0.12075844988E+04  0.10000000000E+02 0. -1.
</event>
<event>
 5    1  0.1688215E-008  0.3769125E+03  0.7957747E-01  0.3464714E+00
         13   -1    0    0    0    0  0.00000000000E+00  0.00000000000E+00  0.14999999963E+04  0.15000000000E+04  0.10566000000E+00 0. -1.
        994   -1    0    0    0    0 -0.00000000000E+00 -0.00000000000E+00  0.11368683772E-12  0.17120000000E+03  0.17120000000E+03 0.  0.
         13    1    1    2    0    0  0.23754002849E+02 -0.33527865375E+02  0.10309338465E+03  0.11098030244E+03  0.10566000000E+00 0. -1.
        994    1    1    2    0    0 -0.30447064810E+02  0.10393152127E+03  0.46398981545E+02  0.20782466253E+03  0.17120000000E+03 0.  0.
        998    1    1    2    0    0  0.66930619607E+01 -0.70403655893E+02  0.13505076301E+04  0.13523950350E+04  0.10000000000E+02 0. -1.
</event>
<event>
 5    1  0.1688215E-008  0.3751095E+03  0.7957747E-01  0.3472733E+00
         13   -1    0    0    0    0  0.00000000000E+00  0.00000000000E+00  0.14999999963E+04  0.15000000000E+04  0.10566000000E+00 0.  1.
        994   -1    0    0    0    0 -0.00000000000E+00 -0.00000000000E+00  0.11368683772E-12  0.17120000000E+03  0.17120000000E+03 0.  0.
         13    1    1    2    0    0  0.11286188478E+03 -0.55308526463E+02  0.31433076002E+03  0.33852721603E+03  0.10566000000E+00 0.  1.
        994    1    1    2    0    0 -0.16303291926E+03  0.67513507123E+02  0.13460946250E+03  0.28029797324E+03  0.17120000000E+03 0.  0.
        998    1    1    2    0    0  0.50171034475E+02 -0.12204980659E+02  0.10510597738E+04  0.10523748107E+04  0.10000000000E+02 0. -1.
</event>
<event>
 5    1  0.1688215E-008  0.2880797E+03  0.7957747E-01  0.3984975E+00
         13   -1    0    0    0    0  0.00000000000E+00  0.00000000000E+00  0.14999999963E+04  0.15000000000E+04  0.10566000000E+00 0. -1.
        994   -1    0    0    0    0 -0.00000000000E+00 -0.00000000000E+00  0.11368683772E-12  0.17120000000E+03  0.17120000000E+03 0.  0.
         13    1    1    2    0    0 -0.22357037446E+03 -0.77957823092E+02  0.43670329127E+03  0.49676041538E+03  0.10566000000E+00 0. -1.
        994    1    1    2    0    0  0.21121194157E+03  0.23160179851E+02  0.28686387654E+03  0.39591312412E+03  0.17120000000E+03 0.  0.
        998    1    1    2    0    0  0.12358432894E+02  0.54797643241E+02  0.77643282847E+03  0.77852646050E+03  0.10000000000E+02 0. -1.
</event>
<event>
 5    1  0.1688215E-008  0.3713853E+03  0.7957747E-01  0.3489548E+00
         13   -1    0    0    0    0  0.00000000000E+00  0.00000000000E+00  0.14999999963E+04  0.15000000000E+04  0.10566000000E+00 0. -1.
        994   -1    0    0    0    0 -0.00000000000E+00 -0.00000000000E+00  0.11368683772E-12  0.17120000000E+03  0.17120000000E+03 0.  0.
         13    1    1    2    0    0 -0.11175996767E+02  0.30735757067E+01  0.39365469331E+01  0.12241623142E+02  0.10566000000E+00 0. -1.
        994    1    1    2    0    0  0.32274302431E+01 -0.11466632444E+02  0.90352327571E+01  0.17185160865E+03  0.17120000000E+03 0.  0.
        998    1    1    2    0    0  0.79485665239E+01  0.83930567371E+01  0.14870282166E+04  0.14871067682E+04  0.10000000000E+02 0. -1.
</event>
<event>
 5    1  0.1688215E-008  0.3792215E+03  0.7957747E-01  0.3454555E+00
         13   -1    0    0    0    0  0.00000000000E+00  0.00000000000E+00  0.14999999963E+04  0.15000000000E+04  0.10566000000E+00 0. -1.
        994   -1    0    0    0    0 -0.00000000000E+00 -0.00000000000E+00  0.11368683772E-12  0.17120000000E+03  0.17120000000E+03 0.  0.
         13    1    1    2    0    0  0.12693917229E+02 -0.31591371840E+02  0.12577366557E+03  0.13030033163E+03  0.10566000000E+00 0. -1.
        994    1    1    2    0    0  0.70038228002E-01  0.23048576365E+02  0.63091671932E+01  0.17285973322E+03  0.17120000000E+03 0.  0.
        998    1    1    2    0    0 -0.12763955457E+02  0.85427954747E+01  0.13679171635E+04  0.13680399352E+04  0.10000000000E+02 0. -1.
</event>
<event>
 5    1  0.1688215E-008  0.3845113E+03  0.7957747E-01  0.3431748E+00
         13   -1    0    0    0    0  0.00000000000E+00  0.00000000000E+00  0.14999999963E+04  0.15000000000E+04  0.10566000000E+00 0. -1.
        994   -1    0    0    0    0 -0.00000000000E+00 -0.00000000000E+00  0.11368683772E-12  0.17120000000E+03  0.17120000000E+03 0.  0.
         13    1    1    2    0    0 -0.20965207288E+02  0.12170137814E+00  0.10990325768E+03  0.11188517302E+03  0.10566000000E+00 0. -1.
        994    1    1    2    0    0  0.21478235885E+02  0.30245966061E+01  0.34241461341E+01  0.17260251324E+03  0.17120000000E+03 0.  0.
        998    1    1    2    0    0 -0.51302859721E+00 -0.31462979842E+01  0.13866725925E+04  0.13867123137E+04  0.10000000000E+02 0. -1.
</event>
<event>
 5    1  0.1688215E-008  0.3834816E+03  0.7957747E-01  0.3436137E+00
         13   -1    0    0    0    0  0.00000000000E+00  0.00000000000E+00  0.14999999963E+04  0.15000000000E+04  0.10566000000E+00 0. -1.
        994   -1    0    0    0    0 -0.00000000000E+00 -0.00000000000E+00  0.11368683772E-12  0.17120000000E+03  0.17120000000E+03 0.  0.
         13    1    1    2    0    0  0.13266017842E+02 -0.15771349595E+02  0.12003436247E+03  0.12179073050E+03  0.10566000000E+00 0. -1.
        994    1    1    2    0    0  0.53314544821E+02  0.14863236402E+02  0.12576623074E+02  0.18036343292E+03  0.17120000000E+03 0.  0.
        998    1    1    2    0    0 -0.66580562663E+02  0.90811319308E+00  0.13673890107E+04  0.13690458366E+04  0.10000000000E+02 0. -1.
</event>
<event>
 5    1  0.1688215E-008  0.3838386E+03  0.7957747E-01  0.3434613E+00
         13   -1    0    0    0    0  0.00000000000E+00  0.00000000000E+00  0.14999999963E+04  0.15000000000E+04  0.10566000000E+00 0. -1.
        994   -1    0    0    0    0 -0.00000000000E+00 -0.00000000000E+00  0.11368683772E-12  0.17120000000E+03  0.17120000000E+03 0.  0.
         13    1    1    2    0    0  0.18679790123E+02 -0.74458666523E+01  0.85262138441E+02  0.87601477754E+02  0.10566000000E+00 0. -1.
        994    1    1    2    0    0 -0.20486895185E+02  0.11758116549E+02  0.40519117895E+01  0.17286938470E+03  0.17120000000E+03 0.  0.
        998    1    1    2    0    0  0.18071050620E+01 -0.43122498970E+01  0.14106859460E+04  0.14107291375E+04  0.10000000000E+02 0. -1.
</event>
<event>
 5    1  0.1688215E-008  0.3833237E+03  0.7957747E-01  0.3436813E+00
         13   -1    0    0    0    0  0.00000000000E+00  0.00000000000E+00  0.14999999963E+04  0.15000000000E+04  0.10566000000E+00 0. -1.
        994   -1    0    0    0    0 -0.00000000000E+00 -0.00000000000E+00  0.11368683772E-12  0.17120000000E+03  0.17120000000E+03 0.  0.
         13    1    1    2    0    0  0.15434994336E+03  0.23752624390E+03  0.11400577178E+04  0.11747230451E+04  0.10566000000E+00 0. -1.
        994    1    1    2    0    0 -0.15652543693E+03 -0.23533849321E+03  0.34103749324E+03  0.47486885620E+03  0.17120000000E+03 0.  0.
        998    1    1    2    0    0  0.21754935706E+01 -0.21877506946E+01  0.18904785194E+02  0.21608098681E+02  0.10000000000E+02 0.  1.
</event>
<event>
 5    1  0.1688215E-008  0.3810733E+03  0.7957747E-01  0.3446498E+00
         13   -1    0    0    0    0  0.00000000000E+00  0.00000000000E+00  0.14999999963E+04  0.15000000000E+04  0.10566000000E+00 0.  1.
        994   -1    0    0    0    0 -0.00000000000E+00 -0.00000000000E+00  0.11368683772E-12  0.17120000000E+03  0.17120000000E+03 0.  0.
         13    1    1    2    0    0 -0.12762746516E+02  0.11362795604E+02  0.39449224187E+02  0.42991316281E+02  0.10566000000E+00 0.  1.
        994    1    1    2    0    0  0.48314838713E+01 -0.10246202024E+02  0.40199032909E+01  0.17162146578E+03  0.17120000000E+03 0.  0.
        998    1    1    2    0    0  0.79312626448E+01 -0.11165935804E+01  0.14565308688E+04  0.14565872179E+04  0.10000000000E+02 0.  1.
</event>
<event>
 5    1  0.1688215E-008  0.3829738E+03  0.7957747E-01  0.3438311E+00
         13   -1    0    0    0    0  0.00000000000E+00  0.00000000000E+00  0.14999999963E+04  0.15000000000E+04  0.10566000000E+00 0.  1.
        994   -1    0    0    0    0 -0.00000000000E+00 -0.00000000000E+00  0.11368683772E-12  0.17120000000E+03  0.17120000000E+03 0.  0.
         13    1    1    2    0    0 -0.11148572114E+02  0.15139189697E+00  0.22741436442E+02  0.25327804389E+02  0.10566000000E+00 0.  1.
        994    1    1    2    0    0  0.57079188083E+01 -0.14721126447E+01  0.27544987568E+01  0.17132359650E+03  0.17120000000E+03 0.  0.
        998    1    1    2    0    0  0.54406533061E+01  0.13207207477E+01  0.14745040611E+04  0.14745485991E+04  0.10000000000E+02 0.  1.
</event>
<event>
 5    1  0.1688215E-008  0.3801210E+03  0.7957747E-01  0.3450632E+00
         13   -1    0    0    0    0  0.00000000000E+00  0.00000000000E+00  0.14999999963E+04  0.15000000000E+04  0.10566000000E+00 0.  1.
        994   -1    0    0    0    0 -0.00000000000E+00 -0.00000000000E+00  0.11368683772E-12  0.17120000000E+03  0.17120000000E+03 0.  0.
         13    1    1    2    0    0  0.67502905451E+01 -0.20770029764E+02  0.55054695130E+02  0.59228297112E+02  0.10566000000E+00 0.  1.
        994    1    1    2    0    0  0.77658698616E+01  0.27054597092E+02  0.67240077396E+01  0.17362866192E+03  0.17120000000E+03 0.  0.
        998    1    1    2    0    0 -0.14516160407E+02 -0.62845673282E+01  0.14382212934E+04  0.14383430410E+04  0.10000000000E+02 0.  1.
</event>
<event>
 5    1  0.1688215E-008  0.3825574E+03  0.7957747E-01  0.3440098E+00
         13   -1    0    0    0    0  0.00000000000E+00  0.00000000000E+00  0.14999999963E+04  0.15000000000E+04  0.10566000000E+00 0.  1.
        994   -1    0    0    0    0 -0.00000000000E+00 -0.00000000000E+00  0.11368683772E-12  0.17120000000E+03  0.17120000000E+03 0.  0.
         13    1    1    2    0    0  0.14783993643E+02 -0.26341704041E+02  0.13594815455E+03  0.13926364827E+03  0.10566000000E+00 0.  1.
        994    1    1    2    0    0 -0.23023917664E+02  0.34021551540E+02  0.84620795128E+01  0.17626291029E+03  0.17120000000E+03 0.  0.
        998    1    1    2    0    0  0.82399240210E+01 -0.76798474992E+01  0.13555897622E+04  0.13556734414E+04  0.10000000000E+02 0.  1.
</event>
<event>
 5    1  0.1688215E-008  0.3818510E+03  0.7957747E-01  0.3443138E+00
         13   -1    0    0    0    0  0.00000000000E+00  0.00000000000E+00  0.14999999963E+04  0.15000000000E+04  0.10566000000E+00 0. -1.
        994   -1    0    0    0    0 -0.00000000000E+00 -0.00000000000E+00  0.11368683772E-12  0.17120000000E+03  0.17120000000E+03 0.  0.
         13    1    1    2    0    0  0.28785248596E+01 -0.16151032544E+02  0.40174250481E+02  0.43394968871E+02  0.10566000000E+00 0. -1.
        994    1    1    2    0    0  0.24867703618E+01  0.16354968978E+02  0.41115077298E+01  0.17204654467E+03  0.17120000000E+03 0.  0.
        998    1    1    2    0    0 -0.53652952214E+01 -0.20393643474E+00  0.14557142381E+04  0.14557584865E+04  0.10000000000E+02 0. -1.
</event>
<event>
 5    1  0.1688215E-008  0.3858530E+03  0.7957747E-01  0.3426063E+00
         13   -1    0    0    0    0  0.00000000000E+00  0.00000000000E+00  0.14999999963E+04  0.15000000000E+04  0.10566000000E+00 0. -1.
        994   -1    0    0    0    0 -0.00000000000E+00 -0.00000000000E+00  0.11368683772E-12  0.17120000000E+03  0.17120000000E+03 0.  0.
         13    1    1    2    0    0 -0.95397362600E+01  0.84689210615E+01  0.69206490256E+02  0.70372428191E+02  0.10566000000E+00 0. -1.
        994    1    1    2    0    0  0.47777511400E+01 -0.39637021443E+01  0.13336491716E+01  0.17131770621E+03  0.17120000000E+03 0.  0.
        998    1    1    2    0    0  0.47619851200E+01 -0.45052189172E+01  0.14294598569E+04  0.14295098656E+04  0.10000000000E+02 0. -1.
</event>
<event>
 5    1  0.1688215E-008  0.3857998E+03  0.7957747E-01  0.3426287E+00
         13   -1    0    0    0    0  0.00000000000E+00  0.00000000000E+00  0.14999999963E+04  0.15000000000E+04  0.10566000000E+00 0.  1.
        994   -1    0    0    0    0 -0.00000000000E+00 -0.00000000000E+00  0.11368683772E-12  0.17120000000E+03  0.17120000000E+03 0.  0.
         13    1    1    2    0    0  0.48274557830E+01  0.13670491720E+02  0.78325782240E+02  0.79656299190E+02  0.10566000000E+00 0.  1.
        994    1    1    2    0    0 -0.11605441885E+02 -0.18566411634E+02  0.28076545620E+01  0.17261726694E+03  0.17120000000E+03 0.  0.
        998    1    1    2    0    0  0.67779861022E+01  0.48959199139E+01  0.14188665595E+04  0.14189264339E+04  0.10000000000E+02 0.  1.
</event>
<event>
 5    1  0.1688215E-008  0.3854661E+03  0.7957747E-01  0.3427698E+00
         13   -1    0    0    0    0  0.00000000000E+00  0.00000000000E+00  0.14999999963E+04  0.15000000000E+04  0.10566000000E+00 0. -1.
        994   -1    0    0    0    0 -0.00000000000E+00 -0.00000000000E+00  0.11368683772E-12  0.17120000000E+03  0.17120000000E+03 0.  0.
         13    1    1    2    0    0 -0.12812590697E+02 -0.14213335693E+01  0.58396598738E+02  0.59802646913E+02  0.10566000000E+00 0. -1.
        994    1    1    2    0    0  0.11608574293E+02  0.36451102801E+01  0.18851790198E+01  0.17164218516E+03  0.17120000000E+03 0.  0.
        998    1    1    2    0    0  0.12040164040E+01 -0.22237767108E+01  0.14397182185E+04  0.14397551679E+04  0.10000000000E+02 0. -1.
</event>
<event>
 5    1  0.1688215E-008  0.3849945E+03  0.7957747E-01  0.3429696E+00
         13   -1    0    0    0    0  0.00000000000E+00  0.00000000000E+00  0.14999999963E+04  0.15000000000E+04  0.10566000000E+00 0.  1.
        994   -1    0    0    0    0 -0.00000000000E+00 -0.00000000000E+00  0.11368683772E-12  0.17120000000E+03  0.17120000000E+03 0.  0.
         13    1    1    2    0    0  0.71715274255E+01  0.84643856912E+01  0.39580793598E+02  0.41106289259E+02  0.10566000000E+00 0.  1.
        994    1    1    2    0    0 -0.10469240280E+01  0.48525436002E+01  0.17139420036E+01  0.17128053254E+03  0.17120000000E+03 0.  0.
        998    1    1    2    0    0 -0.61246033975E+01 -0.13316929291E+02  0.14587052607E+04  0.14588131782E+04  0.10000000000E+02 0.  1.
</event>
<event>
 5    1  0.1688215E-008  0.3864548E+03  0.7957747E-01  0.3423526E+00
         13   -1    0    0    0    0  0.00000000000E+00  0.00000000000E+00  0.14999999963E+04  0.15000000000E+04  0.10566000000E+00 0. -1.
        994   -1    0    0    0    0 -0.00000000000E+00 -0.00000000000E+00  0.11368683772E-12  0.17120000000E+03  0.17120000000E+03 0.  0.
         13    1    1    2    0    0  0.10779024351E+02 -0.48686057753E+01  0.67261343981E+02  0.68293412905E+02  0.10566000000E+00 0. -1.
        994    1    1    2    0    0 -0.22273970183E+02  0.14942565343E+02  0.32679076768E+01  0.17331915424E+03  0.17120000000E+03 0.  0.
        998    1    1    2    0    0  0.11494945832E+02 -0.10073959568E+02  0.14294707446E+04  0.14295874329E+04  0.10000000000E+02 0. -1.
</event>
<event>
 5    1  0.1688215E-008  0.3814319E+03  0.7957747E-01  0.3444947E+00
         13   -1    0    0    0    0  0.00000000000E+00  0.00000000000E+00  0.14999999963E+04  0.15000000000E+04  0.10566000000E+00 0.  1.
        994   -1    0    0    0    0 -0.00000000000E+00 -0.00000000000E+00  0.11368683772E-12  0.17120000000E+03  0.17120000000E+03 0.  0.
         13    1    1    2    0    0  0.24634657698E+02 -0.13555473522E+02  0.11449727058E+03  0.11789933569E+03  0.10566000000E+00 0.  1.
        994    1    1    2    0    0 -0.12559591928E+02  0.13176170086E+02  0.45153306039E+01  0.17222422309E+03  0.17120000000E+03 0.  0.
        998    1    1    2    0    0 -0.12075065770E+02  0.37930343597E+00  0.13809873951E+04  0.13810764412E+04  0.10000000000E+02 0.  1.
</event>
<event>
 5    1  0.1688215E-008  0.3849736E+03  0.7957747E-01  0.3429784E+00
         13   -1    0    0    0    0  0.00000000000E+00  0.00000000000E+00  0.14999999963E+04  0.15000000000E+04  0.10566000000E+00 0.  1.
        994   -1    0    0    0    0 -0.00000000000E+00 -0.00000000000E+00  0.11368683772E-12  0.17120000000E+03  0.17120000000E+03 0.  0.
         13    1    1    2    0    0  0.10692699036E+02 -0.11434288677E+02  0.77349670689E+02  0.78918055538E+02  0.10566000000E+00 0.  1.
        994    1    1    2    0    0 -0.68631542022E+01  0.43507501459E+00  0.17988099050E+01  0.17134750623E+03  0.17120000000E+03 0.  0.
        998    1    1    2    0    0 -0.38295448342E+01  0.10999213662E+02  0.14208515157E+04  0.14209344382E+04  0.10000000000E+02 0.  1.
</event>
<event>
 5    1  0.1688215E-008  0.3846553E+03  0.7957747E-01  0.3431136E+00
         13   -1    0    0    0    0  0.00000000000E+00  0.00000000000E+00  0.14999999963E+04  0.15000000000E+04  0.10566000000E+00 0. -1.
        994   -1    0    0    0    0 -0.00000000000E+00 -0.00000000000E+00  0.11368683772E-12  0.17120000000E+03  0.17120000000E+03 0.  0.
         13    1    1    2    0    0  0.42801441853E+01  0.10444997944E+02  0.34177006234E+02  0.35993006758E+02  0.10566000000E+00 0. -1.
        994    1    1    2    0    0 -0.47223058632E+01 -0.12430879596E+02  0.23837790819E+01  0.17173220241E+03  0.17120000000E+03 0.  0.
        998    1    1    2    0    0  0.44216167785E+00  0.19858816518E+01  0.14634392110E+04  0.14634747908E+04  0.10000000000E+02 0. -1.
</event>
<event>
 5    1  0.1688215E-008  0.3838484E+03  0.7957747E-01  0.3434571E+00
         13   -1    0    0    0    0  0.00000000000E+00  0.00000000000E+00  0.14999999963E+04  0.15000000000E+04  0.10566000000E+00 0. -1.
        994   -1    0    0    0    0 -0.00000000000E+00 -0.00000000000E+00  0.11368683772E-12  0.17120000000E+03  0.17120000000E+03 0.  0.
         13    1    1    2    0    0  0.13736484444E+02 -0.40544046769E+01  0.41284298349E+02  0.43698211135E+02  0.10566000000E+00 0. -1.
        994    1    1    2    0    0 -0.18842008083E+02  0.61716330015E+02  0.16071255337E+02  0.18366178674E+03  0.17120000000E+03 0.  0.
        998    1    1    2    0    0  0.51055236389E+01 -0.57661925338E+02  0.14426444426E+04  0.14438400021E+04  0.10000000000E+02 0. -1.
</event>
<event>
 5    1  0.1688215E-008  0.3857750E+03  0.7957747E-01  0.3426392E+00
         13   -1    0    0    0    0  0.00000000000E+00  0.00000000000E+00  0.14999999963E+04  0.15000000000E+04  0.10566000000E+00 0.  1.
        994   -1    0    0    0    0 -0.00000000000E+00 -0.00000000000E+00  0.11368683772E-12  0.17120000000E+03  0.17120000000E+03 0.  0.
         13    1    1    2    0    0 -0.11161891598E+02  0.39570321476E+01  0.56144599586E+02  0.57380076283E+02  0.10566000000E+00 0.  1.
        994    1    1    2    0    0  0.86071714836E+01 -0.43020364858E+01  0.15496494850E+01  0.17147720645E+03  0.17120000000E+03 0.  0.
        998    1    1    2    0    0  0.25547201140E+01  0.34500433821E+00  0.14423057472E+04  0.14423427173E+04  0.10000000000E+02 0.  1.
</event>
<event>
 5    1  0.1688215E-008  0.3811394E+03  0.7957747E-01  0.3446212E+00
         13   -1    0    0    0    0  0.00000000000E+00  0.00000000000E+00  0.14999999963E+04  0.15000000000E+04  0.10566000000E+00 0.  1.
        994   -1    0    0    0    0 -0.00000000000E+00 -0.00000000000E+00  0.11368683772E-12  0.17120000000E+03  0.17120000000E+03 0.  0.
         13    1    1    2    0    0 -0.19188594963E+02 -0.16590899136E+02  0.96338684057E+02  0.99622353519E+02  0.10566000000E+00 0.  1.
        994    1    1    2    0    0 -0.69517459672E+01  0.10543567281E+02  0.40904473991E+01  0.17171390550E+03  0.17120000000E+03 0.  0.
        998    1    1    2    0    0  0.26140340930E+02  0.60473318554E+01  0.13995708648E+04  0.13998637410E+04  0.10000000000E+02 0.  1.
</event>
<event>
 5    1  0.1688215E-008  0.3855679E+03  0.7957747E-01  0.3427267E+00
         13   -1    0    0    0    0  0.00000000000E+00  0.00000000000E+00  0.14999999963E+04  0.15000000000E+04  0.10566000000E+00 0. -1.
        994   -1    0    0    0    0 -0.00000000000E+00 -0.00000000000E+00  0.11368683772E-12  0.17120000000E+03  0.17120000000E+03 0.  0.
         13    1    1    2    0    0 -0.51340143180E+01  0.99995746818E+01  0.47669527804E+02  0.48976980735E+02  0.10566000000E+00 0. -1.
        994    1    1    2    0    0 -0.34239676529E+00 -0.63623563578E+01  0.14817379433E+01  0.17132493211E+03  0.17120000000E+03 0.  0.
        998    1    1    2    0    0  0.54764110833E+01 -0.36372183241E+01  0.14508487305E+04  0.14508980872E+04  0.10000000000E+02 0. -1.
</event>
<event>
 5    1  0.1688215E-008  0.3814438E+03  0.7957747E-01  0.3444896E+00
         13   -1    0    0    0    0  0.00000000000E+00  0.00000000000E+00  0.14999999963E+04  0.15000000000E+04  0.10566000000E+00 0. -1.
        994   -1    0    0    0    0 -0.00000000000E+00 -0.00000000000E+00  0.11368683772E-12  0.17120000000E+03  0.17120000000E+03 0.  0.
         13    1    1    2    0    0  0.16640198323E+03 -0.12270946990E+03  0.11640550008E+04  0.11822737796E+04  0.10566000000E+00 0. -1.
        994    1    1    2    0    0 -0.16721532385E+03  0.11304249501E+03  0.15351927538E+03  0.30596924375E+03  0.17120000000E+03 0.  0.
        998    1    1    2    0    0  0.81334062613E+00  0.96669748915E+01  0.18242572014E+03  0.18295697662E+03  0.10000000000E+02 0.  1.
</event>
<event>
 5    1  0.1688215E-008  0.3926115E+03  0.7957747E-01  0.3398019E+00
         13   -1    0    0    0    0  0.00000000000E+00  0.00000000000E+00  0.14999999963E+04  0.15000000000E+04  0.10566000000E+00 0. -1.
        994   -1    0    0    0    0 -0.00000000000E+00 -0.00000000000E+00  0.11368683772E-12  0.17120000000E+03  0.17120000000E+03 0.  0.
         13    1    1    2    0    0 -0.40458969467E+02  0.22510223779E+02  0.39109556595E+02  0.60606987766E+02  0.10566000000E+00 0. -1.
        994    1    1    2    0    0 -0.72395766447E+01 -0.37281470424E+02  0.28935709768E+02  0.17773304365E+03  0.17120000000E+03 0.  0.
        998    1    1    2    0    0  0.47698546112E+02  0.14771246645E+02  0.14319547299E+04  0.14328599686E+04  0.10000000000E+02 0. -1.
</event>
<event>
 5    1  0.1688215E-008  0.3845564E+03  0.7957747E-01  0.3431556E+00
         13   -1    0    0    0    0  0.00000000000E+00  0.00000000000E+00  0.14999999963E+04  0.15000000000E+04  0.10566000000E+00 0.  1.
        994   -1    0    0    0    0 -0.00000000000E+00 -0.00000000000E+00  0.11368683772E-12  0.17120000000E+03  0.17120000000E+03 0.  0.
         13    1    1    2    0    0 -0.63732223880E+02 -0.24883209081E+02  0.13028697942E+03  0.14715868519E+03  0.10566000000E+00 0.  1.
        994    1    1    2    0    0  0.80202067069E+01  0.23947114442E+02  0.21206630123E+02  0.17434720866E+03  0.17120000000E+03 0.  0.
        998    1    1    2    0    0  0.55712017173E+02  0.93609463951E+00  0.13485063867E+04  0.13496941062E+04  0.10000000000E+02 0.  1.
</event>
<event>
 5    1  0.2142789E-008  0.3862575E+03  0.7957747E-01  0.3424357E+00
         13   -1    0    0    0    0  0.00000000000E+00  0.00000000000E+00  0.14999999963E+04  0.15000000000E+04  0.10566000000E+00 0.  1.
        994   -1    0    0    0    0 -0.00000000000E+00 -0.00000000000E+00  0.11368683772E-12  0.17120000000E+03  0.17120000000E+03 0.  0.
         13    1    1    2    0    0  0.11435306582E+01  0.11464047280E+02  0.67032186627E+02  0.68015125160E+02  0.10566000000E+00 0.  1.
        994    1    1    2    0    0  0.41782504720E+01 -0.80587841202E+01  0.12770450089E+01  0.17144524672E+03  0.17120000000E+03 0.  0.
        998    1    1    2    0    0 -0.53217811302E+01 -0.34052631596E+01  0.14316907646E+04  0.14317396281E+04  0.10000000000E+02 0.  1.
</event>
<event>
 5    1  0.1688215E-008  0.3843636E+03  0.7957747E-01  0.3432376E+00
         13   -1    0    0    0    0  0.00000000000E+00  0.00000000000E+00  0.14999999963E+04  0.15000000000E+04  0.10566000000E+00 0. -1.
        994   -1    0    0    0    0 -0.00000000000E+00 -0.00000000000E+00  0.11368683772E-12  0.17120000000E+03  0.17120000000E+03 0.  0.
         13    1    1    2    0    0  0.95311600095E+01 -0.15458970963E+02  0.97718066032E+02  0.99391420089E+02  0.10566000000E+00 0. -1.
        994    1    1    2    0    0  0.58295405764E+01 -0.61093010987E+01  0.21814332365E+01  0.17142201071E+03  0.17120000000E+03 0.  0.
        998    1    1    2    0    0 -0.15360700586E+02  0.21568272062E+02  0.14001004970E+04  0.14003865692E+04  0.10000000000E+02 0. -1.
</event>
<event>
 5    1  0.1688215E-008  0.3798897E+03  0.7957747E-01  0.3451639E+00
         13   -1    0    0    0    0  0.00000000000E+00  0.00000000000E+00  0.14999999963E+04  0.15000000000E+04  0.10566000000E+00 0. -1.
        994   -1    0    0    0    0 -0.00000000000E+00 -0.00000000000E+00  0.11368683772E-12  0.17120000000E+03  0.17120000000E+03 0.  0.
         13    1    1    2    0    0  0.28016504246E+02  0.82827875058E+00  0.86428653846E+02  0.90859968774E+02  0.10566000000E+00 0. -1.
        994    1    1    2    0    0 -0.30985799057E+02 -0.58736477419E+01  0.75221119037E+01  0.17424305337E+03  0.17120000000E+03 0.  0.
        998    1    1    2    0    0  0.29692948106E+01  0.50453689914E+01  0.14060492305E+04  0.14060969779E+04  0.10000000000E+02 0. -1.
</event>
<event>
 5    1  0.1688215E-008  0.3827981E+03  0.7957747E-01  0.3439065E+00
         13   -1    0    0    0    0  0.00000000000E+00  0.00000000000E+00  0.14999999963E+04  0.15000000000E+04  0.10566000000E+00 0. -1.
        994   -1    0    0    0    0 -0.00000000000E+00 -0.00000000000E+00  0.11368683772E-12  0.17120000000E+03  0.17120000000E+03 0.  0.
         13    1    1    2    0    0  0.97270990705E+01 -0.80729062701E+01  0.27931195801E+02  0.30658622521E+02  0.10566000000E+00 0. -1.
        994    1    1    2    0    0 -0.87771407131E+01  0.95160652309E+01  0.32826288319E+01  0.17172014835E+03  0.17120000000E+03 0.  0.
        998    1    1    2    0    0 -0.94995835735E+00 -0.14431589608E+01  0.14687861716E+04  0.14688212291E+04  0.10000000000E+02 0.  0.
</event>
<event>
 5    1  0.1688215E-008  0.3860790E+03  0.7957747E-01  0.3425109E+00
         13   -1    0    0    0    0  0.00000000000E+00  0.00000000000E+00  0.14999999963E+04  0.15000000000E+04  0.10566000000E+00 0. -1.
        994   -1    0    0    0    0 -0.00000000000E+00 -0.00000000000E+00  0.11368683772E-12  0.17120000000E+03  0.17120000000E+03 0.  0.
         13    1    1    2    0    0 -0.10405827839E+02  0.78003863977E+01  0.75149074864E+02  0.76266125494E+02  0.10566000000E+00 0. -1.
        994    1    1    2    0    0  0.11195102703E+02 -0.74191556380E+01  0.16867185633E+01  0.17173426919E+03  0.17120000000E+03 0.  0.
        998    1    1    2    0    0 -0.78927486420E+00 -0.38123075975E+00  0.14231642029E+04  0.14231996053E+04  0.10000000000E+02 0. -1.
</event>
<event>
 5    1  0.1688215E-008  0.3796476E+03  0.7957747E-01  0.3452695E+00
         13   -1    0    0    0    0  0.00000000000E+00  0.00000000000E+00  0.14999999963E+04  0.15000000000E+04  0.10566000000E+00 0.  1.
        994   -1    0    0    0    0 -0.00000000000E+00 -0.00000000000E+00  0.11368683772E-12  0.17120000000E+03  0.17120000000E+03 0.  0.
         13    1    1    2    0    0 -0.73501687412E+01 -0.85083343251E+01  0.13558569872E+02  0.17614275873E+02  0.10566000000E+00 0.  1.
        994    1    1    2    0    0 -0.25682923547E+01 -0.19880751876E+02  0.56571937964E+01  0.17246241406E+03  0.17120000000E+03 0.  0.
        998    1    1    2    0    0  0.99184610960E+01  0.28389086201E+02  0.14807842326E+04  0.14811233101E+04  0.10000000000E+02 0.  1.
</event>
<event>
 5    1  0.1688215E-008  0.3839987E+03  0.7957747E-01  0.3433930E+00
         13   -1    0    0    0    0  0.00000000000E+00  0.00000000000E+00  0.14999999963E+04  0.15000000000E+04  0.10566000000E+00 0. -1.
        994   -1    0    0    0    0 -0.00000000000E+00 -0.00000000000E+00  0.11368683772E-12  0.17120000000E+03  0.17120000000E+03 0.  0.
         13    1    1    2    0    0  0.61266663727E+01  0.18341438882E+02  0.87905256595E+02  0.90007164838E+02  0.10566000000E+00 0. -1.
        994    1    1    2    0    0 -0.81001520240E+00 -0.11834037264E+02  0.25924384868E+01  0.17163001282E+03  0.17120000000E+03 0.  0.
        998    1    1    2    0    0 -0.53166511703E+01 -0.65074016178E+01  0.14095023012E+04  0.14095628223E+04  0.10000000000E+02 0. -1.
</event>
<event>
 5    1  0.1688215E-008  0.3728364E+03  0.7957747E-01  0.3482956E+00
         13   -1    0    0    0    0  0.00000000000E+00  0.00000000000E+00  0.14999999963E+04  0.15000000000E+04  0.10566000000E+00 0. -1.
        994   -1    0    0    0    0 -0.00000000000E+00 -0.00000000000E+00  0.11368683772E-12  0.17120000000E+03  0.17120000000E+03 0.  0.
         13    1    1    2    0    0 -0.60468356885E+02  0.39329251429E+02  0.28222103185E+03  0.29129355329E+03  0.10566000000E+00 0. -1.
        994    1    1    2    0    0  0.54247266235E+02 -0.36597418837E+02  0.22602101886E+02  0.18466843793E+03  0.17120000000E+03 0.  0.
        998    1    1    2    0    0  0.62210906505E+01 -0.27318325916E+01  0.11951768625E+04  0.11952380088E+04  0.10000000000E+02 0. -1.
</event>
<event>
 5    1  0.1688215E-008  0.3771901E+03  0.7957747E-01  0.3463485E+00
         13   -1    0    0    0    0  0.00000000000E+00  0.00000000000E+00  0.14999999963E+04  0.15000000000E+04  0.10566000000E+00 0.  1.
        994   -1    0    0    0    0 -0.00000000000E+00 -0.00000000000E+00  0.11368683772E-12  0.17120000000E+03  0.17120000000E+03 0.  0.
         13    1    1    2    0    0  0.25298347225E+02  0.18541967258E+02  0.26689784560E+02  0.41184544261E+02  0.10566000000E+00 0.  1.
        994    1    1    2    0    0 -0.18951224066E+02 -0.27860525957E+02  0.18875168373E+02  0.17550233554E+03  0.17120000000E+03 0.  0.
        998    1    1    2    0    0 -0.63471231583E+01  0.93185586995E+01  0.14544350433E+04  0.14545131202E+04  0.10000000000E+02 0.  1.
</event>
<event>
 5    1  0.1688215E-008  0.3797144E+03  0.7957747E-01  0.3452403E+00
         13   -1    0    0    0    0  0.00000000000E+00  0.00000000000E+00  0.14999999963E+04  0.15000000000E+04  0.10566000000E+00 0.  1.
        994   -1    0    0    0    0 -0.00000000000E+00 -0.00000000000E+00  0.11368683772E-12  0.17120000000E+03  0.17120000000E+03 0.  0.
         13    1    1    2    0    0  0.21040095495E+02 -0.25539522372E+02  0.15709784229E+03  0.16054499693E+03  0.10566000000E+00 0.  1.
        994    1    1    2    0    0  0.18723999186E+02 -0.13064354921E+01  0.54570469149E+01  0.17231225807E+03  0.17120000000E+03 0.  0.
        998    1    1    2    0    0 -0.39764094681E+02  0.26845957864E+02  0.13374451071E+04  0.13383427450E+04  0.10000000000E+02 0.  1.
</event>
<event>
 5    1  0.1688215E-008  0.3815374E+03  0.7957747E-01  0.3444492E+00
         13   -1    0    0    0    0  0.00000000000E+00  0.00000000000E+00  0.14999999963E+04  0.15000000000E+04  0.10566000000E+00 0.  1.
        994   -1    0    0    0    0 -0.00000000000E+00 -0.00000000000E+00  0.11368683772E-12  0.17120000000E+03  0.17120000000E+03 0.  0.
         13    1    1    2    0    0 -0.11257346436E+02 -0.37802093411E+02  0.20338723917E+03  0.20717651010E+03  0.10566000000E+00 0.  1.
        994    1    1    2    0    0  0.13889721184E+02  0.35882585588E+02  0.82989156079E+01  0.17566671940E+03  0.17120000000E+03 0.  0.
        998    1    1    2    0    0 -0.26323747477E+01  0.19195078233E+01  0.12883138415E+04  0.12883567705E+04  0.10000000000E+02 0.  1.
</event>
<event>
 5    1  0.1688215E-008  0.3706058E+03  0.7957747E-01  0.3493111E+00
         13   -1    0    0    0    0  0.00000000000E+00  0.00000000000E+00  0.14999999963E+04  0.15000000000E+04  0.10566000000E+00 0. -1.
        994   -1    0    0    0    0 -0.00000000000E+00 -0.00000000000E+00  0.11368683772E-12  0.17120000000E+03  0.17120000000E+03 0.  0.
         13    1    1    2    0    0  0.18150540425E+03 -0.11171934830E+02  0.72902602165E+03  0.75136407640E+03  0.10566000000E+00 0. -1.
        994    1    1    2    0    0 -0.18789688698E+03  0.40091836406E+02  0.14956996064E+03  0.29764611304E+03  0.17120000000E+03 0.  0.
        998    1    1    2    0    0  0.63914827219E+01 -0.28919901577E+02  0.62140401400E+03  0.62218981056E+03  0.10000000000E+02 0. -1.
</event>
<event>
 5    1  0.1688215E-008  0.3804028E+03  0.7957747E-01  0.3449407E+00
         13   -1    0    0    0    0  0.00000000000E+00  0.00000000000E+00  0.14999999963E+04  0.15000000000E+04  0.10566000000E+00 0.  1.
        994   -1    0    0    0    0 -0.00000000000E+00 -0.00000000000E+00  0.11368683772E-12  0.17120000000E+03  0.17120000000E+03 0.  0.
         13    1    1    2    0    0 -0.48597275081E+01  0.15953551639E+02  0.34751965257E+02  0.38546634284E+02  0.10566000000E+00 0.  1.
        994    1    1    2    0    0 -0.66202613596E+00 -0.37903409786E+01  0.39793976063E+01  0.17128946427E+03  0.17120000000E+03 0.  0.
        998    1    1    2    0    0  0.55217536441E+01 -0.12163210661E+02  0.14612686334E+04  0.14613639014E+04  0.10000000000E+02 0.  1.
</event>
<event>
 5    1  0.1688215E-008  0.3755527E+03  0.7957747E-01  0.3470754E+00
         13   -1    0    0    0    0  0.00000000000E+00  0.00000000000E+00  0.14999999963E+04  0.15000000000E+04  0.10566000000E+00 0. -1.
        994   -1    0    0    0    0 -0.00000000000E+00 -0.00000000000E+00  0.11368683772E-12  0.17120000000E+03  0.17120000000E+03 0.  0.
         13    1    1    2    0    0 -0.33451735305E+02  0.13887214137E+02  0.10876029583E+03  0.11463283310E+03  0.10566000000E+00 0. -1.
        994    1    1    2    0    0 -0.36053945887E+01 -0.19887838363E+02  0.77824573892E+01  0.17256457234E+03  0.17120000000E+03 0.  0.
        998    1    1    2    0    0  0.37057129894E+02  0.60006242257E+01  0.13834572431E+04  0.13840025946E+04  0.10000000000E+02 0. -1.
</event>
<event>
 5    1  0.1688215E-008  0.3819779E+03  0.7957747E-01  0.3442591E+00
         13   -1    0    0    0    0  0.00000000000E+00  0.00000000000E+00  0.14999999963E+04  0.15000000000E+04  0.10566000000E+00 0. -1.
        994   -1    0    0    0    0 -0.00000000000E+00 -0.00000000000E+00  0.11368683772E-12  0.17120000000E+03  0.17120000000E+03 0.  0.
         13    1    1    2    0    0 -0.14268056345E+02 -0.97052658688E+01  0.47622640045E+02  0.50652706012E+02  0.10566000000E+00 0. -1.
        994    1    1    2    0    0  0.37681677742E+01  0.31447253240E+01  0.32180174093E+01  0.17130056632E+03  0.17120000000E+03 0.  0.
        998    1    1    2    0    0  0.10499888571E+02  0.65605405448E+01  0.14491593388E+04  0.14492467277E+04  0.10000000000E+02 0. -1.
</event>
<event>
 5    1  0.1688215E-008  0.3732805E+03  0.7957747E-01  0.3480949E+00
         13   -1    0    0    0    0  0.00000000000E+00  0.00000000000E+00  0.14999999963E+04  0.15000000000E+04  0.10566000000E+00 0. -1.
        994   -1    0    0    0    0 -0.00000000000E+00 -0.00000000000E+00  0.11368683772E-12  0.17120000000E+03  0.17120000000E+03 0.  0.
         13    1    1    2    0    0 -0.67088074411E+02  0.16623587958E+02  0.27781385057E+03  0.28628255298E+03  0.10566000000E+00 0. -1.
        994    1    1    2    0    0 -0.24988371892E+02  0.20753317740E+02  0.16424717648E+02  0.17502665590E+03  0.17120000000E+03 0.  0.
        998    1    1    2    0    0  0.92076446303E+02 -0.37376905698E+02  0.12057614281E+04  0.12098907911E+04  0.10000000000E+02 0. -1.
</event>
<event>
 5    1  0.1688215E-008  0.3850261E+03  0.7957747E-01  0.3429561E+00
         13   -1    0    0    0    0  0.00000000000E+00  0.00000000000E+00  0.14999999963E+04  0.15000000000E+04  0.10566000000E+00 0.  1.
        994   -1    0    0    0    0 -0.00000000000E+00 -0.00000000000E+00  0.11368683772E-12  0.17120000000E+03  0.17120000000E+03 0.  0.
         13    1    1    2    0    0 -0.14811777731E+02 -0.10750111451E+01  0.66802201004E+02  0.68433103331E+02  0.10566000000E+00 0.  1.
        994    1    1    2    0    0  0.13934638045E+02 -0.97119224065E+01  0.25664287430E+01  0.17205964701E+03  0.17120000000E+03 0.  0.
        998    1    1    2    0    0  0.87713968579E+00  0.10786933552E+02  0.14306313665E+04  0.14307072497E+04  0.10000000000E+02 0.  1.
</event>
<event>
 5    1  0.1688215E-008  0.3704418E+03  0.7957747E-01  0.3493863E+00
         13   -1    0    0    0    0  0.00000000000E+00  0.00000000000E+00  0.14999999963E+04  0.15000000000E+04  0.10566000000E+00 0.  1.
        994   -1    0    0    0    0 -0.00000000000E+00 -0.00000000000E+00  0.11368683772E-12  0.17120000000E+03  0.17120000000E+03 0.  0.
         13    1    1    2    0    0  0.81572570754E+02 -0.10041699582E+02  0.44210755712E+03  0.44968213580E+03  0.10566000000E+00 0.  1.
        994    1    1    2    0    0 -0.25703885703E+02  0.17092403670E+02  0.12334994313E+02  0.17439733968E+03  0.17120000000E+03 0.  0.
        998    1    1    2    0    0 -0.55868685051E+02 -0.70507040886E+01  0.10455574448E+04  0.10471205245E+04  0.10000000000E+02 0.  1.
</event>
<event>
 5    1  0.1688215E-008  0.3847704E+03  0.7957747E-01  0.3430646E+00
         13   -1    0    0    0    0  0.00000000000E+00  0.00000000000E+00  0.14999999963E+04  0.15000000000E+04  0.10566000000E+00 0.  1.
        994   -1    0    0    0    0 -0.00000000000E+00 -0.00000000000E+00  0.11368683772E-12  0.17120000000E+03  0.17120000000E+03 0.  0.
         13    1    1    2    0    0  0.18797150003E+02  0.90798194672E+01  0.11297189495E+03  0.11488444709E+03  0.10566000000E+00 0.  1.
        994    1    1    2    0    0 -0.25076068827E+02 -0.70642760352E+01  0.39810542329E+01  0.17321663320E+03  0.17120000000E+03 0.  0.
        998    1    1    2    0    0  0.62789188238E+01 -0.20155434320E+01  0.13830470471E+04  0.13830989197E+04  0.10000000000E+02 0.  1.
</event>
<event>
 5    1  0.1688215E-008  0.3783183E+03  0.7957747E-01  0.3458514E+00
         13   -1    0    0    0    0  0.00000000000E+00  0.00000000000E+00  0.14999999963E+04  0.15000000000E+04  0.10566000000E+00 0.  1.
        994   -1    0    0    0    0 -0.00000000000E+00 -0.00000000000E+00  0.11368683772E-12  0.17120000000E+03  0.17120000000E+03 0.  0.
         13    1    1    2    0    0  0.38740423757E+02  0.45199559079E+01  0.17394082362E+03  0.17826012375E+03  0.10566000000E+00 0.  1.
        994    1    1    2    0    0  0.43602916665E-01 -0.69676575995E+01  0.51477011683E+01  0.17141904498E+03  0.17120000000E+03 0.  0.
        998    1    1    2    0    0 -0.38784026674E+02  0.24477016915E+01  0.13209114715E+04  0.13215208313E+04  0.10000000000E+02 0.  1.
</event>
<event>
 5    1  0.1688215E-008  0.3847233E+03  0.7957747E-01  0.3430847E+00
         13   -1    0    0    0    0  0.00000000000E+00  0.00000000000E+00  0.14999999963E+04  0.15000000000E+04  0.10566000000E+00 0.  1.
        994   -1    0    0    0    0 -0.00000000000E+00 -0.00000000000E+00  0.11368683772E-12  0.17120000000E+03  0.17120000000E+03 0.  0.
         13    1    1    2    0    0  0.75843287889E+01 -0.92613347885E+01  0.40676380521E+02  0.42401337969E+02  0.10566000000E+00 0.  1.
        994    1    1    2    0    0 -0.95967865487E+01  0.88573190868E-01  0.20708169913E+01  0.17148129472E+03  0.17120000000E+03 0.  0.
        998    1    1    2    0    0  0.20124577598E+01  0.91727615976E+01  0.14572527988E+04  0.14573173673E+04  0.10000000000E+02 0.  1.
</event>
<event>
 5    1  0.1688215E-008  0.3767249E+03  0.7957747E-01  0.3465544E+00
         13   -1    0    0    0    0  0.00000000000E+00  0.00000000000E+00  0.14999999963E+04  0.15000000000E+04  0.10566000000E+00 0.  1.
        994   -1    0    0    0    0 -0.00000000000E+00 -0.00000000000E+00  0.11368683772E-12  0.17120000000E+03  0.17120000000E+03 0.  0.
         13    1    1    2    0    0  0.75765158253E+02 -0.38676887789E+02  0.49993444742E+03  0.50712002892E+03  0.10566000000E+00 0.  1.
        994    1    1    2    0    0 -0.62500946846E+02  0.29520767038E+02  0.22116921622E+02  0.18594741801E+03  0.17120000000E+03 0.  0.
        998    1    1    2    0    0 -0.13264211406E+02  0.91561207515E+01  0.97794862724E+03  0.97813255306E+03  0.10000000000E+02 0.  0.
</event>
<event>
 5    1  0.1688215E-008  0.3831758E+03  0.7957747E-01  0.3437446E+00
         13   -1    0    0    0    0  0.00000000000E+00  0.00000000000E+00  0.14999999963E+04  0.15000000000E+04  0.10566000000E+00 0. -1.
        994   -1    0    0    0    0 -0.00000000000E+00 -0.00000000000E+00  0.11368683772E-12  0.17120000000E+03  0.17120000000E+03 0.  0.
         13    1    1    2    0    0  0.18215801005E+02 -0.64944095834E+01  0.78431678243E+02  0.80780765521E+02  0.10566000000E+00 0. -1.
        994    1    1    2    0    0 -0.24744527127E+01 -0.75486805359E+01  0.27473543696E+01  0.17140622349E+03  0.17120000000E+03 0.  0.
        998    1    1    2    0    0 -0.15741348293E+02  0.14043090119E+02  0.14188209637E+04  0.14190130110E+04  0.10000000000E+02 0. -1.
</event>
<event>
 5    1  0.1688215E-008  0.3725760E+03  0.7957747E-01  0.3484135E+00
         13   -1    0    0    0    0  0.00000000000E+00  0.00000000000E+00  0.14999999963E+04  0.15000000000E+04  0.10566000000E+00 0.  1.
        994   -1    0    0    0    0 -0.00000000000E+00 -0.00000000000E+00  0.11368683772E-12  0.17120000000E+03  0.17120000000E+03 0.  0.
         13    1    1    2    0    0  0.32809744411E+02  0.48379414555E+02  0.18613137352E+03  0.19509471150E+03  0.10566000000E+00 0.  1.
        994    1    1    2    0    0 -0.32389592105E+02 -0.50043792018E+02  0.20207169936E+02  0.18240404741E+03  0.17120000000E+03 0.  0.
        998    1    1    2    0    0 -0.42015230571E+00  0.16643774625E+01  0.12936614528E+04  0.12937012411E+04  0.10000000000E+02 0.  1.
</event>
<event>
 5    1  0.1688215E-008  0.3799159E+03  0.7957747E-01  0.3451525E+00
         13   -1    0    0    0    0  0.00000000000E+00  0.00000000000E+00  0.14999999963E+04  0.15000000000E+04  0.10566000000E+00 0. -1.
        994   -1    0    0    0    0 -0.00000000000E+00 -0.00000000000E+00  0.11368683772E-12  0.17120000000E+03  0.17120000000E+03 0.  0.
         13    1    1    2    0    0  0.16909727887E+02 -0.52078560546E+01  0.35460674901E+02  0.39629929225E+02  0.10566000000E+00 0. -1.
        994    1    1    2    0    0 -0.13965874079E+02  0.67939697446E+01  0.49825374985E+01  0.17197519979E+03  0.17120000000E+03 0.  0.
        998    1    1    2    0    0 -0.29438538074E+01 -0.15861136900E+01  0.14595567839E+04  0.14595948710E+04  0.10000000000E+02 0. -1.
</event>
<event>
 5    1  0.1688215E-008  0.3710282E+03  0.7957747E-01  0.3491179E+00
         13   -1    0    0    0    0  0.00000000000E+00  0.00000000000E+00  0.14999999963E+04  0.15000000000E+04  0.10566000000E+00 0.  1.
        994   -1    0    0    0    0 -0.00000000000E+00 -0.00000000000E+00  0.11368683772E-12  0.17120000000E+03  0.17120000000E+03 0.  0.
         13    1    1    2    0    0  0.61296764180E+02  0.69458207862E+02  0.29204835180E+03  0.30638862070E+03  0.10566000000E+00 0.  1.
        994    1    1    2    0    0 -0.43879204044E+02 -0.14465023078E+03  0.92107885187E+02  0.24625672849E+03  0.17120000000E+03 0.  0.
        998    1    1    2    0    0 -0.17417560136E+02  0.75192022919E+02  0.11158437593E+04  0.11185546508E+04  0.10000000000E+02 0.  1.
</event>
<event>
 5    1  0.1688215E-008  0.3923828E+03  0.7957747E-01  0.3398952E+00
         13   -1    0    0    0    0  0.00000000000E+00  0.00000000000E+00  0.14999999963E+04  0.15000000000E+04  0.10566000000E+00 0. -1.
        994   -1    0    0    0    0 -0.00000000000E+00 -0.00000000000E+00  0.11368683772E-12  0.17120000000E+03  0.17120000000E+03 0.  0.
         13    1    1    2    0    0 -0.64547444755E+02  0.73310879618E+02  0.20600309306E+03  0.22798715580E+03  0.10566000000E+00 0. -1.
        994    1    1    2    0    0 -0.88260145371E+01 -0.78466724045E+02  0.47388886434E+02  0.19439668689E+03  0.17120000000E+03 0.  0.
        998    1    1    2    0    0  0.73373459292E+02  0.51558444272E+01  0.12466080168E+04  0.12488161573E+04  0.10000000000E+02 0. -1.
</event>
<event>
 5    1  0.1688215E-008  0.3839795E+03  0.7957747E-01  0.3434012E+00
         13   -1    0    0    0    0  0.00000000000E+00  0.00000000000E+00  0.14999999963E+04  0.15000000000E+04  0.10566000000E+00 0.  1.
        994   -1    0    0    0    0 -0.00000000000E+00 -0.00000000000E+00  0.11368683772E-12  0.17120000000E+03  0.17120000000E+03 0.  0.
         13    1    1    2    0    0  0.29702120373E+02 -0.96491406020E+01  0.18836041384E+03  0.19093186883E+03  0.10566000000E+00 0.  1.
        994    1    1    2    0    0 -0.34748429825E+02  0.18453663342E+02  0.72621408364E+01  0.17581288279E+03  0.17120000000E+03 0.  0.
        998    1    1    2    0    0  0.50463094525E+01 -0.88045227396E+01  0.13043774416E+04  0.13044552484E+04  0.10000000000E+02 0.  1.
</event>
<event>
 5    1  0.1688215E-008  0.3782084E+03  0.7957747E-01  0.3458997E+00
         13   -1    0    0    0    0  0.00000000000E+00  0.00000000000E+00  0.14999999963E+04  0.15000000000E+04  0.10566000000E+00 0.  1.
        994   -1    0    0    0    0 -0.00000000000E+00 -0.00000000000E+00  0.11368683772E-12  0.17120000000E+03  0.17120000000E+03 0.  0.
         13    1    1    2    0    0  0.69512303133E+02  0.13308836740E+03  0.75669298456E+03  0.77144588784E+03  0.10566000000E+00 0.  1.
        994    1    1    2    0    0 -0.70466501617E+02 -0.14972830949E+03  0.10345726050E+03  0.25960920489E+03  0.17120000000E+03 0.  0.
        998    1    1    2    0    0  0.95419848456E+00  0.16639942080E+02  0.63984975122E+03  0.64014490727E+03  0.10000000000E+02 0.  1.
</event>
<event>
 5    1  0.1688215E-008  0.3688641E+03  0.7957747E-01  0.3501128E+00
         13   -1    0    0    0    0  0.00000000000E+00  0.00000000000E+00  0.14999999963E+04  0.15000000000E+04  0.10566000000E+00 0. -1.
        994   -1    0    0    0    0 -0.00000000000E+00 -0.00000000000E+00  0.11368683772E-12  0.17120000000E+03  0.17120000000E+03 0.  0.
         13    1    1    2    0    0  0.26516771443E+02 -0.13885072067E+02  0.38454309587E+02  0.48730683188E+02  0.10566000000E+00 0. -1.
        994    1    1    2    0    0 -0.20321639008E+02  0.21877169387E+02  0.13450336355E+02  0.17430413392E+03  0.17120000000E+03 0.  0.
        998    1    1    2    0    0 -0.61951324350E+01 -0.79920973191E+01  0.14480953503E+04  0.14481651829E+04  0.10000000000E+02 0. -1.
</event>
<event>
 5    1  0.1688215E-008  0.3846870E+03  0.7957747E-01  0.3431001E+00
         13   -1    0    0    0    0  0.00000000000E+00  0.00000000000E+00  0.14999999963E+04  0.15000000000E+04  0.10566000000E+00 0.  1.
        994   -1    0    0    0    0 -0.00000000000E+00 -0.00000000000E+00  0.11368683772E-12  0.17120000000E+03  0.17120000000E+03 0.  0.
         13    1    1    2    0    0 -0.10558517737E+02 -0.17128792184E+00  0.30097765872E+02  0.31896681816E+02  0.10566000000E+00 0.  1.
        994    1    1    2    0    0  0.13275933103E+02 -0.19966449994E+01  0.23791665316E+01  0.17174206655E+03  0.17120000000E+03 0.  0.
        998    1    1    2    0    0 -0.27174153664E+01  0.21679329212E+01  0.14675230639E+04  0.14675612516E+04  0.10000000000E+02 0.  1.
</event>
<event>
 5    1  0.1688215E-008  0.3802463E+03  0.7957747E-01  0.3450087E+00
         13   -1    0    0    0    0  0.00000000000E+00  0.00000000000E+00  0.14999999963E+04  0.15000000000E+04  0.10566000000E+00 0.  1.
        994   -1    0    0    0    0 -0.00000000000E+00 -0.00000000000E+00  0.11368683772E-12  0.17120000000E+03  0.17120000000E+03 0.  0.
         13    1    1    2    0    0  0.99569193257E+01 -0.12158413209E+01  0.11158778165E+02  0.15004932747E+02  0.10566000000E+00 0.  1.
        994    1    1    2    0    0  0.90569436591E+01  0.13580500003E+02  0.48993774355E+01  0.17204622085E+03  0.17120000000E+03 0.  0.
        998    1    1    2    0    0 -0.19013862985E+02 -0.12364658682E+02  0.14839418407E+04  0.14841488464E+04  0.10000000000E+02 0.  1.
</event>
<event>
 5    1  0.1688215E-008  0.3824058E+03  0.7957747E-01  0.3440749E+00
         13   -1    0    0    0    0  0.00000000000E+00  0.00000000000E+00  0.14999999963E+04  0.15000000000E+04  0.10566000000E+00 0. -1.
        994   -1    0    0    0    0 -0.00000000000E+00 -0.00000000000E+00  0.11368683772E-12  0.17120000000E+03  0.17120000000E+03 0.  0.
         13    1    1    2    0    0  0.42377152682E+02  0.40827575515E+01  0.23964883681E+03  0.24340104381E+03  0.10566000000E+00 0. -1.
        994    1    1    2    0    0 -0.51918049210E+02 -0.52601059253E+01  0.12008165733E+02  0.17937889673E+03  0.17120000000E+03 0.  0.
        998    1    1    2    0    0  0.95408965283E+01  0.11773483738E+01  0.12483429937E+04  0.12484200595E+04  0.10000000000E+02 0. -1.
</event>
<event>
 5    1  0.1688215E-008  0.3688334E+03  0.7957747E-01  0.3501269E+00
         13   -1    0    0    0    0  0.00000000000E+00  0.00000000000E+00  0.14999999963E+04  0.15000000000E+04  0.10566000000E+00 0. -1.
        994   -1    0    0    0    0 -0.00000000000E+00 -0.00000000000E+00  0.11368683772E-12  0.17120000000E+03  0.17120000000E+03 0.  0.
         13    1    1    2    0    0  0.33011318985E+01  0.18774233448E+02  0.13003978576E+02  0.23075613452E+02  0.10566000000E+00 0. -1.
        994    1    1    2    0    0 -0.13490004150E+01 -0.16380041716E+02  0.11264339891E+02  0.17235559440E+03  0.17120000000E+03 0.  0.
        998    1    1    2    0    0 -0.19521314834E+01 -0.23941917315E+01  0.14757316778E+04  0.14757687921E+04  0.10000000000E+02 0. -1.
</event>
<event>
 5    1  0.1688215E-008  0.3844953E+03  0.7957747E-01  0.3431816E+00
         13   -1    0    0    0    0  0.00000000000E+00  0.00000000000E+00  0.14999999963E+04  0.15000000000E+04  0.10566000000E+00 0. -1.
        994   -1    0    0    0    0 -0.00000000000E+00 -0.00000000000E+00  0.11368683772E-12  0.17120000000E+03  0.17120000000E+03 0.  0.
         13    1    1    2    0    0 -0.82032117876E+01 -0.20596889083E+02  0.13039654124E+03  0.13226788596E+03  0.10566000000E+00 0. -1.
        994    1    1    2    0    0 -0.14619208973E+01  0.15440215071E+02  0.26736732670E+01  0.17192186011E+03  0.17120000000E+03 0.  0.
        998    1    1    2    0    0  0.96651326850E+01  0.51566740120E+01  0.13669297818E+04  0.13670102539E+04  0.10000000000E+02 0. -1.
</event>
<event>
 5    1  0.1688215E-008  0.3766064E+03  0.7957747E-01  0.3466069E+00
         13   -1    0    0    0    0  0.00000000000E+00  0.00000000000E+00  0.14999999963E+04  0.15000000000E+04  0.10566000000E+00 0. -1.
        994   -1    0    0    0    0 -0.00000000000E+00 -0.00000000000E+00  0.11368683772E-12  0.17120000000E+03  0.17120000000E+03 0.  0.
         13    1    1    2    0    0 -0.17605983174E+02 -0.10034792794E+02  0.32933109010E+02  0.38668702370E+02  0.10566000000E+00 0. -1.
        994    1    1    2    0    0  0.65613195642E+01  0.10865973759E+02  0.64010237374E+01  0.17178921213E+03  0.17120000000E+03 0.  0.
        998    1    1    2    0    0  0.11044663610E+02 -0.83118096526E+00  0.14606658635E+04  0.14607420855E+04  0.10000000000E+02 0. -1.
</event>
<event>
 5    1  0.1688215E-008  0.3717404E+03  0.7957747E-01  0.3487930E+00
         13   -1    0    0    0    0  0.00000000000E+00  0.00000000000E+00  0.14999999963E+04  0.15000000000E+04  0.10566000000E+00 0.  1.
        994   -1    0    0    0    0 -0.00000000000E+00 -0.00000000000E+00  0.11368683772E-12  0.17120000000E+03  0.17120000000E+03 0.  0.
         13    1    1    2    0    0  0.41378191197E+02 -0.29906243299E+02  0.98846237368E+02  0.11125254110E+03  0.10566000000E+00 0.  1.
        994    1    1    2    0    0 -0.59002413435E+02  0.75235263066E+01  0.24412409011E+02  0.18287507745E+03  0.17120000000E+03 0.  0.
        998    1    1    2    0    0  0.17624222238E+02  0.22382716992E+02  0.13767413499E+04  0.13770723814E+04  0.10000000000E+02 0.  1.
</event>
<event>
 5    1  0.1688215E-008  0.3823931E+03  0.7957747E-01  0.3440804E+00
         13   -1    0    0    0    0  0.00000000000E+00  0.00000000000E+00  0.14999999963E+04  0.15000000000E+04  0.10566000000E+00 0. -1.
        994   -1    0    0    0    0 -0.00000000000E+00 -0.00000000000E+00  0.11368683772E-12  0.17120000000E+03  0.17120000000E+03 0.  0.
         13    1    1    2    0    0  0.91393884060E+01 -0.16224604055E+02  0.56033520750E+02  0.59046869594E+02  0.10566000000E+00 0. -1.
        994    1    1    2    0    0 -0.97334430014E+01  0.18181462735E+02  0.43418386286E+01  0.17249231015E+03  0.17120000000E+03 0.  0.
        998    1    1    2    0    0  0.59405459543E+00 -0.19568586795E+01  0.14396246369E+04  0.14396608203E+04  0.10000000000E+02 0. -1.
</event>
<event>
 5    1  0.1688215E-008  0.3819494E+03  0.7957747E-01  0.3442714E+00
         13   -1    0    0    0    0  0.00000000000E+00  0.00000000000E+00  0.14999999963E+04  0.15000000000E+04  0.10566000000E+00 0. -1.
        994   -1    0    0    0    0 -0.00000000000E+00 -0.00000000000E+00  0.11368683772E-12  0.17120000000E+03  0.17120000000E+03 0.  0.
         13    1    1    2    0    0  0.58894664318E+01 -0.15497245916E+02  0.41567944067E+02  0.44752157309E+02  0.10566000000E+00 0. -1.
        994    1    1    2    0    0 -0.77762696416E+01  0.14944716983E+02  0.40955657976E+01  0.17207564788E+03  0.17120000000E+03 0.  0.
        998    1    1    2    0    0  0.18868032099E+01  0.55252893298E+00  0.14543364864E+04  0.14543721948E+04  0.10000000000E+02 0. -1.
</event>
<event>
 5    1  0.1688215E-008  0.3978334E+03  0.7957747E-01  0.3377003E+00
         13   -1    0    0    0    0  0.00000000000E+00  0.00000000000E+00  0.14999999963E+04  0.15000000000E+04  0.10566000000E+00 0. -1.
        994   -1    0    0    0    0 -0.00000000000E+00 -0.00000000000E+00  0.11368683772E-12  0.17120000000E+03  0.17120000000E+03 0.  0.
         13    1    1    2    0    0 -0.14520708358E+02 -0.56117032859E+02  0.50425239916E+02  0.76828955041E+02  0.10566000000E+00 0. -1.
        994    1    1    2    0    0  0.12334642550E+02  0.70390717555E+02  0.46591470067E+02  0.19127781264E+03  0.17120000000E+03 0.  0.
        998    1    1    2    0    0  0.21860658078E+01 -0.14273684696E+02  0.14029832863E+04  0.14030932323E+04  0.10000000000E+02 0. -1.
</event>
<event>
 5    1  0.1688215E-008  0.3698874E+03  0.7957747E-01  0.3496409E+00
         13   -1    0    0    0    0  0.00000000000E+00  0.00000000000E+00  0.14999999963E+04  0.15000000000E+04  0.10566000000E+00 0.  1.
        994   -1    0    0    0    0 -0.00000000000E+00 -0.00000000000E+00  0.11368683772E-12  0.17120000000E+03  0.17120000000E+03 0.  0.
         13    1    1    2    0    0  0.24297729113E+02 -0.17990283480E+03  0.90537460689E+03  0.92339514812E+03  0.10566000000E+00 0.  1.
        994    1    1    2    0    0  0.41578373464E+02  0.18400955300E+03  0.14474761178E+03  0.29300100316E+03  0.17120000000E+03 0.  0.
        998    1    1    2    0    0 -0.65876102576E+02 -0.41067181993E+01  0.44987777761E+03  0.45480384872E+03  0.10000000000E+02 0. -1.
</event>
<event>
 5    1  0.1688215E-008  0.4069712E+03  0.7957747E-01  0.3341520E+00
         13   -1    0    0    0    0  0.00000000000E+00  0.00000000000E+00  0.14999999963E+04  0.15000000000E+04  0.10566000000E+00 0.  1.
        994   -1    0    0    0    0 -0.00000000000E+00 -0.00000000000E+00  0.11368683772E-12  0.17120000000E+03  0.17120000000E+03 0.  0.
         13    1    1    2    0    0 -0.51099345609E+02  0.28253413517E+02  0.41633253372E+02  0.71712882018E+02  0.10566000000E+00 0.  1.
        994    1    1    2    0    0  0.49301751006E+02 -0.16139487919E+02  0.42935411112E+02  0.18396748422E+03  0.17120000000E+03 0.  0.
        998    1    1    2    0    0  0.17975946027E+01 -0.12113925599E+02  0.14154313318E+04  0.14155196338E+04  0.10000000000E+02 0.  1.
</event>
<event>
 5    1  0.1688215E-008  0.3856332E+03  0.7957747E-01  0.3426991E+00
         13   -1    0    0    0    0  0.00000000000E+00  0.00000000000E+00  0.14999999963E+04  0.15000000000E+04  0.10566000000E+00 0.  1.
        994   -1    0    0    0    0 -0.00000000000E+00 -0.00000000000E+00  0.11368683772E-12  0.17120000000E+03  0.17120000000E+03 0.  0.
         13    1    1    2    0    0 -0.99311612322E+01  0.35344956487E+01  0.41674160450E+02  0.42986828636E+02  0.10566000000E+00 0.  1.
        994    1    1    2    0    0  0.10952395352E+02 -0.11032991407E+00  0.17099077619E+01  0.17155853497E+03  0.17120000000E+03 0.  0.
        998    1    1    2    0    0 -0.10212341196E+01 -0.34241657346E+01  0.14566159281E+04  0.14566546364E+04  0.10000000000E+02 0.  1.
</event>
<event>
 5    1  0.1688215E-008  0.3742286E+03  0.7957747E-01  0.3476680E+00
         13   -1    0    0    0    0  0.00000000000E+00  0.00000000000E+00  0.14999999963E+04  0.15000000000E+04  0.10566000000E+00 0.  1.
        994   -1    0    0    0    0 -0.00000000000E+00 -0.00000000000E+00  0.11368683772E-12  0.17120000000E+03  0.17120000000E+03 0.  0.
         13    1    1    2    0    0  0.13531742398E+02 -0.36779358634E+01  0.10753174164E+02  0.17671366194E+02  0.10566000000E+00 0.  1.
        994    1    1    2    0    0 -0.75645557013E+01  0.74968781345E+01  0.74620460376E+01  0.17169317929E+03  0.17120000000E+03 0.  0.
        998    1    1    2    0    0 -0.59671866963E+01 -0.38189422711E+01  0.14817847761E+04  0.14818354545E+04  0.10000000000E+02 0.  1.
</event>
<event>
 5    1  0.1688215E-008  0.3806111E+03  0.7957747E-01  0.3448502E+00
         13   -1    0    0    0    0  0.00000000000E+00  0.00000000000E+00  0.14999999963E+04  0.15000000000E+04  0.10566000000E+00 0. -1.
        994   -1    0    0    0    0 -0.00000000000E+00 -0.00000000000E+00  0.11368683772E-12  0.17120000000E+03  0.17120000000E+03 0.  0.
         13    1    1    2    0    0 -0.17536371432E+02  0.15451454462E+02  0.82021034899E+02  0.85286183511E+02  0.10566000000E+00 0. -1.
        994    1    1    2    0    0  0.57156480248E+01  0.31683374847E+02  0.72906670366E+01  0.17435337307E+03  0.17120000000E+03 0.  0.
        998    1    1    2    0    0  0.11820723407E+02 -0.47134829309E+02  0.14106882943E+04  0.14115604434E+04  0.10000000000E+02 0. -1.
</event>
<event>
 5    1  0.1688215E-008  0.3815701E+03  0.7957747E-01  0.3444350E+00
         13   -1    0    0    0    0  0.00000000000E+00  0.00000000000E+00  0.14999999963E+04  0.15000000000E+04  0.10566000000E+00 0.  1.
        994   -1    0    0    0    0 -0.00000000000E+00 -0.00000000000E+00  0.11368683772E-12  0.17120000000E+03  0.17120000000E+03 0.  0.
         13    1    1    2    0    0 -0.26322642571E+02 -0.18177307677E+02  0.15881418309E+03  0.16200386397E+03  0.10566000000E+00 0.  1.
        994    1    1    2    0    0  0.11742434510E+02  0.54472544967E+01  0.39000835938E+01  0.17173295549E+03  0.17120000000E+03 0.  0.
        998    1    1    2    0    0  0.14580208062E+02  0.12730053180E+02  0.13372857296E+04  0.13374631805E+04  0.10000000000E+02 0.  1.
</event>
<event>
 5    1  0.1688215E-008  0.3837281E+03  0.7957747E-01  0.3435084E+00
         13   -1    0    0    0    0  0.00000000000E+00  0.00000000000E+00  0.14999999963E+04  0.15000000000E+04  0.10566000000E+00 0.  1.
        994   -1    0    0    0    0 -0.00000000000E+00 -0.00000000000E+00  0.11368683772E-12  0.17120000000E+03  0.17120000000E+03 0.  0.
         13    1    1    2    0    0  0.19940510793E+02  0.54882971730E+01  0.11591964207E+03  0.11775024398E+03  0.10566000000E+00 0.  1.
        994    1    1    2    0    0  0.13914550249E+02  0.51115266049E+01  0.29889039688E+01  0.17186656440E+03  0.17120000000E+03 0.  0.
        998    1    1    2    0    0 -0.33855061041E+02 -0.10599823778E+02  0.13810914502E+04  0.13815831916E+04  0.10000000000E+02 0.  1.
</event>
<event>
 5    1  0.1688215E-008  0.3855096E+03  0.7957747E-01  0.3427514E+00
         13   -1    0    0    0    0  0.00000000000E+00  0.00000000000E+00  0.14999999963E+04  0.15000000000E+04  0.10566000000E+00 0.  1.
        994   -1    0    0    0    0 -0.00000000000E+00 -0.00000000000E+00  0.11368683772E-12  0.17120000000E+03  0.17120000000E+03 0.  0.
         13    1    1    2    0    0 -0.11832412007E+02  0.72885468381E+01  0.69704691948E+02  0.71076607492E+02  0.10566000000E+00 0.  1.
        994    1    1    2    0    0  0.12973100119E+02  0.48523088218E+00  0.19308991186E+01  0.17170237374E+03  0.17120000000E+03 0.  0.
        998    1    1    2    0    0 -0.11406881121E+01 -0.77737777203E+01  0.14283644052E+04  0.14284210188E+04  0.10000000000E+02 0.  1.
</event>
<event>
 5    1  0.1897630E-008  0.3863043E+03  0.7957747E-01  0.3424159E+00
         13   -1    0    0    0    0  0.00000000000E+00  0.00000000000E+00  0.14999999963E+04  0.15000000000E+04  0.10566000000E+00 0. -1.
        994   -1    0    0    0    0 -0.00000000000E+00 -0.00000000000E+00  0.11368683772E-12  0.17120000000E+03  0.17120000000E+03 0.  0.
         13    1    1    2    0    0  0.10643060583E+02  0.52642674068E+01  0.69640617654E+02  0.70645693720E+02  0.10566000000E+00 0. -1.
        994    1    1    2    0    0 -0.97926238528E+01 -0.10379104825E+02  0.16510700048E+01  0.17180159292E+03  0.17120000000E+03 0.  0.
        998    1    1    2    0    0 -0.85043672994E+00  0.51148374183E+01  0.14287083086E+04  0.14287527134E+04  0.10000000000E+02 0. -1.
</event>
<event>
 5    1  0.1688215E-008  0.3757831E+03  0.7957747E-01  0.3469728E+00
         13   -1    0    0    0    0  0.00000000000E+00  0.00000000000E+00  0.14999999963E+04  0.15000000000E+04  0.10566000000E+00 0. -1.
        994   -1    0    0    0    0 -0.00000000000E+00 -0.00000000000E+00  0.11368683772E-12  0.17120000000E+03  0.17120000000E+03 0.  0.
         13    1    1    2    0    0  0.99047725267E+01 -0.77290736270E+01  0.97160635526E+01  0.15882573876E+02  0.10566000000E+00 0. -1.
        994    1    1    2    0    0 -0.82710947077E+01  0.66968692491E+01  0.66612193198E+01  0.17165975332E+03  0.17120000000E+03 0.  0.
        998    1    1    2    0    0 -0.16336778190E+01  0.10322043780E+01  0.14836227134E+04  0.14836576728E+04  0.10000000000E+02 0. -1.
</event>
<event>
 5    1  0.1688215E-008  0.3878062E+03  0.7957747E-01  0.3417857E+00
         13   -1    0    0    0    0  0.00000000000E+00  0.00000000000E+00  0.14999999963E+04  0.15000000000E+04  0.10566000000E+00 0. -1.
        994   -1    0    0    0    0 -0.00000000000E+00 -0.00000000000E+00  0.11368683772E-12  0.17120000000E+03  0.17120000000E+03 0.  0.
         13    1    1    2    0    0 -0.30905033739E+01 -0.21253986346E+02  0.21061138980E+01  0.21580779098E+02  0.10566000000E+00 0. -1.
        994    1    1    2    0    0  0.12694365278E+02  0.12871128279E+02  0.21903215869E+02  0.17353963155E+03  0.17120000000E+03 0.  0.
        998    1    1    2    0    0 -0.96038619042E+01  0.83828580672E+01  0.14759906665E+04  0.14760795894E+04  0.10000000000E+02 0. -1.
</event>
<event>
 5    1  0.1688215E-008  0.3842462E+03  0.7957747E-01  0.3432875E+00
         13   -1    0    0    0    0  0.00000000000E+00  0.00000000000E+00  0.14999999963E+04  0.15000000000E+04  0.10566000000E+00 0. -1.
        994   -1    0    0    0    0 -0.00000000000E+00 -0.00000000000E+00  0.11368683772E-12  0.17120000000E+03  0.17120000000E+03 0.  0.
         13    1    1    2    0    0 -0.95522729472E+01  0.77009269902E+01  0.37162997184E+02  0.39136296691E+02  0.10566000000E+00 0. -1.
        994    1    1    2    0    0 -0.37406570437E+01 -0.17428978185E+02  0.30530952379E+01  0.17215261597E+03  0.17120000000E+03 0.  0.
        998    1    1    2    0    0  0.13292929991E+02  0.97280511945E+01  0.14597839039E+04  0.14599110873E+04  0.10000000000E+02 0. -1.
</event>
<event>
 5    1  0.1688215E-008  0.4098362E+03  0.7957747E-01  0.3330717E+00
         13   -1    0    0    0    0  0.00000000000E+00  0.00000000000E+00  0.14999999963E+04  0.15000000000E+04  0.10566000000E+00 0.  1.
        994   -1    0    0    0    0 -0.00000000000E+00 -0.00000000000E+00  0.11368683772E-12  0.17120000000E+03  0.17120000000E+03 0.  0.
         13    1    1    2    0    0  0.25034749898E+02 -0.32682741553E+00 -0.50669243472E+01  0.25544674690E+02  0.10566000000E+00 0.  1.
        994    1    1    2    0    0 -0.19284973713E+02  0.77397583568E+01  0.35560140098E+02  0.17608457523E+03  0.17120000000E+03 0.  0.
        998    1    1    2    0    0 -0.57497761846E+01 -0.74129309413E+01  0.14695067805E+04  0.14695707501E+04  0.10000000000E+02 0.  1.
</event>
<event>
 5    1  0.1688215E-008  0.3803015E+03  0.7957747E-01  0.3449847E+00
         13   -1    0    0    0    0  0.00000000000E+00  0.00000000000E+00  0.14999999963E+04  0.15000000000E+04  0.10566000000E+00 0.  1.
        994   -1    0    0    0    0 -0.00000000000E+00 -0.00000000000E+00  0.11368683772E-12  0.17120000000E+03  0.17120000000E+03 0.  0.
         13    1    1    2    0    0  0.22331579057E+02 -0.74175148982E+01  0.73818918755E+02  0.77478789876E+02  0.10566000000E+00 0.  1.
        994    1    1    2    0    0 -0.32982796108E+01 -0.17934412627E+02  0.50922992361E+01  0.17224370327E+03  0.17120000000E+03 0.  0.
        998    1    1    2    0    0 -0.19033299446E+02  0.25351927525E+02  0.14210887783E+04  0.14214775069E+04  0.10000000000E+02 0.  1.
</event>
<event>
 5    1  0.1688215E-008  0.3845702E+03  0.7957747E-01  0.3431497E+00
         13   -1    0    0    0    0  0.00000000000E+00  0.00000000000E+00  0.14999999963E+04  0.15000000000E+04  0.10566000000E+00 0.  1.
        994   -1    0    0    0    0 -0.00000000000E+00 -0.00000000000E+00  0.11368683772E-12  0.17120000000E+03  0.17120000000E+03 0.  0.
         13    1    1    2    0    0 -0.70412122276E+01 -0.12354168563E+02  0.52880070793E+02  0.54758718042E+02  0.10566000000E+00 0.  1.
        994    1    1    2    0    0  0.66467576248E+01  0.13931452908E+02  0.26287295818E+01  0.17191455723E+03  0.17120000000E+03 0.  0.
        998    1    1    2    0    0  0.39445460275E+00 -0.15772843447E+01  0.14444911959E+04  0.14445267247E+04  0.10000000000E+02 0.  1.
</event>
<event>
 5    1  0.1688215E-008  0.3776818E+03  0.7957747E-01  0.3461315E+00
         13   -1    0    0    0    0  0.00000000000E+00  0.00000000000E+00  0.14999999963E+04  0.15000000000E+04  0.10566000000E+00 0.  1.
        994   -1    0    0    0    0 -0.00000000000E+00 -0.00000000000E+00  0.11368683772E-12  0.17120000000E+03  0.17120000000E+03 0.  0.
         13    1    1    2    0    0  0.47715990008E+02 -0.14898236662E+02  0.20474655315E+03  0.21076037424E+03  0.10566000000E+00 0.  1.
        994    1    1    2    0    0 -0.45555954792E+02  0.18029569817E+02  0.13437337438E+02  0.17857886897E+03  0.17120000000E+03 0.  0.
        998    1    1    2    0    0 -0.21600352158E+01 -0.31313331553E+01  0.12818161057E+04  0.12818607568E+04  0.10000000000E+02 0.  1.
</event>
<event>
 5    1  0.1688215E-008  0.3852873E+03  0.7957747E-01  0.3428455E+00
         13   -1    0    0    0    0  0.00000000000E+00  0.00000000000E+00  0.14999999963E+04  0.15000000000E+04  0.10566000000E+00 0.  1.
        994   -1    0    0    0    0 -0.00000000000E+00 -0.00000000000E+00  0.11368683772E-12  0.17120000000E+03  0.17120000000E+03 0.  0.
         13    1    1    2    0    0  0.12884256168E+02 -0.29534269385E+01  0.61357111560E+02  0.62764903335E+02  0.10566000000E+00 0.  1.
        994    1    1    2    0    0 -0.19855576364E+01  0.22105590333E+01  0.15165958232E+01  0.17123250005E+03  0.17120000000E+03 0.  0.
        998    1    1    2    0    0 -0.10898698531E+02  0.74286790515E+00  0.14371262889E+04  0.14372025966E+04  0.10000000000E+02 0.  1.
</event>
<event>
 5    1  0.1688215E-008  0.3713888E+03  0.7957747E-01  0.3489533E+00
         13   -1    0    0    0    0  0.00000000000E+00  0.00000000000E+00  0.14999999963E+04  0.15000000000E+04  0.10566000000E+00 0. -1.
        994   -1    0    0    0    0 -0.00000000000E+00 -0.00000000000E+00  0.11368683772E-12  0.17120000000E+03  0.17120000000E+03 0.  0.
         13    1    1    2    0    0 -0.78387657400E+01  0.19205354929E+02  0.21143855184E+02  0.29620359254E+02  0.10566000000E+00 0. -1.
        994    1    1    2    0    0  0.49066994181E+01 -0.22363662103E+02  0.10350946624E+02  0.17303407519E+03  0.17120000000E+03 0.  0.
        998    1    1    2    0    0  0.29320663219E+01  0.31583071741E+01  0.14685051945E+04  0.14685455656E+04  0.10000000000E+02 0. -1.
</event>
<event>
 5    1  0.1688215E-008  0.3804257E+03  0.7957747E-01  0.3449307E+00
         13   -1    0    0    0    0  0.00000000000E+00  0.00000000000E+00  0.14999999963E+04  0.15000000000E+04  0.10566000000E+00 0.  1.
        994   -1    0    0    0    0 -0.00000000000E+00 -0.00000000000E+00  0.11368683772E-12  0.17120000000E+03  0.17120000000E+03 0.  0.
         13    1    1    2    0    0 -0.74256056942E+01  0.29059966109E+02  0.12055709435E+03  0.12423222373E+03  0.10566000000E+00 0.  1.
        994    1    1    2    0    0 -0.77599207191E+01 -0.99536062250E+01  0.44503330157E+01  0.17172226446E+03  0.17120000000E+03 0.  0.
        998    1    1    2    0    0  0.15185526413E+02 -0.19106359884E+02  0.13749925689E+04  0.13752455118E+04  0.10000000000E+02 0.  1.
</event>
<event>
 5    1  0.1688215E-008  0.3827452E+03  0.7957747E-01  0.3439292E+00
         13   -1    0    0    0    0  0.00000000000E+00  0.00000000000E+00  0.14999999963E+04  0.15000000000E+04  0.10566000000E+00 0. -1.
        994   -1    0    0    0    0 -0.00000000000E+00 -0.00000000000E+00  0.11368683772E-12  0.17120000000E+03  0.17120000000E+03 0.  0.
         13    1    1    2    0    0 -0.22497322112E+02  0.10154747167E+02  0.11390206008E+03  0.11654586585E+03  0.10566000000E+00 0. -1.
        994    1    1    2    0    0  0.73839222947E+01 -0.69118914036E+01  0.30927179066E+01  0.17152638705E+03  0.17120000000E+03 0.  0.
        998    1    1    2    0    0  0.15113399818E+02 -0.32428557636E+01  0.13830052183E+04  0.13831277471E+04  0.10000000000E+02 0. -1.
</event>
<event>
 5    1  0.1688215E-008  0.3799714E+03  0.7957747E-01  0.3451283E+00
         13   -1    0    0    0    0  0.00000000000E+00  0.00000000000E+00  0.14999999963E+04  0.15000000000E+04  0.10566000000E+00 0. -1.
        994   -1    0    0    0    0 -0.00000000000E+00 -0.00000000000E+00  0.11368683772E-12  0.17120000000E+03  0.17120000000E+03 0.  0.
         13    1    1    2    0    0  0.43552109199E+01 -0.91600630532E+01  0.10514549878E+02  0.14609638615E+02  0.10566000000E+00 0. -1.
        994    1    1    2    0    0 -0.42371561867E+01  0.86021519820E+01  0.44550659100E+01  0.17152620244E+03  0.17120000000E+03 0.  0.
        998    1    1    2    0    0 -0.11805473322E+00  0.55791107122E+00  0.14850303805E+04  0.14850641589E+04  0.10000000000E+02 0. -1.
</event>
<event>
 5    1  0.1688215E-008  0.3780486E+03  0.7957747E-01  0.3459699E+00
         13   -1    0    0    0    0  0.00000000000E+00  0.00000000000E+00  0.14999999963E+04  0.15000000000E+04  0.10566000000E+00 0. -1.
        994   -1    0    0    0    0 -0.00000000000E+00 -0.00000000000E+00  0.11368683772E-12  0.17120000000E+03  0.17120000000E+03 0.  0.
         13    1    1    2    0    0  0.55274226199E+02 -0.37839402525E+02  0.13538461722E+03  0.15104987987E+03  0.10566000000E+00 0. -1.
        994    1    1    2    0    0 -0.43175847361E+02  0.36134853784E+02  0.26753574831E+02  0.18219515696E+03  0.17120000000E+03 0.  0.
        998    1    1    2    0    0 -0.12098378838E+02  0.17045487403E+01  0.13378618042E+04  0.13379549632E+04  0.10000000000E+02 0. -1.
</event>
<event>
 5    1  0.1688215E-008  0.3776882E+03  0.7957747E-01  0.3461287E+00
         13   -1    0    0    0    0  0.00000000000E+00  0.00000000000E+00  0.14999999963E+04  0.15000000000E+04  0.10566000000E+00 0. -1.
        994   -1    0    0    0    0 -0.00000000000E+00 -0.00000000000E+00  0.11368683772E-12  0.17120000000E+03  0.17120000000E+03 0.  0.
         13    1    1    2    0    0  0.48565317454E+01 -0.38617600017E+02  0.17046995167E+03  0.17485685722E+03  0.10566000000E+00 0. -1.
        994    1    1    2    0    0  0.89585907576E+01 -0.64841259729E+01  0.57168023368E+01  0.17165203776E+03  0.17120000000E+03 0.  0.
        998    1    1    2    0    0 -0.13815122503E+02  0.45101725990E+02  0.13238132423E+04  0.13246911050E+04  0.10000000000E+02 0. -1.
</event>
<event>
 5    1  0.1688215E-008  0.3807436E+03  0.7957747E-01  0.3447927E+00
         13   -1    0    0    0    0  0.00000000000E+00  0.00000000000E+00  0.14999999963E+04  0.15000000000E+04  0.10566000000E+00 0.  1.
        994   -1    0    0    0    0 -0.00000000000E+00 -0.00000000000E+00  0.11368683772E-12  0.17120000000E+03  0.17120000000E+03 0.  0.
         13    1    1    2    0    0 -0.10295588677E+02 -0.22436037368E+02  0.85453777820E+02  0.88947929862E+02  0.10566000000E+00 0.  1.
        994    1    1    2    0    0 -0.10330902111E+02  0.66614056920E+01  0.42622861867E+01  0.17169364854E+03  0.17120000000E+03 0.  0.
        998    1    1    2    0    0  0.20626490788E+02  0.15774631676E+02  0.14102839323E+04  0.14105584216E+04  0.10000000000E+02 0.  1.
</event>
<event>
 5    1  0.1688215E-008  0.3789538E+03  0.7957747E-01  0.3455727E+00
         13   -1    0    0    0    0  0.00000000000E+00  0.00000000000E+00  0.14999999963E+04  0.15000000000E+04  0.10566000000E+00 0. -1.
        994   -1    0    0    0    0 -0.00000000000E+00 -0.00000000000E+00  0.11368683772E-12  0.17120000000E+03  0.17120000000E+03 0.  0.
         13    1    1    2    0    0 -0.79696382504E-01  0.43762254271E+02  0.19527737382E+03  0.20012097627E+03  0.10566000000E+00 0. -1.
        994    1    1    2    0    0 -0.52251115420E+01 -0.31536118356E+02  0.80975408241E+01  0.17434689191E+03  0.17120000000E+03 0.  0.
        998    1    1    2    0    0  0.53048079245E+01 -0.12226135914E+02  0.12966250816E+04  0.12967321318E+04  0.10000000000E+02 0. -1.
</event>
<event>
 5    1  0.1688215E-008  0.3724779E+03  0.7957747E-01  0.3484580E+00
         13   -1    0    0    0    0  0.00000000000E+00  0.00000000000E+00  0.14999999963E+04  0.15000000000E+04  0.10566000000E+00 0. -1.
        994   -1    0    0    0    0 -0.00000000000E+00 -0.00000000000E+00  0.11368683772E-12  0.17120000000E+03  0.17120000000E+03 0.  0.
         13    1    1    2    0    0 -0.36864084353E+02 -0.52605394769E+02  0.14990695390E+03  0.16309014154E+03  0.10566000000E+00 0. -1.
        994    1    1    2    0    0  0.28571753870E+02  0.55809682717E+02  0.26250705802E+02  0.18419990597E+03  0.17120000000E+03 0.  0.
        998    1    1    2    0    0  0.82923304829E+01 -0.32042879484E+01  0.13238423366E+04  0.13239099525E+04  0.10000000000E+02 0. -1.
</event>
<event>
 5    1  0.1688215E-008  0.3776288E+03  0.7957747E-01  0.3461549E+00
         13   -1    0    0    0    0  0.00000000000E+00  0.00000000000E+00  0.14999999963E+04  0.15000000000E+04  0.10566000000E+00 0. -1.
        994   -1    0    0    0    0 -0.00000000000E+00 -0.00000000000E+00  0.11368683772E-12  0.17120000000E+03  0.17120000000E+03 0.  0.
         13    1    1    2    0    0  0.62284963950E+01 -0.14901746406E+02  0.21935542483E+02  0.27240326748E+02  0.10566000000E+00 0. -1.
        994    1    1    2    0    0  0.19126059979E+01  0.17953498657E+02  0.64340618335E+01  0.17226962393E+03  0.17120000000E+03 0.  0.
        998    1    1    2    0    0 -0.81411023928E+01 -0.30517522511E+01  0.14716303920E+04  0.14716900493E+04  0.10000000000E+02 0. -1.
</event>
<event>
 5    1  0.1688215E-008  0.3834734E+03  0.7957747E-01  0.3436172E+00
         13   -1    0    0    0    0  0.00000000000E+00  0.00000000000E+00  0.14999999963E+04  0.15000000000E+04  0.10566000000E+00 0.  1.
        994   -1    0    0    0    0 -0.00000000000E+00 -0.00000000000E+00  0.11368683772E-12  0.17120000000E+03  0.17120000000E+03 0.  0.
         13    1    1    2    0    0 -0.38392990037E+00  0.13995472761E+02  0.40320703773E+02  0.42682443425E+02  0.10566000000E+00 0.  1.
        994    1    1    2    0    0  0.35857584626E+01 -0.93230039108E+01  0.27197842543E+01  0.17151272050E+03  0.17120000000E+03 0.  0.
        998    1    1    2    0    0 -0.32018285623E+01 -0.46724688504E+01  0.14569595083E+04  0.14570048361E+04  0.10000000000E+02 0.  1.
</event>
<event>
 5    1  0.1688215E-008  0.3789068E+03  0.7957747E-01  0.3455933E+00
         13   -1    0    0    0    0  0.00000000000E+00  0.00000000000E+00  0.14999999963E+04  0.15000000000E+04  0.10566000000E+00 0.  1.
        994   -1    0    0    0    0 -0.00000000000E+00 -0.00000000000E+00  0.11368683772E-12  0.17120000000E+03  0.17120000000E+03 0.  0.
         13    1    1    2    0    0  0.12116508346E+02  0.15137278813E+02  0.39297877897E+02  0.43821015000E+02  0.10566000000E+00 0.  1.
        994    1    1    2    0    0 -0.12232210732E+01 -0.52402769691E+01  0.47831850676E+01  0.17135132224E+03  0.17120000000E+03 0.  0.
        998    1    1    2    0    0 -0.10893287273E+02 -0.98970018441E+01  0.14559189333E+04  0.14560276628E+04  0.10000000000E+02 0.  1.
</event>
<event>
 5    1  0.1688215E-008  0.3793487E+03  0.7957747E-01  0.3453999E+00
         13   -1    0    0    0    0  0.00000000000E+00  0.00000000000E+00  0.14999999963E+04  0.15000000000E+04  0.10566000000E+00 0. -1.
        994   -1    0    0    0    0 -0.00000000000E+00 -0.00000000000E+00  0.11368683772E-12  0.17120000000E+03  0.17120000000E+03 0.  0.
         13    1    1    2    0    0 -0.24954768157E+02 -0.62768712439E+01  0.71052308096E+02  0.75568387678E+02  0.10566000000E+00 0. -1.
        994    1    1    2    0    0  0.20167905900E+02  0.67053089772E+01  0.59770292997E+01  0.17261770036E+03  0.17120000000E+03 0.  0.
        998    1    1    2    0    0  0.47868622573E+01 -0.42843773321E+00  0.14229706589E+04  0.14230139120E+04  0.10000000000E+02 0. -1.
</event>
<event>
 5    1  0.1688215E-008  0.3842268E+03  0.7957747E-01  0.3432958E+00
         13   -1    0    0    0    0  0.00000000000E+00  0.00000000000E+00  0.14999999963E+04  0.15000000000E+04  0.10566000000E+00 0.  1.
        994   -1    0    0    0    0 -0.00000000000E+00 -0.00000000000E+00  0.11368683772E-12  0.17120000000E+03  0.17120000000E+03 0.  0.
         13    1    1    2    0    0 -0.35490071532E+01 -0.11039198690E+02  0.31918809036E+02  0.33959989603E+02  0.10566000000E+00 0.  1.
        994    1    1    2    0    0  0.35409652319E+01  0.14694956930E+02  0.27681449430E+01  0.17188828587E+03  0.17120000000E+03 0.  0.
        998    1    1    2    0    0  0.80419213188E-02 -0.36557582402E+01  0.14653130423E+04  0.14653517245E+04  0.10000000000E+02 0.  1.
</event>
<event>
 5    1  0.1688215E-008  0.3848188E+03  0.7957747E-01  0.3430441E+00
         13   -1    0    0    0    0  0.00000000000E+00  0.00000000000E+00  0.14999999963E+04  0.15000000000E+04  0.10566000000E+00 0.  1.
        994   -1    0    0    0    0 -0.00000000000E+00 -0.00000000000E+00  0.11368683772E-12  0.17120000000E+03  0.17120000000E+03 0.  0.
         13    1    1    2    0    0  0.19677225332E+02 -0.33155661616E-01  0.11584110967E+03  0.11750050277E+03  0.10566000000E+00 0.  1.
        994    1    1    2    0    0 -0.88582614039E+01  0.16279960128E+01  0.19870902910E+01  0.17144826536E+03  0.17120000000E+03 0.  0.
        998    1    1    2    0    0 -0.10818963928E+02 -0.15948403512E+01  0.13821717963E+04  0.13822512319E+04  0.10000000000E+02 0.  1.
</event>
<event>
 5    1  0.1688215E-008  0.3709427E+03  0.7957747E-01  0.3491570E+00
         13   -1    0    0    0    0  0.00000000000E+00  0.00000000000E+00  0.14999999963E+04  0.15000000000E+04  0.10566000000E+00 0. -1.
        994   -1    0    0    0    0 -0.00000000000E+00 -0.00000000000E+00  0.11368683772E-12  0.17120000000E+03  0.17120000000E+03 0.  0.
         13    1    1    2    0    0 -0.43956688457E+02 -0.18008708612E+02  0.94503034906E+02  0.10577021706E+03  0.10566000000E+00 0. -1.
        994    1    1    2    0    0  0.33451708257E+02 -0.12413588698E-01  0.15373299431E+02  0.17511366387E+03  0.17120000000E+03 0.  0.
        998    1    1    2    0    0  0.10504980201E+02  0.18021122201E+02  0.13901236619E+04  0.13903161191E+04  0.10000000000E+02 0. -1.
</event>
<event>
 5    1  0.1688215E-008  0.3700210E+03  0.7957747E-01  0.3495794E+00
         13   -1    0    0    0    0  0.00000000000E+00  0.00000000000E+00  0.14999999963E+04  0.15000000000E+04  0.10566000000E+00 0. -1.
        994   -1    0    0    0    0 -0.00000000000E+00 -0.00000000000E+00  0.11368683772E-12  0.17120000000E+03  0.17120000000E+03 0.  0.
         13    1    1    2    0    0  0.29077127334E+02 -0.16095655856E+02  0.50000502691E+02  0.60038411911E+02  0.10566000000E+00 0. -1.
        994    1    1    2    0    0  0.86989915264E+01  0.27868256221E+01  0.11241700587E+02  0.17181168378E+03  0.17120000000E+03 0.  0.
        998    1    1    2    0    0 -0.37776118860E+02  0.13308830234E+02  0.14387577930E+04  0.14393499043E+04  0.10000000000E+02 0. -1.
</event>
<event>
 5    1  0.1688215E-008  0.3837656E+03  0.7957747E-01  0.3434924E+00
         13   -1    0    0    0    0  0.00000000000E+00  0.00000000000E+00  0.14999999963E+04  0.15000000000E+04  0.10566000000E+00 0.  1.
        994   -1    0    0    0    0 -0.00000000000E+00 -0.00000000000E+00  0.11368683772E-12  0.17120000000E+03  0.17120000000E+03 0.  0.
         13    1    1    2    0    0 -0.16450473885E+02  0.15631639573E+02  0.11219798106E+03  0.11446992778E+03  0.10566000000E+00 0.  1.
        994    1    1    2    0    0  0.29608728358E+01 -0.21232190657E+02  0.37631574885E+01  0.17257802306E+03  0.17120000000E+03 0.  0.
        998    1    1    2    0    0  0.13489601050E+02  0.56005510842E+01  0.13840388577E+04  0.13841520492E+04  0.10000000000E+02 0.  1.
</event>
<event>
 5    1  0.1688215E-008  0.3812401E+03  0.7957747E-01  0.3445776E+00
         13   -1    0    0    0    0  0.00000000000E+00  0.00000000000E+00  0.14999999963E+04  0.15000000000E+04  0.10566000000E+00 0.  1.
        994   -1    0    0    0    0 -0.00000000000E+00 -0.00000000000E+00  0.11368683772E-12  0.17120000000E+03  0.17120000000E+03 0.  0.
         13    1    1    2    0    0 -0.17278280734E+02 -0.50940326125E+01  0.45519839264E+02  0.48954622704E+02  0.10566000000E+00 0.  1.
        994    1    1    2    0    0  0.11214899451E+02 -0.69395494919E+01  0.40877193792E+01  0.17175587549E+03  0.17120000000E+03 0.  0.
        998    1    1    2    0    0  0.60633812830E+01  0.12033582104E+02  0.14503924376E+04  0.14504895018E+04  0.10000000000E+02 0.  1.
</event>
<event>
 5    1  0.1688215E-008  0.3804993E+03  0.7957747E-01  0.3448987E+00
         13   -1    0    0    0    0  0.00000000000E+00  0.00000000000E+00  0.14999999963E+04  0.15000000000E+04  0.10566000000E+00 0.  1.
        994   -1    0    0    0    0 -0.00000000000E+00 -0.00000000000E+00  0.11368683772E-12  0.17120000000E+03  0.17120000000E+03 0.  0.
         13    1    1    2    0    0  0.15594304655E+01 -0.15310074866E+02  0.29109088615E+02  0.32926895083E+02  0.10566000000E+00 0.  1.
        994    1    1    2    0    0  0.39985552442E+01  0.95252187696E+01  0.42375677043E+01  0.17156373514E+03  0.17120000000E+03 0.  0.
        998    1    1    2    0    0 -0.55579857097E+01  0.57848560959E+01  0.14666533400E+04  0.14667093698E+04  0.10000000000E+02 0.  1.
</event>
<event>
 5    1  0.1688215E-008  0.3719441E+03  0.7957747E-01  0.3487004E+00
         13   -1    0    0    0    0  0.00000000000E+00  0.00000000000E+00  0.14999999963E+04  0.15000000000E+04  0.10566000000E+00 0. -1.
        994   -1    0    0    0    0 -0.00000000000E+00 -0.00000000000E+00  0.11368683772E-12  0.17120000000E+03  0.17120000000E+03 0.  0.
         13    1    1    2    0    0  0.15198773291E+02  0.42497637946E+02  0.10482267373E+03  0.11412649137E+03  0.10566000000E+00 0. -1.
        994    1    1    2    0    0 -0.23783708464E+02 -0.58060151715E+02  0.21900909324E+02  0.18364568014E+03  0.17120000000E+03 0.  0.
        998    1    1    2    0    0  0.85849351729E+01  0.15562513769E+02  0.13732764132E+04  0.13734278285E+04  0.10000000000E+02 0. -1.
</event>
<event>
 5    1  0.1688215E-008  0.3846579E+03  0.7957747E-01  0.3431124E+00
         13   -1    0    0    0    0  0.00000000000E+00  0.00000000000E+00  0.14999999963E+04  0.15000000000E+04  0.10566000000E+00 0. -1.
        994   -1    0    0    0    0 -0.00000000000E+00 -0.00000000000E+00  0.11368683772E-12  0.17120000000E+03  0.17120000000E+03 0.  0.
         13    1    1    2    0    0  0.71732678321E+01  0.96889908837E+01  0.37374191966E+02  0.39270519539E+02  0.10566000000E+00 0. -1.
        994    1    1    2    0    0 -0.15590900377E+02 -0.17450715393E+02  0.36050299980E+01  0.17282951103E+03  0.17120000000E+03 0.  0.
        998    1    1    2    0    0  0.84176325452E+01  0.77617245089E+01  0.14590207743E+04  0.14590999694E+04  0.10000000000E+02 0. -1.
</event>
<event>
 5    1  0.1688215E-008  0.3694514E+03  0.7957747E-01  0.3498416E+00
         13   -1    0    0    0    0  0.00000000000E+00  0.00000000000E+00  0.14999999963E+04  0.15000000000E+04  0.10566000000E+00 0.  1.
        994   -1    0    0    0    0 -0.00000000000E+00 -0.00000000000E+00  0.11368683772E-12  0.17120000000E+03  0.17120000000E+03 0.  0.
         13    1    1    2    0    0  0.43225372649E+02 -0.83389744682E+02  0.38981244043E+03  0.40096886692E+03  0.10566000000E+00 0.  1.
        994    1    1    2    0    0 -0.27661052020E+02  0.71114683782E+02  0.30006173494E+02  0.18982160703E+03  0.17120000000E+03 0.  0.
        998    1    1    2    0    0 -0.15564320629E+02  0.12275060900E+02  0.10801813824E+04  0.10804095261E+04  0.10000000000E+02 0.  1.
</event>
<event>
 5    1  0.1688215E-008  0.3753334E+03  0.7957747E-01  0.3471733E+00
         13   -1    0    0    0    0  0.00000000000E+00  0.00000000000E+00  0.14999999963E+04  0.15000000000E+04  0.10566000000E+00 0. -1.
        994   -1    0    0    0    0 -0.00000000000E+00 -0.00000000000E+00  0.11368683772E-12  0.17120000000E+03  0.17120000000E+03 0.  0.
         13    1    1    2    0    0 -0.12013665805E+03  0.39002292073E+02  0.66746046177E+03  0.67930661309E+03  0.10566000000E+00 0. -1.
        994    1    1    2    0    0  0.11695415420E+03 -0.40864597515E+02  0.60545539079E+02  0.21982582155E+03  0.17120000000E+03 0.  0.
        998    1    1    2    0    0  0.31825038479E+01  0.18623054418E+01  0.77199399543E+03  0.77206756537E+03  0.10000000000E+02 0.  0.
</event>
<event>
 5    1  0.1688215E-008  0.3876929E+03  0.7957747E-01  0.3418331E+00
         13   -1    0    0    0    0  0.00000000000E+00  0.00000000000E+00  0.14999999963E+04  0.15000000000E+04  0.10566000000E+00 0.  1.
        994   -1    0    0    0    0 -0.00000000000E+00 -0.00000000000E+00  0.11368683772E-12  0.17120000000E+03  0.17120000000E+03 0.  0.
         13    1    1    2    0    0  0.76967735810E+02  0.17135220425E+02  0.12241595181E+03  0.14561361391E+03  0.10566000000E+00 0.  1.
        994    1    1    2    0    0 -0.93521723182E+02 -0.45852231070E+02  0.62312937591E+02  0.20985967214E+03  0.17120000000E+03 0.  0.
        998    1    1    2    0    0  0.16553987372E+02  0.28717010645E+02  0.13152711069E+04  0.13157267139E+04  0.10000000000E+02 0.  1.
</event>
<event>
 5    1  0.1688215E-008  0.3723334E+03  0.7957747E-01  0.3485235E+00
         13   -1    0    0    0    0  0.00000000000E+00  0.00000000000E+00  0.14999999963E+04  0.15000000000E+04  0.10566000000E+00 0. -1.
        994   -1    0    0    0    0 -0.00000000000E+00 -0.00000000000E+00  0.11368683772E-12  0.17120000000E+03  0.17120000000E+03 0.  0.
         13    1    1    2    0    0 -0.49265786981E+02 -0.22305527242E+02  0.10265676242E+03  0.11603049748E+03  0.10566000000E+00 0. -1.
        994    1    1    2    0    0  0.61967438014E+02  0.30849019441E+02  0.29265209674E+02  0.18696929660E+03  0.17120000000E+03 0.  0.
        998    1    1    2    0    0 -0.12701651033E+02 -0.85434921988E+01  0.13680780242E+04  0.13682002059E+04  0.10000000000E+02 0. -1.
</event>
<event>
 5    1  0.1688215E-008  0.3723554E+03  0.7957747E-01  0.3485136E+00
         13   -1    0    0    0    0  0.00000000000E+00  0.00000000000E+00  0.14999999963E+04  0.15000000000E+04  0.10566000000E+00 0. -1.
        994   -1    0    0    0    0 -0.00000000000E+00 -0.00000000000E+00  0.11368683772E-12  0.17120000000E+03  0.17120000000E+03 0.  0.
         13    1    1    2    0    0  0.15074451927E+02 -0.21143862929E+02  0.38414551860E+02  0.46367995418E+02  0.10566000000E+00 0. -1.
        994    1    1    2    0    0 -0.19249886025E+02  0.11144557187E+02  0.97418880180E+01  0.17291357277E+03  0.17120000000E+03 0.  0.
        998    1    1    2    0    0  0.41754340978E+01  0.99993057423E+01  0.14518435564E+04  0.14519184318E+04  0.10000000000E+02 0. -1.
</event>
<event>
 5    1  0.1688215E-008  0.3757362E+03  0.7957747E-01  0.3469937E+00
         13   -1    0    0    0    0  0.00000000000E+00  0.00000000000E+00  0.14999999963E+04  0.15000000000E+04  0.10566000000E+00 0.  1.
        994   -1    0    0    0    0 -0.00000000000E+00 -0.00000000000E+00  0.11368683772E-12  0.17120000000E+03  0.17120000000E+03 0.  0.
         13    1    1    2    0    0 -0.73844761390E+02 -0.16271015122E+03  0.96186130008E+03  0.97831733801E+03  0.10566000000E+00 0.  1.
        994    1    1    2    0    0  0.35617177747E+02  0.17810118088E+03  0.12789906814E+03  0.28045717251E+03  0.17120000000E+03 0.  0.
        998    1    1    2    0    0  0.38227583643E+02 -0.15391029659E+02  0.41023962805E+03  0.41242548948E+03  0.10000000000E+02 0.  1.
</event>
<event>
 5    1  0.1688215E-008  0.3794166E+03  0.7957747E-01  0.3453703E+00
         13   -1    0    0    0    0  0.00000000000E+00  0.00000000000E+00  0.14999999963E+04  0.15000000000E+04  0.10566000000E+00 0. -1.
        994   -1    0    0    0    0 -0.00000000000E+00 -0.00000000000E+00  0.11368683772E-12  0.17120000000E+03  0.17120000000E+03 0.  0.
         13    1    1    2    0    0  0.16585914194E+01  0.63897519980E+02  0.11985842839E+03  0.13583702737E+03  0.10566000000E+00 0. -1.
        994    1    1    2    0    0 -0.86496626465E+01 -0.47576296668E+02  0.24510489279E+02  0.17957874249E+03  0.17120000000E+03 0.  0.
        998    1    1    2    0    0  0.69910712271E+01 -0.16321223312E+02  0.13556310786E+04  0.13557842301E+04  0.10000000000E+02 0. -1.
</event>
<event>
 5    1  0.1688215E-008  0.3844037E+03  0.7957747E-01  0.3432205E+00
         13   -1    0    0    0    0  0.00000000000E+00  0.00000000000E+00  0.14999999963E+04  0.15000000000E+04  0.10566000000E+00 0.  1.
        994   -1    0    0    0    0 -0.00000000000E+00 -0.00000000000E+00  0.11368683772E-12  0.17120000000E+03  0.17120000000E+03 0.  0.
         13    1    1    2    0    0  0.12264845708E+02  0.34304462050E+01  0.42744813385E+02  0.44601845665E+02  0.10566000000E+00 0.  1.
        994    1    1    2    0    0 -0.31710897257E+01 -0.20440157339E+01  0.19733937190E+01  0.17125293601E+03  0.17120000000E+03 0.  0.
        998    1    1    2    0    0 -0.90937559827E+01 -0.13864304710E+01  0.14552817892E+04  0.14553452183E+04  0.10000000000E+02 0.  1.
</event>
<event>
 5    1  0.1688215E-008  0.3838861E+03  0.7957747E-01  0.3434410E+00
         13   -1    0    0    0    0  0.00000000000E+00  0.00000000000E+00  0.14999999963E+04  0.15000000000E+04  0.10566000000E+00 0.  1.
        994   -1    0    0    0    0 -0.00000000000E+00 -0.00000000000E+00  0.11368683772E-12  0.17120000000E+03  0.17120000000E+03 0.  0.
         13    1    1    2    0    0  0.15226603510E+02 -0.63231125760E+01  0.67243081205E+02  0.69234921399E+02  0.10566000000E+00 0.  1.
        994    1    1    2    0    0  0.20033078603E+00 -0.10203092314E+02  0.25279768121E+01  0.17152251716E+03  0.17120000000E+03 0.  0.
        998    1    1    2    0    0 -0.15426934296E+02  0.16526204890E+02  0.14302289383E+04  0.14304425614E+04  0.10000000000E+02 0.  1.
</event>
<event>
 5    1  0.1688215E-008  0.3818777E+03  0.7957747E-01  0.3443023E+00
         13   -1    0    0    0    0  0.00000000000E+00  0.00000000000E+00  0.14999999963E+04  0.15000000000E+04  0.10566000000E+00 0. -1.
        994   -1    0    0    0    0 -0.00000000000E+00 -0.00000000000E+00  0.11368683772E-12  0.17120000000E+03  0.17120000000E+03 0.  0.
         13    1    1    2    0    0 -0.16359295682E+02  0.38452350701E+02  0.22988078542E+03  0.23364801839E+03  0.10566000000E+00 0. -1.
        994    1    1    2    0    0 -0.15703647542E+02 -0.56840453623E+02  0.14828747298E+02  0.18167766363E+03  0.17120000000E+03 0.  0.
        998    1    1    2    0    0  0.32062943224E+02  0.18388102922E+02  0.12552904636E+04  0.12558743180E+04  0.10000000000E+02 0. -1.
</event>
<event>
 5    1  0.1688215E-008  0.3823946E+03  0.7957747E-01  0.3440798E+00
         13   -1    0    0    0    0  0.00000000000E+00  0.00000000000E+00  0.14999999963E+04  0.15000000000E+04  0.10566000000E+00 0.  1.
        994   -1    0    0    0    0 -0.00000000000E+00 -0.00000000000E+00  0.11368683772E-12  0.17120000000E+03  0.17120000000E+03 0.  0.
         13    1    1    2    0    0 -0.97833074954E+01  0.53480134220E+01  0.20256192661E+02  0.23122258935E+02  0.10566000000E+00 0.  1.
        994    1    1    2    0    0  0.32359833834E+01 -0.45221654925E+01  0.30317793193E+01  0.17131711314E+03  0.17120000000E+03 0.  0.
        998    1    1    2    0    0  0.65473241120E+01 -0.82584792953E+00  0.14767120243E+04  0.14767606279E+04  0.10000000000E+02 0.  1.
</event>
<event>
 5    1  0.1688215E-008  0.3818409E+03  0.7957747E-01  0.3443182E+00
         13   -1    0    0    0    0  0.00000000000E+00  0.00000000000E+00  0.14999999963E+04  0.15000000000E+04  0.10566000000E+00 0. -1.
        994   -1    0    0    0    0 -0.00000000000E+00 -0.00000000000E+00  0.11368683772E-12  0.17120000000E+03  0.17120000000E+03 0.  0.
         13    1    1    2    0    0  0.58343903939E+01 -0.31083249049E+02  0.14650271321E+03  0.14987749873E+03  0.10566000000E+00 0. -1.
        994    1    1    2    0    0 -0.12910049014E+02  0.24885203032E+02  0.58226024173E+01  0.17357789431E+03  0.17120000000E+03 0.  0.
        998    1    1    2    0    0  0.70756586206E+01  0.61980460173E+01  0.13476746806E+04  0.13477446070E+04  0.10000000000E+02 0. -1.
</event>
<event>
 5    1  0.1688215E-008  0.3842775E+03  0.7957747E-01  0.3432742E+00
         13   -1    0    0    0    0  0.00000000000E+00  0.00000000000E+00  0.14999999963E+04  0.15000000000E+04  0.10566000000E+00 0.  1.
        994   -1    0    0    0    0 -0.00000000000E+00 -0.00000000000E+00  0.11368683772E-12  0.17120000000E+03  0.17120000000E+03 0.  0.
         13    1    1    2    0    0  0.67683994249E+02  0.46454764048E+02  0.17573804575E+03  0.19396659524E+03  0.10566000000E+00 0.  1.
        994    1    1    2    0    0 -0.41676497230E+02 -0.28653529098E+02  0.28174297270E+02  0.18072406087E+03  0.17120000000E+03 0.  0.
        998    1    1    2    0    0 -0.26007497019E+02 -0.17801234951E+02  0.12960876533E+04  0.12965093439E+04  0.10000000000E+02 0.  1.
</event>
<event>
 5    1  0.1688215E-008  0.3855718E+03  0.7957747E-01  0.3427251E+00
         13   -1    0    0    0    0  0.00000000000E+00  0.00000000000E+00  0.14999999963E+04  0.15000000000E+04  0.10566000000E+00 0.  1.
        994   -1    0    0    0    0 -0.00000000000E+00 -0.00000000000E+00  0.11368683772E-12  0.17120000000E+03  0.17120000000E+03 0.  0.
         13    1    1    2    0    0 -0.89788253195E+01 -0.81632898146E+01  0.51259141008E+02  0.52676079065E+02  0.10566000000E+00 0.  1.
        994    1    1    2    0    0  0.19905238462E+02  0.73947726369E+01  0.28280378932E+01  0.17253503696E+03  0.17120000000E+03 0.  0.
        998    1    1    2    0    0 -0.10926413142E+02  0.76851717763E+00  0.14459128174E+04  0.14459888840E+04  0.10000000000E+02 0.  1.
</event>
<event>
 5    1  0.1688215E-008  0.2732939E+03  0.7957747E-01  0.4107288E+00
         13   -1    0    0    0    0  0.00000000000E+00  0.00000000000E+00  0.14999999963E+04  0.15000000000E+04  0.10566000000E+00 0. -1.
        994   -1    0    0    0    0 -0.00000000000E+00 -0.00000000000E+00  0.11368683772E-12  0.17120000000E+03  0.17120000000E+03 0.  0.
         13    1    1    2    0    0 -0.14343944165E+03 -0.74852529789E+02  0.11502027843E+03  0.19851309844E+03  0.10566000000E+00 0. -1.
        994    1    1    2    0    0  0.22329418658E+03  0.13042581728E+03  0.54522918439E+03  0.62726030568E+03  0.17120000000E+03 0.  0.
        998    1    1    2    0    0 -0.79854744930E+02 -0.55573287489E+02  0.83975053346E+03  0.84542659588E+03  0.10000000000E+02 0. -1.
</event>
<event>
 5    1  0.1688215E-008  0.3852370E+03  0.7957747E-01  0.3428668E+00
         13   -1    0    0    0    0  0.00000000000E+00  0.00000000000E+00  0.14999999963E+04  0.15000000000E+04  0.10566000000E+00 0.  1.
        994   -1    0    0    0    0 -0.00000000000E+00 -0.00000000000E+00  0.11368683772E-12  0.17120000000E+03  0.17120000000E+03 0.  0.
         13    1    1    2    0    0 -0.58238701137E+01 -0.12056472291E+02  0.59853804985E+02  0.61333230165E+02  0.10566000000E+00 0.  1.
        994    1    1    2    0    0  0.38317238407E+01  0.66565182318E+01  0.17063923594E+01  0.17138069646E+03  0.17120000000E+03 0.  0.
        998    1    1    2    0    0  0.19921462730E+01  0.53999540596E+01  0.14384397989E+04  0.14384860734E+04  0.10000000000E+02 0.  1.
</event>
<event>
 5    1  0.1688215E-008  0.3781431E+03  0.7957747E-01  0.3459284E+00
         13   -1    0    0    0    0  0.00000000000E+00  0.00000000000E+00  0.14999999963E+04  0.15000000000E+04  0.10566000000E+00 0.  1.
        994   -1    0    0    0    0 -0.00000000000E+00 -0.00000000000E+00  0.11368683772E-12  0.17120000000E+03  0.17120000000E+03 0.  0.
         13    1    1    2    0    0 -0.73852139717E+01 -0.16148857625E+02  0.28453549818E+02  0.33540164717E+02  0.10566000000E+00 0.  1.
        994    1    1    2    0    0  0.84849107909E+01  0.16877808171E+02  0.62746433392E+01  0.17235331522E+03  0.17120000000E+03 0.  0.
        998    1    1    2    0    0 -0.10996968192E+01 -0.72895054591E+00  0.14652718031E+04  0.14653065201E+04  0.10000000000E+02 0.  1.
</event>
<event>
 5    1  0.1688215E-008  0.3709357E+03  0.7957747E-01  0.3491601E+00
         13   -1    0    0    0    0  0.00000000000E+00  0.00000000000E+00  0.14999999963E+04  0.15000000000E+04  0.10566000000E+00 0.  1.
        994   -1    0    0    0    0 -0.00000000000E+00 -0.00000000000E+00  0.11368683772E-12  0.17120000000E+03  0.17120000000E+03 0.  0.
         13    1    1    2    0    0  0.17368456536E+01 -0.38752428076E+02  0.83693931862E+02  0.92246694841E+02  0.10566000000E+00 0.  1.
        994    1    1    2    0    0 -0.17449319874E+02  0.19869721894E+02  0.11194654882E+02  0.17359160380E+03  0.17120000000E+03 0.  0.
        998    1    1    2    0    0  0.15712474220E+02  0.18882706182E+02  0.14051114095E+04  0.14053617014E+04  0.10000000000E+02 0.  1.
</event>
<event>
 5    1  0.1688215E-008  0.3777148E+03  0.7957747E-01  0.3461169E+00
         13   -1    0    0    0    0  0.00000000000E+00  0.00000000000E+00  0.14999999963E+04  0.15000000000E+04  0.10566000000E+00 0. -1.
        994   -1    0    0    0    0 -0.00000000000E+00 -0.00000000000E+00  0.11368683772E-12  0.17120000000E+03  0.17120000000E+03 0.  0.
         13    1    1    2    0    0  0.14314530260E+02  0.22695199847E+01  0.17458793836E+02  0.22690904429E+02  0.10566000000E+00 0. -1.
        994    1    1    2    0    0 -0.13611204823E+02  0.36342696522E+01  0.59599735923E+01  0.17188203541E+03  0.17120000000E+03 0.  0.
        998    1    1    2    0    0 -0.70332543725E+00 -0.59037896369E+01  0.14765812288E+04  0.14766270602E+04  0.10000000000E+02 0. -1.
</event>
<event>
 5    1  0.1688215E-008  0.3720569E+03  0.7957747E-01  0.3486491E+00
         13   -1    0    0    0    0  0.00000000000E+00  0.00000000000E+00  0.14999999963E+04  0.15000000000E+04  0.10566000000E+00 0.  1.
        994   -1    0    0    0    0 -0.00000000000E+00 -0.00000000000E+00  0.11368683772E-12  0.17120000000E+03  0.17120000000E+03 0.  0.
         13    1    1    2    0    0 -0.55911268776E+02 -0.41335507812E+01  0.22353919287E+03  0.23046244408E+03  0.10566000000E+00 0.  1.
        994    1    1    2    0    0  0.71742732301E+01 -0.25816933760E+02  0.10666876879E+02  0.17361223035E+03  0.17120000000E+03 0.  0.
        998    1    1    2    0    0  0.48736995546E+02  0.29950484541E+02  0.12657939265E+04  0.12671253256E+04  0.10000000000E+02 0.  1.
</event>
<event>
 5    1  0.2304285E-008  0.3861803E+03  0.7957747E-01  0.3424682E+00
         13   -1    0    0    0    0  0.00000000000E+00  0.00000000000E+00  0.14999999963E+04  0.15000000000E+04  0.10566000000E+00 0. -1.
        994   -1    0    0    0    0 -0.00000000000E+00 -0.00000000000E+00  0.11368683772E-12  0.17120000000E+03  0.17120000000E+03 0.  0.
         13    1    1    2    0    0 -0.63627563054E+00 -0.12075490565E+02  0.70660356227E+02  0.71687651832E+02  0.10566000000E+00 0. -1.
        994    1    1    2    0    0  0.32595264141E+01  0.84120839378E+01  0.13119658289E+01  0.17144255284E+03  0.17120000000E+03 0.  0.
        998    1    1    2    0    0 -0.26232507835E+01  0.36634066267E+01  0.14280276742E+04  0.14280697953E+04  0.10000000000E+02 0. -1.
</event>
<event>
 5    1  0.1688215E-008  0.3807434E+03  0.7957747E-01  0.3447928E+00
         13   -1    0    0    0    0  0.00000000000E+00  0.00000000000E+00  0.14999999963E+04  0.15000000000E+04  0.10566000000E+00 0.  1.
        994   -1    0    0    0    0 -0.00000000000E+00 -0.00000000000E+00  0.11368683772E-12  0.17120000000E+03  0.17120000000E+03 0.  0.
         13    1    1    2    0    0 -0.20457947322E+00  0.24472793421E+02  0.81362968220E+02  0.84964129091E+02  0.10566000000E+00 0.  1.
        994    1    1    2    0    0 -0.10627789361E+02 -0.77845834210E+01  0.43373265664E+01  0.17176088626E+03  0.17120000000E+03 0.  0.
        998    1    1    2    0    0  0.10832368834E+02 -0.16688210000E+02  0.14142997015E+04  0.14144749847E+04  0.10000000000E+02 0.  1.
</event>
<event>
 5    1  0.1688215E-008  0.3853494E+03  0.7957747E-01  0.3428192E+00
         13   -1    0    0    0    0  0.00000000000E+00  0.00000000000E+00  0.14999999963E+04  0.15000000000E+04  0.10566000000E+00 0.  1.
        994   -1    0    0    0    0 -0.00000000000E+00 -0.00000000000E+00  0.11368683772E-12  0.17120000000E+03  0.17120000000E+03 0.  0.
         13    1    1    2    0    0  0.70467569938E+01 -0.10797061695E+02  0.62119886321E+02  0.63443870988E+02  0.10566000000E+00 0.  1.
        994    1    1    2    0    0  0.18709423771E+01 -0.32714646745E+01  0.15034392797E+01  0.17124807513E+03  0.17120000000E+03 0.  0.
        998    1    1    2    0    0 -0.89176993709E+01  0.14068526369E+02  0.14363766707E+04  0.14365080539E+04  0.10000000000E+02 0.  1.
</event>
<event>
 5    1  0.1688215E-008  0.3848640E+03  0.7957747E-01  0.3430249E+00
         13   -1    0    0    0    0  0.00000000000E+00  0.00000000000E+00  0.14999999963E+04  0.15000000000E+04  0.10566000000E+00 0. -1.
        994   -1    0    0    0    0 -0.00000000000E+00 -0.00000000000E+00  0.11368683772E-12  0.17120000000E+03  0.17120000000E+03 0.  0.
         13    1    1    2    0    0  0.10244328892E+02  0.79648166850E+01  0.50000818740E+02  0.51657309434E+02  0.10566000000E+00 0. -1.
        994    1    1    2    0    0 -0.28633293585E+01 -0.73015330233E+01  0.19000615963E+01  0.17139008511E+03  0.17120000000E+03 0.  0.
        998    1    1    2    0    0 -0.73809995330E+01 -0.66328366170E+00  0.14480991159E+04  0.14481526055E+04  0.10000000000E+02 0. -1.
</event>
<event>
 5    1  0.1688215E-008  0.3729439E+03  0.7957747E-01  0.3482470E+00
         13   -1    0    0    0    0  0.00000000000E+00  0.00000000000E+00  0.14999999963E+04  0.15000000000E+04  0.10566000000E+00 0. -1.
        994   -1    0    0    0    0 -0.00000000000E+00 -0.00000000000E+00  0.11368683772E-12  0.17120000000E+03  0.17120000000E+03 0.  0.
         13    1    1    2    0    0 -0.28309223357E+02 -0.39981712107E+02  0.24757337487E+03  0.25237380319E+03  0.10566000000E+00 0. -1.
        994    1    1    2    0    0 -0.15210573750E+02 -0.40670016631E+02  0.14219657688E+02  0.17719212869E+03  0.17120000000E+03 0.  0.
        998    1    1    2    0    0  0.43519797107E+02  0.80651728738E+02  0.12382069637E+04  0.12416340681E+04  0.10000000000E+02 0. -1.
</event>
<event>
 5    1  0.2596148E-008  0.3859999E+03  0.7957747E-01  0.3425442E+00
         13   -1    0    0    0    0  0.00000000000E+00  0.00000000000E+00  0.14999999963E+04  0.15000000000E+04  0.10566000000E+00 0. -1.
        994   -1    0    0    0    0 -0.00000000000E+00 -0.00000000000E+00  0.11368683772E-12  0.17120000000E+03  0.17120000000E+03 0.  0.
         13    1    1    2    0    0  0.17177373161E+01  0.11967948066E+02  0.67033923622E+02  0.68115640514E+02  0.10566000000E+00 0. -1.
        994    1    1    2    0    0 -0.11372799126E+01 -0.42872692225E+01  0.11989998944E+01  0.17126164686E+03  0.17120000000E+03 0.  0.
        998    1    1    2    0    0 -0.58045740349E+00 -0.76806788439E+01  0.14317670728E+04  0.14318227126E+04  0.10000000000E+02 0. -1.
</event>
<event>
 5    1  0.1688215E-008  0.3853196E+03  0.7957747E-01  0.3428318E+00
         13   -1    0    0    0    0  0.00000000000E+00  0.00000000000E+00  0.14999999963E+04  0.15000000000E+04  0.10566000000E+00 0. -1.
        994   -1    0    0    0    0 -0.00000000000E+00 -0.00000000000E+00  0.11368683772E-12  0.17120000000E+03  0.17120000000E+03 0.  0.
         13    1    1    2    0    0 -0.73644357074E+01 -0.10246925964E+02  0.51634312691E+02  0.53154000941E+02  0.10566000000E+00 0. -1.
        994    1    1    2    0    0  0.10401925032E+02  0.13223333317E+02  0.24019829536E+01  0.17204146625E+03  0.17120000000E+03 0.  0.
        998    1    1    2    0    0 -0.30374893243E+01 -0.29764073530E+01  0.14459637006E+04  0.14460045328E+04  0.10000000000E+02 0. -1.
</event>
<event>
 5    1  0.1688215E-008  0.3832456E+03  0.7957747E-01  0.3437147E+00
         13   -1    0    0    0    0  0.00000000000E+00  0.00000000000E+00  0.14999999963E+04  0.15000000000E+04  0.10566000000E+00 0. -1.
        994   -1    0    0    0    0 -0.00000000000E+00 -0.00000000000E+00  0.11368683772E-12  0.17120000000E+03  0.17120000000E+03 0.  0.
         13    1    1    2    0    0  0.17261641641E+02  0.33896755964E+01  0.59954287643E+02  0.62481852914E+02  0.10566000000E+00 0. -1.
        994    1    1    2    0    0 -0.16397722896E+02  0.41300964747E+01  0.34499824460E+01  0.17206767678E+03  0.17120000000E+03 0.  0.
        998    1    1    2    0    0 -0.86391874533E+00 -0.75197720711E+01  0.14365957262E+04  0.14366504703E+04  0.10000000000E+02 0. -1.
</event>
<event>
 5    1  0.1688215E-008  0.3859303E+03  0.7957747E-01  0.3425736E+00
         13   -1    0    0    0    0  0.00000000000E+00  0.00000000000E+00  0.14999999963E+04  0.15000000000E+04  0.10566000000E+00 0.  1.
        994   -1    0    0    0    0 -0.00000000000E+00 -0.00000000000E+00  0.11368683772E-12  0.17120000000E+03  0.17120000000E+03 0.  0.
         13    1    1    2    0    0 -0.62420090331E+01  0.88853478248E+01  0.57310721368E+02  0.58330455429E+02  0.10566000000E+00 0.  1.
        994    1    1    2    0    0 -0.14394338079E+01  0.10099576971E+02  0.15102628132E+01  0.17151033298E+03  0.17120000000E+03 0.  0.
        998    1    1    2    0    0  0.76814428410E+01 -0.18984924796E+02  0.14411790121E+04  0.14413592116E+04  0.10000000000E+02 0.  1.
</event>
<event>
 5    1  0.1688215E-008  0.3000847E+03  0.7957747E-01  0.3895414E+00
         13   -1    0    0    0    0  0.00000000000E+00  0.00000000000E+00  0.14999999963E+04  0.15000000000E+04  0.10566000000E+00 0.  1.
        994   -1    0    0    0    0 -0.00000000000E+00 -0.00000000000E+00  0.11368683772E-12  0.17120000000E+03  0.17120000000E+03 0.  0.
         13    1    1    2    0    0 -0.49182577267E+02 -0.13131611170E+03  0.76356225667E+03  0.77633122961E+03  0.10566000000E+00 0.  1.
        994    1    1    2    0    0  0.72884356230E+02  0.73904208872E+02  0.51069556881E+02  0.20661921767E+03  0.17120000000E+03 0.  0.
        998    1    1    2    0    0 -0.23701778963E+02  0.57411902832E+02  0.68536818273E+03  0.68824955271E+03  0.10000000000E+02 0.  1.
</event>
<event>
 5    1  0.2377199E-008  0.3860565E+03  0.7957747E-01  0.3425204E+00
         13   -1    0    0    0    0  0.00000000000E+00  0.00000000000E+00  0.14999999963E+04  0.15000000000E+04  0.10566000000E+00 0. -1.
        994   -1    0    0    0    0 -0.00000000000E+00 -0.00000000000E+00  0.11368683772E-12  0.17120000000E+03  0.17120000000E+03 0.  0.
         13    1    1    2    0    0  0.24487093240E+01  0.11864766004E+02  0.68405243478E+02  0.69469830495E+02  0.10566000000E+00 0. -1.
        994    1    1    2    0    0 -0.11144057080E+00 -0.58119765881E+01  0.12172407626E+01  0.17130298645E+03  0.17120000000E+03 0.  0.
        998    1    1    2    0    0 -0.23372687532E+01 -0.60527894155E+01  0.14303775120E+04  0.14304271831E+04  0.10000000000E+02 0. -1.
</event>
<event>
 5    1  0.1688215E-008  0.3762335E+03  0.7957747E-01  0.3467724E+00
         13   -1    0    0    0    0  0.00000000000E+00  0.00000000000E+00  0.14999999963E+04  0.15000000000E+04  0.10566000000E+00 0. -1.
        994   -1    0    0    0    0 -0.00000000000E+00 -0.00000000000E+00  0.11368683772E-12  0.17120000000E+03  0.17120000000E+03 0.  0.
         13    1    1    2    0    0  0.11881244754E+02 -0.18431561627E+01  0.96667748403E+01  0.15427861206E+02  0.10566000000E+00 0. -1.
        994    1    1    2    0    0  0.91450617916E+01 -0.23668159409E+02  0.82290840992E+01  0.17326561041E+03  0.17120000000E+03 0.  0.
        998    1    1    2    0    0 -0.21026306545E+02  0.25511315572E+02  0.14821041373E+04  0.14825065284E+04  0.10000000000E+02 0. -1.
</event>
<event>
 5    1  0.1688215E-008  0.3824216E+03  0.7957747E-01  0.3440682E+00
         13   -1    0    0    0    0  0.00000000000E+00  0.00000000000E+00  0.14999999963E+04  0.15000000000E+04  0.10566000000E+00 0.  1.
        994   -1    0    0    0    0 -0.00000000000E+00 -0.00000000000E+00  0.11368683772E-12  0.17120000000E+03  0.17120000000E+03 0.  0.
         13    1    1    2    0    0  0.57992832356E+01 -0.12280286343E+02  0.32961663470E+02  0.35649958506E+02  0.10566000000E+00 0.  1.
        994    1    1    2    0    0  0.11599791109E+02 -0.70469582948E+01  0.35268536191E+01  0.17177337824E+03  0.17120000000E+03 0.  0.
        998    1    1    2    0    0 -0.17399074344E+02  0.19327244638E+02  0.14635114792E+04  0.14637766633E+04  0.10000000000E+02 0.  1.
</event>
<event>
 5    1  0.1688215E-008  0.3713156E+03  0.7957747E-01  0.3489866E+00
         13   -1    0    0    0    0  0.00000000000E+00  0.00000000000E+00  0.14999999963E+04  0.15000000000E+04  0.10566000000E+00 0.  1.
        994   -1    0    0    0    0 -0.00000000000E+00 -0.00000000000E+00  0.11368683772E-12  0.17120000000E+03  0.17120000000E+03 0.  0.
         13    1    1    2    0    0  0.70824443104E+02  0.23145786516E+02  0.37912789653E+03  0.38638038546E+03  0.10566000000E+00 0.  1.
        994    1    1    2    0    0 -0.16660379959E+02 -0.20921550398E+02  0.11048977749E+02  0.17362833709E+03  0.17120000000E+03 0.  0.
        998    1    1    2    0    0 -0.54164063146E+02 -0.22242361183E+01  0.11098231220E+04  0.11111912775E+04  0.10000000000E+02 0.  1.
</event>
<event>
 5    1  0.1688215E-008  0.3729396E+03  0.7957747E-01  0.3482489E+00
         13   -1    0    0    0    0  0.00000000000E+00  0.00000000000E+00  0.14999999963E+04  0.15000000000E+04  0.10566000000E+00 0.  1.
        994   -1    0    0    0    0 -0.00000000000E+00 -0.00000000000E+00  0.11368683772E-12  0.17120000000E+03  0.17120000000E+03 0.  0.
         13    1    1    2    0    0 -0.10980478322E+02  0.14298163122E+02  0.17080993669E+02  0.24835053485E+02  0.10566000000E+00 0.  1.
        994    1    1    2    0    0  0.18652652556E+02 -0.19078953204E+02  0.10181380231E+02  0.17356563141E+03  0.17120000000E+03 0.  0.
        998    1    1    2    0    0 -0.76721742343E+01  0.47807900816E+01  0.14727376224E+04  0.14727993151E+04  0.10000000000E+02 0.  1.
</event>
<event>
 5    1  0.1688215E-008  0.3856243E+03  0.7957747E-01  0.3427029E+00
         13   -1    0    0    0    0  0.00000000000E+00  0.00000000000E+00  0.14999999963E+04  0.15000000000E+04  0.10566000000E+00 0. -1.
        994   -1    0    0    0    0 -0.00000000000E+00 -0.00000000000E+00  0.11368683772E-12  0.17120000000E+03  0.17120000000E+03 0.  0.
         13    1    1    2    0    0  0.77350512109E+02 -0.35261139337E+02  0.17191365702E+03  0.19178312310E+03  0.10566000000E+00 0. -1.
        994    1    1    2    0    0 -0.61008142182E+02  0.26292985022E+02  0.35969794077E+02  0.18712717750E+03  0.17120000000E+03 0.  0.
        998    1    1    2    0    0 -0.16342369927E+02  0.89681543144E+01  0.12921165452E+04  0.12922896994E+04  0.10000000000E+02 0. -1.
</event>
<event>
 5    1  0.1688215E-008  0.3721278E+03  0.7957747E-01  0.3486169E+00
         13   -1    0    0    0    0  0.00000000000E+00  0.00000000000E+00  0.14999999963E+04  0.15000000000E+04  0.10566000000E+00 0.  1.
        994   -1    0    0    0    0 -0.00000000000E+00 -0.00000000000E+00  0.11368683772E-12  0.17120000000E+03  0.17120000000E+03 0.  0.
         13    1    1    2    0    0 -0.43954342896E+02  0.12371606316E+03  0.42298015291E+03  0.44288810039E+03  0.10566000000E+00 0.  1.
        994    1    1    2    0    0  0.50883826208E+02 -0.13987796047E+03  0.94775710806E+02  0.24585947806E+03  0.17120000000E+03 0.  0.
        998    1    1    2    0    0 -0.69294833123E+01  0.16161897307E+02  0.98224413256E+03  0.98245242155E+03  0.10000000000E+02 0.  1.
</event>
<event>
 5    1  0.1688215E-008  0.3835767E+03  0.7957747E-01  0.3435731E+00
         13   -1    0    0    0    0  0.00000000000E+00  0.00000000000E+00  0.14999999963E+04  0.15000000000E+04  0.10566000000E+00 0. -1.
        994   -1    0    0    0    0 -0.00000000000E+00 -0.00000000000E+00  0.11368683772E-12  0.17120000000E+03  0.17120000000E+03 0.  0.
         13    1    1    2    0    0 -0.13991980497E+01  0.13158007955E+02  0.36742870675E+02  0.39053049024E+02  0.10566000000E+00 0. -1.
        994    1    1    2    0    0  0.51363014960E+01 -0.85835720899E+01  0.26691009572E+01  0.17151274997E+03  0.17120000000E+03 0.  0.
        998    1    1    2    0    0 -0.37371034463E+01 -0.45744358653E+01  0.14605880246E+04  0.14606342010E+04  0.10000000000E+02 0. -1.
</event>
<event>
 5    1  0.1688215E-008  0.3836219E+03  0.7957747E-01  0.3435538E+00
         13   -1    0    0    0    0  0.00000000000E+00  0.00000000000E+00  0.14999999963E+04  0.15000000000E+04  0.10566000000E+00 0. -1.
        994   -1    0    0    0    0 -0.00000000000E+00 -0.00000000000E+00  0.11368683772E-12  0.17120000000E+03  0.17120000000E+03 0.  0.
         13    1    1    2    0    0  0.16260233420E+02 -0.24723715602E-01  0.55141848829E+02  0.57489394312E+02  0.10566000000E+00 0. -1.
        994    1    1    2    0    0 -0.15584473542E+02 -0.25406006972E+01  0.31399765352E+01  0.17195531373E+03  0.17120000000E+03 0.  0.
        998    1    1    2    0    0 -0.67575987783E+00  0.25653244128E+01  0.14417181709E+04  0.14417552920E+04  0.10000000000E+02 0. -1.
</event>
<event>
 5    1  0.1688215E-008  0.3730622E+03  0.7957747E-01  0.3481935E+00
         13   -1    0    0    0    0  0.00000000000E+00  0.00000000000E+00  0.14999999963E+04  0.15000000000E+04  0.10566000000E+00 0.  1.
        994   -1    0    0    0    0 -0.00000000000E+00 -0.00000000000E+00  0.11368683772E-12  0.17120000000E+03  0.17120000000E+03 0.  0.
         13    1    1    2    0    0 -0.62590150806E+02 -0.48590026362E+02  0.32982029162E+03  0.33920488435E+03  0.10566000000E+00 0.  1.
        994    1    1    2    0    0  0.31011490446E+02  0.85764734836E+02  0.36693947900E+02  0.19741628123E+03  0.17120000000E+03 0.  0.
        998    1    1    2    0    0  0.31578660360E+02 -0.37174708474E+02  0.11334857568E+04  0.11345788344E+04  0.10000000000E+02 0.  1.
</event>
<event>
 5    1  0.1688215E-008  0.3847828E+03  0.7957747E-01  0.3430594E+00
         13   -1    0    0    0    0  0.00000000000E+00  0.00000000000E+00  0.14999999963E+04  0.15000000000E+04  0.10566000000E+00 0.  1.
        994   -1    0    0    0    0 -0.00000000000E+00 -0.00000000000E+00  0.11368683772E-12  0.17120000000E+03  0.17120000000E+03 0.  0.
         13    1    1    2    0    0  0.12686150110E+02 -0.15839169995E+02  0.11684008104E+03  0.11858934780E+03  0.10566000000E+00 0.  1.
        994    1    1    2    0    0 -0.52272787917E+01  0.14215274258E+02  0.24933299936E+01  0.17188675097E+03  0.17120000000E+03 0.  0.
        998    1    1    2    0    0 -0.74588713184E+01  0.16238957375E+01  0.13806665852E+04  0.13807239012E+04  0.10000000000E+02 0. -1.
</event>
<event>
 5    1  0.1688215E-008  0.3786274E+03  0.7957747E-01  0.3457157E+00
         13   -1    0    0    0    0  0.00000000000E+00  0.00000000000E+00  0.14999999963E+04  0.15000000000E+04  0.10566000000E+00 0. -1.
        994   -1    0    0    0    0 -0.00000000000E+00 -0.00000000000E+00  0.11368683772E-12  0.17120000000E+03  0.17120000000E+03 0.  0.
         13    1    1    2    0    0  0.11786976113E+02 -0.95882164544E+00  0.12192073874E+02  0.16985581362E+02  0.10566000000E+00 0. -1.
        994    1    1    2    0    0 -0.14334328159E+02 -0.91052396780E+00  0.55207437054E+01  0.17189014116E+03  0.17120000000E+03 0.  0.
        998    1    1    2    0    0  0.25473520459E+01  0.18693456132E+01  0.14822871787E+04  0.14823242775E+04  0.10000000000E+02 0. -1.
</event>
<event>
 5    1  0.2078332E-008  0.3856795E+03  0.7957747E-01  0.3426795E+00
         13   -1    0    0    0    0  0.00000000000E+00  0.00000000000E+00  0.14999999963E+04  0.15000000000E+04  0.10566000000E+00 0.  1.
        994   -1    0    0    0    0 -0.00000000000E+00 -0.00000000000E+00  0.11368683772E-12  0.17120000000E+03  0.17120000000E+03 0.  0.
         13    1    1    2    0    0  0.79402171948E+01  0.93786200401E+01  0.58879890687E+02  0.60148634683E+02  0.10566000000E+00 0.  1.
        994    1    1    2    0    0 -0.44095848755E+01 -0.67627447391E+01  0.15070569758E+01  0.17139687971E+03  0.17120000000E+03 0.  0.
        998    1    1    2    0    0 -0.35306323193E+01 -0.26158753011E+01  0.14396130486E+04  0.14396544856E+04  0.10000000000E+02 0.  1.
</event>
<event>
 5    1  0.1688215E-008  0.3719158E+03  0.7957747E-01  0.3487132E+00
         13   -1    0    0    0    0  0.00000000000E+00  0.00000000000E+00  0.14999999963E+04  0.15000000000E+04  0.10566000000E+00 0.  1.
        994   -1    0    0    0    0 -0.00000000000E+00 -0.00000000000E+00  0.11368683772E-12  0.17120000000E+03  0.17120000000E+03 0.  0.
         13    1    1    2    0    0 -0.81118667634E+02  0.29234914642E+02  0.39062277122E+03  0.40002634792E+03  0.10566000000E+00 0.  1.
        994    1    1    2    0    0  0.69580319797E+01 -0.33908740708E+02  0.16184392789E+02  0.17541263203E+03  0.17120000000E+03 0.  0.
        998    1    1    2    0    0  0.74160635654E+02  0.46738260660E+01  0.10931928323E+04  0.10957610200E+04  0.10000000000E+02 0.  1.
</event>
<event>
 5    1  0.1688215E-008  0.3789586E+03  0.7957747E-01  0.3455705E+00
         13   -1    0    0    0    0  0.00000000000E+00  0.00000000000E+00  0.14999999963E+04  0.15000000000E+04  0.10566000000E+00 0.  1.
        994   -1    0    0    0    0 -0.00000000000E+00 -0.00000000000E+00  0.11368683772E-12  0.17120000000E+03  0.17120000000E+03 0.  0.
         13    1    1    2    0    0  0.91172071443E+01 -0.27520661284E+02  0.94536902179E+02  0.98882492390E+02  0.10566000000E+00 0.  1.
        994    1    1    2    0    0 -0.55412893988E+01  0.25127714212E+01  0.47839399883E+01  0.17137486977E+03  0.17120000000E+03 0.  0.
        998    1    1    2    0    0 -0.35759177455E+01  0.25007889863E+02  0.14006791541E+04  0.14009426378E+04  0.10000000000E+02 0.  1.
</event>
<event>
 5    1  0.1688215E-008  0.3742393E+03  0.7957747E-01  0.3476632E+00
         13   -1    0    0    0    0  0.00000000000E+00  0.00000000000E+00  0.14999999963E+04  0.15000000000E+04  0.10566000000E+00 0.  1.
        994   -1    0    0    0    0 -0.00000000000E+00 -0.00000000000E+00  0.11368683772E-12  0.17120000000E+03  0.17120000000E+03 0.  0.
         13    1    1    2    0    0 -0.24167382014E+02  0.84881717786E+01  0.41303124293E+02  0.48601138402E+02  0.10566000000E+00 0.  1.
        994    1    1    2    0    0  0.31097876439E+02 -0.18721492068E+02  0.11573348573E+02  0.17538801151E+03  0.17120000000E+03 0.  0.
        998    1    1    2    0    0 -0.69304944242E+01  0.10233320289E+02  0.14471235234E+04  0.14472108501E+04  0.10000000000E+02 0.  1.
</event>
<event>
 5    1  0.1688215E-008  0.3856187E+03  0.7957747E-01  0.3427053E+00
         13   -1    0    0    0    0  0.00000000000E+00  0.00000000000E+00  0.14999999963E+04  0.15000000000E+04  0.10566000000E+00 0.  1.
        994   -1    0    0    0    0 -0.00000000000E+00 -0.00000000000E+00  0.11368683772E-12  0.17120000000E+03  0.17120000000E+03 0.  0.
         13    1    1    2    0    0 -0.64921678082E+01 -0.10129457413E+02  0.56429434703E+02  0.57697889175E+02  0.10566000000E+00 0.  1.
        994    1    1    2    0    0 -0.36624398934E+01  0.74532382039E+01  0.15496609174E+01  0.17140830107E+03  0.17120000000E+03 0.  0.
        998    1    1    2    0    0  0.10154607702E+02  0.26762192090E+01  0.14420209007E+04  0.14420938098E+04  0.10000000000E+02 0.  1.
</event>
<event>
 5    1  0.1688215E-008  0.3704475E+03  0.7957747E-01  0.3493837E+00
         13   -1    0    0    0    0  0.00000000000E+00  0.00000000000E+00  0.14999999963E+04  0.15000000000E+04  0.10566000000E+00 0. -1.
        994   -1    0    0    0    0 -0.00000000000E+00 -0.00000000000E+00  0.11368683772E-12  0.17120000000E+03  0.17120000000E+03 0.  0.
         13    1    1    2    0    0 -0.26847707882E+01  0.11579579895E+02  0.36697747638E+01  0.12440782756E+02  0.10566000000E+00 0. -1.
        994    1    1    2    0    0 -0.20420498250E+01 -0.74065150579E+01  0.92391716561E+01  0.17162117796E+03  0.17120000000E+03 0.  0.
        998    1    1    2    0    0  0.47268206132E+01 -0.41730648373E+01  0.14870910499E+04  0.14871380393E+04  0.10000000000E+02 0. -1.
</event>
<event>
 5    1  0.1884540E-008  0.3859175E+03  0.7957747E-01  0.3425790E+00
         13   -1    0    0    0    0  0.00000000000E+00  0.00000000000E+00  0.14999999963E+04  0.15000000000E+04  0.10566000000E+00 0.  1.
        994   -1    0    0    0    0 -0.00000000000E+00 -0.00000000000E+00  0.11368683772E-12  0.17120000000E+03  0.17120000000E+03 0.  0.
         13    1    1    2    0    0  0.72558814471E+01 -0.95396233787E+01  0.63519922772E+02  0.64640884761E+02  0.10566000000E+00 0.  1.
        994    1    1    2    0    0 -0.40776166233E+01  0.21422945573E+01  0.12448536283E+01  0.17126647671E+03  0.17120000000E+03 0.  0.
        998    1    1    2    0    0 -0.31782648238E+01  0.73973288214E+01  0.14352352199E+04  0.14352926385E+04  0.10000000000E+02 0.  1.
</event>
<event>
 5    1  0.1688215E-008  0.3752327E+03  0.7957747E-01  0.3472183E+00
         13   -1    0    0    0    0  0.00000000000E+00  0.00000000000E+00  0.14999999963E+04  0.15000000000E+04  0.10566000000E+00 0. -1.
        994   -1    0    0    0    0 -0.00000000000E+00 -0.00000000000E+00  0.11368683772E-12  0.17120000000E+03  0.17120000000E+03 0.  0.
         13    1    1    2    0    0  0.30171877864E+02  0.16931591729E+02  0.83126345776E+02  0.90039000097E+02  0.10566000000E+00 0. -1.
        994    1    1    2    0    0 -0.35874886472E+02 -0.14962816689E+02  0.11708392593E+02  0.17594720748E+03  0.17120000000E+03 0.  0.
        998    1    1    2    0    0  0.57030086075E+01 -0.19687750402E+01  0.14051652579E+04  0.14052137924E+04  0.10000000000E+02 0.  0.
</event>
<event>
 5    1  0.1688215E-008  0.3759346E+03  0.7957747E-01  0.3469054E+00
         13   -1    0    0    0    0  0.00000000000E+00  0.00000000000E+00  0.14999999963E+04  0.15000000000E+04  0.10566000000E+00 0.  1.
        994   -1    0    0    0    0 -0.00000000000E+00 -0.00000000000E+00  0.11368683772E-12  0.17120000000E+03  0.17120000000E+03 0.  0.
         13    1    1    2    0    0  0.30546659700E+02  0.44405876931E+02  0.24797825375E+03  0.25376801576E+03  0.10566000000E+00 0.  1.
        994    1    1    2    0    0 -0.23909278259E+02 -0.10076578710E+02  0.84840720656E+01  0.17336265603E+03  0.17120000000E+03 0.  0.
        998    1    1    2    0    0 -0.66373814406E+01 -0.34329298220E+02  0.12435376705E+04  0.12440693282E+04  0.10000000000E+02 0.  1.
</event>
<event>
 5    1  0.1688215E-008  0.3802141E+03  0.7957747E-01  0.3450227E+00
         13   -1    0    0    0    0  0.00000000000E+00  0.00000000000E+00  0.14999999963E+04  0.15000000000E+04  0.10566000000E+00 0. -1.
        994   -1    0    0    0    0 -0.00000000000E+00 -0.00000000000E+00  0.11368683772E-12  0.17120000000E+03  0.17120000000E+03 0.  0.
         13    1    1    2    0    0  0.26582314523E+02 -0.52760588194E+02  0.34149883386E+03  0.34657144112E+03  0.10566000000E+00 0. -1.
        994    1    1    2    0    0 -0.30573335721E+02  0.49047867423E+02  0.15265777107E+02  0.18133644451E+03  0.17120000000E+03 0.  0.
        998    1    1    2    0    0  0.39910211978E+01  0.37127207719E+01  0.11432353853E+04  0.11432921144E+04  0.10000000000E+02 0. -1.
</event>
<event>
 5    1  0.1688215E-008  0.3839109E+03  0.7957747E-01  0.3434304E+00
         13   -1    0    0    0    0  0.00000000000E+00  0.00000000000E+00  0.14999999963E+04  0.15000000000E+04  0.10566000000E+00 0.  1.
        994   -1    0    0    0    0 -0.00000000000E+00 -0.00000000000E+00  0.11368683772E-12  0.17120000000E+03  0.17120000000E+03 0.  0.
         13    1    1    2    0    0  0.18309301072E+02 -0.30905215838E+01  0.77957411798E+02  0.80138324463E+02  0.10566000000E+00 0.  1.
        994    1    1    2    0    0 -0.13584736696E+02  0.32447436095E+01  0.28158693140E+01  0.17179185822E+03  0.17120000000E+03 0.  0.
        998    1    1    2    0    0 -0.47245643755E+01 -0.15422202564E+00  0.14192267152E+04  0.14192698173E+04  0.10000000000E+02 0.  1.
</event>
<event>
 5    1  0.1688215E-008  0.3819837E+03  0.7957747E-01  0.3442566E+00
         13   -1    0    0    0    0  0.00000000000E+00  0.00000000000E+00  0.14999999963E+04  0.15000000000E+04  0.10566000000E+00 0. -1.
        994   -1    0    0    0    0 -0.00000000000E+00 -0.00000000000E+00  0.11368683772E-12  0.17120000000E+03  0.17120000000E+03 0.  0.
         13    1    1    2    0    0  0.12990363811E+03 -0.43850358746E+02  0.40072750260E+03  0.42353317657E+03  0.10566000000E+00 0. -1.
        994    1    1    2    0    0 -0.12950140151E+03  0.16652666558E+02  0.82641787628E+02  0.23062313275E+03  0.17120000000E+03 0.  0.
        998    1    1    2    0    0 -0.40223660428E+00  0.27197692188E+02  0.10166307061E+04  0.10170436907E+04  0.10000000000E+02 0.  1.
</event>
<event>
 5    1  0.1688215E-008  0.3786433E+03  0.7957747E-01  0.3457087E+00
         13   -1    0    0    0    0  0.00000000000E+00  0.00000000000E+00  0.14999999963E+04  0.15000000000E+04  0.10566000000E+00 0.  1.
        994   -1    0    0    0    0 -0.00000000000E+00 -0.00000000000E+00  0.11368683772E-12  0.17120000000E+03  0.17120000000E+03 0.  0.
         13    1    1    2    0    0 -0.17302774146E+02 -0.53505875046E+02  0.96005858839E+02  0.11126275546E+03  0.10566000000E+00 0.  1.
        994    1    1    2    0    0 -0.10253388139E+02  0.43158928787E+02  0.22712993241E+02  0.17830632396E+03  0.17120000000E+03 0.  0.
        998    1    1    2    0    0  0.27556162285E+02  0.10346946258E+02  0.13812811442E+04  0.13816309206E+04  0.10000000000E+02 0.  1.
</event>
<event>
 5    1  0.1688215E-008  0.3824495E+03  0.7957747E-01  0.3440562E+00
         13   -1    0    0    0    0  0.00000000000E+00  0.00000000000E+00  0.14999999963E+04  0.15000000000E+04  0.10566000000E+00 0.  1.
        994   -1    0    0    0    0 -0.00000000000E+00 -0.00000000000E+00  0.11368683772E-12  0.17120000000E+03  0.17120000000E+03 0.  0.
         13    1    1    2    0    0  0.27388977543E+02 -0.29937919566E+01  0.14838591516E+03  0.15092219804E+03  0.10566000000E+00 0.  1.
        994    1    1    2    0    0  0.74067545182E+00 -0.31782768894E+01  0.29370733755E+01  0.17125628877E+03  0.17120000000E+03 0.  0.
        998    1    1    2    0    0 -0.28129652995E+02  0.61720688460E+01  0.13486770077E+04  0.13490215132E+04  0.10000000000E+02 0.  1.
</event>
<event>
 5    1  0.1688215E-008  0.3765430E+03  0.7957747E-01  0.3466351E+00
         13   -1    0    0    0    0  0.00000000000E+00  0.00000000000E+00  0.14999999963E+04  0.15000000000E+04  0.10566000000E+00 0.  1.
        994   -1    0    0    0    0 -0.00000000000E+00 -0.00000000000E+00  0.11368683772E-12  0.17120000000E+03  0.17120000000E+03 0.  0.
         13    1    1    2    0    0  0.51490069513E+02 -0.32052571724E+02  0.23678613473E+03  0.24443052055E+03  0.10566000000E+00 0.  1.
        994    1    1    2    0    0 -0.81901255357E+02  0.12988771295E+02  0.29508032717E+02  0.19250113715E+03  0.17120000000E+03 0.  0.
        998    1    1    2    0    0  0.30411185843E+02  0.19063800429E+02  0.12337058288E+04  0.12342683423E+04  0.10000000000E+02 0.  1.
</event>
<event>
 5    1  0.1688215E-008  0.3771002E+03  0.7957747E-01  0.3463883E+00
         13   -1    0    0    0    0  0.00000000000E+00  0.00000000000E+00  0.14999999963E+04  0.15000000000E+04  0.10566000000E+00 0. -1.
        994   -1    0    0    0    0 -0.00000000000E+00 -0.00000000000E+00  0.11368683772E-12  0.17120000000E+03  0.17120000000E+03 0.  0.
         13    1    1    2    0    0  0.15182117279E+02  0.90929187957E+01  0.24972335162E+02  0.30607295614E+02  0.10566000000E+00 0. -1.
        994    1    1    2    0    0 -0.19067180164E+02 -0.10241162933E+02  0.71868859154E+01  0.17271227550E+03  0.17120000000E+03 0.  0.
        998    1    1    2    0    0  0.38850628845E+01  0.11482441377E+01  0.14678407752E+04  0.14678804289E+04  0.10000000000E+02 0. -1.
</event>
<event>
 5    1  0.1688215E-008  0.3812058E+03  0.7957747E-01  0.3445925E+00
         13   -1    0    0    0    0  0.00000000000E+00  0.00000000000E+00  0.14999999963E+04  0.15000000000E+04  0.10566000000E+00 0. -1.
        994   -1    0    0    0    0 -0.00000000000E+00 -0.00000000000E+00  0.11368683772E-12  0.17120000000E+03  0.17120000000E+03 0.  0.
         13    1    1    2    0    0 -0.15855765440E+02 -0.12083257915E+02  0.54706658704E+02  0.58225768266E+02  0.10566000000E+00 0. -1.
        994    1    1    2    0    0  0.14377528085E+02  0.54217044776E+01  0.43122276255E+01  0.17194226793E+03  0.17120000000E+03 0.  0.
        998    1    1    2    0    0  0.14782373549E+01  0.66615534375E+01  0.14409811099E+04  0.14410319638E+04  0.10000000000E+02 0. -1.
</event>
<event>
 5    1  0.1688215E-008  0.3854026E+03  0.7957747E-01  0.3427967E+00
         13   -1    0    0    0    0  0.00000000000E+00  0.00000000000E+00  0.14999999963E+04  0.15000000000E+04  0.10566000000E+00 0. -1.
        994   -1    0    0    0    0 -0.00000000000E+00 -0.00000000000E+00  0.11368683772E-12  0.17120000000E+03  0.17120000000E+03 0.  0.
         13    1    1    2    0    0  0.25997950334E+01  0.20198549451E+02  0.11126471522E+03  0.11311316612E+03  0.10566000000E+00 0. -1.
        994    1    1    2    0    0 -0.23767189591E+02 -0.42587279167E+02  0.92817735055E+01  0.17825304196E+03  0.17120000000E+03 0.  0.
        998    1    1    2    0    0  0.21167394558E+02  0.22388729716E+02  0.13794535076E+04  0.13798337919E+04  0.10000000000E+02 0. -1.
</event>
<event>
 5    1  0.1688215E-008  0.3713033E+03  0.7957747E-01  0.3489923E+00
         13   -1    0    0    0    0  0.00000000000E+00  0.00000000000E+00  0.14999999963E+04  0.15000000000E+04  0.10566000000E+00 0. -1.
        994   -1    0    0    0    0 -0.00000000000E+00 -0.00000000000E+00  0.11368683772E-12  0.17120000000E+03  0.17120000000E+03 0.  0.
         13    1    1    2    0    0  0.70591721446E+01 -0.11811078891E+02  0.70335712905E+01  0.15453665749E+02  0.10566000000E+00 0. -1.
        994    1    1    2    0    0 -0.76095757910E+01  0.13022956504E+02  0.93729386732E+01  0.17211854932E+03  0.17120000000E+03 0.  0.
        998    1    1    2    0    0  0.55040364634E+00 -0.12118776132E+01  0.14835934863E+04  0.14836277849E+04  0.10000000000E+02 0. -1.
</event>
<event>
 5    1  0.1688215E-008  0.3685781E+03  0.7957747E-01  0.3502452E+00
         13   -1    0    0    0    0  0.00000000000E+00  0.00000000000E+00  0.14999999963E+04  0.15000000000E+04  0.10566000000E+00 0.  1.
        994   -1    0    0    0    0 -0.00000000000E+00 -0.00000000000E+00  0.11368683772E-12  0.17120000000E+03  0.17120000000E+03 0.  0.
         13    1    1    2    0    0  0.30284861613E+02  0.33842784374E+02  0.93485691786E+02  0.10393311614E+03  0.10566000000E+00 0.  1.
        994    1    1    2    0    0 -0.30269307392E+02 -0.28057310003E+02  0.16138062094E+02  0.17684264379E+03  0.17120000000E+03 0.  0.
        998    1    1    2    0    0 -0.15554221904E-01 -0.57854743701E+01  0.13903762424E+04  0.13904242401E+04  0.10000000000E+02 0.  1.
</event>
<event>
 5    1  0.1688215E-008  0.3712240E+03  0.7957747E-01  0.3490284E+00
         13   -1    0    0    0    0  0.00000000000E+00  0.00000000000E+00  0.14999999963E+04  0.15000000000E+04  0.10566000000E+00 0.  1.
        994   -1    0    0    0    0 -0.00000000000E+00 -0.00000000000E+00  0.11368683772E-12  0.17120000000E+03  0.17120000000E+03 0.  0.
         13    1    1    2    0    0 -0.19673197108E+02 -0.62520898424E+02  0.23307238164E+03  0.24211287382E+03  0.10566000000E+00 0.  1.
        994    1    1    2    0    0  0.21458918809E+02  0.43041725155E+02  0.16637270264E+02  0.17860379073E+03  0.17120000000E+03 0.  0.
        998    1    1    2    0    0 -0.17857217018E+01  0.19479173269E+02  0.12502903444E+04  0.12504833354E+04  0.10000000000E+02 0.  1.
</event>
<event>
 5    1  0.1688215E-008  0.3843011E+03  0.7957747E-01  0.3432642E+00
         13   -1    0    0    0    0  0.00000000000E+00  0.00000000000E+00  0.14999999963E+04  0.15000000000E+04  0.10566000000E+00 0.  1.
        994   -1    0    0    0    0 -0.00000000000E+00 -0.00000000000E+00  0.11368683772E-12  0.17120000000E+03  0.17120000000E+03 0.  0.
         13    1    1    2    0    0 -0.14143914088E+02  0.38654801279E+00  0.48986240244E+02  0.50988848019E+02  0.10566000000E+00 0.  1.
        994    1    1    2    0    0  0.14452196825E+02 -0.22257814299E+01  0.26826064575E+01  0.17184427972E+03  0.17120000000E+03 0.  0.
        998    1    1    2    0    0 -0.30828273680E+00  0.18392334171E+01  0.14483311496E+04  0.14483668723E+04  0.10000000000E+02 0.  1.
</event>
<event>
 5    1  0.1688215E-008  0.3813208E+03  0.7957747E-01  0.3445427E+00
         13   -1    0    0    0    0  0.00000000000E+00  0.00000000000E+00  0.14999999963E+04  0.15000000000E+04  0.10566000000E+00 0. -1.
        994   -1    0    0    0    0 -0.00000000000E+00 -0.00000000000E+00  0.11368683772E-12  0.17120000000E+03  0.17120000000E+03 0.  0.
         13    1    1    2    0    0 -0.15961969671E+02 -0.24739641461E+02  0.12004452600E+03  0.12360232086E+03  0.10566000000E+00 0. -1.
        994    1    1    2    0    0  0.29382416427E+02  0.86909079999E+01  0.65990556134E+01  0.17404552799E+03  0.17120000000E+03 0.  0.
        998    1    1    2    0    0 -0.13420446757E+02  0.16048733461E+02  0.13733564147E+04  0.13735521512E+04  0.10000000000E+02 0. -1.
</event>
<event>
 5    1  0.1688215E-008  0.3717631E+03  0.7957747E-01  0.3487827E+00
         13   -1    0    0    0    0  0.00000000000E+00  0.00000000000E+00  0.14999999963E+04  0.15000000000E+04  0.10566000000E+00 0. -1.
        994   -1    0    0    0    0 -0.00000000000E+00 -0.00000000000E+00  0.11368683772E-12  0.17120000000E+03  0.17120000000E+03 0.  0.
         13    1    1    2    0    0 -0.37979079652E+02 -0.29580472182E+02  0.12469549078E+03  0.13366522140E+03  0.10566000000E+00 0. -1.
        994    1    1    2    0    0 -0.61999102519E+02  0.76561404954E+01  0.25731504805E+02  0.18404905743E+03  0.17120000000E+03 0.  0.
        998    1    1    2    0    0  0.99978182171E+02  0.21924331687E+02  0.13495730007E+04  0.13534857212E+04  0.10000000000E+02 0. -1.
</event>
<event>
 5    1  0.1688215E-008  0.3860552E+03  0.7957747E-01  0.3425209E+00
         13   -1    0    0    0    0  0.00000000000E+00  0.00000000000E+00  0.14999999963E+04  0.15000000000E+04  0.10566000000E+00 0. -1.
        994   -1    0    0    0    0 -0.00000000000E+00 -0.00000000000E+00  0.11368683772E-12  0.17120000000E+03  0.17120000000E+03 0.  0.
         13    1    1    2    0    0 -0.10859842445E+02  0.64339059907E+01  0.70386200145E+02  0.71509157869E+02  0.10566000000E+00 0. -1.
        994    1    1    2    0    0  0.37525362492E+01 -0.19349994428E+02  0.23814907421E+01  0.17234736816E+03  0.17120000000E+03 0.  0.
        998    1    1    2    0    0  0.71073061957E+01  0.12916088437E+02  0.14272323054E+04  0.14273434740E+04  0.10000000000E+02 0. -1.
</event>
<event>
 5    1  0.1688215E-008  0.3777041E+03  0.7957747E-01  0.3461217E+00
         13   -1    0    0    0    0  0.00000000000E+00  0.00000000000E+00  0.14999999963E+04  0.15000000000E+04  0.10566000000E+00 0. -1.
        994   -1    0    0    0    0 -0.00000000000E+00 -0.00000000000E+00  0.11368683772E-12  0.17120000000E+03  0.17120000000E+03 0.  0.
         13    1    1    2    0    0 -0.24543310764E+02 -0.29776543915E+02  0.13929015848E+03  0.14453641785E+03  0.10566000000E+00 0. -1.
        994    1    1    2    0    0  0.76363212140E+01  0.22432787876E+02  0.71904532258E+01  0.17298175046E+03  0.17120000000E+03 0.  0.
        998    1    1    2    0    0  0.16906989550E+02  0.73437560384E+01  0.13535193846E+04  0.13536818317E+04  0.10000000000E+02 0. -1.
</event>
<event>
 5    1  0.2472711E-008  0.3852702E+03  0.7957747E-01  0.3428527E+00
         13   -1    0    0    0    0  0.00000000000E+00  0.00000000000E+00  0.14999999963E+04  0.15000000000E+04  0.10566000000E+00 0. -1.
        994   -1    0    0    0    0 -0.00000000000E+00 -0.00000000000E+00  0.11368683772E-12  0.17120000000E+03  0.17120000000E+03 0.  0.
         13    1    1    2    0    0 -0.13966136592E+02 -0.82821266651E+01  0.94085560373E+02  0.95476439125E+02  0.10566000000E+00 0. -1.
        994    1    1    2    0    0  0.18786360459E+01  0.20863056434E+01  0.15219412736E+01  0.17122978202E+03  0.17120000000E+03 0.  0.
        998    1    1    2    0    0  0.12087500546E+02  0.61958210217E+01  0.14043924946E+04  0.14044937789E+04  0.10000000000E+02 0. -1.
</event>
<event>
 5    1  0.1688215E-008  0.4210169E+03  0.7957747E-01  0.3289948E+00
         13   -1    0    0    0    0  0.00000000000E+00  0.00000000000E+00  0.14999999963E+04  0.15000000000E+04  0.10566000000E+00 0. -1.
        994   -1    0    0    0    0 -0.00000000000E+00 -0.00000000000E+00  0.11368683772E-12  0.17120000000E+03  0.17120000000E+03 0.  0.
         13    1    1    2    0    0  0.20193457374E+02  0.27055145508E+02 -0.28997593795E+01  0.33884751551E+02  0.10566000000E+00 0. -1.
        994    1    1    2    0    0 -0.25738125549E+02 -0.29252393475E+02  0.47528059028E+02  0.18189697641E+03  0.17120000000E+03 0.  0.
        998    1    1    2    0    0  0.55446681752E+01  0.21972479668E+01  0.14553716966E+04  0.14554182720E+04  0.10000000000E+02 0. -1.
</event>
<event>
 5    1  0.1688215E-008  0.3776098E+03  0.7957747E-01  0.3461633E+00
         13   -1    0    0    0    0  0.00000000000E+00  0.00000000000E+00  0.14999999963E+04  0.15000000000E+04  0.10566000000E+00 0. -1.
        994   -1    0    0    0    0 -0.00000000000E+00 -0.00000000000E+00  0.11368683772E-12  0.17120000000E+03  0.17120000000E+03 0.  0.
         13    1    1    2    0    0 -0.26246192131E+02  0.33568466113E+02  0.15524850835E+03  0.16099010847E+03  0.10566000000E+00 0. -1.
        994    1    1    2    0    0  0.21179571283E+02 -0.32788215718E+02  0.10495835908E+02  0.17590691829E+03  0.17120000000E+03 0.  0.
        998    1    1    2    0    0  0.50666208479E+01 -0.78025039446E+00  0.13342556520E+04  0.13343029732E+04  0.10000000000E+02 0. -1.
</event>
<event>
 5    1  0.1688215E-008  0.3825520E+03  0.7957747E-01  0.3440121E+00
         13   -1    0    0    0    0  0.00000000000E+00  0.00000000000E+00  0.14999999963E+04  0.15000000000E+04  0.10566000000E+00 0.  1.
        994   -1    0    0    0    0 -0.00000000000E+00 -0.00000000000E+00  0.11368683772E-12  0.17120000000E+03  0.17120000000E+03 0.  0.
         13    1    1    2    0    0 -0.17613261245E+02  0.16772486733E+01  0.52930823474E+02  0.55809706794E+02  0.10566000000E+00 0.  1.
        994    1    1    2    0    0  0.16074666793E+02 -0.69529164670E+00  0.37090804100E+01  0.17199440578E+03  0.17120000000E+03 0.  0.
        998    1    1    2    0    0  0.15385944524E+01 -0.98195702658E+00  0.14433600924E+04  0.14433958874E+04  0.10000000000E+02 0.  1.
</event>
<event>
 5    1  0.1688215E-008  0.3845307E+03  0.7957747E-01  0.3431665E+00
         13   -1    0    0    0    0  0.00000000000E+00  0.00000000000E+00  0.14999999963E+04  0.15000000000E+04  0.10566000000E+00 0.  1.
        994   -1    0    0    0    0 -0.00000000000E+00 -0.00000000000E+00  0.11368683772E-12  0.17120000000E+03  0.17120000000E+03 0.  0.
         13    1    1    2    0    0 -0.24496039767E+02 -0.13285467855E+01  0.14078076178E+03  0.14290225699E+03  0.10566000000E+00 0.  1.
        994    1    1    2    0    0  0.32073245601E+02 -0.14545917489E+02  0.59590791986E+01  0.17488632715E+03  0.17120000000E+03 0.  0.
        998    1    1    2    0    0 -0.75772058334E+01  0.15874464275E+02  0.13532601553E+04  0.13534114159E+04  0.10000000000E+02 0.  1.
</event>
<event>
 5    1  0.1688215E-008  0.4440441E+03  0.7957747E-01  0.3212320E+00
         13   -1    0    0    0    0  0.00000000000E+00  0.00000000000E+00  0.14999999963E+04  0.15000000000E+04  0.10566000000E+00 0.  1.
        994   -1    0    0    0    0 -0.00000000000E+00 -0.00000000000E+00  0.11368683772E-12  0.17120000000E+03  0.17120000000E+03 0.  0.
         13    1    1    2    0    0  0.65631517305E+02 -0.13089360532E+03  0.25394816220E+03  0.29313872523E+03  0.10566000000E+00 0.  1.
        994    1    1    2    0    0  0.40682343895E+02  0.21771913200E+02  0.67596889583E+02  0.18975734186E+03  0.17120000000E+03 0.  0.
        998    1    1    2    0    0 -0.10631386120E+03  0.10912169212E+03  0.11784549445E+04  0.11883039329E+04  0.10000000000E+02 0.  1.
</event>
<event>
 5    1  0.1688215E-008  0.3831715E+03  0.7957747E-01  0.3437464E+00
         13   -1    0    0    0    0  0.00000000000E+00  0.00000000000E+00  0.14999999963E+04  0.15000000000E+04  0.10566000000E+00 0. -1.
        994   -1    0    0    0    0 -0.00000000000E+00 -0.00000000000E+00  0.11368683772E-12  0.17120000000E+03  0.17120000000E+03 0.  0.
         13    1    1    2    0    0  0.25855844050E+01  0.12848372194E+02  0.34358524122E+02  0.36773431424E+02  0.10566000000E+00 0. -1.
        994    1    1    2    0    0 -0.22574142268E+01  0.20498875949E+01  0.25714248738E+01  0.17124646035E+03  0.17120000000E+03 0.  0.
        998    1    1    2    0    0 -0.32817017820E+00 -0.14898259789E+02  0.14630700473E+04  0.14631801082E+04  0.10000000000E+02 0. -1.
</event>
<event>
 5    1  0.1688215E-008  0.3843314E+03  0.7957747E-01  0.3432513E+00
         13   -1    0    0    0    0  0.00000000000E+00  0.00000000000E+00  0.14999999963E+04  0.15000000000E+04  0.10566000000E+00 0. -1.
        994   -1    0    0    0    0 -0.00000000000E+00 -0.00000000000E+00  0.11368683772E-12  0.17120000000E+03  0.17120000000E+03 0.  0.
         13    1    1    2    0    0  0.12436748270E+02  0.50684313695E+01  0.44090968917E+02  0.46091066468E+02  0.10566000000E+00 0. -1.
        994    1    1    2    0    0 -0.14520304113E+02 -0.65069609206E+01  0.27972984935E+01  0.17196059040E+03  0.17120000000E+03 0.  0.
        998    1    1    2    0    0  0.20835558432E+01  0.14385295512E+01  0.14531117289E+04  0.14531483431E+04  0.10000000000E+02 0. -1.
</event>
<event>
 5    1  0.1688215E-008  0.3836467E+03  0.7957747E-01  0.3435432E+00
         13   -1    0    0    0    0  0.00000000000E+00  0.00000000000E+00  0.14999999963E+04  0.15000000000E+04  0.10566000000E+00 0.  1.
        994   -1    0    0    0    0 -0.00000000000E+00 -0.00000000000E+00  0.11368683772E-12  0.17120000000E+03  0.17120000000E+03 0.  0.
         13    1    1    2    0    0  0.19846408256E+02  0.18537723076E+00  0.82918542142E+02  0.85260835560E+02  0.10566000000E+00 0.  1.
        994    1    1    2    0    0 -0.16584072148E+02 -0.53233146205E+01  0.33062408028E+01  0.17211548552E+03  0.17120000000E+03 0.  0.
        998    1    1    2    0    0 -0.32623361080E+01  0.51379373898E+01  0.14137752133E+04  0.14138236789E+04  0.10000000000E+02 0.  1.
</event>
<event>
 5    1  0.1688215E-008  0.3753302E+03  0.7957747E-01  0.3471747E+00
         13   -1    0    0    0    0  0.00000000000E+00  0.00000000000E+00  0.14999999963E+04  0.15000000000E+04  0.10566000000E+00 0.  1.
        994   -1    0    0    0    0 -0.00000000000E+00 -0.00000000000E+00  0.11368683772E-12  0.17120000000E+03  0.17120000000E+03 0.  0.
         13    1    1    2    0    0  0.46485102293E+02 -0.70935545181E+02  0.49607063551E+03  0.50326812226E+03  0.10566000000E+00 0.  1.
        994    1    1    2    0    0 -0.72770906044E+02  0.28246306786E+02  0.27488709368E+02  0.19015395803E+03  0.17120000000E+03 0.  0.
        998    1    1    2    0    0  0.26285803750E+02  0.42689238395E+02  0.97644065140E+03  0.97777791970E+03  0.10000000000E+02 0.  1.
</event>
<event>
 5    1  0.1688215E-008  0.3798856E+03  0.7957747E-01  0.3451657E+00
         13   -1    0    0    0    0  0.00000000000E+00  0.00000000000E+00  0.14999999963E+04  0.15000000000E+04  0.10566000000E+00 0. -1.
        994   -1    0    0    0    0 -0.00000000000E+00 -0.00000000000E+00  0.11368683772E-12  0.17120000000E+03  0.17120000000E+03 0.  0.
         13    1    1    2    0    0  0.85321905824E+01  0.73207340566E+01  0.13052485504E+02  0.17227012658E+02  0.10566000000E+00 0. -1.
        994    1    1    2    0    0 -0.10942215211E+02 -0.95439195131E+01  0.48962424716E+01  0.17188435549E+03  0.17120000000E+03 0.  0.
        998    1    1    2    0    0  0.24100246283E+01  0.22231854565E+01  0.14820512683E+04  0.14820886318E+04  0.10000000000E+02 0. -1.
</event>
<event>
 5    1  0.1688215E-008  0.3819920E+03  0.7957747E-01  0.3442530E+00
         13   -1    0    0    0    0  0.00000000000E+00  0.00000000000E+00  0.14999999963E+04  0.15000000000E+04  0.10566000000E+00 0. -1.
        994   -1    0    0    0    0 -0.00000000000E+00 -0.00000000000E+00  0.11368683772E-12  0.17120000000E+03  0.17120000000E+03 0.  0.
         13    1    1    2    0    0  0.20094606649E+02 -0.39845797745E+01  0.68737953331E+02  0.71725779776E+02  0.10566000000E+00 0. -1.
        994    1    1    2    0    0 -0.18549715621E+01  0.15730143196E+02  0.39645593239E+01  0.17197684744E+03  0.17120000000E+03 0.  0.
        998    1    1    2    0    0 -0.18239635087E+02 -0.11745563422E+02  0.14272974836E+04  0.14274973728E+04  0.10000000000E+02 0. -1.
</event>
<event>
 5    1  0.1688215E-008  0.3846216E+03  0.7957747E-01  0.3431278E+00
         13   -1    0    0    0    0  0.00000000000E+00  0.00000000000E+00  0.14999999963E+04  0.15000000000E+04  0.10566000000E+00 0. -1.
        994   -1    0    0    0    0 -0.00000000000E+00 -0.00000000000E+00  0.11368683772E-12  0.17120000000E+03  0.17120000000E+03 0.  0.
         13    1    1    2    0    0 -0.12492394085E+02  0.11928434104E+02  0.85143834140E+02  0.86878254507E+02  0.10566000000E+00 0. -1.
        994    1    1    2    0    0  0.49450787020E+01 -0.28119743239E+01  0.19246679732E+01  0.17130529866E+03  0.17120000000E+03 0.  0.
        998    1    1    2    0    0  0.75473153828E+01 -0.91164597805E+01  0.14129314942E+04  0.14130164468E+04  0.10000000000E+02 0. -1.
</event>
<event>
 5    1  0.1688215E-008  0.3855044E+03  0.7957747E-01  0.3427536E+00
         13   -1    0    0    0    0  0.00000000000E+00  0.00000000000E+00  0.14999999963E+04  0.15000000000E+04  0.10566000000E+00 0. -1.
        994   -1    0    0    0    0 -0.00000000000E+00 -0.00000000000E+00  0.11368683772E-12  0.17120000000E+03  0.17120000000E+03 0.  0.
         13    1    1    2    0    0  0.11539059310E+02 -0.90495827673E+01  0.80589641851E+02  0.81913041548E+02  0.10566000000E+00 0. -1.
        994    1    1    2    0    0 -0.11444467199E+02 -0.47783769720E+01  0.18850848413E+01  0.17165897081E+03  0.17120000000E+03 0.  0.
        998    1    1    2    0    0 -0.94592111339E-01  0.13827959739E+02  0.14175252696E+04  0.14176279876E+04  0.10000000000E+02 0. -1.
</event>
<event>
 5    1  0.1688215E-008  0.3762203E+03  0.7957747E-01  0.3467783E+00
         13   -1    0    0    0    0  0.00000000000E+00  0.00000000000E+00  0.14999999963E+04  0.15000000000E+04  0.10566000000E+00 0.  1.
        994   -1    0    0    0    0 -0.00000000000E+00 -0.00000000000E+00  0.11368683772E-12  0.17120000000E+03  0.17120000000E+03 0.  0.
         13    1    1    2    0    0  0.38766797582E+02  0.19509479374E+02  0.14996041517E+03  0.15611413024E+03  0.10566000000E+00 0.  1.
        994    1    1    2    0    0 -0.37682942873E+02  0.72456190049E+01  0.11054511257E+02  0.17579574909E+03  0.17120000000E+03 0.  0.
        998    1    1    2    0    0 -0.10838547086E+01 -0.26755098379E+02  0.13389850699E+04  0.13392901207E+04  0.10000000000E+02 0.  1.
</event>
<event>
 5    1  0.1688215E-008  0.3706937E+03  0.7957747E-01  0.3492709E+00
         13   -1    0    0    0    0  0.00000000000E+00  0.00000000000E+00  0.14999999963E+04  0.15000000000E+04  0.10566000000E+00 0.  1.
        994   -1    0    0    0    0 -0.00000000000E+00 -0.00000000000E+00  0.11368683772E-12  0.17120000000E+03  0.17120000000E+03 0.  0.
         13    1    1    2    0    0 -0.24451021980E+01 -0.23315555434E+02  0.26131533536E+02  0.35106436147E+02  0.10566000000E+00 0.  1.
        994    1    1    2    0    0  0.28782994097E+02  0.28421319709E+02  0.14572083228E+02  0.17651633854E+03  0.17120000000E+03 0.  0.
        998    1    1    2    0    0 -0.26337891899E+02 -0.51057642752E+01  0.14592963795E+04  0.14595772253E+04  0.10000000000E+02 0.  1.
</event>
<event>
 5    1  0.1688215E-008  0.3721182E+03  0.7957747E-01  0.3486212E+00
         13   -1    0    0    0    0  0.00000000000E+00  0.00000000000E+00  0.14999999963E+04  0.15000000000E+04  0.10566000000E+00 0. -1.
        994   -1    0    0    0    0 -0.00000000000E+00 -0.00000000000E+00  0.11368683772E-12  0.17120000000E+03  0.17120000000E+03 0.  0.
         13    1    1    2    0    0 -0.92501996792E+01  0.41826156036E+02  0.10327823105E+03  0.11180964938E+03  0.10566000000E+00 0. -1.
        994    1    1    2    0    0  0.92790901269E+01 -0.40072564375E+02  0.13996098971E+02  0.17662741213E+03  0.17120000000E+03 0.  0.
        998    1    1    2    0    0 -0.28890447717E-01 -0.17535916605E+01  0.13827256663E+04  0.13827629385E+04  0.10000000000E+02 0. -1.
</event>
<event>
 5    1  0.2201755E-008  0.3859732E+03  0.7957747E-01  0.3425555E+00
         13   -1    0    0    0    0  0.00000000000E+00  0.00000000000E+00  0.14999999963E+04  0.15000000000E+04  0.10566000000E+00 0. -1.
        994   -1    0    0    0    0 -0.00000000000E+00 -0.00000000000E+00  0.11368683772E-12  0.17120000000E+03  0.17120000000E+03 0.  0.
         13    1    1    2    0    0 -0.70423506204E+01 -0.75279192898E+01  0.47098354066E+02  0.48213383939E+02  0.10566000000E+00 0. -1.
        994    1    1    2    0    0  0.17642393689E+01  0.65612988866E+01  0.12990819267E+01  0.17133969417E+03  0.17120000000E+03 0.  0.
        998    1    1    2    0    0  0.52781112515E+01  0.96662040324E+00  0.14516025603E+04  0.14516469219E+04  0.10000000000E+02 0. -1.
</event>
<event>
 5    1  0.1688215E-008  0.3853821E+03  0.7957747E-01  0.3428053E+00
         13   -1    0    0    0    0  0.00000000000E+00  0.00000000000E+00  0.14999999963E+04  0.15000000000E+04  0.10566000000E+00 0. -1.
        994   -1    0    0    0    0 -0.00000000000E+00 -0.00000000000E+00  0.11368683772E-12  0.17120000000E+03  0.17120000000E+03 0.  0.
         13    1    1    2    0    0 -0.63438110844E+01 -0.96489568274E+01  0.48066375937E+02  0.49434137665E+02  0.10566000000E+00 0. -1.
        994    1    1    2    0    0  0.29440577851E+01  0.13252541768E+00  0.14690963756E+01  0.17123166554E+03  0.17120000000E+03 0.  0.
        998    1    1    2    0    0  0.33997532993E+01  0.95164314097E+01  0.14504645240E+04  0.14505341968E+04  0.10000000000E+02 0. -1.
</event>
<event>
 5    1  0.1688215E-008  0.3723587E+03  0.7957747E-01  0.3485121E+00
         13   -1    0    0    0    0  0.00000000000E+00  0.00000000000E+00  0.14999999963E+04  0.15000000000E+04  0.10566000000E+00 0.  1.
        994   -1    0    0    0    0 -0.00000000000E+00 -0.00000000000E+00  0.11368683772E-12  0.17120000000E+03  0.17120000000E+03 0.  0.
         13    1    1    2    0    0  0.63407297883E+01  0.25928761044E+02  0.35251630355E+02  0.44217576938E+02  0.10566000000E+00 0.  1.
        994    1    1    2    0    0 -0.10849899296E+02 -0.72355439655E+02  0.26630487450E+02  0.18807353037E+03  0.17120000000E+03 0.  0.
        998    1    1    2    0    0  0.45091695078E+01  0.46426678611E+02  0.14381178785E+04  0.14389088927E+04  0.10000000000E+02 0.  1.
</event>
<event>
 5    1  0.1688215E-008  0.3763757E+03  0.7957747E-01  0.3467093E+00
         13   -1    0    0    0    0  0.00000000000E+00  0.00000000000E+00  0.14999999963E+04  0.15000000000E+04  0.10566000000E+00 0.  1.
        994   -1    0    0    0    0 -0.00000000000E+00 -0.00000000000E+00  0.11368683772E-12  0.17120000000E+03  0.17120000000E+03 0.  0.
         13    1    1    2    0    0 -0.32149066031E+02 -0.56070145162E+01  0.82072079024E+02  0.88322354916E+02  0.10566000000E+00 0.  1.
        994    1    1    2    0    0  0.34490509632E+02  0.39708870038E+01  0.10063169686E+02  0.17497448552E+03  0.17120000000E+03 0.  0.
        998    1    1    2    0    0 -0.23414436005E+01  0.16361275124E+01  0.14078647476E+04  0.14079031596E+04  0.10000000000E+02 0.  1.
</event>
<event>
 5    1  0.1688215E-008  0.3825022E+03  0.7957747E-01  0.3440335E+00
         13   -1    0    0    0    0  0.00000000000E+00  0.00000000000E+00  0.14999999963E+04  0.15000000000E+04  0.10566000000E+00 0. -1.
        994   -1    0    0    0    0 -0.00000000000E+00 -0.00000000000E+00  0.11368683772E-12  0.17120000000E+03  0.17120000000E+03 0.  0.
         13    1    1    2    0    0 -0.84014963474E+01 -0.14052651321E+02  0.44236302986E+02  0.47169098104E+02  0.10566000000E+00 0. -1.
        994    1    1    2    0    0  0.58580086177E+01  0.18190281127E+02  0.40871319207E+01  0.17231177336E+03  0.17120000000E+03 0.  0.
        998    1    1    2    0    0  0.25434877297E+01 -0.41376298060E+01  0.14516765614E+04  0.14517191285E+04  0.10000000000E+02 0. -1.
</event>
<event>
 5    1  0.1688215E-008  0.3815157E+03  0.7957747E-01  0.3444585E+00
         13   -1    0    0    0    0  0.00000000000E+00  0.00000000000E+00  0.14999999963E+04  0.15000000000E+04  0.10566000000E+00 0. -1.
        994   -1    0    0    0    0 -0.00000000000E+00 -0.00000000000E+00  0.11368683772E-12  0.17120000000E+03  0.17120000000E+03 0.  0.
         13    1    1    2    0    0 -0.24570404284E+02  0.19912761033E+02  0.17457448189E+03  0.17741613148E+03  0.10566000000E+00 0. -1.
        994    1    1    2    0    0  0.38930462297E+02  0.44312466050E+02  0.15030299384E+02  0.18169899681E+03  0.17120000000E+03 0.  0.
        998    1    1    2    0    0 -0.14360058013E+02 -0.64225227083E+02  0.13103952150E+04  0.13120848717E+04  0.10000000000E+02 0. -1.
</event>
<event>
 5    1  0.1688215E-008  0.3750535E+03  0.7957747E-01  0.3472984E+00
         13   -1    0    0    0    0  0.00000000000E+00  0.00000000000E+00  0.14999999963E+04  0.15000000000E+04  0.10566000000E+00 0.  1.
        994   -1    0    0    0    0 -0.00000000000E+00 -0.00000000000E+00  0.11368683772E-12  0.17120000000E+03  0.17120000000E+03 0.  0.
         13    1    1    2    0    0 -0.42983506251E+01 -0.20540337194E+02  0.29697290723E+02  0.36363738951E+02  0.10566000000E+00 0.  1.
        994    1    1    2    0    0  0.35370961743E+01  0.22445776025E+02  0.84080102220E+01  0.17290592398E+03  0.17120000000E+03 0.  0.
        998    1    1    2    0    0  0.76125445082E+00 -0.19054388311E+01  0.14618946953E+04  0.14619303371E+04  0.10000000000E+02 0.  1.
</event>
<event>
 5    1  0.1688215E-008  0.3749448E+03  0.7957747E-01  0.3473469E+00
         13   -1    0    0    0    0  0.00000000000E+00  0.00000000000E+00  0.14999999963E+04  0.15000000000E+04  0.10566000000E+00 0. -1.
        994   -1    0    0    0    0 -0.00000000000E+00 -0.00000000000E+00  0.11368683772E-12  0.17120000000E+03  0.17120000000E+03 0.  0.
         13    1    1    2    0    0  0.65805308338E+02 -0.23920298024E+02  0.28860963585E+03  0.29698156901E+03  0.10566000000E+00 0. -1.
        994    1    1    2    0    0 -0.73631733371E+02  0.99167230817E+01  0.25711877952E+02  0.18838926250E+03  0.17120000000E+03 0.  0.
        998    1    1    2    0    0  0.78264250326E+01  0.14003574942E+02  0.11856784825E+04  0.11858291685E+04  0.10000000000E+02 0. -1.
</event>
<event>
 5    1  0.1688215E-008  0.3801177E+03  0.7957747E-01  0.3450646E+00
         13   -1    0    0    0    0  0.00000000000E+00  0.00000000000E+00  0.14999999963E+04  0.15000000000E+04  0.10566000000E+00 0.  1.
        994   -1    0    0    0    0 -0.00000000000E+00 -0.00000000000E+00  0.11368683772E-12  0.17120000000E+03  0.17120000000E+03 0.  0.
         13    1    1    2    0    0  0.14603013059E+02 -0.18875027746E+01  0.24842304556E+02  0.28878398792E+02  0.10566000000E+00 0.  1.
        994    1    1    2    0    0 -0.12037172389E+02 -0.10634453079E+01  0.45618489937E+01  0.17168656005E+03  0.17120000000E+03 0.  0.
        998    1    1    2    0    0 -0.25658406708E+01  0.29509480825E+01  0.14705958427E+04  0.14706350412E+04  0.10000000000E+02 0.  1.
</event>
<event>
 5    1  0.1688215E-008  0.3842835E+03  0.7957747E-01  0.3432717E+00
         13   -1    0    0    0    0  0.00000000000E+00  0.00000000000E+00  0.14999999963E+04  0.15000000000E+04  0.10566000000E+00 0.  1.
        994   -1    0    0    0    0 -0.00000000000E+00 -0.00000000000E+00  0.11368683772E-12  0.17120000000E+03  0.17120000000E+03 0.  0.
         13    1    1    2    0    0 -0.11121127387E+02 -0.10443974866E+02  0.64026626973E+02  0.65819269298E+02  0.10566000000E+00 0.  1.
        994    1    1    2    0    0 -0.71929466280E+01 -0.13365981678E+01  0.21627554075E+01  0.17136989959E+03  0.17120000000E+03 0.  0.
        998    1    1    2    0    0  0.18314074015E+02  0.11780573034E+02  0.14338106139E+04  0.14340108311E+04  0.10000000000E+02 0.  1.
</event>
<event>
 5    1  0.1688215E-008  0.3827866E+03  0.7957747E-01  0.3439114E+00
         13   -1    0    0    0    0  0.00000000000E+00  0.00000000000E+00  0.14999999963E+04  0.15000000000E+04  0.10566000000E+00 0. -1.
        994   -1    0    0    0    0 -0.00000000000E+00 -0.00000000000E+00  0.11368683772E-12  0.17120000000E+03  0.17120000000E+03 0.  0.
         13    1    1    2    0    0  0.16308039335E+02  0.20063168059E+02  0.10886589205E+03  0.11189404129E+03  0.10566000000E+00 0. -1.
        994    1    1    2    0    0 -0.48703792434E+01 -0.39313192522E+02  0.79485229042E+01  0.17590300372E+03  0.17120000000E+03 0.  0.
        998    1    1    2    0    0 -0.11437660092E+02  0.19250024462E+02  0.13831855813E+04  0.13834029550E+04  0.10000000000E+02 0. -1.
</event>
<event>
 5    1  0.1688215E-008  0.3812247E+03  0.7957747E-01  0.3445843E+00
         13   -1    0    0    0    0  0.00000000000E+00  0.00000000000E+00  0.14999999963E+04  0.15000000000E+04  0.10566000000E+00 0.  1.
        994   -1    0    0    0    0 -0.00000000000E+00 -0.00000000000E+00  0.11368683772E-12  0.17120000000E+03  0.17120000000E+03 0.  0.
         13    1    1    2    0    0 -0.22822528305E+02  0.21702384281E+02  0.14202461635E+03  0.14547461667E+03  0.10566000000E+00 0.  1.
        994    1    1    2    0    0  0.13826304147E+02 -0.92214255613E+01  0.44363437981E+01  0.17206197291E+03  0.17120000000E+03 0.  0.
        998    1    1    2    0    0  0.89962241575E+01 -0.12480958720E+02  0.13535390361E+04  0.13536634104E+04  0.10000000000E+02 0.  1.
</event>
<event>
 5    1  0.1688215E-008  0.3863068E+03  0.7957747E-01  0.3424149E+00
         13   -1    0    0    0    0  0.00000000000E+00  0.00000000000E+00  0.14999999963E+04  0.15000000000E+04  0.10566000000E+00 0.  1.
        994   -1    0    0    0    0 -0.00000000000E+00 -0.00000000000E+00  0.11368683772E-12  0.17120000000E+03  0.17120000000E+03 0.  0.
         13    1    1    2    0    0 -0.57084056012E+01 -0.97122642498E+01  0.66804765051E+02  0.67748075758E+02  0.10566000000E+00 0.  1.
        994    1    1    2    0    0 -0.20154703028E+02  0.19742897031E+02  0.35937746117E+01  0.17354638934E+03  0.17120000000E+03 0.  0.
        998    1    1    2    0    0  0.25863108629E+02 -0.10030632781E+02  0.14296014566E+04  0.14299055349E+04  0.10000000000E+02 0.  1.
</event>
<event>
 5    1  0.1688215E-008  0.3768912E+03  0.7957747E-01  0.3464808E+00
         13   -1    0    0    0    0  0.00000000000E+00  0.00000000000E+00  0.14999999963E+04  0.15000000000E+04  0.10566000000E+00 0.  1.
        994   -1    0    0    0    0 -0.00000000000E+00 -0.00000000000E+00  0.11368683772E-12  0.17120000000E+03  0.17120000000E+03 0.  0.
         13    1    1    2    0    0  0.18138137337E+02 -0.78766250405E+01  0.31045651399E+02  0.36808652283E+02  0.10566000000E+00 0.  1.
        994    1    1    2    0    0 -0.28846150575E+02 -0.86407076459E+01  0.87795711545E+01  0.17404965700E+03  0.17120000000E+03 0.  0.
        998    1    1    2    0    0  0.10708013238E+02  0.16517332686E+02  0.14601747737E+04  0.14603416907E+04  0.10000000000E+02 0.  1.
</event>
<event>
 5    1  0.1688215E-008  0.3784702E+03  0.7957747E-01  0.3457847E+00
         13   -1    0    0    0    0  0.00000000000E+00  0.00000000000E+00  0.14999999963E+04  0.15000000000E+04  0.10566000000E+00 0.  1.
        994   -1    0    0    0    0 -0.00000000000E+00 -0.00000000000E+00  0.11368683772E-12  0.17120000000E+03  0.17120000000E+03 0.  0.
         13    1    1    2    0    0 -0.55779620227E+01 -0.48882541674E+02  0.67433375300E+02  0.83473875010E+02  0.10566000000E+00 0.  1.
        994    1    1    2    0    0  0.41829535580E+01  0.59544296930E+02  0.28442267260E+02  0.18352499275E+03  0.17120000000E+03 0.  0.
        998    1    1    2    0    0  0.13950084648E+01 -0.10661755256E+02  0.14041243537E+04  0.14042011322E+04  0.10000000000E+02 0.  1.
</event>
<event>
 5    1  0.1688215E-008  0.3836917E+03  0.7957747E-01  0.3435240E+00
         13   -1    0    0    0    0  0.00000000000E+00  0.00000000000E+00  0.14999999963E+04  0.15000000000E+04  0.10566000000E+00 0. -1.
        994   -1    0    0    0    0 -0.00000000000E+00 -0.00000000000E+00  0.11368683772E-12  0.17120000000E+03  0.17120000000E+03 0.  0.
         13    1    1    2    0    0  0.29734331405E+02  0.56201041195E+01  0.15722558823E+03  0.16011125130E+03  0.10566000000E+00 0. -1.
        994    1    1    2    0    0 -0.50851432026E+02  0.95016869315E+01  0.11170123396E+02  0.17919364344E+03  0.17120000000E+03 0.  0.
        998    1    1    2    0    0  0.21117100622E+02 -0.15121791051E+02  0.13316042847E+04  0.13318951053E+04  0.10000000000E+02 0. -1.
</event>
<event>
 5    1  0.1688215E-008  0.3838994E+03  0.7957747E-01  0.3434353E+00
         13   -1    0    0    0    0  0.00000000000E+00  0.00000000000E+00  0.14999999963E+04  0.15000000000E+04  0.10566000000E+00 0.  1.
        994   -1    0    0    0    0 -0.00000000000E+00 -0.00000000000E+00  0.11368683772E-12  0.17120000000E+03  0.17120000000E+03 0.  0.
         13    1    1    2    0    0 -0.71933315870E+01 -0.27280818966E+02  0.16261062604E+03  0.16504003747E+03  0.10566000000E+00 0.  1.
        994    1    1    2    0    0  0.86939195710E+01  0.28711112263E+02  0.51533081189E+01  0.17388475721E+03  0.17120000000E+03 0.  0.
        998    1    1    2    0    0 -0.15005879840E+01 -0.14302932968E+01  0.13322360621E+04  0.13322752053E+04  0.10000000000E+02 0.  0.
</event>
<event>
 5    1  0.1688215E-008  0.3841908E+03  0.7957747E-01  0.3433112E+00
         13   -1    0    0    0    0  0.00000000000E+00  0.00000000000E+00  0.14999999963E+04  0.15000000000E+04  0.10566000000E+00 0.  1.
        994   -1    0    0    0    0 -0.00000000000E+00 -0.00000000000E+00  0.11368683772E-12  0.17120000000E+03  0.17120000000E+03 0.  0.
         13    1    1    2    0    0 -0.15365656758E+02  0.89865646625E+00  0.60595286617E+02  0.62519684222E+02  0.10566000000E+00 0.  1.
        994    1    1    2    0    0  0.18523780433E+01 -0.23867213009E+01  0.20625482725E+01  0.17123907804E+03  0.17120000000E+03 0.  0.
        998    1    1    2    0    0  0.13513278714E+02  0.14880648347E+01  0.14373421614E+04  0.14374412377E+04  0.10000000000E+02 0.  1.
</event>
<event>
 5    1  0.1688215E-008  0.3959681E+03  0.7957747E-01  0.3384447E+00
         13   -1    0    0    0    0  0.00000000000E+00  0.00000000000E+00  0.14999999963E+04  0.15000000000E+04  0.10566000000E+00 0.  1.
        994   -1    0    0    0    0 -0.00000000000E+00 -0.00000000000E+00  0.11368683772E-12  0.17120000000E+03  0.17120000000E+03 0.  0.
         13    1    1    2    0    0  0.29801370145E+01  0.14734179855E+03  0.43345726535E+03  0.45782496531E+03  0.10566000000E+00 0.  1.
        994    1    1    2    0    0 -0.33690347407E+02 -0.84321946145E+02  0.57907667465E+02  0.20225718297E+03  0.17120000000E+03 0.  0.
        998    1    1    2    0    0  0.30710210393E+02 -0.63019852403E+02  0.10086350635E+04  0.10111178517E+04  0.10000000000E+02 0. -1.
</event>
<event>
 5    1  0.1688215E-008  0.3850445E+03  0.7957747E-01  0.3429483E+00
         13   -1    0    0    0    0  0.00000000000E+00  0.00000000000E+00  0.14999999963E+04  0.15000000000E+04  0.10566000000E+00 0.  1.
        994   -1    0    0    0    0 -0.00000000000E+00 -0.00000000000E+00  0.11368683772E-12  0.17120000000E+03  0.17120000000E+03 0.  0.
         13    1    1    2    0    0 -0.16637621684E+02 -0.19775040074E+01  0.90456828662E+02  0.91995488982E+02  0.10566000000E+00 0.  1.
        994    1    1    2    0    0  0.48787474578E+01  0.14111109808E+02  0.23414065076E+01  0.17186578421E+03  0.17120000000E+03 0.  0.
        998    1    1    2    0    0  0.11758874227E+02 -0.12133605800E+02  0.14072017611E+04  0.14073387268E+04  0.10000000000E+02 0.  1.
</event>
<event>
 5    1  0.1688215E-008  0.3831591E+03  0.7957747E-01  0.3437517E+00
         13   -1    0    0    0    0  0.00000000000E+00  0.00000000000E+00  0.14999999963E+04  0.15000000000E+04  0.10566000000E+00 0. -1.
        994   -1    0    0    0    0 -0.00000000000E+00 -0.00000000000E+00  0.11368683772E-12  0.17120000000E+03  0.17120000000E+03 0.  0.
         13    1    1    2    0    0  0.10179101423E+02  0.41971134420E+00  0.19454296891E+02  0.21960671551E+02  0.10566000000E+00 0. -1.
        994    1    1    2    0    0 -0.67722538710E+01 -0.25640014900E+01  0.27203575242E+01  0.17137467103E+03  0.17120000000E+03 0.  0.
        998    1    1    2    0    0 -0.34068475524E+01  0.21442901458E+01  0.14778253419E+04  0.14778646574E+04  0.10000000000E+02 0. -1.
</event>
<event>
 5    1  0.1688215E-008  0.3801305E+03  0.7957747E-01  0.3450590E+00
         13   -1    0    0    0    0  0.00000000000E+00  0.00000000000E+00  0.14999999963E+04  0.15000000000E+04  0.10566000000E+00 0. -1.
        994   -1    0    0    0    0 -0.00000000000E+00 -0.00000000000E+00  0.11368683772E-12  0.17120000000E+03  0.17120000000E+03 0.  0.
         13    1    1    2    0    0 -0.30384765178E+01 -0.13786379473E+02  0.23236645346E+02  0.27189142125E+02  0.10566000000E+00 0. -1.
        994    1    1    2    0    0 -0.89121249597E+01  0.56856449596E+01  0.44407804090E+01  0.17158354542E+03  0.17120000000E+03 0.  0.
        998    1    1    2    0    0  0.11950601478E+02  0.81007345138E+01  0.14723225705E+04  0.14724273124E+04  0.10000000000E+02 0. -1.
</event>
<event>
 5    1  0.1688215E-008  0.3846295E+03  0.7957747E-01  0.3431245E+00
         13   -1    0    0    0    0  0.00000000000E+00  0.00000000000E+00  0.14999999963E+04  0.15000000000E+04  0.10566000000E+00 0. -1.
        994   -1    0    0    0    0 -0.00000000000E+00 -0.00000000000E+00  0.11368683772E-12  0.17120000000E+03  0.17120000000E+03 0.  0.
         13    1    1    2    0    0  0.12660847717E+02  0.58102179140E+01  0.56779460303E+02  0.58463441341E+02  0.10566000000E+00 0. -1.
        994    1    1    2    0    0  0.33600402832E+01 -0.27449951319E+01  0.18762064358E+01  0.17126524755E+03  0.17120000000E+03 0.  0.
        998    1    1    2    0    0 -0.16020888000E+02 -0.30652227821E+01  0.14413443295E+04  0.14414713111E+04  0.10000000000E+02 0. -1.
</event>
<event>
 5    1  0.1688215E-008  0.3810729E+03  0.7957747E-01  0.3446500E+00
         13   -1    0    0    0    0  0.00000000000E+00  0.00000000000E+00  0.14999999963E+04  0.15000000000E+04  0.10566000000E+00 0. -1.
        994   -1    0    0    0    0 -0.00000000000E+00 -0.00000000000E+00  0.11368683772E-12  0.17120000000E+03  0.17120000000E+03 0.  0.
         13    1    1    2    0    0  0.22980669123E+02  0.10067209167E+02  0.79888362716E+02  0.83735425688E+02  0.10566000000E+00 0. -1.
        994    1    1    2    0    0 -0.18139413949E+02 -0.38816046170E+02  0.97318317444E+01  0.17674804759E+03  0.17120000000E+03 0.  0.
        998    1    1    2    0    0 -0.48412551744E+01  0.28748837004E+02  0.14103798018E+04  0.14107165267E+04  0.10000000000E+02 0. -1.
</event>
<event>
 5    1  0.2280913E-008  0.3852734E+03  0.7957747E-01  0.3428514E+00
         13   -1    0    0    0    0  0.00000000000E+00  0.00000000000E+00  0.14999999963E+04  0.15000000000E+04  0.10566000000E+00 0. -1.
        994   -1    0    0    0    0 -0.00000000000E+00 -0.00000000000E+00  0.11368683772E-12  0.17120000000E+03  0.17120000000E+03 0.  0.
         13    1    1    2    0    0 -0.90985266611E+01 -0.10612788714E+02  0.69279729445E+02  0.70676067716E+02  0.10566000000E+00 0. -1.
        994    1    1    2    0    0  0.26425003888E+01 -0.67365700521E+00  0.15189171840E+01  0.17122845479E+03  0.17120000000E+03 0.  0.
        998    1    1    2    0    0  0.64560262723E+01  0.11286445719E+02  0.14292013496E+04  0.14292954775E+04  0.10000000000E+02 0. -1.
</event>
<event>
 5    1  0.1688215E-008  0.3770843E+03  0.7957747E-01  0.3463953E+00
         13   -1    0    0    0    0  0.00000000000E+00  0.00000000000E+00  0.14999999963E+04  0.15000000000E+04  0.10566000000E+00 0. -1.
        994   -1    0    0    0    0 -0.00000000000E+00 -0.00000000000E+00  0.11368683772E-12  0.17120000000E+03  0.17120000000E+03 0.  0.
         13    1    1    2    0    0  0.12831863198E+02 -0.16984557261E+02  0.38035451484E+02  0.43587138379E+02  0.10566000000E+00 0. -1.
        994    1    1    2    0    0 -0.80249803150E+01  0.12861081382E+02  0.63883533928E+01  0.17198854259E+03  0.17120000000E+03 0.  0.
        998    1    1    2    0    0 -0.48068828827E+01  0.41234758787E+01  0.14555761914E+04  0.14556243190E+04  0.10000000000E+02 0. -1.
</event>
<event>
 5    1  0.1688215E-008  0.3845008E+03  0.7957747E-01  0.3431792E+00
         13   -1    0    0    0    0  0.00000000000E+00  0.00000000000E+00  0.14999999963E+04  0.15000000000E+04  0.10566000000E+00 0. -1.
        994   -1    0    0    0    0 -0.00000000000E+00 -0.00000000000E+00  0.11368683772E-12  0.17120000000E+03  0.17120000000E+03 0.  0.
         13    1    1    2    0    0  0.10458147205E+02  0.13974233602E+02  0.80523647493E+02  0.82393695252E+02  0.10566000000E+00 0. -1.
        994    1    1    2    0    0 -0.25258367304E+01 -0.13082692935E+02  0.24632006526E+01  0.17173538966E+03  0.17120000000E+03 0.  0.
        998    1    1    2    0    0 -0.79323104741E+01 -0.89154066632E+00  0.14170131481E+04  0.14170709151E+04  0.10000000000E+02 0. -1.
</event>
<event>
 5    1  0.1688215E-008  0.3814024E+03  0.7957747E-01  0.3445075E+00
         13   -1    0    0    0    0  0.00000000000E+00  0.00000000000E+00  0.14999999963E+04  0.15000000000E+04  0.10566000000E+00 0. -1.
        994   -1    0    0    0    0 -0.00000000000E+00 -0.00000000000E+00  0.11368683772E-12  0.17120000000E+03  0.17120000000E+03 0.  0.
         13    1    1    2    0    0  0.50112378087E+02  0.11088079862E+02  0.30630488949E+03  0.31057509952E+03  0.10566000000E+00 0. -1.
        994    1    1    2    0    0 -0.52149727633E+02 -0.45660079639E+01  0.12599964878E+02  0.17946766181E+03  0.17120000000E+03 0.  0.
        998    1    1    2    0    0  0.20373495463E+01 -0.65220718981E+01  0.11810951419E+04  0.11811572387E+04  0.10000000000E+02 0. -1.
</event>
<event>
 5    1  0.1688215E-008  0.3831380E+03  0.7957747E-01  0.3437608E+00
         13   -1    0    0    0    0  0.00000000000E+00  0.00000000000E+00  0.14999999963E+04  0.15000000000E+04  0.10566000000E+00 0. -1.
        994   -1    0    0    0    0 -0.00000000000E+00 -0.00000000000E+00  0.11368683772E-12  0.17120000000E+03  0.17120000000E+03 0.  0.
         13    1    1    2    0    0  0.12193249589E+02 -0.79941083475E+01  0.40619395301E+02  0.43157010351E+02  0.10566000000E+00 0. -1.
        994    1    1    2    0    0 -0.99396294708E+01  0.43491039978E+01  0.29469951871E+01  0.17156874925E+03  0.17120000000E+03 0.  0.
        998    1    1    2    0    0 -0.22536201177E+01  0.36450043497E+01  0.14564336058E+04  0.14564742404E+04  0.10000000000E+02 0. -1.
</event>
<event>
 5    1  0.1688215E-008  0.3753888E+03  0.7957747E-01  0.3471486E+00
         13   -1    0    0    0    0  0.00000000000E+00  0.00000000000E+00  0.14999999963E+04  0.15000000000E+04  0.10566000000E+00 0. -1.
        994   -1    0    0    0    0 -0.00000000000E+00 -0.00000000000E+00  0.11368683772E-12  0.17120000000E+03  0.17120000000E+03 0.  0.
         13    1    1    2    0    0  0.56152204390E+01 -0.12283237490E+02  0.10987799926E+02  0.17411247372E+02  0.10566000000E+00 0. -1.
        994    1    1    2    0    0 -0.42520432666E+01  0.17206882956E+02  0.75464287796E+01  0.17228042628E+03  0.17120000000E+03 0.  0.
        998    1    1    2    0    0 -0.13631771723E+01 -0.49236454666E+01  0.14814657676E+04  0.14815083263E+04  0.10000000000E+02 0. -1.
</event>
<event>
 5    1  0.1688215E-008  0.3818599E+03  0.7957747E-01  0.3443100E+00
         13   -1    0    0    0    0  0.00000000000E+00  0.00000000000E+00  0.14999999963E+04  0.15000000000E+04  0.10566000000E+00 0.  1.
        994   -1    0    0    0    0 -0.00000000000E+00 -0.00000000000E+00  0.11368683772E-12  0.17120000000E+03  0.17120000000E+03 0.  0.
         13    1    1    2    0    0  0.13025581745E+02 -0.86302446447E+01  0.36172553717E+02  0.39403194146E+02  0.10566000000E+00 0.  1.
        994    1    1    2    0    0 -0.86111347649E+01  0.17772719285E+02  0.44941164924E+01  0.17239390440E+03  0.17120000000E+03 0.  0.
        998    1    1    2    0    0 -0.44144469801E+01 -0.91424746404E+01  0.14593333261E+04  0.14594029015E+04  0.10000000000E+02 0.  1.
</event>
<event>
 5    1  0.1688215E-008  0.3834447E+03  0.7957747E-01  0.3436295E+00
         13   -1    0    0    0    0  0.00000000000E+00  0.00000000000E+00  0.14999999963E+04  0.15000000000E+04  0.10566000000E+00 0.  1.
        994   -1    0    0    0    0 -0.00000000000E+00 -0.00000000000E+00  0.11368683772E-12  0.17120000000E+03  0.17120000000E+03 0.  0.
         13    1    1    2    0    0 -0.28338365580E+00  0.12985443366E+02  0.32689137667E+02  0.35175174927E+02  0.10566000000E+00 0.  1.
        994    1    1    2    0    0  0.51360957055E+01 -0.21501095608E+02  0.40211660622E+01  0.17266813941E+03  0.17120000000E+03 0.  0.
        998    1    1    2    0    0 -0.48527120497E+01  0.85156522420E+01  0.14632896925E+04  0.14633566857E+04  0.10000000000E+02 0.  1.
</event>
<event>
 5    1  0.1688215E-008  0.3855388E+03  0.7957747E-01  0.3427390E+00
         13   -1    0    0    0    0  0.00000000000E+00  0.00000000000E+00  0.14999999963E+04  0.15000000000E+04  0.10566000000E+00 0.  1.
        994   -1    0    0    0    0 -0.00000000000E+00 -0.00000000000E+00  0.11368683772E-12  0.17120000000E+03  0.17120000000E+03 0.  0.
         13    1    1    2    0    0  0.12717611053E+02  0.98041858065E+00  0.58478217300E+02  0.59853253162E+02  0.10566000000E+00 0.  1.
        994    1    1    2    0    0 -0.12387285200E+02 -0.16440458390E+01  0.18756334192E+01  0.17166568009E+03  0.17120000000E+03 0.  0.
        998    1    1    2    0    0 -0.33032585310E+00  0.66362725833E+00  0.14396461456E+04  0.14396810667E+04  0.10000000000E+02 0.  1.
</event>
<event>
 5    1  0.1688215E-008  0.3799743E+03  0.7957747E-01  0.3451270E+00
         13   -1    0    0    0    0  0.00000000000E+00  0.00000000000E+00  0.14999999963E+04  0.15000000000E+04  0.10566000000E+00 0. -1.
        994   -1    0    0    0    0 -0.00000000000E+00 -0.00000000000E+00  0.11368683772E-12  0.17120000000E+03  0.17120000000E+03 0.  0.
         13    1    1    2    0    0 -0.34670109427E+02  0.18504014322E+02  0.22554705862E+03  0.22894519399E+03  0.10566000000E+00 0. -1.
        994    1    1    2    0    0  0.10936184791E+02  0.21813457791E+02  0.61392909499E+01  0.17303918045E+03  0.17120000000E+03 0.  0.
        998    1    1    2    0    0  0.23733924636E+02 -0.40317472113E+02  0.12683136467E+04  0.12692156256E+04  0.10000000000E+02 0. -1.
</event>
<event>
 5    1  0.1688215E-008  0.3848691E+03  0.7957747E-01  0.3430228E+00
         13   -1    0    0    0    0  0.00000000000E+00  0.00000000000E+00  0.14999999963E+04  0.15000000000E+04  0.10566000000E+00 0. -1.
        994   -1    0    0    0    0 -0.00000000000E+00 -0.00000000000E+00  0.11368683772E-12  0.17120000000E+03  0.17120000000E+03 0.  0.
         13    1    1    2    0    0 -0.25324748667E+01 -0.17469628968E+02  0.99057555480E+02  0.10061814860E+03  0.10566000000E+00 0. -1.
        994    1    1    2    0    0  0.72584024656E+01  0.71020381592E+00  0.18701577775E+01  0.17136547577E+03  0.17120000000E+03 0.  0.
        998    1    1    2    0    0 -0.47259275989E+01  0.16759425152E+02  0.13990722830E+04  0.13992163756E+04  0.10000000000E+02 0. -1.
</event>
<event>
 5    1  0.1688215E-008  0.3754945E+03  0.7957747E-01  0.3471014E+00
         13   -1    0    0    0    0  0.00000000000E+00  0.00000000000E+00  0.14999999963E+04  0.15000000000E+04  0.10566000000E+00 0. -1.
        994   -1    0    0    0    0 -0.00000000000E+00 -0.00000000000E+00  0.11368683772E-12  0.17120000000E+03  0.17120000000E+03 0.  0.
         13    1    1    2    0    0 -0.13834928622E+01  0.12616849514E+02  0.90976422088E+01  0.15616568188E+02  0.10566000000E+00 0. -1.
        994    1    1    2    0    0 -0.24060027135E+02 -0.35743132861E+02  0.12751128213E+02  0.17699855288E+03  0.17120000000E+03 0.  0.
        998    1    1    2    0    0  0.25443519997E+02  0.23126283346E+02  0.14781512259E+04  0.14785848789E+04  0.10000000000E+02 0. -1.
</event>
<event>
 5    1  0.1688215E-008  0.3841430E+03  0.7957747E-01  0.3433315E+00
         13   -1    0    0    0    0  0.00000000000E+00  0.00000000000E+00  0.14999999963E+04  0.15000000000E+04  0.10566000000E+00 0.  1.
        994   -1    0    0    0    0 -0.00000000000E+00 -0.00000000000E+00  0.11368683772E-12  0.17120000000E+03  0.17120000000E+03 0.  0.
         13    1    1    2    0    0 -0.16949512289E+02  0.55956849048E+01  0.76371605246E+02  0.78429783299E+02  0.10566000000E+00 0.  1.
        994    1    1    2    0    0  0.10123458917E+02 -0.11176379415E+02  0.28064742238E+01  0.17188575326E+03  0.17120000000E+03 0.  0.
        998    1    1    2    0    0  0.68260533721E+01  0.55806945104E+01  0.14208219168E+04  0.14208844634E+04  0.10000000000E+02 0.  1.
</event>
<event>
 5    1  0.1688215E-008  0.3751746E+03  0.7957747E-01  0.3472442E+00
         13   -1    0    0    0    0  0.00000000000E+00  0.00000000000E+00  0.14999999963E+04  0.15000000000E+04  0.10566000000E+00 0. -1.
        994   -1    0    0    0    0 -0.00000000000E+00 -0.00000000000E+00  0.11368683772E-12  0.17120000000E+03  0.17120000000E+03 0.  0.
         13    1    1    2    0    0 -0.11226113097E+02  0.72873144816E+02  0.34770279638E+03  0.35543461652E+03  0.10566000000E+00 0. -1.
        994    1    1    2    0    0  0.88513183790E+01 -0.61833884473E+02  0.19961714553E+02  0.18332944432E+03  0.17120000000E+03 0.  0.
        998    1    1    2    0    0  0.23747947180E+01 -0.11039260343E+02  0.11323354853E+04  0.11324359392E+04  0.10000000000E+02 0.  0.
</event>
<event>
 5    1  0.1688215E-008  0.3699893E+03  0.7957747E-01  0.3495940E+00
         13   -1    0    0    0    0  0.00000000000E+00  0.00000000000E+00  0.14999999963E+04  0.15000000000E+04  0.10566000000E+00 0. -1.
        994   -1    0    0    0    0 -0.00000000000E+00 -0.00000000000E+00  0.11368683772E-12  0.17120000000E+03  0.17120000000E+03 0.  0.
         13    1    1    2    0    0 -0.12541579562E+02  0.67389349534E+02  0.21858080763E+03  0.22907683488E+03  0.10566000000E+00 0. -1.
        994    1    1    2    0    0  0.47797519604E+01 -0.65382395802E+02  0.24285472313E+02  0.18492411383E+03  0.17120000000E+03 0.  0.
        998    1    1    2    0    0  0.77618276021E+01 -0.20069537318E+01  0.12571337163E+04  0.12571990513E+04  0.10000000000E+02 0.  1.
</event>
<event>
 5    1  0.1688215E-008  0.3693106E+03  0.7957747E-01  0.3499065E+00
         13   -1    0    0    0    0  0.00000000000E+00  0.00000000000E+00  0.14999999963E+04  0.15000000000E+04  0.10566000000E+00 0.  1.
        994   -1    0    0    0    0 -0.00000000000E+00 -0.00000000000E+00  0.11368683772E-12  0.17120000000E+03  0.17120000000E+03 0.  0.
         13    1    1    2    0    0  0.11057480038E+02  0.74072917412E+01  0.48255942772E+01  0.14157448919E+02  0.10566000000E+00 0.  1.
        994    1    1    2    0    0 -0.84521039838E+00 -0.11462002591E+02  0.10087797322E+02  0.17188163235E+03  0.17120000000E+03 0.  0.
        998    1    1    2    0    0 -0.10212269640E+02  0.40547108501E+01  0.14850866047E+04  0.14851609187E+04  0.10000000000E+02 0.  1.
</event>
<event>
 5    1  0.1688215E-008  0.3815104E+03  0.7957747E-01  0.3444608E+00
         13   -1    0    0    0    0  0.00000000000E+00  0.00000000000E+00  0.14999999963E+04  0.15000000000E+04  0.10566000000E+00 0. -1.
        994   -1    0    0    0    0 -0.00000000000E+00 -0.00000000000E+00  0.11368683772E-12  0.17120000000E+03  0.17120000000E+03 0.  0.
         13    1    1    2    0    0  0.12200100118E+02  0.42926497673E+01  0.23897069738E+02  0.27172603685E+02  0.10566000000E+00 0. -1.
        994    1    1    2    0    0 -0.12360219243E+01 -0.56780824088E+01  0.34849892994E+01  0.17133404075E+03  0.17120000000E+03 0.  0.
        998    1    1    2    0    0 -0.10964078194E+02  0.13854326415E+01  0.14726179372E+04  0.14726933556E+04  0.10000000000E+02 0. -1.
</event>
<event>
 5    1  0.1688215E-008  0.3829409E+03  0.7957747E-01  0.3438452E+00
         13   -1    0    0    0    0  0.00000000000E+00  0.00000000000E+00  0.14999999963E+04  0.15000000000E+04  0.10566000000E+00 0. -1.
        994   -1    0    0    0    0 -0.00000000000E+00 -0.00000000000E+00  0.11368683772E-12  0.17120000000E+03  0.17120000000E+03 0.  0.
         13    1    1    2    0    0 -0.18747003065E+02  0.50891243238E+01  0.64701736324E+02  0.67554978778E+02  0.10566000000E+00 0. -1.
        994    1    1    2    0    0  0.30700954163E+02  0.23331306323E+01  0.58007944321E+01  0.17404333168E+03  0.17120000000E+03 0.  0.
        998    1    1    2    0    0 -0.11953951098E+02 -0.74222549561E+01  0.14294974655E+04  0.14296016895E+04  0.10000000000E+02 0. -1.
</event>
<event>
 5    1  0.1688215E-008  0.3841328E+03  0.7957747E-01  0.3433359E+00
         13   -1    0    0    0    0  0.00000000000E+00  0.00000000000E+00  0.14999999963E+04  0.15000000000E+04  0.10566000000E+00 0.  1.
        994   -1    0    0    0    0 -0.00000000000E+00 -0.00000000000E+00  0.11368683772E-12  0.17120000000E+03  0.17120000000E+03 0.  0.
         13    1    1    2    0    0  0.51038899422E+01  0.16850499560E+02  0.72991846674E+02  0.75085350588E+02  0.10566000000E+00 0.  1.
        994    1    1    2    0    0 -0.46755754710E+01 -0.14784048619E+02  0.28546262276E+01  0.17192445431E+03  0.17120000000E+03 0.  0.
        998    1    1    2    0    0 -0.42831447126E+00 -0.20664509402E+01  0.14241535234E+04  0.14241901951E+04  0.10000000000E+02 0.  1.
</event>
<event>
 5    1  0.1688215E-008  0.3833495E+03  0.7957747E-01  0.3436702E+00
         13   -1    0    0    0    0  0.00000000000E+00  0.00000000000E+00  0.14999999963E+04  0.15000000000E+04  0.10566000000E+00 0. -1.
        994   -1    0    0    0    0 -0.00000000000E+00 -0.00000000000E+00  0.11368683772E-12  0.17120000000E+03  0.17120000000E+03 0.  0.
         13    1    1    2    0    0 -0.48408635363E+01 -0.13078619191E+02  0.38651786407E+02  0.41090826181E+02  0.10566000000E+00 0. -1.
        994    1    1    2    0    0  0.42487437470E+01  0.10275535204E+02  0.28606937948E+01  0.17158456229E+03  0.17120000000E+03 0.  0.
        998    1    1    2    0    0  0.59211978930E+00  0.28030839875E+01  0.14584875161E+04  0.14585246115E+04  0.10000000000E+02 0. -1.
</event>
<event>
 5    1  0.1688215E-008  0.3826152E+03  0.7957747E-01  0.3439850E+00
         13   -1    0    0    0    0  0.00000000000E+00  0.00000000000E+00  0.14999999963E+04  0.15000000000E+04  0.10566000000E+00 0. -1.
        994   -1    0    0    0    0 -0.00000000000E+00 -0.00000000000E+00  0.11368683772E-12  0.17120000000E+03  0.17120000000E+03 0.  0.
         13    1    1    2    0    0 -0.19339749474E+00  0.28352281738E+02  0.13038085205E+03  0.13342813432E+03  0.10566000000E+00 0. -1.
        994    1    1    2    0    0 -0.13334650686E+02 -0.29466038770E+02  0.62934508179E+01  0.17434192804E+03  0.17120000000E+03 0.  0.
        998    1    1    2    0    0  0.13528048180E+02  0.11137570327E+01  0.13633256934E+04  0.13634299376E+04  0.10000000000E+02 0. -1.
</event>
<event>
 5    1  0.1688215E-008  0.3811223E+03  0.7957747E-01  0.3446286E+00
         13   -1    0    0    0    0  0.00000000000E+00  0.00000000000E+00  0.14999999963E+04  0.15000000000E+04  0.10566000000E+00 0. -1.
        994   -1    0    0    0    0 -0.00000000000E+00 -0.00000000000E+00  0.11368683772E-12  0.17120000000E+03  0.17120000000E+03 0.  0.
         13    1    1    2    0    0  0.11087962745E+02 -0.88160949108E+01  0.27196824039E+02  0.30665042787E+02  0.10566000000E+00 0. -1.
        994    1    1    2    0    0 -0.17700763705E+01  0.44404687938E+01  0.36437929530E+01  0.17130548199E+03  0.17120000000E+03 0.  0.
        998    1    1    2    0    0 -0.93178863747E+01  0.43756261170E+01  0.14691593793E+04  0.14692294752E+04  0.10000000000E+02 0. -1.
</event>
<event>
 5    1  0.1688215E-008  0.3847191E+03  0.7957747E-01  0.3430865E+00
         13   -1    0    0    0    0  0.00000000000E+00  0.00000000000E+00  0.14999999963E+04  0.15000000000E+04  0.10566000000E+00 0. -1.
        994   -1    0    0    0    0 -0.00000000000E+00 -0.00000000000E+00  0.11368683772E-12  0.17120000000E+03  0.17120000000E+03 0.  0.
         13    1    1    2    0    0 -0.28591331053E+01 -0.18359085068E+02  0.10666965586E+03  0.10827583891E+03  0.10566000000E+00 0. -1.
        994    1    1    2    0    0  0.11803728876E+02 -0.11737197832E+01  0.22329710797E+01  0.17162497427E+03  0.17120000000E+03 0.  0.
        998    1    1    2    0    0 -0.89445957711E+01  0.19532804851E+02  0.13910973693E+04  0.13912991868E+04  0.10000000000E+02 0. -1.
</event>
<event>
 5    1  0.1688215E-008  0.3745633E+03  0.7957747E-01  0.3475178E+00
         13   -1    0    0    0    0  0.00000000000E+00  0.00000000000E+00  0.14999999963E+04  0.15000000000E+04  0.10566000000E+00 0. -1.
        994   -1    0    0    0    0 -0.00000000000E+00 -0.00000000000E+00  0.11368683772E-12  0.17120000000E+03  0.17120000000E+03 0.  0.
         13    1    1    2    0    0 -0.43848473789E+02  0.34134331621E+02  0.10934305670E+03  0.12265299206E+03  0.10566000000E+00 0. -1.
        994    1    1    2    0    0  0.21405275488E+02 -0.37567593264E+02  0.20044078878E+02  0.17770963671E+03  0.17120000000E+03 0.  0.
        998    1    1    2    0    0  0.22443198301E+02  0.34332616431E+01  0.13706128607E+04  0.13708373712E+04  0.10000000000E+02 0. -1.
</event>
<event>
 5    1  0.1688215E-008  0.3753370E+03  0.7957747E-01  0.3471717E+00
         13   -1    0    0    0    0  0.00000000000E+00  0.00000000000E+00  0.14999999963E+04  0.15000000000E+04  0.10566000000E+00 0.  1.
        994   -1    0    0    0    0 -0.00000000000E+00 -0.00000000000E+00  0.11368683772E-12  0.17120000000E+03  0.17120000000E+03 0.  0.
         13    1    1    2    0    0  0.22213802182E+01 -0.15023212090E+02  0.21430256269E+01  0.15337377691E+02  0.10566000000E+00 0.  1.
        994    1    1    2    0    0 -0.43219924332E+01  0.62124016378E+01  0.13993247940E+02  0.17193756001E+03  0.17120000000E+03 0.  0.
        998    1    1    2    0    0  0.21006122150E+01  0.88108104522E+01  0.14838637227E+04  0.14839250623E+04  0.10000000000E+02 0.  1.
</event>
<event>
 5    1  0.1688215E-008  0.3827751E+03  0.7957747E-01  0.3439163E+00
         13   -1    0    0    0    0  0.00000000000E+00  0.00000000000E+00  0.14999999963E+04  0.15000000000E+04  0.10566000000E+00 0.  1.
        994   -1    0    0    0    0 -0.00000000000E+00 -0.00000000000E+00  0.11368683772E-12  0.17120000000E+03  0.17120000000E+03 0.  0.
         13    1    1    2    0    0  0.14819029141E+02 -0.13756515856E+02  0.78863767839E+02  0.81414681692E+02  0.10566000000E+00 0.  1.
        994    1    1    2    0    0 -0.45343322109E+01 -0.34597600461E+01  0.28465647078E+01  0.17131863016E+03  0.17120000000E+03 0.  0.
        998    1    1    2    0    0 -0.10284696930E+02  0.17216275902E+02  0.14182896637E+04  0.14184666882E+04  0.10000000000E+02 0.  1.
</event>
<event>
 5    1  0.1688215E-008  0.3845689E+03  0.7957747E-01  0.3431502E+00
         13   -1    0    0    0    0  0.00000000000E+00  0.00000000000E+00  0.14999999963E+04  0.15000000000E+04  0.10566000000E+00 0. -1.
        994   -1    0    0    0    0 -0.00000000000E+00 -0.00000000000E+00  0.11368683772E-12  0.17120000000E+03  0.17120000000E+03 0.  0.
         13    1    1    2    0    0 -0.99895785976E+01 -0.20789003546E+01  0.27312967348E+02  0.29156866372E+02  0.10566000000E+00 0. -1.
        994    1    1    2    0    0  0.11142396897E+02  0.25255265862E+01  0.22742918881E+01  0.17159587319E+03  0.17120000000E+03 0.  0.
        998    1    1    2    0    0 -0.11528182999E+01 -0.44662623165E+00  0.14704127370E+04  0.14704472604E+04  0.10000000000E+02 0. -1.
</event>
<event>
 5    1  0.1688215E-008  0.3834863E+03  0.7957747E-01  0.3436118E+00
         13   -1    0    0    0    0  0.00000000000E+00  0.00000000000E+00  0.14999999963E+04  0.15000000000E+04  0.10566000000E+00 0. -1.
        994   -1    0    0    0    0 -0.00000000000E+00 -0.00000000000E+00  0.11368683772E-12  0.17120000000E+03  0.17120000000E+03 0.  0.
         13    1    1    2    0    0  0.15511455998E+02 -0.20667049567E+01  0.54166640751E+02  0.56381846997E+02  0.10566000000E+00 0. -1.
        994    1    1    2    0    0  0.48231412612E+00 -0.17239658828E+02  0.33671487643E+01  0.17209943682E+03  0.17120000000E+03 0.  0.
        998    1    1    2    0    0 -0.15993770124E+02  0.19306363784E+02  0.14424662068E+04  0.14427187162E+04  0.10000000000E+02 0. -1.
</event>
<event>
 5    1  0.1688215E-008  0.3843940E+03  0.7957747E-01  0.3432246E+00
         13   -1    0    0    0    0  0.00000000000E+00  0.00000000000E+00  0.14999999963E+04  0.15000000000E+04  0.10566000000E+00 0. -1.
        994   -1    0    0    0    0 -0.00000000000E+00 -0.00000000000E+00  0.11368683772E-12  0.17120000000E+03  0.17120000000E+03 0.  0.
         13    1    1    2    0    0 -0.41758650953E+01 -0.12617127652E+02  0.48387269466E+02  0.50179365977E+02  0.10566000000E+00 0. -1.
        994    1    1    2    0    0 -0.10650930559E+02 -0.15725813775E+00  0.23052784225E+01  0.17154655741E+03  0.17120000000E+03 0.  0.
        998    1    1    2    0    0  0.14826795654E+02  0.12774385790E+02  0.14493074484E+04  0.14494740766E+04  0.10000000000E+02 0. -1.
</event>
<event>
 5    1  0.1688215E-008  0.3778111E+03  0.7957747E-01  0.3460745E+00
         13   -1    0    0    0    0  0.00000000000E+00  0.00000000000E+00  0.14999999963E+04  0.15000000000E+04  0.10566000000E+00 0. -1.
        994   -1    0    0    0    0 -0.00000000000E+00 -0.00000000000E+00  0.11368683772E-12  0.17120000000E+03  0.17120000000E+03 0.  0.
         13    1    1    2    0    0 -0.15981727582E+02 -0.33441629661E+01  0.24746920562E+02  0.29648276236E+02  0.10566000000E+00 0. -1.
        994    1    1    2    0    0 -0.35416202266E+01 -0.47024897705E+02  0.12767503266E+02  0.17803464050E+03  0.17120000000E+03 0.  0.
        998    1    1    2    0    0  0.19523347808E+02  0.50369060671E+02  0.14624855725E+04  0.14635170833E+04  0.10000000000E+02 0. -1.
</event>
<event>
 5    1  0.1688215E-008  0.3729939E+03  0.7957747E-01  0.3482244E+00
         13   -1    0    0    0    0  0.00000000000E+00  0.00000000000E+00  0.14999999963E+04  0.15000000000E+04  0.10566000000E+00 0. -1.
        994   -1    0    0    0    0 -0.00000000000E+00 -0.00000000000E+00  0.11368683772E-12  0.17120000000E+03  0.17120000000E+03 0.  0.
         13    1    1    2    0    0 -0.54120067159E+01 -0.58985583183E+02  0.26880696261E+03  0.27525585035E+03  0.10566000000E+00 0. -1.
        994    1    1    2    0    0  0.24172833324E+01  0.78321375075E+01  0.79425128790E+01  0.17158003715E+03  0.17120000000E+03 0.  0.
        998    1    1    2    0    0  0.29947233835E+01  0.51153445675E+02  0.12232505208E+04  0.12243641125E+04  0.10000000000E+02 0. -1.
</event>
<event>
 5    1  0.1688215E-008  0.3798093E+03  0.7957747E-01  0.3451989E+00
         13   -1    0    0    0    0  0.00000000000E+00  0.00000000000E+00  0.14999999963E+04  0.15000000000E+04  0.10566000000E+00 0. -1.
        994   -1    0    0    0    0 -0.00000000000E+00 -0.00000000000E+00  0.11368683772E-12  0.17120000000E+03  0.17120000000E+03 0.  0.
         13    1    1    2    0    0  0.24293726172E+02  0.48294008051E+02  0.31848660123E+03  0.32304213761E+03  0.10566000000E+00 0. -1.
        994    1    1    2    0    0 -0.12088366525E+02 -0.37513086540E+02  0.94430378119E+01  0.17593172321E+03  0.17120000000E+03 0.  0.
        998    1    1    2    0    0 -0.12205359647E+02 -0.10780921512E+02  0.11720703572E+04  0.11722261392E+04  0.10000000000E+02 0. -1.
</event>
<event>
 5    1  0.1688215E-008  0.3803802E+03  0.7957747E-01  0.3449505E+00
         13   -1    0    0    0    0  0.00000000000E+00  0.00000000000E+00  0.14999999963E+04  0.15000000000E+04  0.10566000000E+00 0.  1.
        994   -1    0    0    0    0 -0.00000000000E+00 -0.00000000000E+00  0.11368683772E-12  0.17120000000E+03  0.17120000000E+03 0.  0.
         13    1    1    2    0    0 -0.23394268869E+02 -0.36560983072E+02  0.21967368602E+03  0.22392082706E+03  0.10566000000E+00 0.  1.
        994    1    1    2    0    0  0.73171656329E+01  0.37164356153E+02  0.87463946392E+01  0.17555816615E+03  0.17120000000E+03 0.  0.
        998    1    1    2    0    0  0.16077103236E+02 -0.60337308093E+00  0.12715799156E+04  0.12717210068E+04  0.10000000000E+02 0.  1.
</event>
<event>
 5    1  0.1688215E-008  0.3720522E+03  0.7957747E-01  0.3486512E+00
         13   -1    0    0    0    0  0.00000000000E+00  0.00000000000E+00  0.14999999963E+04  0.15000000000E+04  0.10566000000E+00 0. -1.
        994   -1    0    0    0    0 -0.00000000000E+00 -0.00000000000E+00  0.11368683772E-12  0.17120000000E+03  0.17120000000E+03 0.  0.
         13    1    1    2    0    0 -0.67340832489E+02 -0.17858677226E+02  0.41988847333E+03  0.42562901837E+03  0.10566000000E+00 0. -1.
        994    1    1    2    0    0  0.33613320597E+01 -0.92785517958E+01  0.85347908195E+01  0.17169645521E+03  0.17120000000E+03 0.  0.
        998    1    1    2    0    0  0.63979500430E+02  0.27137229021E+02  0.10715767321E+04  0.10738745264E+04  0.10000000000E+02 0. -1.
</event>
<event>
 5    1  0.1688215E-008  0.3798111E+03  0.7957747E-01  0.3451981E+00
         13   -1    0    0    0    0  0.00000000000E+00  0.00000000000E+00  0.14999999963E+04  0.15000000000E+04  0.10566000000E+00 0.  1.
        994   -1    0    0    0    0 -0.00000000000E+00 -0.00000000000E+00  0.11368683772E-12  0.17120000000E+03  0.17120000000E+03 0.  0.
         13    1    1    2    0    0 -0.46282540431E+02  0.30420188910E+02  0.31689195341E+03  0.32169548138E+03  0.10566000000E+00 0.  1.
        994    1    1    2    0    0  0.38617501628E+02 -0.24042396241E+02  0.11181762119E+02  0.17749315495E+03  0.17120000000E+03 0.  0.
        998    1    1    2    0    0  0.76650388025E+01 -0.63777926691E+01  0.11719262808E+04  0.11720113637E+04  0.10000000000E+02 0.  0.
</event>
<event>
 5    1  0.1688215E-008  0.3788295E+03  0.7957747E-01  0.3456271E+00
         13   -1    0    0    0    0  0.00000000000E+00  0.00000000000E+00  0.14999999963E+04  0.15000000000E+04  0.10566000000E+00 0. -1.
        994   -1    0    0    0    0 -0.00000000000E+00 -0.00000000000E+00  0.11368683772E-12  0.17120000000E+03  0.17120000000E+03 0.  0.
         13    1    1    2    0    0 -0.49121779208E+02  0.50842496543E+02  0.39904875592E+03  0.40526266719E+03  0.10566000000E+00 0. -1.
        994    1    1    2    0    0  0.49411861497E+02 -0.46773073778E+02  0.20420791622E+02  0.18535290993E+03  0.17120000000E+03 0.  0.
        998    1    1    2    0    0 -0.29008228894E+00 -0.40694227657E+01  0.10805304487E+04  0.10805844229E+04  0.10000000000E+02 0.  0.
</event>
<event>
 5    1  0.1688215E-008  0.3755956E+03  0.7957747E-01  0.3470563E+00
         13   -1    0    0    0    0  0.00000000000E+00  0.00000000000E+00  0.14999999963E+04  0.15000000000E+04  0.10566000000E+00 0.  1.
        994   -1    0    0    0    0 -0.00000000000E+00 -0.00000000000E+00  0.11368683772E-12  0.17120000000E+03  0.17120000000E+03 0.  0.
         13    1    1    2    0    0 -0.16209665209E+01 -0.50162341290E+02  0.85032507365E+02  0.98739184162E+02  0.10566000000E+00 0.  1.
        994    1    1    2    0    0  0.21758543236E+02  0.34567627531E+02  0.19901706528E+02  0.17712671453E+03  0.17120000000E+03 0.  0.
        998    1    1    2    0    0 -0.20137576715E+02  0.15594713759E+02  0.13950657824E+04  0.13953341013E+04  0.10000000000E+02 0.  1.
</event>
<event>
 5    1  0.1688215E-008  0.3756862E+03  0.7957747E-01  0.3470160E+00
         13   -1    0    0    0    0  0.00000000000E+00  0.00000000000E+00  0.14999999963E+04  0.15000000000E+04  0.10566000000E+00 0. -1.
        994   -1    0    0    0    0 -0.00000000000E+00 -0.00000000000E+00  0.11368683772E-12  0.17120000000E+03  0.17120000000E+03 0.  0.
         13    1    1    2    0    0  0.12914765080E+02 -0.13522170476E+00  0.10260568912E+02  0.16495450294E+02  0.10566000000E+00 0. -1.
        994    1    1    2    0    0 -0.12959174365E+02  0.25777154554E+01  0.69190846036E+01  0.17184847555E+03  0.17120000000E+03 0.  0.
        998    1    1    2    0    0  0.44409285558E-01 -0.24424937507E+01  0.14828203428E+04  0.14828560742E+04  0.10000000000E+02 0. -1.
</event>
<event>
 5    1  0.1688215E-008  0.3841363E+03  0.7957747E-01  0.3433343E+00
         13   -1    0    0    0    0  0.00000000000E+00  0.00000000000E+00  0.14999999963E+04  0.15000000000E+04  0.10566000000E+00 0. -1.
        994   -1    0    0    0    0 -0.00000000000E+00 -0.00000000000E+00  0.11368683772E-12  0.17120000000E+03  0.17120000000E+03 0.  0.
         13    1    1    2    0    0 -0.13367429392E+02 -0.62510313649E+01  0.54700042742E+02  0.56655709348E+02  0.10566000000E+00 0. -1.
        994    1    1    2    0    0  0.28610824569E+01 -0.18007239653E+01  0.20972248684E+01  0.17124621675E+03  0.17120000000E+03 0.  0.
        998    1    1    2    0    0  0.10506346935E+02  0.80517553302E+01  0.14432027287E+04  0.14432980739E+04  0.10000000000E+02 0. -1.
</event>
<event>
 5    1  0.1688215E-008  0.3851628E+03  0.7957747E-01  0.3428982E+00
         13   -1    0    0    0    0  0.00000000000E+00  0.00000000000E+00  0.14999999963E+04  0.15000000000E+04  0.10566000000E+00 0. -1.
        994   -1    0    0    0    0 -0.00000000000E+00 -0.00000000000E+00  0.11368683772E-12  0.17120000000E+03  0.17120000000E+03 0.  0.
         13    1    1    2    0    0  0.11411288811E+02  0.48337037751E+01  0.51955923674E+02  0.53413587909E+02  0.10566000000E+00 0. -1.
        994    1    1    2    0    0  0.16388819894E+01 -0.48417088540E+01  0.16351954012E+01  0.17128409717E+03  0.17120000000E+03 0.  0.
        998    1    1    2    0    0 -0.13050170800E+02  0.80050788365E-02  0.14464088772E+04  0.14465023149E+04  0.10000000000E+02 0. -1.
</event>
<event>
 5    1  0.1688215E-008  0.3773269E+03  0.7957747E-01  0.3462881E+00
         13   -1    0    0    0    0  0.00000000000E+00  0.00000000000E+00  0.14999999963E+04  0.15000000000E+04  0.10566000000E+00 0. -1.
        994   -1    0    0    0    0 -0.00000000000E+00 -0.00000000000E+00  0.11368683772E-12  0.17120000000E+03  0.17120000000E+03 0.  0.
         13    1    1    2    0    0 -0.39816074967E+01 -0.16302439124E+02  0.25583764274E+02  0.30596778885E+02  0.10566000000E+00 0. -1.
        994    1    1    2    0    0 -0.22438004691E+02 -0.18073385891E+02  0.82934459127E+01  0.17380544461E+03  0.17120000000E+03 0.  0.
        998    1    1    2    0    0  0.26419612188E+02  0.34375825015E+02  0.14661227861E+04  0.14667977765E+04  0.10000000000E+02 0. -1.
</event>
<event>
 5    1  0.1688215E-008  0.3840065E+03  0.7957747E-01  0.3433897E+00
         13   -1    0    0    0    0  0.00000000000E+00  0.00000000000E+00  0.14999999963E+04  0.15000000000E+04  0.10566000000E+00 0. -1.
        994   -1    0    0    0    0 -0.00000000000E+00 -0.00000000000E+00  0.11368683772E-12  0.17120000000E+03  0.17120000000E+03 0.  0.
         13    1    1    2    0    0 -0.92525199997E+01 -0.10787077029E+02  0.47695498577E+02  0.49767880261E+02  0.10566000000E+00 0. -1.
        994    1    1    2    0    0  0.42120138569E+01  0.52277901095E+01  0.22729342342E+01  0.17134665763E+03  0.17120000000E+03 0.  0.
        998    1    1    2    0    0  0.50405061428E+01  0.55592869193E+01  0.14500315635E+04  0.14500854621E+04  0.10000000000E+02 0. -1.
</event>
<event>
 5    1  0.1688215E-008  0.3778855E+03  0.7957747E-01  0.3460418E+00
         13   -1    0    0    0    0  0.00000000000E+00  0.00000000000E+00  0.14999999963E+04  0.15000000000E+04  0.10566000000E+00 0. -1.
        994   -1    0    0    0    0 -0.00000000000E+00 -0.00000000000E+00  0.11368683772E-12  0.17120000000E+03  0.17120000000E+03 0.  0.
         13    1    1    2    0    0  0.64458321675E+01  0.32768306936E+02  0.11114131466E+03  0.11605047902E+03  0.10566000000E+00 0. -1.
        994    1    1    2    0    0 -0.20965830378E+01 -0.90664894725E+01  0.54959562269E+01  0.17154078940E+03  0.17120000000E+03 0.  0.
        998    1    1    2    0    0 -0.43492491297E+01 -0.23701817463E+02  0.13833627254E+04  0.13836087316E+04  0.10000000000E+02 0. -1.
</event>
<event>
 5    1  0.1688215E-008  0.3831336E+03  0.7957747E-01  0.3437627E+00
         13   -1    0    0    0    0  0.00000000000E+00  0.00000000000E+00  0.14999999963E+04  0.15000000000E+04  0.10566000000E+00 0. -1.
        994   -1    0    0    0    0 -0.00000000000E+00 -0.00000000000E+00  0.11368683772E-12  0.17120000000E+03  0.17120000000E+03 0.  0.
         13    1    1    2    0    0  0.16511262401E+02  0.48166007610E+01  0.57154657781E+02  0.59686577210E+02  0.10566000000E+00 0. -1.
        994    1    1    2    0    0 -0.97993301730E+01 -0.52357526475E+01  0.29681539135E+01  0.17158580919E+03  0.17120000000E+03 0.  0.
        998    1    1    2    0    0 -0.67119322277E+01  0.41915188643E+00  0.14398771846E+04  0.14399276136E+04  0.10000000000E+02 0. -1.
</event>
<event>
 5    1  0.1688215E-008  0.3849749E+03  0.7957747E-01  0.3429779E+00
         13   -1    0    0    0    0  0.00000000000E+00  0.00000000000E+00  0.14999999963E+04  0.15000000000E+04  0.10566000000E+00 0.  1.
        994   -1    0    0    0    0 -0.00000000000E+00 -0.00000000000E+00  0.11368683772E-12  0.17120000000E+03  0.17120000000E+03 0.  0.
         13    1    1    2    0    0 -0.15750182077E+03  0.18160503469E+03  0.11554751207E+04  0.11802160726E+04  0.10566000000E+00 0.  1.
        994    1    1    2    0    0  0.15556917338E+03 -0.19024388081E+03  0.23512671653E+03  0.38077357408E+03  0.17120000000E+03 0.  0.
        998    1    1    2    0    0  0.19326473887E+01  0.86388461182E+01  0.10939815903E+03  0.11021035336E+03  0.10000000000E+02 0.  0.
</event>
<event>
 5    1  0.1688215E-008  0.3704111E+03  0.7957747E-01  0.3494004E+00
         13   -1    0    0    0    0  0.00000000000E+00  0.00000000000E+00  0.14999999963E+04  0.15000000000E+04  0.10566000000E+00 0. -1.
        994   -1    0    0    0    0 -0.00000000000E+00 -0.00000000000E+00  0.11368683772E-12  0.17120000000E+03  0.17120000000E+03 0.  0.
         13    1    1    2    0    0 -0.12066992633E+02  0.63542536919E+02  0.20163248867E+03  0.21175206720E+03  0.10566000000E+00 0. -1.
        994    1    1    2    0    0 -0.15459993343E+01 -0.62971125963E+02  0.22881342006E+02  0.18384979911E+03  0.17120000000E+03 0.  0.
        998    1    1    2    0    0  0.13612991967E+02 -0.57141095657E+00  0.12754861656E+04  0.12755981337E+04  0.10000000000E+02 0. -1.
</event>
<event>
 5    1  0.1688215E-008  0.3849329E+03  0.7957747E-01  0.3429957E+00
         13   -1    0    0    0    0  0.00000000000E+00  0.00000000000E+00  0.14999999963E+04  0.15000000000E+04  0.10566000000E+00 0.  1.
        994   -1    0    0    0    0 -0.00000000000E+00 -0.00000000000E+00  0.11368683772E-12  0.17120000000E+03  0.17120000000E+03 0.  0.
         13    1    1    2    0    0  0.15081544939E+02  0.10966355839E+02  0.99677252024E+02  0.10140650715E+03  0.10566000000E+00 0.  1.
        994    1    1    2    0    0 -0.15744176407E+02 -0.90366157912E+01  0.27481999963E+01  0.17218168346E+03  0.17120000000E+03 0.  0.
        998    1    1    2    0    0  0.66263146810E+00 -0.19297400476E+01  0.13975745443E+04  0.13976118094E+04  0.10000000000E+02 0.  0.
</event>
<event>
 5    1  0.1688215E-008  0.3709982E+03  0.7957747E-01  0.3491316E+00
         13   -1    0    0    0    0  0.00000000000E+00  0.00000000000E+00  0.14999999963E+04  0.15000000000E+04  0.10566000000E+00 0. -1.
        994   -1    0    0    0    0 -0.00000000000E+00 -0.00000000000E+00  0.11368683772E-12  0.17120000000E+03  0.17120000000E+03 0.  0.
         13    1    1    2    0    0 -0.81648240125E+01 -0.74916169912E+01  0.25665315186E+01  0.11374837334E+02  0.10566000000E+00 0. -1.
        994    1    1    2    0    0  0.21004524879E+02  0.40841614113E+02  0.16051440067E+02  0.17797841509E+03  0.17120000000E+03 0.  0.
        998    1    1    2    0    0 -0.12839700867E+02 -0.33349997122E+02  0.14813820247E+04  0.14818467476E+04  0.10000000000E+02 0. -1.
</event>
<event>
 5    1  0.1688215E-008  0.3751652E+03  0.7957747E-01  0.3472484E+00
         13   -1    0    0    0    0  0.00000000000E+00  0.00000000000E+00  0.14999999963E+04  0.15000000000E+04  0.10566000000E+00 0.  1.
        994   -1    0    0    0    0 -0.00000000000E+00 -0.00000000000E+00  0.11368683772E-12  0.17120000000E+03  0.17120000000E+03 0.  0.
         13    1    1    2    0    0 -0.12833727982E+02 -0.25794099744E+02  0.58171056184E+02  0.64914737133E+02  0.10566000000E+00 0.  1.
        994    1    1    2    0    0  0.12653291546E+02  0.27114809000E+02  0.96416092877E+01  0.17406240055E+03  0.17120000000E+03 0.  0.
        998    1    1    2    0    0  0.18043643636E+00 -0.13207092559E+01  0.14321873308E+04  0.14322228623E+04  0.10000000000E+02 0.  0.
</event>
<event>
 5    1  0.1688215E-008  0.3826721E+03  0.7957747E-01  0.3439605E+00
         13   -1    0    0    0    0  0.00000000000E+00  0.00000000000E+00  0.14999999963E+04  0.15000000000E+04  0.10566000000E+00 0.  1.
        994   -1    0    0    0    0 -0.00000000000E+00 -0.00000000000E+00  0.11368683772E-12  0.17120000000E+03  0.17120000000E+03 0.  0.
         13    1    1    2    0    0 -0.13835201000E+02 -0.32586836754E+01  0.35027401711E+02  0.37801611614E+02  0.10566000000E+00 0.  1.
        994    1    1    2    0    0  0.11337951808E+02  0.13220532016E+01  0.32221986086E+01  0.17161037131E+03  0.17120000000E+03 0.  0.
        998    1    1    2    0    0  0.24972491920E+01  0.19366304737E+01  0.14617503960E+04  0.14617880171E+04  0.10000000000E+02 0.  1.
</event>
<event>
 5    1  0.1688215E-008  0.3848109E+03  0.7957747E-01  0.3430475E+00
         13   -1    0    0    0    0  0.00000000000E+00  0.00000000000E+00  0.14999999963E+04  0.15000000000E+04  0.10566000000E+00 0. -1.
        994   -1    0    0    0    0 -0.00000000000E+00 -0.00000000000E+00  0.11368683772E-12  0.17120000000E+03  0.17120000000E+03 0.  0.
         13    1    1    2    0    0 -0.89769154890E+01  0.10393110358E+02  0.53681533184E+02  0.55410467635E+02  0.10566000000E+00 0. -1.
        994    1    1    2    0    0  0.95795154948E+01 -0.76821901313E+01  0.22203919300E+01  0.17165416774E+03  0.17120000000E+03 0.  0.
        998    1    1    2    0    0 -0.60260000579E+00 -0.27109202267E+01  0.14440980712E+04  0.14441353646E+04  0.10000000000E+02 0. -1.
</event>
<event>
 5    1  0.1688215E-008  0.3804947E+03  0.7957747E-01  0.3449007E+00
         13   -1    0    0    0    0  0.00000000000E+00  0.00000000000E+00  0.14999999963E+04  0.15000000000E+04  0.10566000000E+00 0.  1.
        994   -1    0    0    0    0 -0.00000000000E+00 -0.00000000000E+00  0.11368683772E-12  0.17120000000E+03  0.17120000000E+03 0.  0.
         13    1    1    2    0    0 -0.79509757205E+02  0.65505383480E+02  0.23622635410E+03  0.25771235572E+03  0.10566000000E+00 0.  1.
        994    1    1    2    0    0  0.94083776130E+02 -0.79972350633E+02  0.74277198798E+02  0.22377192866E+03  0.17120000000E+03 0.  0.
        998    1    1    2    0    0 -0.14574018926E+02  0.14466967153E+02  0.11894964434E+04  0.11897157156E+04  0.10000000000E+02 0.  1.
</event>
<event>
 5    1  0.1688215E-008  0.3717634E+03  0.7957747E-01  0.3487825E+00
         13   -1    0    0    0    0  0.00000000000E+00  0.00000000000E+00  0.14999999963E+04  0.15000000000E+04  0.10566000000E+00 0.  1.
        994   -1    0    0    0    0 -0.00000000000E+00 -0.00000000000E+00  0.11368683772E-12  0.17120000000E+03  0.17120000000E+03 0.  0.
         13    1    1    2    0    0 -0.63973898850E+02 -0.10609213529E+03  0.57696109336E+03  0.59011212097E+03  0.10566000000E+00 0.  1.
        994    1    1    2    0    0  0.64776122256E+02  0.98934473646E+02  0.58057548389E+02  0.21601873765E+03  0.17120000000E+03 0.  0.
        998    1    1    2    0    0 -0.80222340539E+00  0.71576616412E+01  0.86498135453E+03  0.86506914138E+03  0.10000000000E+02 0.  0.
</event>
<event>
 5    1  0.1749927E-008  0.3862665E+03  0.7957747E-01  0.3424319E+00
         13   -1    0    0    0    0  0.00000000000E+00  0.00000000000E+00  0.14999999963E+04  0.15000000000E+04  0.10566000000E+00 0.  1.
        994   -1    0    0    0    0 -0.00000000000E+00 -0.00000000000E+00  0.11368683772E-12  0.17120000000E+03  0.17120000000E+03 0.  0.
         13    1    1    2    0    0 -0.10503155193E+02  0.34654443241E+00  0.54271310659E+02  0.55279496079E+02  0.10566000000E+00 0.  1.
        994    1    1    2    0    0  0.11612728112E+02  0.56657089575E+01  0.15496490172E+01  0.17169390532E+03  0.17120000000E+03 0.  0.
        998    1    1    2    0    0 -0.11095729187E+01 -0.60122533899E+01  0.14441790366E+04  0.14442265986E+04  0.10000000000E+02 0.  1.
</event>
<event>
 5    1  0.1688215E-008  0.3853955E+03  0.7957747E-01  0.3427996E+00
         13   -1    0    0    0    0  0.00000000000E+00  0.00000000000E+00  0.14999999963E+04  0.15000000000E+04  0.10566000000E+00 0.  1.
        994   -1    0    0    0    0 -0.00000000000E+00 -0.00000000000E+00  0.11368683772E-12  0.17120000000E+03  0.17120000000E+03 0.  0.
         13    1    1    2    0    0 -0.12635828795E+02 -0.57701975976E+01  0.67901867421E+02  0.69308254292E+02  0.10566000000E+00 0.  1.
        994    1    1    2    0    0  0.92102652744E+01  0.15917499856E+00  0.17126419521E+01  0.17145619693E+03  0.17120000000E+03 0.  0.
        998    1    1    2    0    0  0.34255635210E+01  0.56110225990E+01  0.14303854869E+04  0.14304355488E+04  0.10000000000E+02 0.  1.
</event>
<event>
 5    1  0.1688215E-008  0.3838648E+03  0.7957747E-01  0.3434501E+00
         13   -1    0    0    0    0  0.00000000000E+00  0.00000000000E+00  0.14999999963E+04  0.15000000000E+04  0.10566000000E+00 0.  1.
        994   -1    0    0    0    0 -0.00000000000E+00 -0.00000000000E+00  0.11368683772E-12  0.17120000000E+03  0.17120000000E+03 0.  0.
         13    1    1    2    0    0  0.82043002830E+00 -0.19490572088E+02  0.93824459927E+02  0.95831080295E+02  0.10566000000E+00 0.  1.
        994    1    1    2    0    0  0.25885561669E+01 -0.97246536334E-01  0.22169490060E+01  0.17123394799E+03  0.17120000000E+03 0.  0.
        998    1    1    2    0    0 -0.34089861952E+01  0.19587818624E+02  0.14039585873E+04  0.14041349717E+04  0.10000000000E+02 0.  1.
</event>
<event>
 5    1  0.1688215E-008  0.3865697E+03  0.7957747E-01  0.3423042E+00
         13   -1    0    0    0    0  0.00000000000E+00  0.00000000000E+00  0.14999999963E+04  0.15000000000E+04  0.10566000000E+00 0. -1.
        994   -1    0    0    0    0 -0.00000000000E+00 -0.00000000000E+00  0.11368683772E-12  0.17120000000E+03  0.17120000000E+03 0.  0.
         13    1    1    2    0    0 -0.66982550256E+01 -0.10051467290E+03  0.39038692762E+03  0.40317493784E+03  0.10566000000E+00 0. -1.
        994    1    1    2    0    0 -0.14690292173E+02 -0.13222458428E+02  0.21435629814E+02  0.17366509239E+03  0.17120000000E+03 0.  0.
        998    1    1    2    0    0  0.21388547199E+02  0.11373713133E+03  0.10881774388E+04  0.10943599698E+04  0.10000000000E+02 0. -1.
</event>
<event>
 5    1  0.1688215E-008  0.3844199E+03  0.7957747E-01  0.3432136E+00
         13   -1    0    0    0    0  0.00000000000E+00  0.00000000000E+00  0.14999999963E+04  0.15000000000E+04  0.10566000000E+00 0.  1.
        994   -1    0    0    0    0 -0.00000000000E+00 -0.00000000000E+00  0.11368683772E-12  0.17120000000E+03  0.17120000000E+03 0.  0.
         13    1    1    2    0    0 -0.61469458006E+01  0.18153481845E+02  0.89917267952E+02  0.91937261683E+02  0.10566000000E+00 0.  1.
        994    1    1    2    0    0  0.76363532798E+01 -0.19591712780E+02  0.33765938007E+01  0.17251953654E+03  0.17120000000E+03 0.  0.
        998    1    1    2    0    0 -0.14894074792E+01  0.14382309355E+01  0.14067061345E+04  0.14067432018E+04  0.10000000000E+02 0.  1.
</event>
<event>
 5    1  0.1688215E-008  0.3770594E+03  0.7957747E-01  0.3464064E+00
         13   -1    0    0    0    0  0.00000000000E+00  0.00000000000E+00  0.14999999963E+04  0.15000000000E+04  0.10566000000E+00 0. -1.
        994   -1    0    0    0    0 -0.00000000000E+00 -0.00000000000E+00  0.11368683772E-12  0.17120000000E+03  0.17120000000E+03 0.  0.
         13    1    1    2    0    0 -0.20113112440E+02  0.62774960818E+01  0.45095196799E+02  0.49774814790E+02  0.10566000000E+00 0. -1.
        994    1    1    2    0    0 -0.45881964460E+02  0.61715417724E+01  0.12894488674E+02  0.17781718260E+03  0.17120000000E+03 0.  0.
        998    1    1    2    0    0  0.65995076900E+02 -0.12449037854E+02  0.14420103108E+04  0.14436080026E+04  0.10000000000E+02 0. -1.
</event>
<event>
 5    1  0.2588094E-008  0.3864600E+03  0.7957747E-01  0.3423504E+00
         13   -1    0    0    0    0  0.00000000000E+00  0.00000000000E+00  0.14999999963E+04  0.15000000000E+04  0.10566000000E+00 0. -1.
        994   -1    0    0    0    0 -0.00000000000E+00 -0.00000000000E+00  0.11368683772E-12  0.17120000000E+03  0.17120000000E+03 0.  0.
         13    1    1    2    0    0 -0.89222721963E+01  0.51355097711E+01  0.56411003489E+02  0.57342766592E+02  0.10566000000E+00 0. -1.
        994    1    1    2    0    0  0.14560201671E+02 -0.30904398809E+01  0.16324927394E+01  0.17185358688E+03  0.17120000000E+03 0.  0.
        998    1    1    2    0    0 -0.56379294745E+01 -0.20450698902E+01  0.14419565001E+04  0.14420036465E+04  0.10000000000E+02 0. -1.
</event>
<event>
 5    1  0.1688215E-008  0.3803942E+03  0.7957747E-01  0.3449444E+00
         13   -1    0    0    0    0  0.00000000000E+00  0.00000000000E+00  0.14999999963E+04  0.15000000000E+04  0.10566000000E+00 0. -1.
        994   -1    0    0    0    0 -0.00000000000E+00 -0.00000000000E+00  0.11368683772E-12  0.17120000000E+03  0.17120000000E+03 0.  0.
         13    1    1    2    0    0  0.20528430206E+02 -0.30444894275E+02  0.21343208335E+03  0.21656771089E+03  0.10566000000E+00 0. -1.
        994    1    1    2    0    0  0.31573980030E+01 -0.57480278493E+01  0.40778881172E+01  0.17137408835E+03  0.17120000000E+03 0.  0.
        998    1    1    2    0    0 -0.23685828209E+02  0.36192922125E+02  0.12824900248E+04  0.12832582008E+04  0.10000000000E+02 0. -1.
</event>
<event>
 5    1  0.1688215E-008  0.3746312E+03  0.7957747E-01  0.3474874E+00
         13   -1    0    0    0    0  0.00000000000E+00  0.00000000000E+00  0.14999999963E+04  0.15000000000E+04  0.10566000000E+00 0.  1.
        994   -1    0    0    0    0 -0.00000000000E+00 -0.00000000000E+00  0.11368683772E-12  0.17120000000E+03  0.17120000000E+03 0.  0.
         13    1    1    2    0    0 -0.17075102034E+02  0.25338699767E+02  0.74061811343E+02  0.80117238338E+02  0.10566000000E+00 0.  1.
        994    1    1    2    0    0 -0.27055547525E+02 -0.10214307887E+01  0.93671505595E+01  0.17358061379E+03  0.17120000000E+03 0.  0.
        998    1    1    2    0    0  0.44130649560E+02 -0.24317268978E+02  0.14165710344E+04  0.14175021479E+04  0.10000000000E+02 0.  1.
</event>
<event>
 5    1  0.1688215E-008  0.3817090E+03  0.7957747E-01  0.3443751E+00
         13   -1    0    0    0    0  0.00000000000E+00  0.00000000000E+00  0.14999999963E+04  0.15000000000E+04  0.10566000000E+00 0.  1.
        994   -1    0    0    0    0 -0.00000000000E+00 -0.00000000000E+00  0.11368683772E-12  0.17120000000E+03  0.17120000000E+03 0.  0.
         13    1    1    2    0    0 -0.13251045301E+02  0.89749006418E+01  0.38778357461E+02  0.41951295743E+02  0.10566000000E+00 0.  1.
        994    1    1    2    0    0  0.20000181440E+01 -0.57429524707E+01  0.33958561873E+01  0.17134162779E+03  0.17120000000E+03 0.  0.
        998    1    1    2    0    0  0.11251027157E+02 -0.32319481711E+01  0.14578257826E+04  0.14579070765E+04  0.10000000000E+02 0.  1.
</event>
<event>
 5    1  0.1688215E-008  0.3846844E+03  0.7957747E-01  0.3431012E+00
         13   -1    0    0    0    0  0.00000000000E+00  0.00000000000E+00  0.14999999963E+04  0.15000000000E+04  0.10566000000E+00 0.  1.
        994   -1    0    0    0    0 -0.00000000000E+00 -0.00000000000E+00  0.11368683772E-12  0.17120000000E+03  0.17120000000E+03 0.  0.
         13    1    1    2    0    0  0.20253023681E+01 -0.14585679675E+02  0.61147464478E+02  0.62895687272E+02  0.10566000000E+00 0.  1.
        994    1    1    2    0    0  0.15178524180E+01  0.82520102207E+01  0.20187151448E+01  0.17141737006E+03  0.17120000000E+03 0.  0.
        998    1    1    2    0    0 -0.35431547861E+01  0.63336694542E+01  0.14368338167E+04  0.14368869427E+04  0.10000000000E+02 0.  1.
</event>
<event>
 5    1  0.1688215E-008  0.3744395E+03  0.7957747E-01  0.3475733E+00
         13   -1    0    0    0    0  0.00000000000E+00  0.00000000000E+00  0.14999999963E+04  0.15000000000E+04  0.10566000000E+00 0. -1.
        994   -1    0    0    0    0 -0.00000000000E+00 -0.00000000000E+00  0.11368683772E-12  0.17120000000E+03  0.17120000000E+03 0.  0.
         13    1    1    2    0    0  0.14703997402E+02  0.76212956914E+02  0.19861194292E+03  0.21324009327E+03  0.10566000000E+00 0. -1.
        994    1    1    2    0    0 -0.17392775894E+02 -0.69631527508E+02  0.31832318018E+02  0.18834488245E+03  0.17120000000E+03 0.  0.
        998    1    1    2    0    0  0.26887784919E+01 -0.65814294059E+01  0.12695557353E+04  0.12696150243E+04  0.10000000000E+02 0. -1.
</event>
<event>
 5    1  0.1688215E-008  0.2974302E+03  0.7957747E-01  0.3914537E+00
         13   -1    0    0    0    0  0.00000000000E+00  0.00000000000E+00  0.14999999963E+04  0.15000000000E+04  0.10566000000E+00 0.  1.
        994   -1    0    0    0    0 -0.00000000000E+00 -0.00000000000E+00  0.11368683772E-12  0.17120000000E+03  0.17120000000E+03 0.  0.
         13    1    1    2    0    0  0.15213152428E+03  0.10556179788E+03  0.72195041787E+03  0.74531852981E+03  0.10566000000E+00 0.  1.
        994    1    1    2    0    0 -0.74196452392E+02 -0.10673233390E+03  0.89471134205E+02  0.23283347805E+03  0.17120000000E+03 0.  0.
        998    1    1    2    0    0 -0.77935071884E+02  0.11705360207E+01  0.68857844420E+03  0.69304799214E+03  0.10000000000E+02 0.  1.
</event>
<event>
 5    1  0.1688215E-008  0.3760265E+03  0.7957747E-01  0.3468645E+00
         13   -1    0    0    0    0  0.00000000000E+00  0.00000000000E+00  0.14999999963E+04  0.15000000000E+04  0.10566000000E+00 0.  1.
        994   -1    0    0    0    0 -0.00000000000E+00 -0.00000000000E+00  0.11368683772E-12  0.17120000000E+03  0.17120000000E+03 0.  0.
         13    1    1    2    0    0 -0.65536736692E+01 -0.12300188117E+02  0.12902056166E+02  0.18992616556E+02  0.10566000000E+00 0.  1.
        994    1    1    2    0    0  0.81665729462E+01  0.13175671621E+02  0.69669512890E+01  0.17204147653E+03  0.17120000000E+03 0.  0.
        998    1    1    2    0    0 -0.16128992770E+01 -0.87548350323E+00  0.14801309888E+04  0.14801659069E+04  0.10000000000E+02 0.  1.
</event>
<event>
 5    1  0.1688215E-008  0.3847763E+03  0.7957747E-01  0.3430622E+00
         13   -1    0    0    0    0  0.00000000000E+00  0.00000000000E+00  0.14999999963E+04  0.15000000000E+04  0.10566000000E+00 0. -1.
        994   -1    0    0    0    0 -0.00000000000E+00 -0.00000000000E+00  0.11368683772E-12  0.17120000000E+03  0.17120000000E+03 0.  0.
         13    1    1    2    0    0  0.30061389056E+01  0.13199563929E+02  0.45556417071E+02  0.47525400150E+02  0.10566000000E+00 0. -1.
        994    1    1    2    0    0  0.93722038150E+01 -0.40132028921E+02  0.73509070587E+01  0.17624384751E+03  0.17120000000E+03 0.  0.
        998    1    1    2    0    0 -0.12378342721E+02  0.26932464992E+02  0.14470926721E+04  0.14474307523E+04  0.10000000000E+02 0. -1.
</event>
<event>
 5    1  0.1974918E-008  0.3860272E+03  0.7957747E-01  0.3425327E+00
         13   -1    0    0    0    0  0.00000000000E+00  0.00000000000E+00  0.14999999963E+04  0.15000000000E+04  0.10566000000E+00 0.  1.
        994   -1    0    0    0    0 -0.00000000000E+00 -0.00000000000E+00  0.11368683772E-12  0.17120000000E+03  0.17120000000E+03 0.  0.
         13    1    1    2    0    0  0.10465223979E+02  0.16993742315E+01  0.53782378409E+02  0.54817553549E+02  0.10566000000E+00 0.  1.
        994    1    1    2    0    0  0.18253716720E+01 -0.40475780495E+01  0.11856190187E+01  0.17126167278E+03  0.17120000000E+03 0.  0.
        998    1    1    2    0    0 -0.12290595651E+02  0.23482038180E+01  0.14450319989E+04  0.14451207737E+04  0.10000000000E+02 0.  1.
</event>
<event>
 5    1  0.1688215E-008  0.3836892E+03  0.7957747E-01  0.3435250E+00
         13   -1    0    0    0    0  0.00000000000E+00  0.00000000000E+00  0.14999999963E+04  0.15000000000E+04  0.10566000000E+00 0. -1.
        994   -1    0    0    0    0 -0.00000000000E+00 -0.00000000000E+00  0.11368683772E-12  0.17120000000E+03  0.17120000000E+03 0.  0.
         13    1    1    2    0    0 -0.19036473216E+01 -0.18978971016E+02  0.88154953937E+02  0.90194968161E+02  0.10566000000E+00 0. -1.
        994    1    1    2    0    0 -0.26897733270E+00 -0.45941142501E+01  0.23522578423E+01  0.17127799436E+03  0.17120000000E+03 0.  0.
        998    1    1    2    0    0  0.21726246543E+01  0.23573085266E+02  0.14094927845E+04  0.14097270375E+04  0.10000000000E+02 0. -1.
</event>
<event>
 5    1  0.1688215E-008  0.3808154E+03  0.7957747E-01  0.3447616E+00
         13   -1    0    0    0    0  0.00000000000E+00  0.00000000000E+00  0.14999999963E+04  0.15000000000E+04  0.10566000000E+00 0. -1.
        994   -1    0    0    0    0 -0.00000000000E+00 -0.00000000000E+00  0.11368683772E-12  0.17120000000E+03  0.17120000000E+03 0.  0.
         13    1    1    2    0    0  0.28766572417E+02 -0.38633484444E+01  0.11128145856E+03  0.11500441441E+03  0.10566000000E+00 0. -1.
        994    1    1    2    0    0 -0.18995324262E+02 -0.21277895018E+01  0.49411223075E+01  0.17233457146E+03  0.17120000000E+03 0.  0.
        998    1    1    2    0    0 -0.97712481556E+01  0.59911379462E+01  0.13837774154E+04  0.13838610141E+04  0.10000000000E+02 0. -1.
</event>
<event>
 5    1  0.1688215E-008  0.3809489E+03  0.7957747E-01  0.3447037E+00
         13   -1    0    0    0    0  0.00000000000E+00  0.00000000000E+00  0.14999999963E+04  0.15000000000E+04  0.10566000000E+00 0.  1.
        994   -1    0    0    0    0 -0.00000000000E+00 -0.00000000000E+00  0.11368683772E-12  0.17120000000E+03  0.17120000000E+03 0.  0.
         13    1    1    2    0    0  0.18609495838E+02 -0.15890670491E+01  0.44904340289E+02  0.48633829894E+02  0.10566000000E+00 0.  1.
        994    1    1    2    0    0 -0.21795306423E+02 -0.88460971414E+01  0.55009274672E+01  0.17289589070E+03  0.17120000000E+03 0.  0.
        998    1    1    2    0    0  0.31858105851E+01  0.10435164190E+02  0.14495947285E+04  0.14496702794E+04  0.10000000000E+02 0.  1.
</event>
<event>
 5    1  0.1688215E-008  0.3771487E+03  0.7957747E-01  0.3463668E+00
         13   -1    0    0    0    0  0.00000000000E+00  0.00000000000E+00  0.14999999963E+04  0.15000000000E+04  0.10566000000E+00 0.  1.
        994   -1    0    0    0    0 -0.00000000000E+00 -0.00000000000E+00  0.11368683772E-12  0.17120000000E+03  0.17120000000E+03 0.  0.
         13    1    1    2    0    0 -0.11274874541E+02 -0.26216543850E+01  0.94786472025E+01  0.14961677194E+02  0.10566000000E+00 0.  1.
        994    1    1    2    0    0  0.90756543711E+01  0.20272096977E+01  0.58713286073E+01  0.17155287692E+03  0.17120000000E+03 0.  0.
        998    1    1    2    0    0  0.21992201703E+01  0.59444468734E+00  0.14846500205E+04  0.14846854459E+04  0.10000000000E+02 0.  1.
</event>
<event>
 5    1  0.1688215E-008  0.3792661E+03  0.7957747E-01  0.3454360E+00
         13   -1    0    0    0    0  0.00000000000E+00  0.00000000000E+00  0.14999999963E+04  0.15000000000E+04  0.10566000000E+00 0. -1.
        994   -1    0    0    0    0 -0.00000000000E+00 -0.00000000000E+00  0.11368683772E-12  0.17120000000E+03  0.17120000000E+03 0.  0.
         13    1    1    2    0    0 -0.14556975519E+02  0.14775393131E+02  0.45528730060E+02  0.50030932465E+02  0.10566000000E+00 0. -1.
        994    1    1    2    0    0  0.34140906338E+01 -0.20268794128E+02  0.59210842411E+01  0.17253109653E+03  0.17120000000E+03 0.  0.
        998    1    1    2    0    0  0.11142884885E+02  0.54934009970E+01  0.14485501820E+04  0.14486379710E+04  0.10000000000E+02 0. -1.
</event>
<event>
 5    1  0.1688215E-008  0.3834949E+03  0.7957747E-01  0.3436080E+00
         13   -1    0    0    0    0  0.00000000000E+00  0.00000000000E+00  0.14999999963E+04  0.15000000000E+04  0.10566000000E+00 0. -1.
        994   -1    0    0    0    0 -0.00000000000E+00 -0.00000000000E+00  0.11368683772E-12  0.17120000000E+03  0.17120000000E+03 0.  0.
         13    1    1    2    0    0  0.20762574011E+02  0.98960165048E+01  0.10272362736E+03  0.10526713829E+03  0.10566000000E+00 0. -1.
        994    1    1    2    0    0 -0.22955709856E+02 -0.10882959097E+02  0.45150413201E+01  0.17313355831E+03  0.17120000000E+03 0.  0.
        998    1    1    2    0    0  0.21931358450E+01  0.98694259224E+00  0.13927613276E+04  0.13927993034E+04  0.10000000000E+02 0. -1.
</event>
<event>
 5    1  0.1688215E-008  0.3816944E+03  0.7957747E-01  0.3443814E+00
         13   -1    0    0    0    0  0.00000000000E+00  0.00000000000E+00  0.14999999963E+04  0.15000000000E+04  0.10566000000E+00 0. -1.
        994   -1    0    0    0    0 -0.00000000000E+00 -0.00000000000E+00  0.11368683772E-12  0.17120000000E+03  0.17120000000E+03 0.  0.
         13    1    1    2    0    0 -0.31786039482E+01  0.96683481642E+01  0.14037659614E+02  0.17339190602E+02  0.10566000000E+00 0. -1.
        994    1    1    2    0    0  0.40732722884E+01 -0.17104534080E+02  0.43086723171E+01  0.17215446927E+03  0.17120000000E+03 0.  0.
        998    1    1    2    0    0 -0.89466834028E+00  0.74361859157E+01  0.14816536643E+04  0.14817063401E+04  0.10000000000E+02 0. -1.
</event>
<event>
 5    1  0.1688215E-008  0.3754195E+03  0.7957747E-01  0.3471349E+00
         13   -1    0    0    0    0  0.00000000000E+00  0.00000000000E+00  0.14999999963E+04  0.15000000000E+04  0.10566000000E+00 0.  1.
        994   -1    0    0    0    0 -0.00000000000E+00 -0.00000000000E+00  0.11368683772E-12  0.17120000000E+03  0.17120000000E+03 0.  0.
         13    1    1    2    0    0 -0.29006874171E+01  0.26576173672E+02  0.46192570336E+02  0.53371075619E+02  0.10566000000E+00 0.  1.
        994    1    1    2    0    0  0.63939993865E+01 -0.59412693908E+02  0.18681998091E+02  0.18228880514E+03  0.17120000000E+03 0.  0.
        998    1    1    2    0    0 -0.34933119694E+01  0.32836520236E+02  0.14351254279E+04  0.14355401192E+04  0.10000000000E+02 0.  1.
</event>
<event>
 5    1  0.1688215E-008  0.3824159E+03  0.7957747E-01  0.3440706E+00
         13   -1    0    0    0    0  0.00000000000E+00  0.00000000000E+00  0.14999999963E+04  0.15000000000E+04  0.10566000000E+00 0.  1.
        994   -1    0    0    0    0 -0.00000000000E+00 -0.00000000000E+00  0.11368683772E-12  0.17120000000E+03  0.17120000000E+03 0.  0.
         13    1    1    2    0    0 -0.56480397626E+01 -0.16391812226E+02  0.47152013499E+02  0.50238584796E+02  0.10566000000E+00 0.  1.
        994    1    1    2    0    0 -0.10480880134E+02  0.33404434357E+02  0.69941825327E+01  0.17488299995E+03  0.17120000000E+03 0.  0.
        998    1    1    2    0    0  0.16128919896E+02 -0.17012622131E+02  0.14458538002E+04  0.14460784153E+04  0.10000000000E+02 0.  1.
</event>
<event>
 5    1  0.1688215E-008  0.3713666E+03  0.7957747E-01  0.3489634E+00
         13   -1    0    0    0    0  0.00000000000E+00  0.00000000000E+00  0.14999999963E+04  0.15000000000E+04  0.10566000000E+00 0.  1.
        994   -1    0    0    0    0 -0.00000000000E+00 -0.00000000000E+00  0.11368683772E-12  0.17120000000E+03  0.17120000000E+03 0.  0.
         13    1    1    2    0    0 -0.27444828438E+02 -0.63387938524E+00  0.43765090824E+02  0.51662508165E+02  0.10566000000E+00 0.  1.
        994    1    1    2    0    0 -0.81678616707E+01  0.77512255660E+01  0.89929860786E+01  0.17180544014E+03  0.17120000000E+03 0.  0.
        998    1    1    2    0    0  0.35612690109E+02 -0.71173461808E+01  0.14472419194E+04  0.14477320517E+04  0.10000000000E+02 0.  1.
</event>
<event>
 5    1  0.1688215E-008  0.3755385E+03  0.7957747E-01  0.3470818E+00
         13   -1    0    0    0    0  0.00000000000E+00  0.00000000000E+00  0.14999999963E+04  0.15000000000E+04  0.10566000000E+00 0.  1.
        994   -1    0    0    0    0 -0.00000000000E+00 -0.00000000000E+00  0.11368683772E-12  0.17120000000E+03  0.17120000000E+03 0.  0.
         13    1    1    2    0    0 -0.10297485856E+02 -0.19536674440E+02  0.35237672982E+02  0.41586351419E+02  0.10566000000E+00 0.  1.
        994    1    1    2    0    0  0.71227156844E+01  0.16092738163E+02  0.74540058772E+01  0.17226349440E+03  0.17120000000E+03 0.  0.
        998    1    1    2    0    0  0.31747701718E+01  0.34439362774E+01  0.14573083174E+04  0.14573501542E+04  0.10000000000E+02 0.  1.
</event>
<event>
 5    1  0.1688215E-008  0.3783215E+03  0.7957747E-01  0.3458500E+00
         13   -1    0    0    0    0  0.00000000000E+00  0.00000000000E+00  0.14999999963E+04  0.15000000000E+04  0.10566000000E+00 0. -1.
        994   -1    0    0    0    0 -0.00000000000E+00 -0.00000000000E+00  0.11368683772E-12  0.17120000000E+03  0.17120000000E+03 0.  0.
         13    1    1    2    0    0 -0.41010744829E+02 -0.62147937256E+02  0.41163156120E+03  0.41831184615E+03  0.10566000000E+00 0. -1.
        994    1    1    2    0    0  0.50885364933E+02  0.53445392054E+02  0.23512872422E+02  0.18790429869E+03  0.17120000000E+03 0.  0.
        998    1    1    2    0    0 -0.98746201042E+01  0.87025452013E+01  0.10648555627E+04  0.10649838552E+04  0.10000000000E+02 0. -1.
</event>
<event>
 5    1  0.1688215E-008  0.3840228E+03  0.7957747E-01  0.3433827E+00
         13   -1    0    0    0    0  0.00000000000E+00  0.00000000000E+00  0.14999999963E+04  0.15000000000E+04  0.10566000000E+00 0.  1.
        994   -1    0    0    0    0 -0.00000000000E+00 -0.00000000000E+00  0.11368683772E-12  0.17120000000E+03  0.17120000000E+03 0.  0.
         13    1    1    2    0    0  0.55790801526E+01  0.97697682689E+01  0.29534566378E+02  0.31605004075E+02  0.10566000000E+00 0.  1.
        994    1    1    2    0    0 -0.86236296444E+01 -0.18069685093E+01  0.23722345655E+01  0.17144299233E+03  0.17120000000E+03 0.  0.
        998    1    1    2    0    0  0.30445494917E+01 -0.79627997597E+01  0.14680931953E+04  0.14681520036E+04  0.10000000000E+02 0.  1.
</event>
<event>
 5    1  0.1688215E-008  0.3734562E+03  0.7957747E-01  0.3480156E+00
         13   -1    0    0    0    0  0.00000000000E+00  0.00000000000E+00  0.14999999963E+04  0.15000000000E+04  0.10566000000E+00 0.  1.
        994   -1    0    0    0    0 -0.00000000000E+00 -0.00000000000E+00  0.11368683772E-12  0.17120000000E+03  0.17120000000E+03 0.  0.
         13    1    1    2    0    0  0.41405693458E+02 -0.40551541271E+01  0.10916021054E+03  0.11681968351E+03  0.10566000000E+00 0.  1.
        994    1    1    2    0    0 -0.34385637221E+02 -0.20410634401E+01  0.11538833000E+02  0.17501177862E+03  0.17120000000E+03 0.  0.
        998    1    1    2    0    0 -0.70200562376E+01  0.60962175672E+01  0.13793009527E+04  0.13793685379E+04  0.10000000000E+02 0.  1.
</event>
<event>
 5    1  0.1688215E-008  0.3774299E+03  0.7957747E-01  0.3462426E+00
         13   -1    0    0    0    0  0.00000000000E+00  0.00000000000E+00  0.14999999963E+04  0.15000000000E+04  0.10566000000E+00 0. -1.
        994   -1    0    0    0    0 -0.00000000000E+00 -0.00000000000E+00  0.11368683772E-12  0.17120000000E+03  0.17120000000E+03 0.  0.
         13    1    1    2    0    0  0.18311890878E+02 -0.28012358895E+01  0.29337924503E+02  0.34697222486E+02  0.10566000000E+00 0. -1.
        994    1    1    2    0    0 -0.12385157441E+02  0.27024970791E+01  0.59781645536E+01  0.17177273959E+03  0.17120000000E+03 0.  0.
        998    1    1    2    0    0 -0.59267334367E+01  0.98738810411E-01  0.14646839072E+04  0.14647300379E+04  0.10000000000E+02 0. -1.
</event>
<event>
 5    1  0.1688215E-008  0.4586063E+03  0.7957747E-01  0.3167134E+00
         13   -1    0    0    0    0  0.00000000000E+00  0.00000000000E+00  0.14999999963E+04  0.15000000000E+04  0.10566000000E+00 0. -1.
        994   -1    0    0    0    0 -0.00000000000E+00 -0.00000000000E+00  0.11368683772E-12  0.17120000000E+03  0.17120000000E+03 0.  0.
         13    1    1    2    0    0 -0.11189038379E+02  0.41593602066E+02 -0.11188206465E+02  0.44501791431E+02  0.10566000000E+00 0. -1.
        994    1    1    2    0    0 -0.12708843274E+02 -0.24995524457E+02  0.73054986571E+02  0.18823592113E+03  0.17120000000E+03 0.  0.
        998    1    1    2    0    0  0.23897881653E+02 -0.16598077609E+02  0.14381332162E+04  0.14384622874E+04  0.10000000000E+02 0. -1.
</event>
<event>
 5    1  0.1688215E-008  0.3834617E+03  0.7957747E-01  0.3436223E+00
         13   -1    0    0    0    0  0.00000000000E+00  0.00000000000E+00  0.14999999963E+04  0.15000000000E+04  0.10566000000E+00 0. -1.
        994   -1    0    0    0    0 -0.00000000000E+00 -0.00000000000E+00  0.11368683772E-12  0.17120000000E+03  0.17120000000E+03 0.  0.
         13    1    1    2    0    0  0.93973190246E+01 -0.10111320936E+02  0.41792190741E+02  0.44013029740E+02  0.10566000000E+00 0. -1.
        994    1    1    2    0    0  0.20904840463E+01 -0.64377366322E+01  0.25472608624E+01  0.17135268634E+03  0.17120000000E+03 0.  0.
        998    1    1    2    0    0 -0.11487803071E+02  0.16549057568E+02  0.14556605447E+04  0.14558342839E+04  0.10000000000E+02 0. -1.
</event>
<event>
 5    1  0.1688215E-008  0.3773134E+03  0.7957747E-01  0.3462940E+00
         13   -1    0    0    0    0  0.00000000000E+00  0.00000000000E+00  0.14999999963E+04  0.15000000000E+04  0.10566000000E+00 0. -1.
        994   -1    0    0    0    0 -0.00000000000E+00 -0.00000000000E+00  0.11368683772E-12  0.17120000000E+03  0.17120000000E+03 0.  0.
         13    1    1    2    0    0  0.18579390723E+02 -0.37338889368E+02  0.52345580204E+02  0.66928748306E+02  0.10566000000E+00 0. -1.
        994    1    1    2    0    0 -0.11248357379E+02  0.32259031372E+02  0.19058782171E+02  0.17561277808E+03  0.17120000000E+03 0.  0.
        998    1    1    2    0    0 -0.73310333445E+01  0.50798579953E+01  0.14285956339E+04  0.14286584736E+04  0.10000000000E+02 0. -1.
</event>
<event>
 5    1  0.1688215E-008  0.4085585E+03  0.7957747E-01  0.3335516E+00
         13   -1    0    0    0    0  0.00000000000E+00  0.00000000000E+00  0.14999999963E+04  0.15000000000E+04  0.10566000000E+00 0.  1.
        994   -1    0    0    0    0 -0.00000000000E+00 -0.00000000000E+00  0.11368683772E-12  0.17120000000E+03  0.17120000000E+03 0.  0.
         13    1    1    2    0    0 -0.10837463790E+02  0.35464147792E+02  0.73163877551E+01  0.37798109659E+02  0.10566000000E+00 0.  1.
        994    1    1    2    0    0  0.99607622906E+01 -0.38834101244E+02  0.39543606810E+02  0.18022330883E+03  0.17120000000E+03 0.  0.
        998    1    1    2    0    0  0.87670149900E+00  0.33699534521E+01  0.14531400017E+04  0.14531785815E+04  0.10000000000E+02 0.  1.
</event>
<event>
 5    1  0.1688215E-008  0.3787440E+03  0.7957747E-01  0.3456646E+00
         13   -1    0    0    0    0  0.00000000000E+00  0.00000000000E+00  0.14999999963E+04  0.15000000000E+04  0.10566000000E+00 0. -1.
        994   -1    0    0    0    0 -0.00000000000E+00 -0.00000000000E+00  0.11368683772E-12  0.17120000000E+03  0.17120000000E+03 0.  0.
         13    1    1    2    0    0 -0.84491088235E+01  0.16964131384E+02  0.37215365748E+02  0.41763187203E+02  0.10566000000E+00 0. -1.
        994    1    1    2    0    0 -0.52969555815E+01 -0.29091907449E+01  0.48910963262E+01  0.17137643932E+03  0.17120000000E+03 0.  0.
        998    1    1    2    0    0  0.13746064405E+02 -0.14054940639E+02  0.14578935342E+04  0.14580603735E+04  0.10000000000E+02 0. -1.
</event>
<event>
 5    1  0.1688215E-008  0.3764264E+03  0.7957747E-01  0.3466868E+00
         13   -1    0    0    0    0  0.00000000000E+00  0.00000000000E+00  0.14999999963E+04  0.15000000000E+04  0.10566000000E+00 0. -1.
        994   -1    0    0    0    0 -0.00000000000E+00 -0.00000000000E+00  0.11368683772E-12  0.17120000000E+03  0.17120000000E+03 0.  0.
         13    1    1    2    0    0  0.72251516114E+02  0.43923132421E+02  0.50323375768E+03  0.51028790813E+03  0.10566000000E+00 0. -1.
        994    1    1    2    0    0 -0.60823019432E+02 -0.24935781575E+02  0.20709193857E+02  0.18455227879E+03  0.17120000000E+03 0.  0.
        998    1    1    2    0    0 -0.11428496682E+02 -0.18987350847E+02  0.97605704474E+03  0.97635981309E+03  0.10000000000E+02 0. -1.
</event>
<event>
 5    1  0.1688215E-008  0.3828758E+03  0.7957747E-01  0.3438732E+00
         13   -1    0    0    0    0  0.00000000000E+00  0.00000000000E+00  0.14999999963E+04  0.15000000000E+04  0.10566000000E+00 0.  1.
        994   -1    0    0    0    0 -0.00000000000E+00 -0.00000000000E+00  0.11368683772E-12  0.17120000000E+03  0.17120000000E+03 0.  0.
         13    1    1    2    0    0 -0.15920547543E+02  0.22610187104E+01  0.51070678732E+02  0.53542519831E+02  0.10566000000E+00 0.  1.
        994    1    1    2    0    0 -0.50896242310E+01  0.94289176171E+01  0.30687347897E+01  0.17156242565E+03  0.17120000000E+03 0.  0.
        998    1    1    2    0    0  0.21010171774E+02 -0.11689936327E+02  0.14458605828E+04  0.14460950545E+04  0.10000000000E+02 0.  1.
</event>
<event>
 5    1  0.1688215E-008  0.3796391E+03  0.7957747E-01  0.3452732E+00
         13   -1    0    0    0    0  0.00000000000E+00  0.00000000000E+00  0.14999999963E+04  0.15000000000E+04  0.10566000000E+00 0.  1.
        994   -1    0    0    0    0 -0.00000000000E+00 -0.00000000000E+00  0.11368683772E-12  0.17120000000E+03  0.17120000000E+03 0.  0.
         13    1    1    2    0    0 -0.14344414162E+02  0.30301822839E+02  0.12277467953E+03  0.12726977560E+03  0.10566000000E+00 0.  1.
        994    1    1    2    0    0  0.74331708986E+01 -0.28076744463E+02  0.71438927110E+01  0.17379306894E+03  0.17120000000E+03 0.  0.
        998    1    1    2    0    0  0.69112432633E+01 -0.22250783757E+01  0.13700814240E+04  0.13701371555E+04  0.10000000000E+02 0.  1.
</event>
<event>
 5    1  0.1688215E-008  0.3828811E+03  0.7957747E-01  0.3438709E+00
         13   -1    0    0    0    0  0.00000000000E+00  0.00000000000E+00  0.14999999963E+04  0.15000000000E+04  0.10566000000E+00 0.  1.
        994   -1    0    0    0    0 -0.00000000000E+00 -0.00000000000E+00  0.11368683772E-12  0.17120000000E+03  0.17120000000E+03 0.  0.
         13    1    1    2    0    0 -0.23334079582E+02  0.35924440689E+01  0.11267645288E+03  0.11512332137E+03  0.10566000000E+00 0.  1.
        994    1    1    2    0    0  0.37633840676E+01  0.14892659381E+02  0.34675179814E+01  0.17192270951E+03  0.17120000000E+03 0.  0.
        998    1    1    2    0    0  0.19570695515E+02 -0.18485103450E+02  0.13838560254E+04  0.13841539691E+04  0.10000000000E+02 0.  1.
</event>
<event>
 5    1  0.1688215E-008  0.3696254E+03  0.7957747E-01  0.3497614E+00
         13   -1    0    0    0    0  0.00000000000E+00  0.00000000000E+00  0.14999999963E+04  0.15000000000E+04  0.10566000000E+00 0.  1.
        994   -1    0    0    0    0 -0.00000000000E+00 -0.00000000000E+00  0.11368683772E-12  0.17120000000E+03  0.17120000000E+03 0.  0.
         13    1    1    2    0    0 -0.10808595342E+03  0.61673678569E+02  0.45886252705E+03  0.47543774129E+03  0.10566000000E+00 0.  1.
        994    1    1    2    0    0  0.10687452530E+03 -0.73887479449E+02  0.72241993250E+02  0.22673744588E+03  0.17120000000E+03 0.  0.
        998    1    1    2    0    0  0.12114281218E+01  0.12213800880E+02  0.96889547598E+03  0.96902481282E+03  0.10000000000E+02 0.  1.
</event>
<event>
 5    1  0.1688215E-008  0.3841542E+03  0.7957747E-01  0.3433267E+00
         13   -1    0    0    0    0  0.00000000000E+00  0.00000000000E+00  0.14999999963E+04  0.15000000000E+04  0.10566000000E+00 0.  1.
        994   -1    0    0    0    0 -0.00000000000E+00 -0.00000000000E+00  0.11368683772E-12  0.17120000000E+03  0.17120000000E+03 0.  0.
         13    1    1    2    0    0  0.95907530625E+01  0.47417620472E+01  0.28562431777E+02  0.30500664332E+02  0.10566000000E+00 0.  1.
        994    1    1    2    0    0 -0.18451888740E+01  0.12019850087E+02  0.25384393598E+01  0.17165012436E+03  0.17120000000E+03 0.  0.
        998    1    1    2    0    0 -0.77455641885E+01 -0.16761612135E+02  0.14688991251E+04  0.14690492113E+04  0.10000000000E+02 0.  1.
</event>
<event>
 5    1  0.1688215E-008  0.3813238E+03  0.7957747E-01  0.3445415E+00
         13   -1    0    0    0    0  0.00000000000E+00  0.00000000000E+00  0.14999999963E+04  0.15000000000E+04  0.10566000000E+00 0.  1.
        994   -1    0    0    0    0 -0.00000000000E+00 -0.00000000000E+00  0.11368683772E-12  0.17120000000E+03  0.17120000000E+03 0.  0.
         13    1    1    2    0    0  0.10917348359E+02 -0.15870531921E+02  0.55299287707E+02  0.58558386791E+02  0.10566000000E+00 0.  1.
        994    1    1    2    0    0  0.28144440454E+01  0.11408150034E+01  0.34971095713E+01  0.17126264137E+03  0.17120000000E+03 0.  0.
        998    1    1    2    0    0 -0.13731792405E+02  0.14729716918E+02  0.14412035990E+04  0.14413789718E+04  0.10000000000E+02 0.  1.
</event>
<event>
 5    1  0.1688215E-008  0.3844714E+03  0.7957747E-01  0.3431917E+00
         13   -1    0    0    0    0  0.00000000000E+00  0.00000000000E+00  0.14999999963E+04  0.15000000000E+04  0.10566000000E+00 0. -1.
        994   -1    0    0    0    0 -0.00000000000E+00 -0.00000000000E+00  0.11368683772E-12  0.17120000000E+03  0.17120000000E+03 0.  0.
         13    1    1    2    0    0  0.17472730493E+02  0.70012338343E+01  0.88738794995E+02  0.90713276246E+02  0.10566000000E+00 0. -1.
        994    1    1    2    0    0 -0.19540685936E+02 -0.35807051864E+01  0.31940275343E+01  0.17237836775E+03  0.17120000000E+03 0.  0.
        998    1    1    2    0    0  0.20679554423E+01 -0.34205286478E+01  0.14080671737E+04  0.14081083560E+04  0.10000000000E+02 0. -1.
</event>
<event>
 5    1  0.1688215E-008  0.3851296E+03  0.7957747E-01  0.3429123E+00
         13   -1    0    0    0    0  0.00000000000E+00  0.00000000000E+00  0.14999999963E+04  0.15000000000E+04  0.10566000000E+00 0.  1.
        994   -1    0    0    0    0 -0.00000000000E+00 -0.00000000000E+00  0.11368683772E-12  0.17120000000E+03  0.17120000000E+03 0.  0.
         13    1    1    2    0    0 -0.14269787869E+02 -0.20512667687E+01  0.70649792089E+02  0.72105747534E+02  0.10566000000E+00 0.  1.
        994    1    1    2    0    0 -0.53784499663E+00  0.78708940448E+01  0.17704537413E+01  0.17139082460E+03  0.17120000000E+03 0.  0.
        998    1    1    2    0    0  0.14807632866E+02 -0.58196272761E+01  0.14275797504E+04  0.14277034279E+04  0.10000000000E+02 0.  1.
</event>
<event>
 5    1  0.1688215E-008  0.3832450E+03  0.7957747E-01  0.3437150E+00
         13   -1    0    0    0    0  0.00000000000E+00  0.00000000000E+00  0.14999999963E+04  0.15000000000E+04  0.10566000000E+00 0.  1.
        994   -1    0    0    0    0 -0.00000000000E+00 -0.00000000000E+00  0.11368683772E-12  0.17120000000E+03  0.17120000000E+03 0.  0.
         13    1    1    2    0    0 -0.11727507732E+02  0.12652497706E+02  0.62235843754E+02  0.64582749613E+02  0.10566000000E+00 0.  1.
        994    1    1    2    0    0  0.23586835271E+01  0.22047326671E+01  0.25384685305E+01  0.17124925710E+03  0.17120000000E+03 0.  0.
        998    1    1    2    0    0  0.93688242052E+01 -0.14857230373E+02  0.14352256840E+04  0.14353679933E+04  0.10000000000E+02 0.  1.
</event>
<event>
 5    1  0.1688215E-008  0.3773689E+03  0.7957747E-01  0.3462695E+00
         13   -1    0    0    0    0  0.00000000000E+00  0.00000000000E+00  0.14999999963E+04  0.15000000000E+04  0.10566000000E+00 0. -1.
        994   -1    0    0    0    0 -0.00000000000E+00 -0.00000000000E+00  0.11368683772E-12  0.17120000000E+03  0.17120000000E+03 0.  0.
         13    1    1    2    0    0  0.25942130053E+02 -0.13852758463E+02  0.73774914616E+02  0.79420666198E+02  0.10566000000E+00 0. -1.
        994    1    1    2    0    0 -0.24311174329E+02  0.17092730960E+02  0.84513397063E+01  0.17396568567E+03  0.17120000000E+03 0.  0.
        998    1    1    2    0    0 -0.16309557239E+01 -0.32399724968E+01  0.14177737420E+04  0.14178136481E+04  0.10000000000E+02 0. -1.
</event>
<event>
 5    1  0.1688215E-008  0.3871907E+03  0.7957747E-01  0.3420434E+00
         13   -1    0    0    0    0  0.00000000000E+00  0.00000000000E+00  0.14999999963E+04  0.15000000000E+04  0.10566000000E+00 0.  1.
        994   -1    0    0    0    0 -0.00000000000E+00 -0.00000000000E+00  0.11368683772E-12  0.17120000000E+03  0.17120000000E+03 0.  0.
         13    1    1    2    0    0 -0.33794081099E+02  0.35392669015E+02  0.51965948562E+02  0.71380332805E+02  0.10566000000E+00 0.  1.
        994    1    1    2    0    0  0.10434730046E+02 -0.34983781261E+02  0.25310852845E+02  0.17686952200E+03  0.17120000000E+03 0.  0.
        998    1    1    2    0    0  0.23359351053E+02 -0.40888775448E+00  0.14227231949E+04  0.14229501452E+04  0.10000000000E+02 0.  1.
</event>
<event>
 5    1  0.1688215E-008  0.3729486E+03  0.7957747E-01  0.3482449E+00
         13   -1    0    0    0    0  0.00000000000E+00  0.00000000000E+00  0.14999999963E+04  0.15000000000E+04  0.10566000000E+00 0. -1.
        994   -1    0    0    0    0 -0.00000000000E+00 -0.00000000000E+00  0.11368683772E-12  0.17120000000E+03  0.17120000000E+03 0.  0.
         13    1    1    2    0    0  0.69640148412E+01 -0.23777281083E+02  0.36705469455E+02  0.44284977705E+02  0.10566000000E+00 0. -1.
        994    1    1    2    0    0 -0.15474452606E+02  0.11432676001E+02  0.90040067183E+01  0.17251283112E+03  0.17120000000E+03 0.  0.
        998    1    1    2    0    0  0.85104377649E+01  0.12344605082E+02  0.14542905201E+04  0.14544021912E+04  0.10000000000E+02 0. -1.
</event>
<event>
 5    1  0.1688215E-008  0.3735100E+03  0.7957747E-01  0.3479914E+00
         13   -1    0    0    0    0  0.00000000000E+00  0.00000000000E+00  0.14999999963E+04  0.15000000000E+04  0.10566000000E+00 0. -1.
        994   -1    0    0    0    0 -0.00000000000E+00 -0.00000000000E+00  0.11368683772E-12  0.17120000000E+03  0.17120000000E+03 0.  0.
         13    1    1    2    0    0 -0.47308689568E+02  0.10795157693E+02  0.13937911719E+03  0.14758454191E+03  0.10566000000E+00 0. -1.
        994    1    1    2    0    0  0.49526116716E+02 -0.18237125905E+02  0.17022373948E+02  0.17995730108E+03  0.17120000000E+03 0.  0.
        998    1    1    2    0    0 -0.22174271487E+01  0.74419682128E+01  0.13435985051E+04  0.13436581570E+04  0.10000000000E+02 0. -1.
</event>
<event>
 5    1  0.1688215E-008  0.3830975E+03  0.7957747E-01  0.3437781E+00
         13   -1    0    0    0    0  0.00000000000E+00  0.00000000000E+00  0.14999999963E+04  0.15000000000E+04  0.10566000000E+00 0.  1.
        994   -1    0    0    0    0 -0.00000000000E+00 -0.00000000000E+00  0.11368683772E-12  0.17120000000E+03  0.17120000000E+03 0.  0.
         13    1    1    2    0    0  0.13866193895E+02 -0.86961936962E+01  0.49751399831E+02  0.52374689184E+02  0.10566000000E+00 0.  1.
        994    1    1    2    0    0 -0.15969280133E+02  0.68332808963E+01  0.35766527102E+01  0.17211607734E+03  0.17120000000E+03 0.  0.
        998    1    1    2    0    0  0.21030862384E+01  0.18629127999E+01  0.14466719437E+04  0.14467092335E+04  0.10000000000E+02 0.  1.
</event>
<event>
 5    1  0.1688215E-008  0.3732455E+03  0.7957747E-01  0.3481107E+00
         13   -1    0    0    0    0  0.00000000000E+00  0.00000000000E+00  0.14999999963E+04  0.15000000000E+04  0.10566000000E+00 0. -1.
        994   -1    0    0    0    0 -0.00000000000E+00 -0.00000000000E+00  0.11368683772E-12  0.17120000000E+03  0.17120000000E+03 0.  0.
         13    1    1    2    0    0  0.32938398498E+02 -0.16600668505E+02  0.84906544594E+02  0.92572419053E+02  0.10566000000E+00 0. -1.
        994    1    1    2    0    0 -0.26186735454E+02  0.13655311021E+02  0.10570759552E+02  0.17404997440E+03  0.17120000000E+03 0.  0.
        998    1    1    2    0    0 -0.67516630443E+01  0.29453574831E+01  0.14045226921E+04  0.14045776065E+04  0.10000000000E+02 0. -1.
</event>
<event>
 5    1  0.1688215E-008  0.3861309E+03  0.7957747E-01  0.3424890E+00
         13   -1    0    0    0    0  0.00000000000E+00  0.00000000000E+00  0.14999999963E+04  0.15000000000E+04  0.10566000000E+00 0.  1.
        994   -1    0    0    0    0 -0.00000000000E+00 -0.00000000000E+00  0.11368683772E-12  0.17120000000E+03  0.17120000000E+03 0.  0.
         13    1    1    2    0    0  0.43340615895E+01 -0.11012151031E+02  0.66383200347E+02  0.67429904438E+02  0.10566000000E+00 0.  1.
        994    1    1    2    0    0  0.60035977286E+01  0.10978590822E+02  0.15828962533E+01  0.17166396885E+03  0.17120000000E+03 0.  0.
        998    1    1    2    0    0 -0.10337659318E+02  0.33560209678E-01  0.14320338997E+04  0.14321061267E+04  0.10000000000E+02 0.  1.
</event>
<event>
 5    1  0.1688215E-008  0.3840157E+03  0.7957747E-01  0.3433857E+00
         13   -1    0    0    0    0  0.00000000000E+00  0.00000000000E+00  0.14999999963E+04  0.15000000000E+04  0.10566000000E+00 0. -1.
        994   -1    0    0    0    0 -0.00000000000E+00 -0.00000000000E+00  0.11368683772E-12  0.17120000000E+03  0.17120000000E+03 0.  0.
         13    1    1    2    0    0  0.79527785149E+01  0.14310249338E+02  0.66713539116E+02  0.68693066518E+02  0.10566000000E+00 0. -1.
        994    1    1    2    0    0  0.50913062870E+01 -0.30310088242E+01  0.22354461566E+01  0.17131709090E+03  0.17120000000E+03 0.  0.
        998    1    1    2    0    0 -0.13044084802E+02 -0.11279240513E+02  0.14310510110E+04  0.14311898426E+04  0.10000000000E+02 0. -1.
</event>
<event>
 5    1  0.1688215E-008  0.3771016E+03  0.7957747E-01  0.3463877E+00
         13   -1    0    0    0    0  0.00000000000E+00  0.00000000000E+00  0.14999999963E+04  0.15000000000E+04  0.10566000000E+00 0. -1.
        994   -1    0    0    0    0 -0.00000000000E+00 -0.00000000000E+00  0.11368683772E-12  0.17120000000E+03  0.17120000000E+03 0.  0.
         13    1    1    2    0    0 -0.50513126903E+02 -0.37797867497E+02  0.28526718431E+03  0.29216028543E+03  0.10566000000E+00 0. -1.
        994    1    1    2    0    0  0.50543767814E+02  0.39060547127E+02  0.19502231082E+02  0.18376663414E+03  0.17120000000E+03 0.  0.
        998    1    1    2    0    0 -0.30640911129E-01 -0.12626796299E+01  0.11952305809E+04  0.11952730804E+04  0.10000000000E+02 0.  0.
</event>
<event>
 5    1  0.1688215E-008  0.3838426E+03  0.7957747E-01  0.3434596E+00
         13   -1    0    0    0    0  0.00000000000E+00  0.00000000000E+00  0.14999999963E+04  0.15000000000E+04  0.10566000000E+00 0. -1.
        994   -1    0    0    0    0 -0.00000000000E+00 -0.00000000000E+00  0.11368683772E-12  0.17120000000E+03  0.17120000000E+03 0.  0.
         13    1    1    2    0    0 -0.20314042707E+02  0.52686630823E+01  0.10887114688E+03  0.11087541174E+03  0.10566000000E+00 0. -1.
        994    1    1    2    0    0  0.11148418127E+01  0.23726749015E+01  0.22285389676E+01  0.17123457257E+03  0.17120000000E+03 0.  0.
        998    1    1    2    0    0  0.19199200895E+02 -0.76413379838E+01  0.13889003104E+04  0.13890900157E+04  0.10000000000E+02 0. -1.
</event>
<event>
 5    1  0.1688215E-008  0.3835426E+03  0.7957747E-01  0.3435877E+00
         13   -1    0    0    0    0  0.00000000000E+00  0.00000000000E+00  0.14999999963E+04  0.15000000000E+04  0.10566000000E+00 0. -1.
        994   -1    0    0    0    0 -0.00000000000E+00 -0.00000000000E+00  0.11368683772E-12  0.17120000000E+03  0.17120000000E+03 0.  0.
         13    1    1    2    0    0 -0.34840291331E+00 -0.10980071725E+02  0.24547247831E+02  0.26893528957E+02  0.10566000000E+00 0. -1.
        994    1    1    2    0    0  0.76327082855E+00  0.10984656378E+02  0.27561641606E+01  0.17157587738E+03  0.17120000000E+03 0.  0.
        998    1    1    2    0    0 -0.41486791524E+00 -0.45846527387E-02  0.14726965843E+04  0.14727305937E+04  0.10000000000E+02 0. -1.
</event>
<event>
 5    1  0.1688215E-008  0.3795193E+03  0.7957747E-01  0.3453254E+00
         13   -1    0    0    0    0  0.00000000000E+00  0.00000000000E+00  0.14999999963E+04  0.15000000000E+04  0.10566000000E+00 0. -1.
        994   -1    0    0    0    0 -0.00000000000E+00 -0.00000000000E+00  0.11368683772E-12  0.17120000000E+03  0.17120000000E+03 0.  0.
         13    1    1    2    0    0 -0.41263639505E+01  0.15510634699E+02  0.27289993402E+02  0.31660094317E+02  0.10566000000E+00 0. -1.
        994    1    1    2    0    0  0.60180644575E+01 -0.14602361786E+02  0.52116192991E+01  0.17200595061E+03  0.17120000000E+03 0.  0.
        998    1    1    2    0    0 -0.18917005071E+01 -0.90827291329E+00  0.14674983836E+04  0.14675339551E+04  0.10000000000E+02 0. -1.
</event>
<event>
 5    1  0.1688215E-008  0.3834694E+03  0.7957747E-01  0.3436190E+00
         13   -1    0    0    0    0  0.00000000000E+00  0.00000000000E+00  0.14999999963E+04  0.15000000000E+04  0.10566000000E+00 0. -1.
        994   -1    0    0    0    0 -0.00000000000E+00 -0.00000000000E+00  0.11368683772E-12  0.17120000000E+03  0.17120000000E+03 0.  0.
         13    1    1    2    0    0 -0.12745267834E+02 -0.44286889943E+01  0.38520059432E+02  0.40814963936E+02  0.10566000000E+00 0. -1.
        994    1    1    2    0    0  0.28228893174E+01 -0.27330470023E+01  0.24429909539E+01  0.17126250744E+03  0.17120000000E+03 0.  0.
        998    1    1    2    0    0  0.99223785170E+01  0.71617359966E+01  0.14590369459E+04  0.14591225286E+04  0.10000000000E+02 0. -1.
</event>
<event>
 5    1  0.1688215E-008  0.3834684E+03  0.7957747E-01  0.3436194E+00
         13   -1    0    0    0    0  0.00000000000E+00  0.00000000000E+00  0.14999999963E+04  0.15000000000E+04  0.10566000000E+00 0. -1.
        994   -1    0    0    0    0 -0.00000000000E+00 -0.00000000000E+00  0.11368683772E-12  0.17120000000E+03  0.17120000000E+03 0.  0.
         13    1    1    2    0    0  0.53553078713E+02 -0.14327126789E+02  0.29983406867E+03  0.30491585512E+03  0.10566000000E+00 0. -1.
        994    1    1    2    0    0 -0.96413268148E+02  0.48335507744E+02  0.41835571442E+02  0.20661920197E+03  0.17120000000E+03 0.  0.
        998    1    1    2    0    0  0.42860189434E+02 -0.34008380955E+02  0.11583303562E+04  0.11596649429E+04  0.10000000000E+02 0. -1.
</event>
<event>
 5    1  0.1688215E-008  0.3780266E+03  0.7957747E-01  0.3459796E+00
         13   -1    0    0    0    0  0.00000000000E+00  0.00000000000E+00  0.14999999963E+04  0.15000000000E+04  0.10566000000E+00 0. -1.
        994   -1    0    0    0    0 -0.00000000000E+00 -0.00000000000E+00  0.11368683772E-12  0.17120000000E+03  0.17120000000E+03 0.  0.
         13    1    1    2    0    0  0.60351308233E+01 -0.20526047079E+02  0.42262113775E+02  0.47369176028E+02  0.10566000000E+00 0. -1.
        994    1    1    2    0    0 -0.50483029664E+01  0.15724745836E+02  0.60509285131E+01  0.17210115261E+03  0.17120000000E+03 0.  0.
        998    1    1    2    0    0 -0.98682785691E+00  0.48013012435E+01  0.14516869540E+04  0.14517296714E+04  0.10000000000E+02 0. -1.
</event>
<event>
 5    1  0.1688215E-008  0.3798913E+03  0.7957747E-01  0.3451632E+00
         13   -1    0    0    0    0  0.00000000000E+00  0.00000000000E+00  0.14999999963E+04  0.15000000000E+04  0.10566000000E+00 0. -1.
        994   -1    0    0    0    0 -0.00000000000E+00 -0.00000000000E+00  0.11368683772E-12  0.17120000000E+03  0.17120000000E+03 0.  0.
         13    1    1    2    0    0 -0.71280009640E+01 -0.16904290752E+02  0.37125520303E+02  0.41411095921E+02  0.10566000000E+00 0. -1.
        994    1    1    2    0    0  0.10131291165E+02  0.21471505521E+02  0.60752769928E+01  0.17294512887E+03  0.17120000000E+03 0.  0.
        998    1    1    2    0    0 -0.30032902007E+01 -0.45672147696E+01  0.14567991990E+04  0.14568437752E+04  0.10000000000E+02 0. -1.
</event>
<event>
 5    1  0.1688215E-008  0.3822866E+03  0.7957747E-01  0.3441262E+00
         13   -1    0    0    0    0  0.00000000000E+00  0.00000000000E+00  0.14999999963E+04  0.15000000000E+04  0.10566000000E+00 0.  1.
        994   -1    0    0    0    0 -0.00000000000E+00 -0.00000000000E+00  0.11368683772E-12  0.17120000000E+03  0.17120000000E+03 0.  0.
         13    1    1    2    0    0 -0.61595162559E+01  0.16146488925E+02  0.50932195396E+02  0.53784276857E+02  0.10566000000E+00 0.  1.
        994    1    1    2    0    0  0.42833700037E+01 -0.12953260611E+01  0.30497592239E+01  0.17128562742E+03  0.17120000000E+03 0.  0.
        998    1    1    2    0    0  0.18761462522E+01 -0.14851162864E+02  0.14460180417E+04  0.14461300957E+04  0.10000000000E+02 0.  1.
</event>
<event>
 5    1  0.1688215E-008  0.3827552E+03  0.7957747E-01  0.3439249E+00
         13   -1    0    0    0    0  0.00000000000E+00  0.00000000000E+00  0.14999999963E+04  0.15000000000E+04  0.10566000000E+00 0.  1.
        994   -1    0    0    0    0 -0.00000000000E+00 -0.00000000000E+00  0.11368683772E-12  0.17120000000E+03  0.17120000000E+03 0.  0.
         13    1    1    2    0    0 -0.90424266725E+01 -0.57052805461E+01  0.19422378756E+02  0.22171054707E+02  0.10566000000E+00 0.  1.
        994    1    1    2    0    0  0.13257043011E+02  0.34179853830E+01  0.33698937837E+01  0.17177959133E+03  0.17120000000E+03 0.  0.
        998    1    1    2    0    0 -0.42146163384E+01  0.22872951631E+01  0.14772077237E+04  0.14772493540E+04  0.10000000000E+02 0.  1.
</event>
<event>
 5    1  0.1688215E-008  0.3782092E+03  0.7957747E-01  0.3458993E+00
         13   -1    0    0    0    0  0.00000000000E+00  0.00000000000E+00  0.14999999963E+04  0.15000000000E+04  0.10566000000E+00 0.  1.
        994   -1    0    0    0    0 -0.00000000000E+00 -0.00000000000E+00  0.11368683772E-12  0.17120000000E+03  0.17120000000E+03 0.  0.
         13    1    1    2    0    0  0.27868670741E+02 -0.34986665486E+01  0.87861146633E+02  0.92241507621E+02  0.10566000000E+00 0.  1.
        994    1    1    2    0    0  0.11760080331E+02 -0.13232516486E+02  0.60944883415E+01  0.17222073560E+03  0.17120000000E+03 0.  0.
        998    1    1    2    0    0 -0.39628751072E+02  0.16731183034E+02  0.14060443613E+04  0.14067377568E+04  0.10000000000E+02 0.  1.
</event>
<event>
 5    1  0.1688215E-008  0.4065601E+03  0.7957747E-01  0.3343082E+00
         13   -1    0    0    0    0  0.00000000000E+00  0.00000000000E+00  0.14999999963E+04  0.15000000000E+04  0.10566000000E+00 0. -1.
        994   -1    0    0    0    0 -0.00000000000E+00 -0.00000000000E+00  0.11368683772E-12  0.17120000000E+03  0.17120000000E+03 0.  0.
         13    1    1    2    0    0  0.30947060973E+02  0.76095778167E+02  0.91625901410E+02  0.12305935564E+03  0.10566000000E+00 0. -1.
        994    1    1    2    0    0 -0.24658078356E+02 -0.75417967754E+02  0.57564175898E+02  0.19727890165E+03  0.17120000000E+03 0.  0.
        998    1    1    2    0    0 -0.62889826169E+01 -0.67781041321E+00  0.13508099190E+04  0.13508617427E+04  0.10000000000E+02 0. -1.
</event>
<event>
 5    1  0.1688215E-008  0.3822268E+03  0.7957747E-01  0.3441520E+00
         13   -1    0    0    0    0  0.00000000000E+00  0.00000000000E+00  0.14999999963E+04  0.15000000000E+04  0.10566000000E+00 0.  1.
        994   -1    0    0    0    0 -0.00000000000E+00 -0.00000000000E+00  0.11368683772E-12  0.17120000000E+03  0.17120000000E+03 0.  0.
         13    1    1    2    0    0 -0.84505311365E+01  0.16188007860E+02  0.52852683206E+02  0.55918515369E+02  0.10566000000E+00 0.  1.
        994    1    1    2    0    0  0.75781783389E+01 -0.16667270684E+02  0.41265301410E+01  0.17222570932E+03  0.17120000000E+03 0.  0.
        998    1    1    2    0    0  0.87235279761E+00  0.47926282354E+00  0.14430207829E+04  0.14430557753E+04  0.10000000000E+02 0.  1.
</event>
<event>
 5    1  0.1688215E-008  0.3810586E+03  0.7957747E-01  0.3446562E+00
         13   -1    0    0    0    0  0.00000000000E+00  0.00000000000E+00  0.14999999963E+04  0.15000000000E+04  0.10566000000E+00 0. -1.
        994   -1    0    0    0    0 -0.00000000000E+00 -0.00000000000E+00  0.11368683772E-12  0.17120000000E+03  0.17120000000E+03 0.  0.
         13    1    1    2    0    0  0.13494977769E+01  0.15034750035E+02  0.29160036920E+02  0.32835708765E+02  0.10566000000E+00 0. -1.
        994    1    1    2    0    0 -0.15183932362E+01 -0.21836402660E+02  0.51974820770E+01  0.17267190802E+03  0.17120000000E+03 0.  0.
        998    1    1    2    0    0  0.16889545929E+00  0.68016526249E+01  0.14656424773E+04  0.14656923832E+04  0.10000000000E+02 0. -1.
</event>
<event>
 5    1  0.1688215E-008  0.3806035E+03  0.7957747E-01  0.3448535E+00
         13   -1    0    0    0    0  0.00000000000E+00  0.00000000000E+00  0.14999999963E+04  0.15000000000E+04  0.10566000000E+00 0. -1.
        994   -1    0    0    0    0 -0.00000000000E+00 -0.00000000000E+00  0.11368683772E-12  0.17120000000E+03  0.17120000000E+03 0.  0.
         13    1    1    2    0    0 -0.91586154550E+01 -0.15189218919E+02  0.43216091121E+02  0.46714390762E+02  0.10566000000E+00 0. -1.
        994    1    1    2    0    0  0.29078467907E+01 -0.15560746136E+02  0.46653107450E+01  0.17199359732E+03  0.17120000000E+03 0.  0.
        998    1    1    2    0    0  0.62507686643E+01  0.30749965055E+02  0.14521185944E+04  0.14524920119E+04  0.10000000000E+02 0. -1.
</event>
<event>
 5    1  0.1688215E-008  0.3849927E+03  0.7957747E-01  0.3429703E+00
         13   -1    0    0    0    0  0.00000000000E+00  0.00000000000E+00  0.14999999963E+04  0.15000000000E+04  0.10566000000E+00 0.  1.
        994   -1    0    0    0    0 -0.00000000000E+00 -0.00000000000E+00  0.11368683772E-12  0.17120000000E+03  0.17120000000E+03 0.  0.
         13    1    1    2    0    0  0.15893898098E+00  0.13087245990E+02  0.52655744144E+02  0.54258085339E+02  0.10566000000E+00 0.  1.
        994    1    1    2    0    0  0.97475768994E+01 -0.80300909344E+01  0.21584953370E+01  0.17167876024E+03  0.17120000000E+03 0.  0.
        998    1    1    2    0    0 -0.99065158803E+01 -0.50571550558E+01  0.14451857568E+04  0.14452631544E+04  0.10000000000E+02 0.  1.
</event>
<event>
 5    1  0.1688215E-008  0.3835695E+03  0.7957747E-01  0.3435762E+00
         13   -1    0    0    0    0  0.00000000000E+00  0.00000000000E+00  0.14999999963E+04  0.15000000000E+04  0.10566000000E+00 0.  1.
        994   -1    0    0    0    0 -0.00000000000E+00 -0.00000000000E+00  0.11368683772E-12  0.17120000000E+03  0.17120000000E+03 0.  0.
         13    1    1    2    0    0  0.25058010119E+01 -0.35288232817E+02  0.25706851800E+02  0.43730902204E+02  0.10566000000E+00 0.  1.
        994    1    1    2    0    0 -0.12548165727E+02  0.44049007407E+02  0.26044170931E+02  0.17912428745E+03  0.17120000000E+03 0.  0.
        998    1    1    2    0    0  0.10042364715E+02 -0.87607745892E+01  0.14482489735E+04  0.14483448103E+04  0.10000000000E+02 0.  1.
</event>
<event>
 5    1  0.1688215E-008  0.3861314E+03  0.7957747E-01  0.3424888E+00
         13   -1    0    0    0    0  0.00000000000E+00  0.00000000000E+00  0.14999999963E+04  0.15000000000E+04  0.10566000000E+00 0. -1.
        994   -1    0    0    0    0 -0.00000000000E+00 -0.00000000000E+00  0.11368683772E-12  0.17120000000E+03  0.17120000000E+03 0.  0.
         13    1    1    2    0    0  0.11319133208E+02 -0.70230139061E+01  0.76736842428E+02  0.77884527673E+02  0.10566000000E+00 0. -1.
        994    1    1    2    0    0 -0.17119240663E+02  0.99314554355E+01  0.23539524622E+01  0.17235626853E+03  0.17120000000E+03 0.  0.
        998    1    1    2    0    0  0.58001074542E+01 -0.29084415294E+01  0.14209092014E+04  0.14209592038E+04  0.10000000000E+02 0. -1.
</event>
<event>
 5    1  0.1688215E-008  0.3825862E+03  0.7957747E-01  0.3439974E+00
         13   -1    0    0    0    0  0.00000000000E+00  0.00000000000E+00  0.14999999963E+04  0.15000000000E+04  0.10566000000E+00 0.  1.
        994   -1    0    0    0    0 -0.00000000000E+00 -0.00000000000E+00  0.11368683772E-12  0.17120000000E+03  0.17120000000E+03 0.  0.
         13    1    1    2    0    0  0.10919369637E+02 -0.42645591221E+01  0.22751320590E+02  0.25594000281E+02  0.10566000000E+00 0.  1.
        994    1    1    2    0    0 -0.16216150988E+02 -0.23862848677E+01  0.37242986870E+01  0.17202316213E+03  0.17120000000E+03 0.  0.
        998    1    1    2    0    0  0.52967813504E+01  0.66508439898E+01  0.14735243770E+04  0.14735828376E+04  0.10000000000E+02 0.  1.
</event>
<event>
 5    1  0.1688215E-008  0.3806796E+03  0.7957747E-01  0.3448205E+00
         13   -1    0    0    0    0  0.00000000000E+00  0.00000000000E+00  0.14999999963E+04  0.15000000000E+04  0.10566000000E+00 0.  1.
        994   -1    0    0    0    0 -0.00000000000E+00 -0.00000000000E+00  0.11368683772E-12  0.17120000000E+03  0.17120000000E+03 0.  0.
         13    1    1    2    0    0 -0.10680708612E+02 -0.71252217000E+01  0.20743269779E+02  0.24395506264E+02  0.10566000000E+00 0.  1.
        994    1    1    2    0    0  0.75150331218E+01 -0.12744345016E+02  0.45209447273E+01  0.17189756541E+03  0.17120000000E+03 0.  0.
        998    1    1    2    0    0  0.31656754902E+01  0.19869566717E+02  0.14747357818E+04  0.14749069283E+04  0.10000000000E+02 0.  1.
</event>
<event>
 5    1  0.1688215E-008  0.3704356E+03  0.7957747E-01  0.3493891E+00
         13   -1    0    0    0    0  0.00000000000E+00  0.00000000000E+00  0.14999999963E+04  0.15000000000E+04  0.10566000000E+00 0.  1.
        994   -1    0    0    0    0 -0.00000000000E+00 -0.00000000000E+00  0.11368683772E-12  0.17120000000E+03  0.17120000000E+03 0.  0.
         13    1    1    2    0    0 -0.36560815769E+02  0.95832987391E+02  0.55954509621E+03  0.56886850904E+03  0.10566000000E+00 0.  1.
        994    1    1    2    0    0  0.19968724392E+02 -0.59960477149E+02  0.22959721260E+02  0.18393095872E+03  0.17120000000E+03 0.  0.
        998    1    1    2    0    0  0.16592091378E+02 -0.35872510242E+02  0.91749517881E+03  0.91840053224E+03  0.10000000000E+02 0.  1.
</event>
<event>
 5    1  0.1688215E-008  0.3845114E+03  0.7957747E-01  0.3431747E+00
         13   -1    0    0    0    0  0.00000000000E+00  0.00000000000E+00  0.14999999963E+04  0.15000000000E+04  0.10566000000E+00 0. -1.
        994   -1    0    0    0    0 -0.00000000000E+00 -0.00000000000E+00  0.11368683772E-12  0.17120000000E+03  0.17120000000E+03 0.  0.
         13    1    1    2    0    0 -0.39346185096E+01 -0.18060993871E+02  0.10043093842E+03  0.10211789891E+03  0.10566000000E+00 0. -1.
        994    1    1    2    0    0 -0.18906702483E+01 -0.95151865134E+00  0.18876603418E+01  0.17122348929E+03  0.17120000000E+03 0.  0.
        998    1    1    2    0    0  0.58252887579E+01  0.19012512523E+02  0.13976813975E+04  0.13978586118E+04  0.10000000000E+02 0. -1.
</event>
<event>
 5    1  0.1688215E-008  0.3845801E+03  0.7957747E-01  0.3431455E+00
         13   -1    0    0    0    0  0.00000000000E+00  0.00000000000E+00  0.14999999963E+04  0.15000000000E+04  0.10566000000E+00 0. -1.
        994   -1    0    0    0    0 -0.00000000000E+00 -0.00000000000E+00  0.11368683772E-12  0.17120000000E+03  0.17120000000E+03 0.  0.
         13    1    1    2    0    0  0.13055805436E+02  0.19369037575E+02  0.13712148545E+03  0.13909682458E+03  0.10566000000E+00 0. -1.
        994    1    1    2    0    0 -0.10329250823E+02 -0.21152444824E+02  0.36656607699E+01  0.17284963527E+03  0.17120000000E+03 0.  0.
        998    1    1    2    0    0 -0.27265546126E+01  0.17834072493E+01  0.13592128501E+04  0.13592535402E+04  0.10000000000E+02 0. -1.
</event>
<event>
 5    1  0.1688215E-008  0.3839240E+03  0.7957747E-01  0.3434249E+00
         13   -1    0    0    0    0  0.00000000000E+00  0.00000000000E+00  0.14999999963E+04  0.15000000000E+04  0.10566000000E+00 0.  1.
        994   -1    0    0    0    0 -0.00000000000E+00 -0.00000000000E+00  0.11368683772E-12  0.17120000000E+03  0.17120000000E+03 0.  0.
         13    1    1    2    0    0  0.21203358211E+02 -0.38117221655E+01  0.10304400516E+03  0.10527198007E+03  0.10566000000E+00 0.  1.
        994    1    1    2    0    0 -0.17343004608E+02  0.81901698250E+01  0.33802376818E+01  0.17230416332E+03  0.17120000000E+03 0.  0.
        998    1    1    2    0    0 -0.38603536024E+01 -0.43784476595E+01  0.13935757534E+04  0.13936238566E+04  0.10000000000E+02 0.  1.
</event>
<event>
 5    1  0.1688215E-008  0.3845766E+03  0.7957747E-01  0.3431470E+00
         13   -1    0    0    0    0  0.00000000000E+00  0.00000000000E+00  0.14999999963E+04  0.15000000000E+04  0.10566000000E+00 0. -1.
        994   -1    0    0    0    0 -0.00000000000E+00 -0.00000000000E+00  0.11368683772E-12  0.17120000000E+03  0.17120000000E+03 0.  0.
         13    1    1    2    0    0 -0.11588853192E+02 -0.99365827900E+01  0.60976490701E+02  0.62858418514E+02  0.10566000000E+00 0. -1.
        994    1    1    2    0    0  0.10822932387E+02  0.11953792179E+02  0.26972617466E+01  0.17197890636E+03  0.17120000000E+03 0.  0.
        998    1    1    2    0    0  0.76592080499E+00 -0.20172093888E+01  0.14363262438E+04  0.14363626751E+04  0.10000000000E+02 0. -1.
</event>
<event>
 5    1  0.1688215E-008  0.3732642E+03  0.7957747E-01  0.3481022E+00
         13   -1    0    0    0    0  0.00000000000E+00  0.00000000000E+00  0.14999999963E+04  0.15000000000E+04  0.10566000000E+00 0.  1.
        994   -1    0    0    0    0 -0.00000000000E+00 -0.00000000000E+00  0.11368683772E-12  0.17120000000E+03  0.17120000000E+03 0.  0.
         13    1    1    2    0    0  0.76988315916E+02 -0.28179814307E+02  0.38032934257E+03  0.38906519082E+03  0.10566000000E+00 0.  1.
        994    1    1    2    0    0  0.10449734567E+02  0.14234799518E+02  0.13778820910E+02  0.17265897711E+03  0.17120000000E+03 0.  0.
        998    1    1    2    0    0 -0.87438050482E+02  0.13945014790E+02  0.11058918328E+04  0.11094758321E+04  0.10000000000E+02 0.  1.
</event>
<event>
 5    1  0.2240288E-008  0.3858022E+03  0.7957747E-01  0.3426277E+00
         13   -1    0    0    0    0  0.00000000000E+00  0.00000000000E+00  0.14999999963E+04  0.15000000000E+04  0.10566000000E+00 0.  1.
        994   -1    0    0    0    0 -0.00000000000E+00 -0.00000000000E+00  0.11368683772E-12  0.17120000000E+03  0.17120000000E+03 0.  0.
         13    1    1    2    0    0  0.99215684109E+01 -0.56496488176E+01  0.57406051749E+02  0.58530521892E+02  0.10566000000E+00 0.  1.
        994    1    1    2    0    0  0.40667094506E+01  0.11806026256E+01  0.12911927870E+01  0.17125723088E+03  0.17120000000E+03 0.  0.
        998    1    1    2    0    0 -0.13988277862E+02  0.44690461920E+01  0.14413027517E+04  0.14414122472E+04  0.10000000000E+02 0.  1.
</event>
<event>
 5    1  0.1688215E-008  0.3802697E+03  0.7957747E-01  0.3449985E+00
         13   -1    0    0    0    0  0.00000000000E+00  0.00000000000E+00  0.14999999963E+04  0.15000000000E+04  0.10566000000E+00 0.  1.
        994   -1    0    0    0    0 -0.00000000000E+00 -0.00000000000E+00  0.11368683772E-12  0.17120000000E+03  0.17120000000E+03 0.  0.
         13    1    1    2    0    0 -0.17700697544E+02 -0.24843842881E+02  0.10061417974E+03  0.10513684203E+03  0.10566000000E+00 0.  1.
        994    1    1    2    0    0 -0.18596783232E+02  0.70660305312E+02  0.22039000593E+02  0.18744032821E+03  0.17120000000E+03 0.  0.
        998    1    1    2    0    0  0.36297480776E+02 -0.45816462431E+02  0.13773468159E+04  0.13786228298E+04  0.10000000000E+02 0.  1.
</event>
<event>
 5    1  0.1688215E-008  0.3795958E+03  0.7957747E-01  0.3452920E+00
         13   -1    0    0    0    0  0.00000000000E+00  0.00000000000E+00  0.14999999963E+04  0.15000000000E+04  0.10566000000E+00 0. -1.
        994   -1    0    0    0    0 -0.00000000000E+00 -0.00000000000E+00  0.11368683772E-12  0.17120000000E+03  0.17120000000E+03 0.  0.
         13    1    1    2    0    0 -0.71590571920E+01 -0.17294530809E+02  0.37421934268E+02  0.41842146505E+02  0.10566000000E+00 0. -1.
        994    1    1    2    0    0  0.86002673987E+01  0.21065155430E+02  0.60722168176E+01  0.17281208635E+03  0.17120000000E+03 0.  0.
        998    1    1    2    0    0 -0.14412102067E+01 -0.37706246214E+01  0.14565058452E+04  0.14565457671E+04  0.10000000000E+02 0. -1.
</event>
<event>
 5    1  0.1688215E-008  0.4205447E+03  0.7957747E-01  0.3291627E+00
         13   -1    0    0    0    0  0.00000000000E+00  0.00000000000E+00  0.14999999963E+04  0.15000000000E+04  0.10566000000E+00 0.  1.
        994   -1    0    0    0    0 -0.00000000000E+00 -0.00000000000E+00  0.11368683772E-12  0.17120000000E+03  0.17120000000E+03 0.  0.
         13    1    1    2    0    0 -0.54735102609E+02 -0.31494040748E+02  0.27575831144E+02  0.68907500953E+02  0.10566000000E+00 0.  1.
        994    1    1    2    0    0  0.69861445922E+02  0.10754757010E+03  0.11546295888E+03  0.24308071979E+03  0.17120000000E+03 0.  0.
        998    1    1    2    0    0 -0.15126343313E+02 -0.76053529354E+02  0.13569612063E+04  0.13592117793E+04  0.10000000000E+02 0.  1.
</event>
<event>
 5    1  0.1688215E-008  0.3828422E+03  0.7957747E-01  0.3438876E+00
         13   -1    0    0    0    0  0.00000000000E+00  0.00000000000E+00  0.14999999963E+04  0.15000000000E+04  0.10566000000E+00 0.  1.
        994   -1    0    0    0    0 -0.00000000000E+00 -0.00000000000E+00  0.11368683772E-12  0.17120000000E+03  0.17120000000E+03 0.  0.
         13    1    1    2    0    0 -0.20520758384E+02 -0.54658977008E+01  0.83732972741E+02  0.86384023120E+02  0.10566000000E+00 0.  1.
        994    1    1    2    0    0  0.97880835010E+01  0.56390726740E+01  0.31279809972E+01  0.17160078667E+03  0.17120000000E+03 0.  0.
        998    1    1    2    0    0  0.10732674883E+02 -0.17317497319E+00  0.14131390425E+04  0.14132151902E+04  0.10000000000E+02 0.  1.
</event>
<event>
 5    1  0.1688215E-008  0.3843580E+03  0.7957747E-01  0.3432400E+00
         13   -1    0    0    0    0  0.00000000000E+00  0.00000000000E+00  0.14999999963E+04  0.15000000000E+04  0.10566000000E+00 0.  1.
        994   -1    0    0    0    0 -0.00000000000E+00 -0.00000000000E+00  0.11368683772E-12  0.17120000000E+03  0.17120000000E+03 0.  0.
         13    1    1    2    0    0  0.10172912814E+02 -0.16176911636E+02  0.90519704114E+02  0.92514910269E+02  0.10566000000E+00 0.  1.
        994    1    1    2    0    0 -0.89782247999E+01  0.14125493478E+02  0.28729562128E+01  0.17204020450E+03  0.17120000000E+03 0.  0.
        998    1    1    2    0    0 -0.11946880142E+01  0.20514181580E+01  0.14066073360E+04  0.14066448852E+04  0.10000000000E+02 0.  0.
</event>
<event>
 5    1  0.1688215E-008  0.3755685E+03  0.7957747E-01  0.3470684E+00
         13   -1    0    0    0    0  0.00000000000E+00  0.00000000000E+00  0.14999999963E+04  0.15000000000E+04  0.10566000000E+00 0.  1.
        994   -1    0    0    0    0 -0.00000000000E+00 -0.00000000000E+00  0.11368683772E-12  0.17120000000E+03  0.17120000000E+03 0.  0.
         13    1    1    2    0    0 -0.50335178177E+02 -0.34086889179E+01  0.19195379606E+03  0.19847297123E+03  0.10566000000E+00 0.  1.
        994    1    1    2    0    0  0.34291768372E+02 -0.57749125731E+01  0.10500750886E+02  0.17501137324E+03  0.17120000000E+03 0.  0.
        998    1    1    2    0    0  0.16043409805E+02  0.91836014910E+01  0.12975454493E+04  0.12977156555E+04  0.10000000000E+02 0.  1.
</event>
<event>
 5    1  0.1688215E-008  0.3786713E+03  0.7957747E-01  0.3456964E+00
         13   -1    0    0    0    0  0.00000000000E+00  0.00000000000E+00  0.14999999963E+04  0.15000000000E+04  0.10566000000E+00 0.  1.
        994   -1    0    0    0    0 -0.00000000000E+00 -0.00000000000E+00  0.11368683772E-12  0.17120000000E+03  0.17120000000E+03 0.  0.
         13    1    1    2    0    0 -0.18492603960E+02 -0.66805954898E+02  0.12729509895E+03  0.14494504266E+03  0.10566000000E+00 0.  1.
        994    1    1    2    0    0  0.45677397875E+02  0.78787663837E+02  0.46152705402E+02  0.19933246817E+03  0.17120000000E+03 0.  0.
        998    1    1    2    0    0 -0.27184793915E+02 -0.11981708939E+02  0.13265521919E+04  0.13269224892E+04  0.10000000000E+02 0.  1.
</event>
<event>
 5    1  0.1688215E-008  0.3935095E+03  0.7957747E-01  0.3394365E+00
         13   -1    0    0    0    0  0.00000000000E+00  0.00000000000E+00  0.14999999963E+04  0.15000000000E+04  0.10566000000E+00 0. -1.
        994   -1    0    0    0    0 -0.00000000000E+00 -0.00000000000E+00  0.11368683772E-12  0.17120000000E+03  0.17120000000E+03 0.  0.
         13    1    1    2    0    0 -0.25641466861E+02  0.29013585266E+02  0.21645592776E+02  0.44360069921E+02  0.10566000000E+00 0. -1.
        994    1    1    2    0    0  0.20826638542E+02 -0.27637743680E+02  0.28535951809E+02  0.17697834414E+03  0.17120000000E+03 0.  0.
        998    1    1    2    0    0  0.48148283192E+01 -0.13758415854E+01  0.14498184517E+04  0.14498615859E+04  0.10000000000E+02 0. -1.
</event>
<event>
 5    1  0.1688215E-008  0.3788030E+03  0.7957747E-01  0.3456387E+00
         13   -1    0    0    0    0  0.00000000000E+00  0.00000000000E+00  0.14999999963E+04  0.15000000000E+04  0.10566000000E+00 0. -1.
        994   -1    0    0    0    0 -0.00000000000E+00 -0.00000000000E+00  0.11368683772E-12  0.17120000000E+03  0.17120000000E+03 0.  0.
         13    1    1    2    0    0 -0.12871548729E+02 -0.16168102297E+01  0.15536691203E+02  0.20240819637E+02  0.10566000000E+00 0. -1.
        994    1    1    2    0    0  0.13067236327E+02  0.62458005650E+01  0.54429124459E+01  0.17189772537E+03  0.17120000000E+03 0.  0.
        998    1    1    2    0    0 -0.19568759802E+00 -0.46289903353E+01  0.14790203926E+04  0.14790614550E+04  0.10000000000E+02 0. -1.
</event>
<event>
 5    1  0.1688215E-008  0.3725577E+03  0.7957747E-01  0.3484218E+00
         13   -1    0    0    0    0  0.00000000000E+00  0.00000000000E+00  0.14999999963E+04  0.15000000000E+04  0.10566000000E+00 0. -1.
        994   -1    0    0    0    0 -0.00000000000E+00 -0.00000000000E+00  0.11368683772E-12  0.17120000000E+03  0.17120000000E+03 0.  0.
         13    1    1    2    0    0  0.30419104028E+00  0.31129164544E+02  0.35920162884E+02  0.47533006249E+02  0.10566000000E+00 0. -1.
        994    1    1    2    0    0 -0.14670858057E+02 -0.54709747137E+01  0.13162980234E+02  0.17241771861E+03  0.17120000000E+03 0.  0.
        998    1    1    2    0    0  0.14366667016E+02 -0.25658189830E+02  0.14509168532E+04  0.14512492751E+04  0.10000000000E+02 0. -1.
</event>
<event>
 5    1  0.1688215E-008  0.3723941E+03  0.7957747E-01  0.3484960E+00
         13   -1    0    0    0    0  0.00000000000E+00  0.00000000000E+00  0.14999999963E+04  0.15000000000E+04  0.10566000000E+00 0.  1.
        994   -1    0    0    0    0 -0.00000000000E+00 -0.00000000000E+00  0.11368683772E-12  0.17120000000E+03  0.17120000000E+03 0.  0.
         13    1    1    2    0    0  0.23643688407E+02  0.24052003128E+02  0.41998569438E+02  0.53864773785E+02  0.10566000000E+00 0.  1.
        994    1    1    2    0    0 -0.19869533526E+02 -0.11160400606E+02  0.14043458214E+02  0.17328015357E+03  0.17120000000E+03 0.  0.
        998    1    1    2    0    0 -0.37741548809E+01 -0.12891602522E+02  0.14439579686E+04  0.14440550726E+04  0.10000000000E+02 0.  1.
</event>
<event>
 5    1  0.1688215E-008  0.3807420E+03  0.7957747E-01  0.3447934E+00
         13   -1    0    0    0    0  0.00000000000E+00  0.00000000000E+00  0.14999999963E+04  0.15000000000E+04  0.10566000000E+00 0.  1.
        994   -1    0    0    0    0 -0.00000000000E+00 -0.00000000000E+00  0.11368683772E-12  0.17120000000E+03  0.17120000000E+03 0.  0.
         13    1    1    2    0    0 -0.21627522294E+02 -0.12934111238E+02  0.81015061706E+02  0.84843929313E+02  0.10566000000E+00 0.  1.
        994    1    1    2    0    0  0.25467477853E+01  0.38144719119E+02  0.86482088627E+01  0.17562954489E+03  0.17120000000E+03 0.  0.
        998    1    1    2    0    0  0.19080774509E+02 -0.25210607881E+02  0.14103367257E+04  0.14107265258E+04  0.10000000000E+02 0.  1.
</event>
<event>
 5    1  0.1688215E-008  0.3809273E+03  0.7957747E-01  0.3447131E+00
         13   -1    0    0    0    0  0.00000000000E+00  0.00000000000E+00  0.14999999963E+04  0.15000000000E+04  0.10566000000E+00 0.  1.
        994   -1    0    0    0    0 -0.00000000000E+00 -0.00000000000E+00  0.11368683772E-12  0.17120000000E+03  0.17120000000E+03 0.  0.
         13    1    1    2    0    0 -0.90432034434E+01  0.28004581586E+02  0.11917912191E+03  0.12275874870E+03  0.10566000000E+00 0.  1.
        994    1    1    2    0    0  0.33753697454E+01 -0.14075333544E+02  0.43643052046E+01  0.17186621336E+03  0.17120000000E+03 0.  0.
        998    1    1    2    0    0  0.56678336979E+01 -0.13929248042E+02  0.13764565692E+04  0.13765750379E+04  0.10000000000E+02 0.  1.
</event>
<event>
 5    1  0.1688215E-008  0.3814150E+03  0.7957747E-01  0.3445020E+00
         13   -1    0    0    0    0  0.00000000000E+00  0.00000000000E+00  0.14999999963E+04  0.15000000000E+04  0.10566000000E+00 0.  1.
        994   -1    0    0    0    0 -0.00000000000E+00 -0.00000000000E+00  0.11368683772E-12  0.17120000000E+03  0.17120000000E+03 0.  0.
         13    1    1    2    0    0 -0.19464654792E+02  0.25846727258E+02  0.14310990068E+03  0.14672212148E+03  0.10566000000E+00 0.  1.
        994    1    1    2    0    0  0.13861255488E+02 -0.24758923849E+02  0.61041415599E+01  0.17364284972E+03  0.17120000000E+03 0.  0.
        998    1    1    2    0    0  0.56033993038E+01 -0.10878034091E+01  0.13507859540E+04  0.13508350288E+04  0.10000000000E+02 0.  1.
</event>
<event>
 5    1  0.1688215E-008  0.3838489E+03  0.7957747E-01  0.3434569E+00
         13   -1    0    0    0    0  0.00000000000E+00  0.00000000000E+00  0.14999999963E+04  0.15000000000E+04  0.10566000000E+00 0.  1.
        994   -1    0    0    0    0 -0.00000000000E+00 -0.00000000000E+00  0.11368683772E-12  0.17120000000E+03  0.17120000000E+03 0.  0.
         13    1    1    2    0    0  0.10900448487E+02 -0.16562927367E+02  0.95925796362E+02  0.97953662065E+02  0.10566000000E+00 0.  1.
        994    1    1    2    0    0  0.12948374162E+02  0.10244408224E+02  0.31030839329E+01  0.17202231664E+03  0.17120000000E+03 0.  0.
        998    1    1    2    0    0 -0.23848822649E+02  0.63185191432E+01  0.14009711160E+04  0.14012240213E+04  0.10000000000E+02 0.  1.
</event>
<event>
 5    1  0.1688215E-008  0.3775727E+03  0.7957747E-01  0.3461796E+00
         13   -1    0    0    0    0  0.00000000000E+00  0.00000000000E+00  0.14999999963E+04  0.15000000000E+04  0.10566000000E+00 0.  1.
        994   -1    0    0    0    0 -0.00000000000E+00 -0.00000000000E+00  0.11368683772E-12  0.17120000000E+03  0.17120000000E+03 0.  0.
         13    1    1    2    0    0  0.31352124649E+01  0.13866094939E+02  0.16293556073E+02  0.21623812790E+02  0.10566000000E+00 0.  1.
        994    1    1    2    0    0 -0.18360205001E+01 -0.15699590113E+02  0.62059183681E+01  0.17204011603E+03  0.17120000000E+03 0.  0.
        998    1    1    2    0    0 -0.12991919648E+01  0.18334951741E+01  0.14775005218E+04  0.14775360712E+04  0.10000000000E+02 0.  1.
</event>
<event>
 5    1  0.1688215E-008  0.3796273E+03  0.7957747E-01  0.3452783E+00
         13   -1    0    0    0    0  0.00000000000E+00  0.00000000000E+00  0.14999999963E+04  0.15000000000E+04  0.10566000000E+00 0.  1.
        994   -1    0    0    0    0 -0.00000000000E+00 -0.00000000000E+00  0.11368683772E-12  0.17120000000E+03  0.17120000000E+03 0.  0.
         13    1    1    2    0    0 -0.10547181823E+03 -0.16181489094E+03  0.11186537960E+04  0.11352068930E+04  0.10566000000E+00 0.  1.
        994    1    1    2    0    0  0.96517499310E+02  0.15716046268E+03  0.12814322398E+03  0.28239186347E+03  0.17120000000E+03 0.  0.
        998    1    1    2    0    0  0.89543189240E+01  0.46544282600E+01  0.25320297630E+03  0.25360124356E+03  0.10000000000E+02 0.  1.
</event>
<event>
 5    1  0.1688215E-008  0.3827891E+03  0.7957747E-01  0.3439103E+00
         13   -1    0    0    0    0  0.00000000000E+00  0.00000000000E+00  0.14999999963E+04  0.15000000000E+04  0.10566000000E+00 0. -1.
        994   -1    0    0    0    0 -0.00000000000E+00 -0.00000000000E+00  0.11368683772E-12  0.17120000000E+03  0.17120000000E+03 0.  0.
         13    1    1    2    0    0  0.24409830431E+02  0.12139655015E+02  0.15087565708E+03  0.15331890329E+03  0.10566000000E+00 0. -1.
        994    1    1    2    0    0 -0.14922865180E+01 -0.21626729160E+01  0.27546874254E+01  0.17124232063E+03  0.17120000000E+03 0.  0.
        998    1    1    2    0    0 -0.22917543913E+02 -0.99769820993E+01  0.13463696518E+04  0.13466387761E+04  0.10000000000E+02 0. -1.
</event>
<event>
 5    1  0.1688215E-008  0.3807126E+03  0.7957747E-01  0.3448061E+00
         13   -1    0    0    0    0  0.00000000000E+00  0.00000000000E+00  0.14999999963E+04  0.15000000000E+04  0.10566000000E+00 0. -1.
        994   -1    0    0    0    0 -0.00000000000E+00 -0.00000000000E+00  0.11368683772E-12  0.17120000000E+03  0.17120000000E+03 0.  0.
         13    1    1    2    0    0 -0.27585322047E+01 -0.42008505338E+02  0.20270579293E+03  0.20703133500E+03  0.10566000000E+00 0. -1.
        994    1    1    2    0    0  0.50643604310E+01  0.42704812303E+02  0.99662790064E+01  0.17679964779E+03  0.17120000000E+03 0.  0.
        998    1    1    2    0    0 -0.23058282264E+01 -0.69630696558E+00  0.12873279243E+04  0.12873690172E+04  0.10000000000E+02 0. -1.
</event>
<event>
 5    1  0.1688215E-008  0.3716655E+03  0.7957747E-01  0.3488271E+00
         13   -1    0    0    0    0  0.00000000000E+00  0.00000000000E+00  0.14999999963E+04  0.15000000000E+04  0.10566000000E+00 0. -1.
        994   -1    0    0    0    0 -0.00000000000E+00 -0.00000000000E+00  0.11368683772E-12  0.17120000000E+03  0.17120000000E+03 0.  0.
         13    1    1    2    0    0  0.14608439885E+03  0.91356538807E+02  0.72492392353E+03  0.74511836297E+03  0.10566000000E+00 0. -1.
        994    1    1    2    0    0 -0.14981368813E+03 -0.95976667684E+02  0.12655259562E+03  0.27745389049E+03  0.17120000000E+03 0.  0.
        998    1    1    2    0    0  0.37292892794E+01  0.46201288774E+01  0.64852347713E+03  0.64862774654E+03  0.10000000000E+02 0.  1.
</event>
<event>
 5    1  0.1688215E-008  0.3740536E+03  0.7957747E-01  0.3477466E+00
         13   -1    0    0    0    0  0.00000000000E+00  0.00000000000E+00  0.14999999963E+04  0.15000000000E+04  0.10566000000E+00 0. -1.
        994   -1    0    0    0    0 -0.00000000000E+00 -0.00000000000E+00  0.11368683772E-12  0.17120000000E+03  0.17120000000E+03 0.  0.
         13    1    1    2    0    0 -0.84010245621E+01  0.94959741056E+01  0.80648913978E+01  0.15026788586E+02  0.10566000000E+00 0. -1.
        994    1    1    2    0    0  0.86314453700E+01  0.24720172104E+01  0.74404933552E+01  0.17159665981E+03  0.17120000000E+03 0.  0.
        998    1    1    2    0    0 -0.23042080795E+00 -0.11967991316E+02  0.14844946115E+04  0.14845765516E+04  0.10000000000E+02 0. -1.
</event>
<event>
 5    1  0.1688215E-008  0.3858518E+03  0.7957747E-01  0.3426068E+00
         13   -1    0    0    0    0  0.00000000000E+00  0.00000000000E+00  0.14999999963E+04  0.15000000000E+04  0.10566000000E+00 0. -1.
        994   -1    0    0    0    0 -0.00000000000E+00 -0.00000000000E+00  0.11368683772E-12  0.17120000000E+03  0.17120000000E+03 0.  0.
         13    1    1    2    0    0  0.70332834303E+01 -0.77831534433E+01  0.50045880508E+02  0.51133608060E+02  0.10566000000E+00 0. -1.
        994    1    1    2    0    0 -0.33506459512E+01 -0.10872975094E+02  0.16324878827E+01  0.17158541148E+03  0.17120000000E+03 0.  0.
        998    1    1    2    0    0 -0.36826374791E+01  0.18656128537E+02  0.14483216279E+04  0.14484809805E+04  0.10000000000E+02 0. -1.
</event>
<event>
 5    1  0.1688215E-008  0.3843715E+03  0.7957747E-01  0.3432342E+00
         13   -1    0    0    0    0  0.00000000000E+00  0.00000000000E+00  0.14999999963E+04  0.15000000000E+04  0.10566000000E+00 0. -1.
        994   -1    0    0    0    0 -0.00000000000E+00 -0.00000000000E+00  0.11368683772E-12  0.17120000000E+03  0.17120000000E+03 0.  0.
         13    1    1    2    0    0 -0.20777535858E+02  0.10388984732E+02  0.13951929773E+03  0.14144003183E+03  0.10566000000E+00 0. -1.
        994    1    1    2    0    0  0.26351308423E+01 -0.27056123198E+02  0.43815172687E+01  0.17340015978E+03  0.17120000000E+03 0.  0.
        998    1    1    2    0    0  0.18142405016E+02  0.16667138466E+02  0.13560991813E+04  0.13563598084E+04  0.10000000000E+02 0. -1.
</event>
<event>
 5    1  0.1688215E-008  0.3821368E+03  0.7957747E-01  0.3441907E+00
         13   -1    0    0    0    0  0.00000000000E+00  0.00000000000E+00  0.14999999963E+04  0.15000000000E+04  0.10566000000E+00 0.  1.
        994   -1    0    0    0    0 -0.00000000000E+00 -0.00000000000E+00  0.11368683772E-12  0.17120000000E+03  0.17120000000E+03 0.  0.
         13    1    1    2    0    0  0.18288958166E+02 -0.16384161921E+02  0.11834718254E+03  0.12086766951E+03  0.10566000000E+00 0.  1.
        994    1    1    2    0    0  0.87890204861E+01 -0.11299044036E+02  0.37389012409E+01  0.17183810596E+03  0.17120000000E+03 0.  0.
        998    1    1    2    0    0 -0.27077978652E+02  0.27683205957E+02  0.13779139125E+04  0.13784942245E+04  0.10000000000E+02 0.  1.
</event>
<event>
 5    1  0.1688215E-008  0.3830553E+03  0.7957747E-01  0.3437962E+00
         13   -1    0    0    0    0  0.00000000000E+00  0.00000000000E+00  0.14999999963E+04  0.15000000000E+04  0.10566000000E+00 0. -1.
        994   -1    0    0    0    0 -0.00000000000E+00 -0.00000000000E+00  0.11368683772E-12  0.17120000000E+03  0.17120000000E+03 0.  0.
         13    1    1    2    0    0 -0.13704216223E+02  0.30819756630E+01  0.37472077890E+02  0.40018394542E+02  0.10566000000E+00 0. -1.
        994    1    1    2    0    0  0.45877973871E+01 -0.12634089225E+02  0.31969052114E+01  0.17175659608E+03  0.17120000000E+03 0.  0.
        998    1    1    2    0    0  0.91164188361E+01  0.95521135617E+01  0.14593310132E+04  0.14594250094E+04  0.10000000000E+02 0. -1.
</event>
<event>
 5    1  0.1688215E-008  0.3857173E+03  0.7957747E-01  0.3426636E+00
         13   -1    0    0    0    0  0.00000000000E+00  0.00000000000E+00  0.14999999963E+04  0.15000000000E+04  0.10566000000E+00 0. -1.
        994   -1    0    0    0    0 -0.00000000000E+00 -0.00000000000E+00  0.11368683772E-12  0.17120000000E+03  0.17120000000E+03 0.  0.
         13    1    1    2    0    0  0.56660831294E+01 -0.98630182093E+02  0.21015542916E+03  0.23221828715E+03  0.10566000000E+00 0. -1.
        994    1    1    2    0    0 -0.11431103967E+02  0.97112950377E+02  0.55826653659E+02  0.20490888348E+03  0.17120000000E+03 0.  0.
        998    1    1    2    0    0  0.57650208381E+01  0.15172317158E+01  0.12340179135E+04  0.12340728294E+04  0.10000000000E+02 0.  0.
</event>
<event>
 5    1  0.1688215E-008  0.3855440E+03  0.7957747E-01  0.3427368E+00
         13   -1    0    0    0    0  0.00000000000E+00  0.00000000000E+00  0.14999999963E+04  0.15000000000E+04  0.10566000000E+00 0. -1.
        994   -1    0    0    0    0 -0.00000000000E+00 -0.00000000000E+00  0.11368683772E-12  0.17120000000E+03  0.17120000000E+03 0.  0.
         13    1    1    2    0    0  0.10375793268E+02 -0.10355564985E+02  0.76878148863E+02  0.78263374248E+02  0.10566000000E+00 0. -1.
        994    1    1    2    0    0 -0.13844979846E+02  0.59770416180E+01  0.21071819003E+01  0.17187579442E+03  0.17120000000E+03 0.  0.
        998    1    1    2    0    0  0.34691865777E+01  0.43785233675E+01  0.14210146655E+04  0.14210608313E+04  0.10000000000E+02 0. -1.
</event>
<event>
 5    1  0.1688215E-008  0.3834415E+03  0.7957747E-01  0.3436309E+00
         13   -1    0    0    0    0  0.00000000000E+00  0.00000000000E+00  0.14999999963E+04  0.15000000000E+04  0.10566000000E+00 0.  1.
        994   -1    0    0    0    0 -0.00000000000E+00 -0.00000000000E+00  0.11368683772E-12  0.17120000000E+03  0.17120000000E+03 0.  0.
         13    1    1    2    0    0 -0.13369082942E+02  0.12946871241E+02  0.74999961370E+02  0.77274570352E+02  0.10566000000E+00 0.  1.
        994    1    1    2    0    0  0.39209485665E+01 -0.64447344734E+00  0.24580689334E+01  0.17126374773E+03  0.17120000000E+03 0.  0.
        998    1    1    2    0    0  0.94481343758E+01 -0.12302397794E+02  0.14225419660E+04  0.14226616819E+04  0.10000000000E+02 0.  1.
</event>
<event>
 5    1  0.1688215E-008  0.3770017E+03  0.7957747E-01  0.3464318E+00
         13   -1    0    0    0    0  0.00000000000E+00  0.00000000000E+00  0.14999999963E+04  0.15000000000E+04  0.10566000000E+00 0.  1.
        994   -1    0    0    0    0 -0.00000000000E+00 -0.00000000000E+00  0.11368683772E-12  0.17120000000E+03  0.17120000000E+03 0.  0.
         13    1    1    2    0    0 -0.25732032032E+02 -0.22307666781E+02  0.10093135520E+03  0.10652191839E+03  0.10566000000E+00 0.  1.
        994    1    1    2    0    0  0.20934060668E+02  0.63189356240E+01  0.72705121309E+01  0.17274392664E+03  0.17120000000E+03 0.  0.
        998    1    1    2    0    0  0.47979713649E+01  0.15988731157E+02  0.13917981289E+04  0.13919341550E+04  0.10000000000E+02 0.  1.
</event>
<event>
 5    1  0.1688215E-008  0.3690947E+03  0.7957747E-01  0.3500062E+00
         13   -1    0    0    0    0  0.00000000000E+00  0.00000000000E+00  0.14999999963E+04  0.15000000000E+04  0.10566000000E+00 0. -1.
        994   -1    0    0    0    0 -0.00000000000E+00 -0.00000000000E+00  0.11368683772E-12  0.17120000000E+03  0.17120000000E+03 0.  0.
         13    1    1    2    0    0  0.64022122010E+01 -0.62728532882E+02  0.17779120681E+03  0.18864140993E+03  0.10566000000E+00 0. -1.
        994    1    1    2    0    0  0.70573925298E+01  0.64123181222E+02  0.24319451994E+02  0.18456019317E+03  0.17120000000E+03 0.  0.
        998    1    1    2    0    0 -0.13459604731E+02 -0.13946483391E+01  0.12978893375E+04  0.12979983969E+04  0.10000000000E+02 0. -1.
</event>
<event>
 5    1  0.1688215E-008  0.3828211E+03  0.7957747E-01  0.3438966E+00
         13   -1    0    0    0    0  0.00000000000E+00  0.00000000000E+00  0.14999999963E+04  0.15000000000E+04  0.10566000000E+00 0. -1.
        994   -1    0    0    0    0 -0.00000000000E+00 -0.00000000000E+00  0.11368683772E-12  0.17120000000E+03  0.17120000000E+03 0.  0.
         13    1    1    2    0    0 -0.28688693950E+02  0.86479781980E+01  0.15373424328E+03  0.15662712858E+03  0.10566000000E+00 0. -1.
        994    1    1    2    0    0  0.20544178079E+02 -0.25913805915E+02  0.63462757532E+01  0.17448009573E+03  0.17120000000E+03 0.  0.
        998    1    1    2    0    0  0.81445158703E+01  0.17265827717E+02  0.13399194772E+04  0.13400927757E+04  0.10000000000E+02 0. -1.
</event>
<event>
 5    1  0.1688215E-008  0.3825114E+03  0.7957747E-01  0.3440296E+00
         13   -1    0    0    0    0  0.00000000000E+00  0.00000000000E+00  0.14999999963E+04  0.15000000000E+04  0.10566000000E+00 0. -1.
        994   -1    0    0    0    0 -0.00000000000E+00 -0.00000000000E+00  0.11368683772E-12  0.17120000000E+03  0.17120000000E+03 0.  0.
         13    1    1    2    0    0  0.22504736624E+02  0.25348128859E+02  0.18059961748E+03  0.18375315998E+03  0.10566000000E+00 0. -1.
        994    1    1    2    0    0 -0.91836845399E+01 -0.35127484263E+02  0.72537313163E+01  0.17515803387E+03  0.17120000000E+03 0.  0.
        998    1    1    2    0    0 -0.13321052084E+02  0.97793554045E+01  0.13121466475E+04  0.13122888061E+04  0.10000000000E+02 0.  0.
</event>
<event>
 5    1  0.1688215E-008  0.3828814E+03  0.7957747E-01  0.3438707E+00
         13   -1    0    0    0    0  0.00000000000E+00  0.00000000000E+00  0.14999999963E+04  0.15000000000E+04  0.10566000000E+00 0.  1.
        994   -1    0    0    0    0 -0.00000000000E+00 -0.00000000000E+00  0.11368683772E-12  0.17120000000E+03  0.17120000000E+03 0.  0.
         13    1    1    2    0    0 -0.22296015740E+02 -0.29174647146E+01  0.10529022875E+03  0.10766460585E+03  0.10566000000E+00 0.  1.
        994    1    1    2    0    0 -0.44713434373E+01 -0.31765262049E+00  0.27521779570E+01  0.17128078789E+03  0.17120000000E+03 0.  0.
        998    1    1    2    0    0  0.26767359178E+02  0.32351173350E+01  0.13919575896E+04  0.13922546063E+04  0.10000000000E+02 0.  1.
</event>
<event>
 5    1  0.1688215E-008  0.3797827E+03  0.7957747E-01  0.3452105E+00
         13   -1    0    0    0    0  0.00000000000E+00  0.00000000000E+00  0.14999999963E+04  0.15000000000E+04  0.10566000000E+00 0.  1.
        994   -1    0    0    0    0 -0.00000000000E+00 -0.00000000000E+00  0.11368683772E-12  0.17120000000E+03  0.17120000000E+03 0.  0.
         13    1    1    2    0    0  0.48557062762E+01  0.15876953004E+02  0.37560769959E+02  0.41066752052E+02  0.10566000000E+00 0.  1.
        994    1    1    2    0    0  0.34423496305E+02  0.40093911465E+02  0.13641896720E+02  0.17968873137E+03  0.17120000000E+03 0.  0.
        998    1    1    2    0    0 -0.39279202581E+02 -0.55970864469E+02  0.14487973296E+04  0.14504445166E+04  0.10000000000E+02 0.  1.
</event>
<event>
 5    1  0.1688215E-008  0.3828950E+03  0.7957747E-01  0.3438649E+00
         13   -1    0    0    0    0  0.00000000000E+00  0.00000000000E+00  0.14999999963E+04  0.15000000000E+04  0.10566000000E+00 0.  1.
        994   -1    0    0    0    0 -0.00000000000E+00 -0.00000000000E+00  0.11368683772E-12  0.17120000000E+03  0.17120000000E+03 0.  0.
         13    1    1    2    0    0  0.82648754937E+01 -0.10951360393E+02  0.35159244479E+02  0.37741543394E+02  0.10566000000E+00 0.  1.
        994    1    1    2    0    0 -0.28043352693E+00  0.28595201957E+01  0.27061746540E+01  0.17124549302E+03  0.17120000000E+03 0.  0.
        998    1    1    2    0    0 -0.79844419667E+01  0.80918401977E+01  0.14621345771E+04  0.14622129636E+04  0.10000000000E+02 0.  1.
</event>
<event>
 5    1  0.1688215E-008  0.3765067E+03  0.7957747E-01  0.3466512E+00
         13   -1    0    0    0    0  0.00000000000E+00  0.00000000000E+00  0.14999999963E+04  0.15000000000E+04  0.10566000000E+00 0. -1.
        994   -1    0    0    0    0 -0.00000000000E+00 -0.00000000000E+00  0.11368683772E-12  0.17120000000E+03  0.17120000000E+03 0.  0.
         13    1    1    2    0    0  0.76461717343E+01  0.29711208803E+02  0.72447329787E+02  0.78675578346E+02  0.10566000000E+00 0. -1.
        994    1    1    2    0    0 -0.15070536210E+02 -0.34175727381E+02  0.10639861121E+02  0.17554984491E+03  0.17120000000E+03 0.  0.
        998    1    1    2    0    0  0.74243644761E+01  0.44645185774E+01  0.14169128054E+04  0.14169745767E+04  0.10000000000E+02 0. -1.
</event>
<event>
 5    1  0.1688215E-008  0.3794200E+03  0.7957747E-01  0.3453688E+00
         13   -1    0    0    0    0  0.00000000000E+00  0.00000000000E+00  0.14999999963E+04  0.15000000000E+04  0.10566000000E+00 0.  1.
        994   -1    0    0    0    0 -0.00000000000E+00 -0.00000000000E+00  0.11368683772E-12  0.17120000000E+03  0.17120000000E+03 0.  0.
         13    1    1    2    0    0  0.10385021141E+02  0.11107230735E+02  0.24155238326E+02  0.28543054170E+02  0.10566000000E+00 0.  1.
        994    1    1    2    0    0 -0.15220387302E+02 -0.30655235632E+01  0.52339907864E+01  0.17198224409E+03  0.17120000000E+03 0.  0.
        998    1    1    2    0    0  0.48353661613E+01 -0.80417071722E+01  0.14706107672E+04  0.14706747017E+04  0.10000000000E+02 0.  1.
</event>
<event>
 5    1  0.1688215E-008  0.3864062E+03  0.7957747E-01  0.3423730E+00
         13   -1    0    0    0    0  0.00000000000E+00  0.00000000000E+00  0.14999999963E+04  0.15000000000E+04  0.10566000000E+00 0.  1.
        994   -1    0    0    0    0 -0.00000000000E+00 -0.00000000000E+00  0.11368683772E-12  0.17120000000E+03  0.17120000000E+03 0.  0.
         13    1    1    2    0    0  0.14217078872E+02  0.84499540147E+01  0.98048526890E+02  0.99433655489E+02  0.10566000000E+00 0.  1.
        994    1    1    2    0    0 -0.58058779648E+02 -0.11747174314E+02  0.12505745863E+02  0.18158923888E+03  0.17120000000E+03 0.  0.
        998    1    1    2    0    0  0.43841700776E+02  0.32972202993E+01  0.13894457235E+04  0.13901771056E+04  0.10000000000E+02 0.  1.
</event>
<event>
 5    1  0.1688215E-008  0.3798250E+03  0.7957747E-01  0.3451921E+00
         13   -1    0    0    0    0  0.00000000000E+00  0.00000000000E+00  0.14999999963E+04  0.15000000000E+04  0.10566000000E+00 0. -1.
        994   -1    0    0    0    0 -0.00000000000E+00 -0.00000000000E+00  0.11368683772E-12  0.17120000000E+03  0.17120000000E+03 0.  0.
         13    1    1    2    0    0  0.67972088876E+01  0.18812388053E+02  0.47251514786E+02  0.51311059300E+02  0.10566000000E+00 0. -1.
        994    1    1    2    0    0 -0.11533658341E+02 -0.68934040043E+00  0.46681549318E+01  0.17165294095E+03  0.17120000000E+03 0.  0.
        998    1    1    2    0    0  0.47364494535E+01 -0.18123047653E+02  0.14480803266E+04  0.14482359998E+04  0.10000000000E+02 0. -1.
</event>
<event>
 5    1  0.1688215E-008  0.3764235E+03  0.7957747E-01  0.3466881E+00
         13   -1    0    0    0    0  0.00000000000E+00  0.00000000000E+00  0.14999999963E+04  0.15000000000E+04  0.10566000000E+00 0. -1.
        994   -1    0    0    0    0 -0.00000000000E+00 -0.00000000000E+00  0.11368683772E-12  0.17120000000E+03  0.17120000000E+03 0.  0.
         13    1    1    2    0    0 -0.45070345275E+01 -0.52316213146E+02  0.20739902999E+03  0.21394314274E+03  0.10566000000E+00 0. -1.
        994    1    1    2    0    0  0.18825819948E+02  0.45245129007E+02  0.14117421271E+02  0.17863447254E+03  0.17120000000E+03 0.  0.
        998    1    1    2    0    0 -0.14318785420E+02  0.70710841387E+01  0.12784835450E+04  0.12786223847E+04  0.10000000000E+02 0. -1.
</event>
<event>
 5    1  0.1688215E-008  0.3857132E+03  0.7957747E-01  0.3426653E+00
         13   -1    0    0    0    0  0.00000000000E+00  0.00000000000E+00  0.14999999963E+04  0.15000000000E+04  0.10566000000E+00 0.  1.
        994   -1    0    0    0    0 -0.00000000000E+00 -0.00000000000E+00  0.11368683772E-12  0.17120000000E+03  0.17120000000E+03 0.  0.
         13    1    1    2    0    0  0.73358031384E+00  0.15329453770E+02  0.88191265217E+02  0.89516706360E+02  0.10566000000E+00 0.  1.
        994    1    1    2    0    0 -0.74189399190E+01 -0.16059972033E+02  0.23039756763E+01  0.17212702192E+03  0.17120000000E+03 0.  0.
        998    1    1    2    0    0  0.66853596052E+01  0.73051826343E+00  0.14095047554E+04  0.14095562717E+04  0.10000000000E+02 0.  1.
</event>
<event>
 5    1  0.1688215E-008  0.3822050E+03  0.7957747E-01  0.3441613E+00
         13   -1    0    0    0    0  0.00000000000E+00  0.00000000000E+00  0.14999999963E+04  0.15000000000E+04  0.10566000000E+00 0.  1.
        994   -1    0    0    0    0 -0.00000000000E+00 -0.00000000000E+00  0.11368683772E-12  0.17120000000E+03  0.17120000000E+03 0.  0.
         13    1    1    2    0    0 -0.90958332720E+01  0.46780799894E+01  0.16139311669E+02  0.19107777487E+02  0.10566000000E+00 0.  1.
        994    1    1    2    0    0  0.48360113363E+01 -0.32466243963E+01  0.31368253841E+01  0.17132777723E+03  0.17120000000E+03 0.  0.
        998    1    1    2    0    0  0.42598219357E+01 -0.14314555931E+01  0.14807238592E+04  0.14807644453E+04  0.10000000000E+02 0.  1.
</event>
<event>
 5    1  0.1688215E-008  0.3922948E+03  0.7957747E-01  0.3399311E+00
         13   -1    0    0    0    0  0.00000000000E+00  0.00000000000E+00  0.14999999963E+04  0.15000000000E+04  0.10566000000E+00 0. -1.
        994   -1    0    0    0    0 -0.00000000000E+00 -0.00000000000E+00  0.11368683772E-12  0.17120000000E+03  0.17120000000E+03 0.  0.
         13    1    1    2    0    0 -0.10654514714E+03  0.44026853212E+02  0.31758993795E+03  0.33786626354E+03  0.10566000000E+00 0. -1.
        994    1    1    2    0    0  0.82917398312E+02  0.70452321381E+02  0.69752187998E+02  0.21450788391E+03  0.17120000000E+03 0.  0.
        998    1    1    2    0    0  0.23627748829E+02 -0.11447917459E+03  0.11126578703E+04  0.11188258525E+04  0.10000000000E+02 0. -1.
</event>
<event>
 5    1  0.1688215E-008  0.3732828E+03  0.7957747E-01  0.3480938E+00
         13   -1    0    0    0    0  0.00000000000E+00  0.00000000000E+00  0.14999999963E+04  0.15000000000E+04  0.10566000000E+00 0. -1.
        994   -1    0    0    0    0 -0.00000000000E+00 -0.00000000000E+00  0.11368683772E-12  0.17120000000E+03  0.17120000000E+03 0.  0.
         13    1    1    2    0    0 -0.74887463324E+02  0.21326753132E+02  0.38057902208E+03  0.38846282419E+03  0.10566000000E+00 0. -1.
        994    1    1    2    0    0 -0.13177605180E+02  0.29087941216E+02  0.16300333628E+02  0.17491397451E+03  0.17120000000E+03 0.  0.
        998    1    1    2    0    0  0.88065068504E+02 -0.50414694347E+02  0.11031206406E+04  0.11078232013E+04  0.10000000000E+02 0. -1.
</event>
<event>
 5    1  0.1688215E-008  0.3717369E+03  0.7957747E-01  0.3487946E+00
         13   -1    0    0    0    0  0.00000000000E+00  0.00000000000E+00  0.14999999963E+04  0.15000000000E+04  0.10566000000E+00 0.  1.
        994   -1    0    0    0    0 -0.00000000000E+00 -0.00000000000E+00  0.11368683772E-12  0.17120000000E+03  0.17120000000E+03 0.  0.
         13    1    1    2    0    0 -0.18966188703E+02  0.57562199788E+02  0.24552054600E+03  0.25289023870E+03  0.10566000000E+00 0.  1.
        994    1    1    2    0    0  0.37280443433E+01 -0.14689668235E+02  0.91538397498E+01  0.17211309494E+03  0.17120000000E+03 0.  0.
        998    1    1    2    0    0  0.15238144360E+02 -0.42872531553E+02  0.12453256105E+04  0.12461966664E+04  0.10000000000E+02 0.  1.
</event>
<event>
 5    1  0.1688215E-008  0.3764787E+03  0.7957747E-01  0.3466636E+00
         13   -1    0    0    0    0  0.00000000000E+00  0.00000000000E+00  0.14999999963E+04  0.15000000000E+04  0.10566000000E+00 0.  1.
        994   -1    0    0    0    0 -0.00000000000E+00 -0.00000000000E+00  0.11368683772E-12  0.17120000000E+03  0.17120000000E+03 0.  0.
         13    1    1    2    0    0  0.69754978415E+02  0.45316565859E+02  0.28991016298E+03  0.30160779485E+03  0.10566000000E+00 0.  1.
        994    1    1    2    0    0  0.51322859628E+01 -0.31320939937E+02  0.18018391308E+02  0.17504697673E+03  0.17120000000E+03 0.  0.
        998    1    1    2    0    0 -0.74887264378E+02 -0.13995625922E+02  0.11920714420E+04  0.11945452284E+04  0.10000000000E+02 0.  1.
</event>
<event>
 5    1  0.1688215E-008  0.4144521E+03  0.7957747E-01  0.3313623E+00
         13   -1    0    0    0    0  0.00000000000E+00  0.00000000000E+00  0.14999999963E+04  0.15000000000E+04  0.10566000000E+00 0.  1.
        994   -1    0    0    0    0 -0.00000000000E+00 -0.00000000000E+00  0.11368683772E-12  0.17120000000E+03  0.17120000000E+03 0.  0.
         13    1    1    2    0    0  0.55772950516E+02  0.13403125118E+02  0.30179091609E+02  0.64815542168E+02  0.10566000000E+00 0.  1.
        994    1    1    2    0    0 -0.57545841550E+02 -0.38074505519E+02  0.56817407246E+02  0.19312910090E+03  0.17120000000E+03 0.  0.
        998    1    1    2    0    0  0.17728910341E+01  0.24671380401E+02  0.14130034974E+04  0.14132553569E+04  0.10000000000E+02 0.  1.
</event>
<event>
 5    1  0.1688215E-008  0.3758876E+03  0.7957747E-01  0.3469262E+00
         13   -1    0    0    0    0  0.00000000000E+00  0.00000000000E+00  0.14999999963E+04  0.15000000000E+04  0.10566000000E+00 0.  1.
        994   -1    0    0    0    0 -0.00000000000E+00 -0.00000000000E+00  0.11368683772E-12  0.17120000000E+03  0.17120000000E+03 0.  0.
         13    1    1    2    0    0 -0.11619649526E+03 -0.44783138250E+02  0.71787257006E+03  0.72859329738E+03  0.10566000000E+00 0.  1.
        994    1    1    2    0    0  0.98096206319E+02  0.79147167908E+02  0.62122186857E+02  0.22148531776E+03  0.17120000000E+03 0.  0.
        998    1    1    2    0    0  0.18100288944E+02 -0.34364029658E+02  0.72000523936E+03  0.72112138486E+03  0.10000000000E+02 0.  1.
</event>
<event>
 5    1  0.1688215E-008  0.3859561E+03  0.7957747E-01  0.3425627E+00
         13   -1    0    0    0    0  0.00000000000E+00  0.00000000000E+00  0.14999999963E+04  0.15000000000E+04  0.10566000000E+00 0.  1.
        994   -1    0    0    0    0 -0.00000000000E+00 -0.00000000000E+00  0.11368683772E-12  0.17120000000E+03  0.17120000000E+03 0.  0.
         13    1    1    2    0    0 -0.10441424049E+02  0.13992883728E+01  0.50944853087E+02  0.52022788893E+02  0.10566000000E+00 0.  1.
        994    1    1    2    0    0 -0.95084627280E+00 -0.58978269774E+01  0.12732056965E+01  0.17130893008E+03  0.17120000000E+03 0.  0.
        998    1    1    2    0    0  0.11392270322E+02  0.44985386046E+01  0.14477819375E+04  0.14478682810E+04  0.10000000000E+02 0.  1.
</event>
<event>
 5    1  0.1688215E-008  0.3842720E+03  0.7957747E-01  0.3432766E+00
         13   -1    0    0    0    0  0.00000000000E+00  0.00000000000E+00  0.14999999963E+04  0.15000000000E+04  0.10566000000E+00 0. -1.
        994   -1    0    0    0    0 -0.00000000000E+00 -0.00000000000E+00  0.11368683772E-12  0.17120000000E+03  0.17120000000E+03 0.  0.
         13    1    1    2    0    0 -0.12792343062E+02 -0.18904929094E+02  0.12342687810E+03  0.12551990196E+03  0.10566000000E+00 0. -1.
        994    1    1    2    0    0  0.86313010613E+01  0.19635160444E+02  0.35099721201E+01  0.17257403857E+03  0.17120000000E+03 0.  0.
        998    1    1    2    0    0  0.41610420004E+01 -0.73023134984E+00  0.13730631461E+04  0.13731060595E+04  0.10000000000E+02 0. -1.
</event>
<event>
 5    1  0.1688215E-008  0.3782358E+03  0.7957747E-01  0.3458877E+00
         13   -1    0    0    0    0  0.00000000000E+00  0.00000000000E+00  0.14999999963E+04  0.15000000000E+04  0.10566000000E+00 0.  1.
        994   -1    0    0    0    0 -0.00000000000E+00 -0.00000000000E+00  0.11368683772E-12  0.17120000000E+03  0.17120000000E+03 0.  0.
         13    1    1    2    0    0 -0.24729357146E+01 -0.30906703727E+02  0.10629518941E+03  0.11072496648E+03  0.10566000000E+00 0.  1.
        994    1    1    2    0    0 -0.62837449338E+01 -0.57689207592E+01  0.52710979952E+01  0.17149341203E+03  0.17120000000E+03 0.  0.
        998    1    1    2    0    0  0.87566806484E+01  0.36675624486E+02  0.13884337089E+04  0.13889816215E+04  0.10000000000E+02 0.  1.
</event>
<event>
 5    1  0.1688215E-008  0.3819827E+03  0.7957747E-01  0.3442571E+00
         13   -1    0    0    0    0  0.00000000000E+00  0.00000000000E+00  0.14999999963E+04  0.15000000000E+04  0.10566000000E+00 0. -1.
        994   -1    0    0    0    0 -0.00000000000E+00 -0.00000000000E+00  0.11368683772E-12  0.17120000000E+03  0.17120000000E+03 0.  0.
         13    1    1    2    0    0  0.19454088483E+02  0.33711658581E+01  0.59870134004E+02  0.63041814913E+02  0.10566000000E+00 0. -1.
        994    1    1    2    0    0 -0.16645240513E+02 -0.51838836256E+01  0.41456928999E+01  0.17213530565E+03  0.17120000000E+03 0.  0.
        998    1    1    2    0    0 -0.28088479701E+01  0.18127177675E+01  0.14359841694E+04  0.14360228794E+04  0.10000000000E+02 0. -1.
</event>
<event>
 5    1  0.1688215E-008  0.3833497E+03  0.7957747E-01  0.3436701E+00
         13   -1    0    0    0    0  0.00000000000E+00  0.00000000000E+00  0.14999999963E+04  0.15000000000E+04  0.10566000000E+00 0.  1.
        994   -1    0    0    0    0 -0.00000000000E+00 -0.00000000000E+00  0.11368683772E-12  0.17120000000E+03  0.17120000000E+03 0.  0.
         13    1    1    2    0    0  0.17118500400E+02 -0.39230083832E+01  0.63735437644E+02  0.66110893402E+02  0.10566000000E+00 0.  1.
        994    1    1    2    0    0 -0.55394007281E+01  0.67169803064E+01  0.27023563620E+01  0.17144254290E+03  0.17120000000E+03 0.  0.
        998    1    1    2    0    0 -0.11579099672E+02 -0.27939719231E+01  0.14335622023E+04  0.14336465637E+04  0.10000000000E+02 0.  1.
</event>
<event>
 5    1  0.1688215E-008  0.3772510E+03  0.7957747E-01  0.3463217E+00
         13   -1    0    0    0    0  0.00000000000E+00  0.00000000000E+00  0.14999999963E+04  0.15000000000E+04  0.10566000000E+00 0.  1.
        994   -1    0    0    0    0 -0.00000000000E+00 -0.00000000000E+00  0.11368683772E-12  0.17120000000E+03  0.17120000000E+03 0.  0.
         13    1    1    2    0    0  0.57922323529E+01  0.11881630239E+02  0.13304042972E+02  0.18754514556E+02  0.10566000000E+00 0.  1.
        994    1    1    2    0    0 -0.54335185625E+01 -0.10313678312E+02  0.59859130816E+01  0.17170080442E+03  0.17120000000E+03 0.  0.
        998    1    1    2    0    0 -0.35871379032E+00 -0.15679519278E+01  0.14807100402E+04  0.14807446810E+04  0.10000000000E+02 0.  1.
</event>
<event>
 5    1  0.1688215E-008  0.3798440E+03  0.7957747E-01  0.3451838E+00
         13   -1    0    0    0    0  0.00000000000E+00  0.00000000000E+00  0.14999999963E+04  0.15000000000E+04  0.10566000000E+00 0. -1.
        994   -1    0    0    0    0 -0.00000000000E+00 -0.00000000000E+00  0.11368683772E-12  0.17120000000E+03  0.17120000000E+03 0.  0.
         13    1    1    2    0    0  0.11707495414E+02 -0.34833263719E+02  0.14909570606E+03  0.15355768440E+03  0.10566000000E+00 0. -1.
        994    1    1    2    0    0 -0.67638287957E+01  0.31328210474E+02  0.76551976325E+01  0.17434233049E+03  0.17120000000E+03 0.  0.
        998    1    1    2    0    0 -0.49436666178E+01  0.35050532449E+01  0.13432490926E+04  0.13432999851E+04  0.10000000000E+02 0. -1.
</event>
<event>
 5    1  0.1688215E-008  0.3924990E+03  0.7957747E-01  0.3398478E+00
         13   -1    0    0    0    0  0.00000000000E+00  0.00000000000E+00  0.14999999963E+04  0.15000000000E+04  0.10566000000E+00 0. -1.
        994   -1    0    0    0    0 -0.00000000000E+00 -0.00000000000E+00  0.11368683772E-12  0.17120000000E+03  0.17120000000E+03 0.  0.
         13    1    1    2    0    0  0.37985416883E+02  0.94383233945E+02  0.18354086456E+03  0.20985315550E+03  0.10566000000E+00 0. -1.
        994    1    1    2    0    0 -0.38705353121E+02 -0.99452173062E+02  0.68078091087E+02  0.21291525444E+03  0.17120000000E+03 0.  0.
        998    1    1    2    0    0  0.71993623811E+00  0.50689391165E+01  0.12483810406E+04  0.12484315901E+04  0.10000000000E+02 0. -1.
</event>
<event>
 5    1  0.1688215E-008  0.3813984E+03  0.7957747E-01  0.3445092E+00
         13   -1    0    0    0    0  0.00000000000E+00  0.00000000000E+00  0.14999999963E+04  0.15000000000E+04  0.10566000000E+00 0.  1.
        994   -1    0    0    0    0 -0.00000000000E+00 -0.00000000000E+00  0.11368683772E-12  0.17120000000E+03  0.17120000000E+03 0.  0.
         13    1    1    2    0    0  0.10126143047E+02  0.14769630379E+02  0.44079786033E+02  0.47578560878E+02  0.10566000000E+00 0.  1.
        994    1    1    2    0    0 -0.91406362124E+01 -0.18352042115E+02  0.48288728745E+01  0.17249088873E+03  0.17120000000E+03 0.  0.
        998    1    1    2    0    0 -0.98550683448E+00  0.35824117355E+01  0.14510913374E+04  0.14511305504E+04  0.10000000000E+02 0.  1.
</event>
<event>
 5    1  0.1688215E-008  0.3855053E+03  0.7957747E-01  0.3427532E+00
         13   -1    0    0    0    0  0.00000000000E+00  0.00000000000E+00  0.14999999963E+04  0.15000000000E+04  0.10566000000E+00 0. -1.
        994   -1    0    0    0    0 -0.00000000000E+00 -0.00000000000E+00  0.11368683772E-12  0.17120000000E+03  0.17120000000E+03 0.  0.
         13    1    1    2    0    0 -0.85361981440E+01  0.14103723404E+02  0.93187916426E+02  0.94634986260E+02  0.10566000000E+00 0. -1.
        994    1    1    2    0    0  0.71881722042E+01 -0.16758711523E+02  0.24719898680E+01  0.17218616369E+03  0.17120000000E+03 0.  0.
        998    1    1    2    0    0  0.13480259398E+01  0.26549881188E+01  0.14043400900E+04  0.14043788501E+04  0.10000000000E+02 0. -1.
</event>
<event>
 5    1  0.1688215E-008  0.3815131E+03  0.7957747E-01  0.3444597E+00
         13   -1    0    0    0    0  0.00000000000E+00  0.00000000000E+00  0.14999999963E+04  0.15000000000E+04  0.10566000000E+00 0.  1.
        994   -1    0    0    0    0 -0.00000000000E+00 -0.00000000000E+00  0.11368683772E-12  0.17120000000E+03  0.17120000000E+03 0.  0.
         13    1    1    2    0    0 -0.30203487981E+01  0.10057523949E+02  0.14876698525E+02  0.18209986763E+02  0.10566000000E+00 0.  1.
        994    1    1    2    0    0  0.60339825250E+01 -0.78814800702E+01  0.36991019346E+01  0.17152740314E+03  0.17120000000E+03 0.  0.
        998    1    1    2    0    0 -0.30136337268E+01 -0.21760438792E+01  0.14814241958E+04  0.14814626101E+04  0.10000000000E+02 0.  1.
</event>
<event>
 5    1  0.1688215E-008  0.3851180E+03  0.7957747E-01  0.3429172E+00
         13   -1    0    0    0    0  0.00000000000E+00  0.00000000000E+00  0.14999999963E+04  0.15000000000E+04  0.10566000000E+00 0.  1.
        994   -1    0    0    0    0 -0.00000000000E+00 -0.00000000000E+00  0.11368683772E-12  0.17120000000E+03  0.17120000000E+03 0.  0.
         13    1    1    2    0    0  0.24851582497E+00  0.12355114741E+02  0.48094061937E+02  0.49656425344E+02  0.10566000000E+00 0.  1.
        994    1    1    2    0    0 -0.48277326413E+00 -0.10078929228E+02  0.19063500946E+01  0.17150770261E+03  0.17120000000E+03 0.  0.
        998    1    1    2    0    0  0.23425743916E+00 -0.22761855131E+01  0.14499995842E+04  0.14500358720E+04  0.10000000000E+02 0.  1.
</event>
<event>
 5    1  0.1688215E-008  0.3736977E+03  0.7957747E-01  0.3479068E+00
         13   -1    0    0    0    0  0.00000000000E+00  0.00000000000E+00  0.14999999963E+04  0.15000000000E+04  0.10566000000E+00 0. -1.
        994   -1    0    0    0    0 -0.00000000000E+00 -0.00000000000E+00  0.11368683772E-12  0.17120000000E+03  0.17120000000E+03 0.  0.
         13    1    1    2    0    0  0.16559559262E+02 -0.66381362872E+01  0.64446965280E+01  0.18969162704E+02  0.10566000000E+00 0. -1.
        994    1    1    2    0    0 -0.15212056809E+02  0.14053709827E+02  0.14428107069E+02  0.17305063914E+03  0.17120000000E+03 0.  0.
        998    1    1    2    0    0 -0.13475024536E+01 -0.74155735395E+01  0.14791271927E+04  0.14791801982E+04  0.10000000000E+02 0. -1.
</event>
<event>
 5    1  0.1688215E-008  0.3781336E+03  0.7957747E-01  0.3459326E+00
         13   -1    0    0    0    0  0.00000000000E+00  0.00000000000E+00  0.14999999963E+04  0.15000000000E+04  0.10566000000E+00 0.  1.
        994   -1    0    0    0    0 -0.00000000000E+00 -0.00000000000E+00  0.11368683772E-12  0.17120000000E+03  0.17120000000E+03 0.  0.
         13    1    1    2    0    0  0.12393776819E+03 -0.25928008609E+02  0.41234545031E+03  0.43134859866E+03  0.10566000000E+00 0.  1.
        994    1    1    2    0    0 -0.10581292330E+03  0.29665416555E+02  0.60163410160E+02  0.21214496836E+03  0.17120000000E+03 0.  0.
        998    1    1    2    0    0 -0.18124844887E+02 -0.37374079464E+01  0.10274911358E+04  0.10277064330E+04  0.10000000000E+02 0.  1.
</event>
<event>
 5    1  0.1688215E-008  0.3834219E+03  0.7957747E-01  0.3436393E+00
         13   -1    0    0    0    0  0.00000000000E+00  0.00000000000E+00  0.14999999963E+04  0.15000000000E+04  0.10566000000E+00 0.  1.
        994   -1    0    0    0    0 -0.00000000000E+00 -0.00000000000E+00  0.11368683772E-12  0.17120000000E+03  0.17120000000E+03 0.  0.
         13    1    1    2    0    0  0.14710158981E+02 -0.17781120249E+02  0.10569405440E+03  0.10818410842E+03  0.10566000000E+00 0.  1.
        994    1    1    2    0    0 -0.95082708089E+01  0.17723778108E+02  0.37540438589E+01  0.17241830636E+03  0.17120000000E+03 0.  0.
        998    1    1    2    0    0 -0.52018881721E+01  0.57342140815E-01  0.13905518980E+04  0.13905975852E+04  0.10000000000E+02 0.  1.
</event>
<event>
 5    1  0.1688215E-008  0.3829725E+03  0.7957747E-01  0.3438317E+00
         13   -1    0    0    0    0  0.00000000000E+00  0.00000000000E+00  0.14999999963E+04  0.15000000000E+04  0.10566000000E+00 0. -1.
        994   -1    0    0    0    0 -0.00000000000E+00 -0.00000000000E+00  0.11368683772E-12  0.17120000000E+03  0.17120000000E+03 0.  0.
         13    1    1    2    0    0 -0.18278311711E+02  0.14532758051E+02  0.96570048656E+02  0.99353325043E+02  0.10566000000E+00 0. -1.
        994    1    1    2    0    0  0.17555815498E+02 -0.16883524035E+02  0.46064951613E+01  0.17298531683E+03  0.17120000000E+03 0.  0.
        998    1    1    2    0    0  0.72249621207E+00  0.23507659839E+01  0.13988234525E+04  0.13988613581E+04  0.10000000000E+02 0. -1.
</event>
<event>
 5    1  0.1688215E-008  0.3836478E+03  0.7957747E-01  0.3435427E+00
         13   -1    0    0    0    0  0.00000000000E+00  0.00000000000E+00  0.14999999963E+04  0.15000000000E+04  0.10566000000E+00 0.  1.
        994   -1    0    0    0    0 -0.00000000000E+00 -0.00000000000E+00  0.11368683772E-12  0.17120000000E+03  0.17120000000E+03 0.  0.
         13    1    1    2    0    0  0.17546978000E+02 -0.95899374715E+01  0.11469957331E+03  0.11642966383E+03  0.10566000000E+00 0.  1.
        994    1    1    2    0    0 -0.14607306741E+01 -0.48650500356E+02  0.10167763238E+02  0.17827458688E+03  0.17120000000E+03 0.  0.
        998    1    1    2    0    0 -0.16086247326E+02  0.58240437828E+02  0.13751326597E+04  0.13764957493E+04  0.10000000000E+02 0.  1.
</event>
<event>
 5    1  0.1688215E-008  0.3789871E+03  0.7957747E-01  0.3455581E+00
         13   -1    0    0    0    0  0.00000000000E+00  0.00000000000E+00  0.14999999963E+04  0.15000000000E+04  0.10566000000E+00 0. -1.
        994   -1    0    0    0    0 -0.00000000000E+00 -0.00000000000E+00  0.11368683772E-12  0.17120000000E+03  0.17120000000E+03 0.  0.
         13    1    1    2    0    0  0.42594477739E+02 -0.73922234176E+02  0.44121534232E+03  0.44938822381E+03  0.10566000000E+00 0. -1.
        994    1    1    2    0    0 -0.58475249722E+02  0.86539570111E+02  0.42149990621E+02  0.20492562976E+03  0.17120000000E+03 0.  0.
        998    1    1    2    0    0  0.15880771983E+02 -0.12617335935E+02  0.10166346633E+04  0.10168861464E+04  0.10000000000E+02 0. -1.
</event>
<event>
 5    1  0.1688215E-008  0.3832740E+03  0.7957747E-01  0.3437025E+00
         13   -1    0    0    0    0  0.00000000000E+00  0.00000000000E+00  0.14999999963E+04  0.15000000000E+04  0.10566000000E+00 0.  1.
        994   -1    0    0    0    0 -0.00000000000E+00 -0.00000000000E+00  0.11368683772E-12  0.17120000000E+03  0.17120000000E+03 0.  0.
         13    1    1    2    0    0 -0.24506569438E+01  0.18542116172E+02  0.67253301714E+02  0.69805684203E+02  0.10566000000E+00 0.  1.
        994    1    1    2    0    0  0.12839225830E+01 -0.18489570425E+02  0.36263484771E+01  0.17223850637E+03  0.17120000000E+03 0.  0.
        998    1    1    2    0    0  0.11667343608E+01 -0.52545746642E-01  0.14291203461E+04  0.14291558094E+04  0.10000000000E+02 0.  0.
</event>
<event>
 5    1  0.1688215E-008  0.3737385E+03  0.7957747E-01  0.3478884E+00
         13   -1    0    0    0    0  0.00000000000E+00  0.00000000000E+00  0.14999999963E+04  0.15000000000E+04  0.10566000000E+00 0.  1.
        994   -1    0    0    0    0 -0.00000000000E+00 -0.00000000000E+00  0.11368683772E-12  0.17120000000E+03  0.17120000000E+03 0.  0.
         13    1    1    2    0    0 -0.72352069723E+01 -0.13227487323E+02  0.12566893488E+02  0.19627853086E+02  0.10566000000E+00 0.  1.
        994    1    1    2    0    0  0.20694267265E+02 -0.12029867981E+02  0.92863611526E+01  0.17311454856E+03  0.17120000000E+03 0.  0.
        998    1    1    2    0    0 -0.13459060293E+02  0.25257355304E+02  0.14781467416E+04  0.14784575983E+04  0.10000000000E+02 0.  1.
</event>
<event>
 5    1  0.1688215E-008  0.3789015E+03  0.7957747E-01  0.3455955E+00
         13   -1    0    0    0    0  0.00000000000E+00  0.00000000000E+00  0.14999999963E+04  0.15000000000E+04  0.10566000000E+00 0. -1.
        994   -1    0    0    0    0 -0.00000000000E+00 -0.00000000000E+00  0.11368683772E-12  0.17120000000E+03  0.17120000000E+03 0.  0.
         13    1    1    2    0    0 -0.26351624328E+02  0.43939912995E+02  0.81354840268E+02  0.96144397953E+02  0.10566000000E+00 0. -1.
        994    1    1    2    0    0  0.10678854363E+02 -0.17563582822E+02  0.17251466667E+02  0.17329042234E+03  0.17120000000E+03 0.  0.
        998    1    1    2    0    0  0.15672769965E+02 -0.26376330173E+02  0.14013936893E+04  0.14017651797E+04  0.10000000000E+02 0. -1.
</event>
<event>
 5    1  0.1688215E-008  0.3688028E+03  0.7957747E-01  0.3501411E+00
         13   -1    0    0    0    0  0.00000000000E+00  0.00000000000E+00  0.14999999963E+04  0.15000000000E+04  0.10566000000E+00 0.  1.
        994   -1    0    0    0    0 -0.00000000000E+00 -0.00000000000E+00  0.11368683772E-12  0.17120000000E+03  0.17120000000E+03 0.  0.
         13    1    1    2    0    0 -0.60144615821E+02  0.13406459812E+02  0.19326139283E+03  0.20284744293E+03  0.10566000000E+00 0.  1.
        994    1    1    2    0    0  0.43434313966E+02  0.41354611232E+02  0.22489993902E+02  0.18278945080E+03  0.17120000000E+03 0.  0.
        998    1    1    2    0    0  0.16710301855E+02 -0.54761071045E+02  0.12842486095E+04  0.12855631063E+04  0.10000000000E+02 0.  1.
</event>
<event>
 5    1  0.1688215E-008  0.3932247E+03  0.7957747E-01  0.3395522E+00
         13   -1    0    0    0    0  0.00000000000E+00  0.00000000000E+00  0.14999999963E+04  0.15000000000E+04  0.10566000000E+00 0. -1.
        994   -1    0    0    0    0 -0.00000000000E+00 -0.00000000000E+00  0.11368683772E-12  0.17120000000E+03  0.17120000000E+03 0.  0.
         13    1    1    2    0    0  0.24711394035E+02  0.19084853796E+01  0.23071425121E+01  0.24892355900E+02  0.10566000000E+00 0. -1.
        994    1    1    2    0    0 -0.36535106678E+02  0.34650454138E+00  0.28892161881E+02  0.17742359230E+03  0.17120000000E+03 0.  0.
        998    1    1    2    0    0  0.11823712643E+02 -0.22549899210E+01  0.14688006919E+04  0.14688840518E+04  0.10000000000E+02 0. -1.
</event>
<event>
 5    1  0.1688215E-008  0.3768355E+03  0.7957747E-01  0.3465054E+00
         13   -1    0    0    0    0  0.00000000000E+00  0.00000000000E+00  0.14999999963E+04  0.15000000000E+04  0.10566000000E+00 0. -1.
        994   -1    0    0    0    0 -0.00000000000E+00 -0.00000000000E+00  0.11368683772E-12  0.17120000000E+03  0.17120000000E+03 0.  0.
         13    1    1    2    0    0 -0.20013705902E+02  0.42089263887E+02  0.16193138097E+03  0.16850471170E+03  0.10566000000E+00 0. -1.
        994    1    1    2    0    0  0.17711652328E+02 -0.50478784803E+02  0.15469019222E+02  0.18002927789E+03  0.17120000000E+03 0.  0.
        998    1    1    2    0    0  0.23020535741E+01  0.83895209161E+01  0.13225995961E+04  0.13226660104E+04  0.10000000000E+02 0. -1.
</event>
<event>
 5    1  0.1688215E-008  0.3823851E+03  0.7957747E-01  0.3440838E+00
         13   -1    0    0    0    0  0.00000000000E+00  0.00000000000E+00  0.14999999963E+04  0.15000000000E+04  0.10566000000E+00 0. -1.
        994   -1    0    0    0    0 -0.00000000000E+00 -0.00000000000E+00  0.11368683772E-12  0.17120000000E+03  0.17120000000E+03 0.  0.
         13    1    1    2    0    0 -0.11285005778E+02 -0.46959387823E+01  0.23944805879E+02  0.26884346544E+02  0.10566000000E+00 0. -1.
        994    1    1    2    0    0  0.54075253896E+01  0.23117425510E+02  0.48057328381E+01  0.17290515250E+03  0.17120000000E+03 0.  0.
        998    1    1    2    0    0  0.58774803883E+01 -0.18421486728E+02  0.14712494576E+04  0.14714105010E+04  0.10000000000E+02 0. -1.
</event>
<event>
 5    1  0.1688215E-008  0.3796135E+03  0.7957747E-01  0.3452843E+00
         13   -1    0    0    0    0  0.00000000000E+00  0.00000000000E+00  0.14999999963E+04  0.15000000000E+04  0.10566000000E+00 0.  1.
        994   -1    0    0    0    0 -0.00000000000E+00 -0.00000000000E+00  0.11368683772E-12  0.17120000000E+03  0.17120000000E+03 0.  0.
         13    1    1    2    0    0 -0.10826526987E+02  0.22859984505E+02  0.12877658308E+02  0.28383759894E+02  0.10566000000E+00 0.  1.
        994    1    1    2    0    0  0.43756477905E+01 -0.22547815950E+02  0.18026248212E+02  0.17367192036E+03  0.17120000000E+03 0.  0.
        998    1    1    2    0    0  0.64508791965E+01 -0.31216855516E+00  0.14690960898E+04  0.14691443197E+04  0.10000000000E+02 0.  1.
</event>
<event>
 5    1  0.1688215E-008  0.3760284E+03  0.7957747E-01  0.3468636E+00
         13   -1    0    0    0    0  0.00000000000E+00  0.00000000000E+00  0.14999999963E+04  0.15000000000E+04  0.10566000000E+00 0. -1.
        994   -1    0    0    0    0 -0.00000000000E+00 -0.00000000000E+00  0.11368683772E-12  0.17120000000E+03  0.17120000000E+03 0.  0.
         13    1    1    2    0    0 -0.56306622739E+01 -0.19272895898E+02  0.30589609080E+02  0.36590766890E+02  0.10566000000E+00 0. -1.
        994    1    1    2    0    0  0.28006013646E+00  0.98986551381E+01  0.64838380366E+01  0.17160868848E+03  0.17120000000E+03 0.  0.
        998    1    1    2    0    0  0.53506021375E+01  0.93742407602E+01  0.14629265492E+04  0.14630005446E+04  0.10000000000E+02 0. -1.
</event>
<event>
 5    1  0.1688215E-008  0.3835936E+03  0.7957747E-01  0.3435659E+00
         13   -1    0    0    0    0  0.00000000000E+00  0.00000000000E+00  0.14999999963E+04  0.15000000000E+04  0.10566000000E+00 0.  1.
        994   -1    0    0    0    0 -0.00000000000E+00 -0.00000000000E+00  0.11368683772E-12  0.17120000000E+03  0.17120000000E+03 0.  0.
         13    1    1    2    0    0 -0.17143975125E+02 -0.14640823969E+01  0.61172414720E+02  0.63546320956E+02  0.10566000000E+00 0.  1.
        994    1    1    2    0    0  0.16516314993E+02  0.31000909539E+01  0.32635424276E+01  0.17205374141E+03  0.17120000000E+03 0.  0.
        998    1    1    2    0    0  0.62766013183E+00 -0.16360085570E+01  0.14355640391E+04  0.14355999376E+04  0.10000000000E+02 0.  1.
</event>
<event>
 5    1  0.1688215E-008  0.3853753E+03  0.7957747E-01  0.3428082E+00
         13   -1    0    0    0    0  0.00000000000E+00  0.00000000000E+00  0.14999999963E+04  0.15000000000E+04  0.10566000000E+00 0. -1.
        994   -1    0    0    0    0 -0.00000000000E+00 -0.00000000000E+00  0.11368683772E-12  0.17120000000E+03  0.17120000000E+03 0.  0.
         13    1    1    2    0    0 -0.13327119830E+02  0.30607450935E+01  0.67375223987E+02  0.68748907299E+02  0.10566000000E+00 0. -1.
        994    1    1    2    0    0  0.36159219970E+01 -0.12229375620E+01  0.14917902371E+01  0.17124904644E+03  0.17120000000E+03 0.  0.
        998    1    1    2    0    0  0.97111978326E+01 -0.18378075315E+01  0.14311329821E+04  0.14312020463E+04  0.10000000000E+02 0. -1.
</event>
<event>
 5    1  0.1688215E-008  0.3849730E+03  0.7957747E-01  0.3429787E+00
         13   -1    0    0    0    0  0.00000000000E+00  0.00000000000E+00  0.14999999963E+04  0.15000000000E+04  0.10566000000E+00 0. -1.
        994   -1    0    0    0    0 -0.00000000000E+00 -0.00000000000E+00  0.11368683772E-12  0.17120000000E+03  0.17120000000E+03 0.  0.
         13    1    1    2    0    0  0.19192598213E+02 -0.57297739324E+01  0.11764696645E+03  0.11933987604E+03  0.10566000000E+00 0. -1.
        994    1    1    2    0    0 -0.18081835298E+02 -0.10568248015E+01  0.27233052098E+01  0.17217701948E+03  0.17120000000E+03 0.  0.
        998    1    1    2    0    0 -0.11107629156E+01  0.67865987339E+01  0.13796297246E+04  0.13796831045E+04  0.10000000000E+02 0. -1.
</event>
<event>
 5    1  0.1688215E-008  0.3835719E+03  0.7957747E-01  0.3435752E+00
         13   -1    0    0    0    0  0.00000000000E+00  0.00000000000E+00  0.14999999963E+04  0.15000000000E+04  0.10566000000E+00 0.  1.
        994   -1    0    0    0    0 -0.00000000000E+00 -0.00000000000E+00  0.11368683772E-12  0.17120000000E+03  0.17120000000E+03 0.  0.
         13    1    1    2    0    0  0.41967071142E+01 -0.16143968243E+02  0.59805540335E+02  0.62088274900E+02  0.10566000000E+00 0.  1.
        994    1    1    2    0    0  0.57019590092E+01  0.95495722070E+01  0.27496669903E+01  0.17158294593E+03  0.17120000000E+03 0.  0.
        998    1    1    2    0    0 -0.98986661234E+01  0.65943960361E+01  0.14374447890E+04  0.14375287792E+04  0.10000000000E+02 0.  1.
</event>
<event>
 5    1  0.1688215E-008  0.3834492E+03  0.7957747E-01  0.3436276E+00
         13   -1    0    0    0    0  0.00000000000E+00  0.00000000000E+00  0.14999999963E+04  0.15000000000E+04  0.10566000000E+00 0.  1.
        994   -1    0    0    0    0 -0.00000000000E+00 -0.00000000000E+00  0.11368683772E-12  0.17120000000E+03  0.17120000000E+03 0.  0.
         13    1    1    2    0    0 -0.48198430158E+01 -0.19177856387E+02  0.80693606563E+02  0.83081227521E+02  0.10566000000E+00 0.  1.
        994    1    1    2    0    0  0.75149757382E+01  0.11286899133E+02  0.30100029319E+01  0.17176253686E+03  0.17120000000E+03 0.  0.
        998    1    1    2    0    0 -0.26951327224E+01  0.78909572542E+01  0.14162963868E+04  0.14163562356E+04  0.10000000000E+02 0.  1.
</event>
<event>
 5    1  0.1688215E-008  0.3692764E+03  0.7957747E-01  0.3499223E+00
         13   -1    0    0    0    0  0.00000000000E+00  0.00000000000E+00  0.14999999963E+04  0.15000000000E+04  0.10566000000E+00 0.  1.
        994   -1    0    0    0    0 -0.00000000000E+00 -0.00000000000E+00  0.11368683772E-12  0.17120000000E+03  0.17120000000E+03 0.  0.
         13    1    1    2    0    0 -0.44320740515E+02 -0.22470552488E+02  0.11068143898E+03  0.12132454768E+03  0.10566000000E+00 0.  1.
        994    1    1    2    0    0  0.39617373828E+02  0.47191679921E+01  0.16128112824E+02  0.17652581363E+03  0.17120000000E+03 0.  0.
        998    1    1    2    0    0  0.47033666871E+01  0.17751384496E+02  0.13731904445E+04  0.13733496387E+04  0.10000000000E+02 0.  1.
</event>
<event>
 5    1  0.2245790E-008  0.3862329E+03  0.7957747E-01  0.3424460E+00
         13   -1    0    0    0    0  0.00000000000E+00  0.00000000000E+00  0.14999999963E+04  0.15000000000E+04  0.10566000000E+00 0. -1.
        994   -1    0    0    0    0 -0.00000000000E+00 -0.00000000000E+00  0.11368683772E-12  0.17120000000E+03  0.17120000000E+03 0.  0.
         13    1    1    2    0    0  0.95091436277E+01  0.50864618545E+01  0.59489959419E+02  0.60459592642E+02  0.10566000000E+00 0. -1.
        994    1    1    2    0    0 -0.12640139027E+01 -0.58303944807E+01  0.11358535480E+01  0.17130768049E+03  0.17120000000E+03 0.  0.
        998    1    1    2    0    0 -0.82451297250E+01  0.74393262623E+00  0.14393741833E+04  0.14394327269E+04  0.10000000000E+02 0. -1.
</event>
<event>
 5    1  0.1688215E-008  0.3717855E+03  0.7957747E-01  0.3487725E+00
         13   -1    0    0    0    0  0.00000000000E+00  0.00000000000E+00  0.14999999963E+04  0.15000000000E+04  0.10566000000E+00 0.  1.
        994   -1    0    0    0    0 -0.00000000000E+00 -0.00000000000E+00  0.11368683772E-12  0.17120000000E+03  0.17120000000E+03 0.  0.
         13    1    1    2    0    0 -0.61548115961E+02 -0.20369609556E+02  0.15348679402E+03  0.16661722203E+03  0.10566000000E+00 0.  1.
        994    1    1    2    0    0  0.70539439240E+02  0.43890632577E+01  0.29672650277E+02  0.18757660446E+03  0.17120000000E+03 0.  0.
        998    1    1    2    0    0 -0.89913232794E+01  0.15980546298E+02  0.13168405520E+04  0.13170061735E+04  0.10000000000E+02 0.  1.
</event>
<event>
 5    1  0.1688215E-008  0.3802261E+03  0.7957747E-01  0.3450174E+00
         13   -1    0    0    0    0  0.00000000000E+00  0.00000000000E+00  0.14999999963E+04  0.15000000000E+04  0.10566000000E+00 0. -1.
        994   -1    0    0    0    0 -0.00000000000E+00 -0.00000000000E+00  0.11368683772E-12  0.17120000000E+03  0.17120000000E+03 0.  0.
         13    1    1    2    0    0  0.42662953780E+02 -0.21784802288E+02  0.23674568687E+03  0.24154344672E+03  0.10566000000E+00 0. -1.
        994    1    1    2    0    0 -0.56612391557E+02  0.16976921253E+01  0.14809942088E+02  0.18093263780E+03  0.17120000000E+03 0.  0.
        998    1    1    2    0    0  0.13949437777E+02  0.20087110163E+02  0.12484443673E+04  0.12487239155E+04  0.10000000000E+02 0. -1.
</event>
<event>
 5    1  0.1688215E-008  0.3835967E+03  0.7957747E-01  0.3435646E+00
         13   -1    0    0    0    0  0.00000000000E+00  0.00000000000E+00  0.14999999963E+04  0.15000000000E+04  0.10566000000E+00 0. -1.
        994   -1    0    0    0    0 -0.00000000000E+00 -0.00000000000E+00  0.11368683772E-12  0.17120000000E+03  0.17120000000E+03 0.  0.
         13    1    1    2    0    0  0.16292174631E+02 -0.15522431401E+02  0.10914235682E+03  0.11143808168E+03  0.10566000000E+00 0. -1.
        994    1    1    2    0    0 -0.13260421480E+02  0.44825633710E+01  0.29760214659E+01  0.17179705718E+03  0.17120000000E+03 0.  0.
        998    1    1    2    0    0 -0.30317531509E+01  0.11039868030E+02  0.13878816180E+04  0.13879648611E+04  0.10000000000E+02 0. -1.
</event>
<event>
 5    1  0.1688215E-008  0.3689090E+03  0.7957747E-01  0.3500920E+00
         13   -1    0    0    0    0  0.00000000000E+00  0.00000000000E+00  0.14999999963E+04  0.15000000000E+04  0.10566000000E+00 0.  1.
        994   -1    0    0    0    0 -0.00000000000E+00 -0.00000000000E+00  0.11368683772E-12  0.17120000000E+03  0.17120000000E+03 0.  0.
         13    1    1    2    0    0 -0.27390957854E+02  0.14231743604E+03  0.62184760161E+03  0.63851309146E+03  0.10566000000E+00 0.  1.
        994    1    1    2    0    0  0.36451745439E+02 -0.13458844206E+03  0.80702395255E+02  0.23508529321E+03  0.17120000000E+03 0.  0.
        998    1    1    2    0    0 -0.90607875855E+01 -0.77289939828E+01  0.79744999941E+03  0.79760161533E+03  0.10000000000E+02 0.  0.
</event>
<event>
 5    1  0.1688215E-008  0.3398924E+03  0.7957747E-01  0.3646841E+00
         13   -1    0    0    0    0  0.00000000000E+00  0.00000000000E+00  0.14999999963E+04  0.15000000000E+04  0.10566000000E+00 0.  1.
        994   -1    0    0    0    0 -0.00000000000E+00 -0.00000000000E+00  0.11368683772E-12  0.17120000000E+03  0.17120000000E+03 0.  0.
         13    1    1    2    0    0 -0.20059051165E+03 -0.12208725004E+03  0.99260827149E+03  0.10200063930E+04  0.10566000000E+00 0.  1.
        994    1    1    2    0    0  0.15606745926E+03  0.78559572074E+02  0.14713506423E+03  0.28545897311E+03  0.17120000000E+03 0.  0.
        998    1    1    2    0    0  0.44523052390E+02  0.43527677965E+02  0.36025666056E+03  0.36573463388E+03  0.10000000000E+02 0. -1.
</event>
<event>
 5    1  0.1688215E-008  0.3843379E+03  0.7957747E-01  0.3432485E+00
         13   -1    0    0    0    0  0.00000000000E+00  0.00000000000E+00  0.14999999963E+04  0.15000000000E+04  0.10566000000E+00 0. -1.
        994   -1    0    0    0    0 -0.00000000000E+00 -0.00000000000E+00  0.11368683772E-12  0.17120000000E+03  0.17120000000E+03 0.  0.
         13    1    1    2    0    0  0.38544964432E+02  0.16525998164E+01  0.31772141057E+02  0.49979250501E+02  0.10566000000E+00 0. -1.
        994    1    1    2    0    0 -0.37448723684E+02 -0.23383285686E+01  0.23932295598E+02  0.17688999253E+03  0.17120000000E+03 0.  0.
        998    1    1    2    0    0 -0.10962407487E+01  0.68572875216E+00  0.14442955596E+04  0.14443307570E+04  0.10000000000E+02 0.  0.
</event>
<event>
 5    1  0.1688215E-008  0.3856873E+03  0.7957747E-01  0.3426762E+00
         13   -1    0    0    0    0  0.00000000000E+00  0.00000000000E+00  0.14999999963E+04  0.15000000000E+04  0.10566000000E+00 0.  1.
        994   -1    0    0    0    0 -0.00000000000E+00 -0.00000000000E+00  0.11368683772E-12  0.17120000000E+03  0.17120000000E+03 0.  0.
         13    1    1    2    0    0  0.14670539186E+02  0.16898634716E+01  0.88122440011E+02  0.89351306404E+02  0.10566000000E+00 0.  1.
        994    1    1    2    0    0 -0.62829134284E+01  0.57033348761E+01  0.15255809328E+01  0.17141694907E+03  0.17120000000E+03 0.  0.
        998    1    1    2    0    0 -0.83876257578E+01 -0.73931983477E+01  0.14103519753E+04  0.14104317445E+04  0.10000000000E+02 0.  1.
</event>
<event>
 5    1  0.1688215E-008  0.3854145E+03  0.7957747E-01  0.3427916E+00
         13   -1    0    0    0    0  0.00000000000E+00  0.00000000000E+00  0.14999999963E+04  0.15000000000E+04  0.10566000000E+00 0. -1.
        994   -1    0    0    0    0 -0.00000000000E+00 -0.00000000000E+00  0.11368683772E-12  0.17120000000E+03  0.17120000000E+03 0.  0.
         13    1    1    2    0    0  0.96670176888E+01  0.77931507228E+01  0.56687411834E+02  0.58031528101E+02  0.10566000000E+00 0. -1.
        994    1    1    2    0    0 -0.49319676103E+01  0.35123223692E+01  0.15448927221E+01  0.17131400237E+03  0.17120000000E+03 0.  0.
        998    1    1    2    0    0 -0.47350500785E+01 -0.11305473092E+02  0.14417676917E+04  0.14418544695E+04  0.10000000000E+02 0. -1.
</event>
<event>
 5    1  0.1688215E-008  0.3842422E+03  0.7957747E-01  0.3432893E+00
         13   -1    0    0    0    0  0.00000000000E+00  0.00000000000E+00  0.14999999963E+04  0.15000000000E+04  0.10566000000E+00 0.  1.
        994   -1    0    0    0    0 -0.00000000000E+00 -0.00000000000E+00  0.11368683772E-12  0.17120000000E+03  0.17120000000E+03 0.  0.
         13    1    1    2    0    0  0.14594927920E+02 -0.59670063674E+01  0.68031374965E+02  0.69834778081E+02  0.10566000000E+00 0.  1.
        994    1    1    2    0    0  0.13368817160E+02  0.17396617872E+02  0.35953983683E+01  0.17263758129E+03  0.17120000000E+03 0.  0.
        998    1    1    2    0    0 -0.27963745080E+02 -0.11429611505E+02  0.14283732229E+04  0.14287276406E+04  0.10000000000E+02 0.  1.
</event>
<event>
 5    1  0.1688215E-008  0.3859244E+03  0.7957747E-01  0.3425761E+00
         13   -1    0    0    0    0  0.00000000000E+00  0.00000000000E+00  0.14999999963E+04  0.15000000000E+04  0.10566000000E+00 0. -1.
        994   -1    0    0    0    0 -0.00000000000E+00 -0.00000000000E+00  0.11368683772E-12  0.17120000000E+03  0.17120000000E+03 0.  0.
         13    1    1    2    0    0  0.32068077292E+01  0.11770258868E+02  0.66419116685E+02  0.67530236449E+02  0.10566000000E+00 0. -1.
        994    1    1    2    0    0  0.77136021399E+01 -0.59189329653E+01  0.14818888892E+01  0.17148227145E+03  0.17120000000E+03 0.  0.
        998    1    1    2    0    0 -0.10920409869E+02 -0.58513259024E+01  0.14320989907E+04  0.14321874921E+04  0.10000000000E+02 0. -1.
</event>
<event>
 5    1  0.1688215E-008  0.3830541E+03  0.7957747E-01  0.3437967E+00
         13   -1    0    0    0    0  0.00000000000E+00  0.00000000000E+00  0.14999999963E+04  0.15000000000E+04  0.10566000000E+00 0.  1.
        994   -1    0    0    0    0 -0.00000000000E+00 -0.00000000000E+00  0.11368683772E-12  0.17120000000E+03  0.17120000000E+03 0.  0.
         13    1    1    2    0    0  0.11735791531E+02  0.24409430143E+02  0.13658915914E+03  0.13924854987E+03  0.10566000000E+00 0.  1.
        994    1    1    2    0    0 -0.14389550081E+02 -0.15298821314E+02  0.40605645312E+01  0.17253127621E+03  0.17120000000E+03 0.  0.
        998    1    1    2    0    0  0.26537585494E+01 -0.91106088285E+01  0.13593502726E+04  0.13594201739E+04  0.10000000000E+02 0.  1.
</event>
<event>
 5    1  0.1688215E-008  0.3822680E+03  0.7957747E-01  0.3441342E+00
         13   -1    0    0    0    0  0.00000000000E+00  0.00000000000E+00  0.14999999963E+04  0.15000000000E+04  0.10566000000E+00 0.  1.
        994   -1    0    0    0    0 -0.00000000000E+00 -0.00000000000E+00  0.11368683772E-12  0.17120000000E+03  0.17120000000E+03 0.  0.
         13    1    1    2    0    0  0.16168929795E+02 -0.13570079039E+02  0.70306888956E+02  0.73407432420E+02  0.10566000000E+00 0.  1.
        994    1    1    2    0    0 -0.16654067283E+02  0.14893582043E+02  0.46506696005E+01  0.17271434645E+03  0.17120000000E+03 0.  0.
        998    1    1    2    0    0  0.48513748757E+00 -0.13235030034E+01  0.14250424377E+04  0.14250782211E+04  0.10000000000E+02 0.  1.
</event>
<event>
 5    1  0.1688215E-008  0.3813521E+03  0.7957747E-01  0.3445292E+00
         13   -1    0    0    0    0  0.00000000000E+00  0.00000000000E+00  0.14999999963E+04  0.15000000000E+04  0.10566000000E+00 0.  1.
        994   -1    0    0    0    0 -0.00000000000E+00 -0.00000000000E+00  0.11368683772E-12  0.17120000000E+03  0.17120000000E+03 0.  0.
         13    1    1    2    0    0 -0.22659634226E+03  0.91257536576E+02  0.10356518623E+04  0.10640717228E+04  0.10566000000E+00 0.  1.
        994    1    1    2    0    0  0.23364848223E+03 -0.88854753975E+02  0.25107429564E+03  0.39349018092E+03  0.17120000000E+03 0.  0.
        998    1    1    2    0    0 -0.70521399619E+01 -0.24027826006E+01  0.21327383838E+03  0.21363809628E+03  0.10000000000E+02 0. -1.
</event>
<event>
 5    1  0.1688215E-008  0.3842358E+03  0.7957747E-01  0.3432920E+00
         13   -1    0    0    0    0  0.00000000000E+00  0.00000000000E+00  0.14999999963E+04  0.15000000000E+04  0.10566000000E+00 0.  1.
        994   -1    0    0    0    0 -0.00000000000E+00 -0.00000000000E+00  0.11368683772E-12  0.17120000000E+03  0.17120000000E+03 0.  0.
         13    1    1    2    0    0 -0.91998970651E+01  0.13751863769E+02  0.70644200166E+02  0.72555951129E+02  0.10566000000E+00 0.  1.
        994    1    1    2    0    0  0.52178697130E+01 -0.11610142488E+01  0.21042248061E+01  0.17129635688E+03  0.17120000000E+03 0.  0.
        998    1    1    2    0    0  0.39820273521E+01 -0.12590849521E+02  0.14272515713E+04  0.14273476920E+04  0.10000000000E+02 0.  1.
</event>
<event>
 5    1  0.1688215E-008  0.3778290E+03  0.7957747E-01  0.3460666E+00
         13   -1    0    0    0    0  0.00000000000E+00  0.00000000000E+00  0.14999999963E+04  0.15000000000E+04  0.10566000000E+00 0. -1.
        994   -1    0    0    0    0 -0.00000000000E+00 -0.00000000000E+00  0.11368683772E-12  0.17120000000E+03  0.17120000000E+03 0.  0.
         13    1    1    2    0    0 -0.54423332749E+02  0.21479545424E+01  0.22471496826E+03  0.23122141116E+03  0.10566000000E+00 0. -1.
        994    1    1    2    0    0  0.64604529843E+02  0.80653700713E+01  0.19640903030E+02  0.18421183605E+03  0.17120000000E+03 0.  0.
        998    1    1    2    0    0 -0.10181197094E+02 -0.10213324614E+02  0.12556441250E+04  0.12557667528E+04  0.10000000000E+02 0. -1.
</event>
<event>
 5    1  0.1688215E-008  0.3838037E+03  0.7957747E-01  0.3434762E+00
         13   -1    0    0    0    0  0.00000000000E+00  0.00000000000E+00  0.14999999963E+04  0.15000000000E+04  0.10566000000E+00 0. -1.
        994   -1    0    0    0    0 -0.00000000000E+00 -0.00000000000E+00  0.11368683772E-12  0.17120000000E+03  0.17120000000E+03 0.  0.
         13    1    1    2    0    0 -0.83872362791E+01  0.10600829935E+02  0.42767948547E+02  0.44853449306E+02  0.10566000000E+00 0. -1.
        994    1    1    2    0    0 -0.32306960213E+01  0.12941645513E+01  0.22652176184E+01  0.17125035320E+03  0.17120000000E+03 0.  0.
        998    1    1    2    0    0  0.11617932300E+02 -0.11894994486E+02  0.14549668301E+04  0.14550961975E+04  0.10000000000E+02 0. -1.
</event>
<event>
 5    1  0.1688215E-008  0.3811527E+03  0.7957747E-01  0.3446155E+00
         13   -1    0    0    0    0  0.00000000000E+00  0.00000000000E+00  0.14999999963E+04  0.15000000000E+04  0.10566000000E+00 0.  1.
        994   -1    0    0    0    0 -0.00000000000E+00 -0.00000000000E+00  0.11368683772E-12  0.17120000000E+03  0.17120000000E+03 0.  0.
         13    1    1    2    0    0  0.25943976073E+02 -0.44733093966E+01  0.95226840149E+02  0.98799102426E+02  0.10566000000E+00 0.  1.
        994    1    1    2    0    0 -0.16607117155E+02  0.12167137174E+02  0.49651215246E+01  0.17250486370E+03  0.17120000000E+03 0.  0.
        998    1    1    2    0    0 -0.93368589179E+01 -0.76938277775E+01  0.13998080346E+04  0.13998960339E+04  0.10000000000E+02 0.  1.
</event>
<event>
 5    1  0.1688215E-008  0.3753402E+03  0.7957747E-01  0.3471703E+00
         13   -1    0    0    0    0  0.00000000000E+00  0.00000000000E+00  0.14999999963E+04  0.15000000000E+04  0.10566000000E+00 0.  1.
        994   -1    0    0    0    0 -0.00000000000E+00 -0.00000000000E+00  0.11368683772E-12  0.17120000000E+03  0.17120000000E+03 0.  0.
         13    1    1    2    0    0  0.25656713710E+02  0.64830336834E+01  0.49716419697E+02  0.56320779785E+02  0.10566000000E+00 0.  1.
        994    1    1    2    0    0 -0.27349198529E+02 -0.29759252662E+01  0.90780807131E+01  0.17363377074E+03  0.17120000000E+03 0.  0.
        998    1    1    2    0    0  0.16924848190E+01 -0.35071084171E+01  0.14412054959E+04  0.14412454495E+04  0.10000000000E+02 0.  1.
</event>
<event>
 5    1  0.1688215E-008  0.3846739E+03  0.7957747E-01  0.3431056E+00
         13   -1    0    0    0    0  0.00000000000E+00  0.00000000000E+00  0.14999999963E+04  0.15000000000E+04  0.10566000000E+00 0.  1.
        994   -1    0    0    0    0 -0.00000000000E+00 -0.00000000000E+00  0.11368683772E-12  0.17120000000E+03  0.17120000000E+03 0.  0.
         13    1    1    2    0    0  0.14167850826E+02  0.58716173320E+01  0.56622643189E+02  0.58662925028E+02  0.10566000000E+00 0.  1.
        994    1    1    2    0    0 -0.36689750869E+02 -0.63328644953E+01  0.63691891582E+01  0.17531756775E+03  0.17120000000E+03 0.  0.
        998    1    1    2    0    0  0.22521900043E+02  0.46124716327E+00  0.14370081639E+04  0.14372195072E+04  0.10000000000E+02 0.  1.
</event>
<event>
 5    1  0.1688215E-008  0.3831057E+03  0.7957747E-01  0.3437746E+00
         13   -1    0    0    0    0  0.00000000000E+00  0.00000000000E+00  0.14999999963E+04  0.15000000000E+04  0.10566000000E+00 0. -1.
        994   -1    0    0    0    0 -0.00000000000E+00 -0.00000000000E+00  0.11368683772E-12  0.17120000000E+03  0.17120000000E+03 0.  0.
         13    1    1    2    0    0 -0.20803407223E+02  0.20650392915E+01  0.83760081591E+02  0.86329650593E+02  0.10566000000E+00 0. -1.
        994    1    1    2    0    0  0.13781952282E+02 -0.37518928716E+01  0.32489377191E+01  0.17182553508E+03  0.17120000000E+03 0.  0.
        998    1    1    2    0    0  0.70214549419E+01  0.16868535801E+01  0.14129909770E+04  0.14130448143E+04  0.10000000000E+02 0. -1.
</event>
<event>
 5    1  0.1688215E-008  0.3794512E+03  0.7957747E-01  0.3453551E+00
         13   -1    0    0    0    0  0.00000000000E+00  0.00000000000E+00  0.14999999963E+04  0.15000000000E+04  0.10566000000E+00 0. -1.
        994   -1    0    0    0    0 -0.00000000000E+00 -0.00000000000E+00  0.11368683772E-12  0.17120000000E+03  0.17120000000E+03 0.  0.
         13    1    1    2    0    0  0.66219299747E+01 -0.15787920748E+02  0.32844648020E+02  0.37039039752E+02  0.10566000000E+00 0. -1.
        994    1    1    2    0    0  0.97612921428E+01  0.17815219745E+01  0.47402175039E+01  0.17155280909E+03  0.17120000000E+03 0.  0.
        998    1    1    2    0    0 -0.16383222117E+02  0.14006398773E+02  0.14624151308E+04  0.14626081512E+04  0.10000000000E+02 0. -1.
</event>
<event>
 5    1  0.1688215E-008  0.3823347E+03  0.7957747E-01  0.3441055E+00
         13   -1    0    0    0    0  0.00000000000E+00  0.00000000000E+00  0.14999999963E+04  0.15000000000E+04  0.10566000000E+00 0. -1.
        994   -1    0    0    0    0 -0.00000000000E+00 -0.00000000000E+00  0.11368683772E-12  0.17120000000E+03  0.17120000000E+03 0.  0.
         13    1    1    2    0    0  0.10006412664E+02 -0.23673177397E+02  0.10396208144E+03  0.10709189121E+03  0.10566000000E+00 0. -1.
        994    1    1    2    0    0 -0.11813873518E+02  0.23365153090E+02  0.52365804404E+01  0.17326961580E+03  0.17120000000E+03 0.  0.
        998    1    1    2    0    0  0.18074608543E+01  0.30802430721E+00  0.13908013344E+04  0.13908384930E+04  0.10000000000E+02 0. -1.
</event>
<event>
 5    1  0.1688215E-008  0.3982946E+03  0.7957747E-01  0.3375173E+00
         13   -1    0    0    0    0  0.00000000000E+00  0.00000000000E+00  0.14999999963E+04  0.15000000000E+04  0.10566000000E+00 0. -1.
        994   -1    0    0    0    0 -0.00000000000E+00 -0.00000000000E+00  0.11368683772E-12  0.17120000000E+03  0.17120000000E+03 0.  0.
         13    1    1    2    0    0 -0.96032450171E+01 -0.77312302009E+02  0.10437926432E+03  0.13024767307E+03  0.10566000000E+00 0. -1.
        994    1    1    2    0    0 -0.33734175043E+02  0.61846184417E+02  0.46326122041E+02  0.19083630335E+03  0.17120000000E+03 0.  0.
        998    1    1    2    0    0  0.43337420060E+02  0.15466117592E+02  0.13492946099E+04  0.13501160236E+04  0.10000000000E+02 0. -1.
</event>
<event>
 5    1  0.1688215E-008  0.3734504E+03  0.7957747E-01  0.3480182E+00
         13   -1    0    0    0    0  0.00000000000E+00  0.00000000000E+00  0.14999999963E+04  0.15000000000E+04  0.10566000000E+00 0. -1.
        994   -1    0    0    0    0 -0.00000000000E+00 -0.00000000000E+00  0.11368683772E-12  0.17120000000E+03  0.17120000000E+03 0.  0.
         13    1    1    2    0    0  0.20519889213E+02  0.98125901208E+01  0.31773332571E+02  0.39075677920E+02  0.10566000000E+00 0. -1.
        994    1    1    2    0    0 -0.13347349830E+02 -0.16801445147E+01  0.80952822119E+01  0.17191843481E+03  0.17120000000E+03 0.  0.
        998    1    1    2    0    0 -0.71725393827E+01 -0.81324456061E+01  0.14601313815E+04  0.14602058873E+04  0.10000000000E+02 0. -1.
</event>
<event>
 5    1  0.1688215E-008  0.3850105E+03  0.7957747E-01  0.3429628E+00
         13   -1    0    0    0    0  0.00000000000E+00  0.00000000000E+00  0.14999999963E+04  0.15000000000E+04  0.10566000000E+00 0. -1.
        994   -1    0    0    0    0 -0.00000000000E+00 -0.00000000000E+00  0.11368683772E-12  0.17120000000E+03  0.17120000000E+03 0.  0.
         13    1    1    2    0    0 -0.87158142250E+01  0.77061429171E+01  0.40444780963E+02  0.42084932309E+02  0.10566000000E+00 0. -1.
        994    1    1    2    0    0  0.78281082644E+01 -0.10959787410E+02  0.22216908945E+01  0.17174333213E+03  0.17120000000E+03 0.  0.
        998    1    1    2    0    0  0.88770596055E+00  0.32536444927E+01  0.14573335244E+04  0.14573717356E+04  0.10000000000E+02 0. -1.
</event>
<event>
 5    1  0.1688215E-008  0.3779792E+03  0.7957747E-01  0.3460005E+00
         13   -1    0    0    0    0  0.00000000000E+00  0.00000000000E+00  0.14999999963E+04  0.15000000000E+04  0.10566000000E+00 0.  1.
        994   -1    0    0    0    0 -0.00000000000E+00 -0.00000000000E+00  0.11368683772E-12  0.17120000000E+03  0.17120000000E+03 0.  0.
         13    1    1    2    0    0  0.60010475438E+02 -0.28069208008E+02  0.34719491128E+03  0.35345926948E+03  0.10566000000E+00 0.  1.
        994    1    1    2    0    0 -0.60259142050E+02  0.13365805528E+02  0.18087262714E+02  0.18288356413E+03  0.17120000000E+03 0.  0.
        998    1    1    2    0    0  0.24866661248E+00  0.14703402479E+02  0.11347178223E+04  0.11348571664E+04  0.10000000000E+02 0.  1.
</event>
<event>
 5    1  0.1688215E-008  0.3800876E+03  0.7957747E-01  0.3450777E+00
         13   -1    0    0    0    0  0.00000000000E+00  0.00000000000E+00  0.14999999963E+04  0.15000000000E+04  0.10566000000E+00 0.  1.
        994   -1    0    0    0    0 -0.00000000000E+00 -0.00000000000E+00  0.11368683772E-12  0.17120000000E+03  0.17120000000E+03 0.  0.
         13    1    1    2    0    0 -0.95759391478E+01  0.12977800221E+02  0.27988894729E+02  0.32303425535E+02  0.10566000000E+00 0.  1.
        994    1    1    2    0    0  0.13011887509E+02 -0.34947873101E+02  0.87504701467E+01  0.17543281842E+03  0.17120000000E+03 0.  0.
        998    1    1    2    0    0 -0.34359483607E+01  0.21970072879E+02  0.14632606314E+04  0.14634637560E+04  0.10000000000E+02 0.  1.
</event>
<event>
 5    1  0.1688215E-008  0.3801459E+03  0.7957747E-01  0.3450524E+00
         13   -1    0    0    0    0  0.00000000000E+00  0.00000000000E+00  0.14999999963E+04  0.15000000000E+04  0.10566000000E+00 0. -1.
        994   -1    0    0    0    0 -0.00000000000E+00 -0.00000000000E+00  0.11368683772E-12  0.17120000000E+03  0.17120000000E+03 0.  0.
         13    1    1    2    0    0  0.90796566106E+01  0.12890161459E+02  0.30164228177E+02  0.34036572274E+02  0.10566000000E+00 0. -1.
        994    1    1    2    0    0 -0.33649546041E+01  0.46673910745E+01  0.41701691605E+01  0.17134741833E+03  0.17120000000E+03 0.  0.
        998    1    1    2    0    0 -0.57147020066E+01 -0.17557552534E+02  0.14656655989E+04  0.14658160094E+04  0.10000000000E+02 0. -1.
</event>
<event>
 5    1  0.1688215E-008  0.3842157E+03  0.7957747E-01  0.3433005E+00
         13   -1    0    0    0    0  0.00000000000E+00  0.00000000000E+00  0.14999999963E+04  0.15000000000E+04  0.10566000000E+00 0. -1.
        994   -1    0    0    0    0 -0.00000000000E+00 -0.00000000000E+00  0.11368683772E-12  0.17120000000E+03  0.17120000000E+03 0.  0.
         13    1    1    2    0    0  0.10869278749E+02  0.16785282582E+02  0.96146911929E+02  0.98204515015E+02  0.10566000000E+00 0. -1.
        994    1    1    2    0    0 -0.27178686346E+02 -0.25979699207E+01  0.44815971316E+01  0.17342132266E+03  0.17120000000E+03 0.  0.
        998    1    1    2    0    0  0.16309407597E+02 -0.14187312662E+02  0.13993714872E+04  0.13995741623E+04  0.10000000000E+02 0. -1.
</event>
<event>
 5    1  0.1688215E-008  0.3665425E+03  0.7957747E-01  0.3511933E+00
         13   -1    0    0    0    0  0.00000000000E+00  0.00000000000E+00  0.14999999963E+04  0.15000000000E+04  0.10566000000E+00 0.  1.
        994   -1    0    0    0    0 -0.00000000000E+00 -0.00000000000E+00  0.11368683772E-12  0.17120000000E+03  0.17120000000E+03 0.  0.
         13    1    1    2    0    0 -0.18510949335E+03  0.20291932911E+03  0.98338053720E+03  0.10210186437E+04  0.10566000000E+00 0.  1.
        994    1    1    2    0    0  0.17366996681E+03 -0.21617010862E+03  0.33468788811E+03  0.46713616396E+03  0.17120000000E+03 0.  0.
        998    1    1    2    0    0  0.11439526540E+02  0.13250779514E+02  0.18193157097E+03  0.18304519234E+03  0.10000000000E+02 0. -1.
</event>
<event>
 5    1  0.1688215E-008  0.3735034E+03  0.7957747E-01  0.3479943E+00
         13   -1    0    0    0    0  0.00000000000E+00  0.00000000000E+00  0.14999999963E+04  0.15000000000E+04  0.10566000000E+00 0. -1.
        994   -1    0    0    0    0 -0.00000000000E+00 -0.00000000000E+00  0.11368683772E-12  0.17120000000E+03  0.17120000000E+03 0.  0.
         13    1    1    2    0    0 -0.82546774731E+01  0.15841330359E+02  0.17969369041E+02  0.25337656472E+02  0.10566000000E+00 0. -1.
        994    1    1    2    0    0  0.10906979796E+02 -0.14734948843E+02  0.85983267575E+01  0.17239330657E+03  0.17120000000E+03 0.  0.
        998    1    1    2    0    0 -0.26523023229E+01 -0.11063815161E+01  0.14734323005E+04  0.14734690370E+04  0.10000000000E+02 0. -1.
</event>
<event>
 5    1  0.1688215E-008  0.3837585E+03  0.7957747E-01  0.3434954E+00
         13   -1    0    0    0    0  0.00000000000E+00  0.00000000000E+00  0.14999999963E+04  0.15000000000E+04  0.10566000000E+00 0. -1.
        994   -1    0    0    0    0 -0.00000000000E+00 -0.00000000000E+00  0.11368683772E-12  0.17120000000E+03  0.17120000000E+03 0.  0.
         13    1    1    2    0    0 -0.11506102907E+01 -0.22492223025E+02  0.10578891805E+03  0.10815974457E+03  0.10566000000E+00 0. -1.
        994    1    1    2    0    0  0.47841267673E+01  0.22457330024E+02  0.39905396930E+01  0.17277900320E+03  0.17120000000E+03 0.  0.
        998    1    1    2    0    0 -0.36335164766E+01  0.34893000416E-01  0.13902205385E+04  0.13902612522E+04  0.10000000000E+02 0. -1.
</event>
<event>
 5    1  0.1688215E-008  0.3839947E+03  0.7957747E-01  0.3433947E+00
         13   -1    0    0    0    0  0.00000000000E+00  0.00000000000E+00  0.14999999963E+04  0.15000000000E+04  0.10566000000E+00 0.  1.
        994   -1    0    0    0    0 -0.00000000000E+00 -0.00000000000E+00  0.11368683772E-12  0.17120000000E+03  0.17120000000E+03 0.  0.
         13    1    1    2    0    0  0.11292056407E+02 -0.36924419831E+01  0.33535162322E+02  0.35577562335E+02  0.10566000000E+00 0.  1.
        994    1    1    2    0    0  0.51417455078E+00  0.47395960132E+01  0.22050725527E+01  0.17128056075E+03  0.17120000000E+03 0.  0.
        998    1    1    2    0    0 -0.11806230957E+02 -0.10471540301E+01  0.14642597614E+04  0.14643418769E+04  0.10000000000E+02 0.  1.
</event>
<event>
 5    1  0.1688215E-008  0.3810405E+03  0.7957747E-01  0.3446640E+00
         13   -1    0    0    0    0  0.00000000000E+00  0.00000000000E+00  0.14999999963E+04  0.15000000000E+04  0.10566000000E+00 0. -1.
        994   -1    0    0    0    0 -0.00000000000E+00 -0.00000000000E+00  0.11368683772E-12  0.17120000000E+03  0.17120000000E+03 0.  0.
         13    1    1    2    0    0 -0.67972788867E+01  0.19701486561E+02  0.60619619366E+02  0.64102269765E+02  0.10566000000E+00 0. -1.
        994    1    1    2    0    0 -0.47798200150E+01 -0.88376905400E+01  0.39452254870E+01  0.17153995528E+03  0.17120000000E+03 0.  0.
        998    1    1    2    0    0  0.11577098902E+02 -0.10863796021E+02  0.14354351514E+04  0.14355577750E+04  0.10000000000E+02 0. -1.
</event>
<event>
 5    1  0.1688215E-008  0.3753160E+03  0.7957747E-01  0.3471811E+00
         13   -1    0    0    0    0  0.00000000000E+00  0.00000000000E+00  0.14999999963E+04  0.15000000000E+04  0.10566000000E+00 0.  1.
        994   -1    0    0    0    0 -0.00000000000E+00 -0.00000000000E+00  0.11368683772E-12  0.17120000000E+03  0.17120000000E+03 0.  0.
         13    1    1    2    0    0 -0.50842582167E+01  0.10319676097E+02  0.72337221961E+01  0.13589823295E+02  0.10566000000E+00 0.  1.
        994    1    1    2    0    0  0.61704362480E+01 -0.28843504788E+01  0.66741224648E+01  0.17146538330E+03  0.17120000000E+03 0.  0.
        998    1    1    2    0    0 -0.10861780313E+01 -0.74353256177E+01  0.14860921516E+04  0.14861447934E+04  0.10000000000E+02 0.  1.
</event>
<event>
 5    1  0.1688215E-008  0.3795073E+03  0.7957747E-01  0.3453307E+00
         13   -1    0    0    0    0  0.00000000000E+00  0.00000000000E+00  0.14999999963E+04  0.15000000000E+04  0.10566000000E+00 0.  1.
        994   -1    0    0    0    0 -0.00000000000E+00 -0.00000000000E+00  0.11368683772E-12  0.17120000000E+03  0.17120000000E+03 0.  0.
         13    1    1    2    0    0  0.57234230672E+01  0.89973558355E+01  0.11068381942E+02  0.15369782903E+02  0.10566000000E+00 0.  1.
        994    1    1    2    0    0 -0.35509511089E+01 -0.55137140921E+01  0.45261009937E+01  0.17138534327E+03  0.17120000000E+03 0.  0.
        998    1    1    2    0    0 -0.21724719583E+01 -0.34836417434E+01  0.14844055133E+04  0.14844448738E+04  0.10000000000E+02 0.  1.
</event>
<event>
 5    1  0.1688215E-008  0.3823196E+03  0.7957747E-01  0.3441120E+00
         13   -1    0    0    0    0  0.00000000000E+00  0.00000000000E+00  0.14999999963E+04  0.15000000000E+04  0.10566000000E+00 0. -1.
        994   -1    0    0    0    0 -0.00000000000E+00 -0.00000000000E+00  0.11368683772E-12  0.17120000000E+03  0.17120000000E+03 0.  0.
         13    1    1    2    0    0 -0.20914777303E+02  0.10070975749E+01  0.70001128046E+02  0.73065800803E+02  0.10566000000E+00 0. -1.
        994    1    1    2    0    0  0.21876149267E+02  0.45900241424E+01  0.46260705829E+01  0.17271501023E+03  0.17120000000E+03 0.  0.
        998    1    1    2    0    0 -0.96137196411E+00 -0.55971217172E+01  0.14253727976E+04  0.14254191890E+04  0.10000000000E+02 0. -1.
</event>
<event>
 5    1  0.1688215E-008  0.3776181E+03  0.7957747E-01  0.3461596E+00
         13   -1    0    0    0    0  0.00000000000E+00  0.00000000000E+00  0.14999999963E+04  0.15000000000E+04  0.10566000000E+00 0. -1.
        994   -1    0    0    0    0 -0.00000000000E+00 -0.00000000000E+00  0.11368683772E-12  0.17120000000E+03  0.17120000000E+03 0.  0.
         13    1    1    2    0    0  0.16366283506E+02  0.82474008603E+02  0.42532474197E+03  0.43355618394E+03  0.10566000000E+00 0. -1.
        994    1    1    2    0    0 -0.23343817101E+02 -0.90523041217E+02  0.35377285132E+02  0.19824315144E+03  0.17120000000E+03 0.  0.
        998    1    1    2    0    0  0.69775335951E+01  0.80490326139E+01  0.10392979692E+04  0.10394006646E+04  0.10000000000E+02 0. -1.
</event>
<event>
 5    1  0.1688215E-008  0.3799915E+03  0.7957747E-01  0.3451195E+00
         13   -1    0    0    0    0  0.00000000000E+00  0.00000000000E+00  0.14999999963E+04  0.15000000000E+04  0.10566000000E+00 0.  1.
        994   -1    0    0    0    0 -0.00000000000E+00 -0.00000000000E+00  0.11368683772E-12  0.17120000000E+03  0.17120000000E+03 0.  0.
         13    1    1    2    0    0  0.20433452064E+02  0.21411018708E+02  0.97079099200E+02  0.10149049389E+03  0.10566000000E+00 0.  1.
        994    1    1    2    0    0 -0.23461131813E+02 -0.22554651376E+02  0.76862265353E+01  0.17443524610E+03  0.17120000000E+03 0.  0.
        998    1    1    2    0    0  0.30276797499E+01  0.11436326679E+01  0.13952346705E+04  0.13952742600E+04  0.10000000000E+02 0.  1.
</event>
<event>
 5    1  0.1688215E-008  0.3688324E+03  0.7957747E-01  0.3501274E+00
         13   -1    0    0    0    0  0.00000000000E+00  0.00000000000E+00  0.14999999963E+04  0.15000000000E+04  0.10566000000E+00 0. -1.
        994   -1    0    0    0    0 -0.00000000000E+00 -0.00000000000E+00  0.11368683772E-12  0.17120000000E+03  0.17120000000E+03 0.  0.
         13    1    1    2    0    0 -0.19914611315E+02  0.17797851181E+02  0.30750020818E+02  0.40729966791E+02  0.10566000000E+00 0. -1.
        994    1    1    2    0    0  0.27446034710E+01 -0.16832786572E+02  0.11336142533E+02  0.17242048509E+03  0.17120000000E+03 0.  0.
        998    1    1    2    0    0  0.17170007844E+02 -0.96506460937E+00  0.14579138329E+04  0.14580495481E+04  0.10000000000E+02 0. -1.
</event>
<event>
 5    1  0.1688215E-008  0.3758418E+03  0.7957747E-01  0.3469466E+00
         13   -1    0    0    0    0  0.00000000000E+00  0.00000000000E+00  0.14999999963E+04  0.15000000000E+04  0.10566000000E+00 0.  1.
        994   -1    0    0    0    0 -0.00000000000E+00 -0.00000000000E+00  0.11368683772E-12  0.17120000000E+03  0.17120000000E+03 0.  0.
         13    1    1    2    0    0  0.43218310419E+01  0.26357320354E+02  0.52749979502E+02  0.59126627346E+02  0.10566000000E+00 0.  1.
        994    1    1    2    0    0 -0.73401765213E+01 -0.27504902141E+02  0.89988563890E+01  0.17378382333E+03  0.17120000000E+03 0.  0.
        998    1    1    2    0    0  0.30183454793E+01  0.11475817879E+01  0.14382511604E+04  0.14382895493E+04  0.10000000000E+02 0.  1.
</event>
<event>
 5    1  0.1688215E-008  0.3814634E+03  0.7957747E-01  0.3444811E+00
         13   -1    0    0    0    0  0.00000000000E+00  0.00000000000E+00  0.14999999963E+04  0.15000000000E+04  0.10566000000E+00 0. -1.
        994   -1    0    0    0    0 -0.00000000000E+00 -0.00000000000E+00  0.11368683772E-12  0.17120000000E+03  0.17120000000E+03 0.  0.
         13    1    1    2    0    0 -0.16149927200E+02 -0.28346025792E+02  0.17339530392E+03  0.17643769414E+03  0.10566000000E+00 0. -1.
        994    1    1    2    0    0  0.14794636223E+01  0.47896021036E+01  0.34798843890E+01  0.17130872335E+03  0.17120000000E+03 0.  0.
        998    1    1    2    0    0  0.14670463578E+02  0.23556423689E+02  0.13231248080E+04  0.13234535825E+04  0.10000000000E+02 0. -1.
</event>
<event>
 5    1  0.1688215E-008  0.3851112E+03  0.7957747E-01  0.3429201E+00
         13   -1    0    0    0    0  0.00000000000E+00  0.00000000000E+00  0.14999999963E+04  0.15000000000E+04  0.10566000000E+00 0.  1.
        994   -1    0    0    0    0 -0.00000000000E+00 -0.00000000000E+00  0.11368683772E-12  0.17120000000E+03  0.17120000000E+03 0.  0.
         13    1    1    2    0    0 -0.61097525029E+01  0.12776634571E+02  0.65828355812E+02  0.67334649769E+02  0.10566000000E+00 0.  1.
        994    1    1    2    0    0  0.78457025082E+01 -0.12124536092E+01  0.17821628797E+01  0.17139323556E+03  0.17120000000E+03 0.  0.
        998    1    1    2    0    0 -0.17359500053E+01 -0.11564180962E+02  0.14323894776E+04  0.14324721147E+04  0.10000000000E+02 0.  1.
</event>
<event>
 5    1  0.1688215E-008  0.3815134E+03  0.7957747E-01  0.3444595E+00
         13   -1    0    0    0    0  0.00000000000E+00  0.00000000000E+00  0.14999999963E+04  0.15000000000E+04  0.10566000000E+00 0.  1.
        994   -1    0    0    0    0 -0.00000000000E+00 -0.00000000000E+00  0.11368683772E-12  0.17120000000E+03  0.17120000000E+03 0.  0.
         13    1    1    2    0    0  0.13171945217E+02  0.19581628362E+02  0.86749412580E+02  0.89902236107E+02  0.10566000000E+00 0.  1.
        994    1    1    2    0    0 -0.74113089268E+01  0.14829798164E+01  0.35611849293E+01  0.17140375949E+03  0.17120000000E+03 0.  0.
        998    1    1    2    0    0 -0.57606362903E+01 -0.21064608178E+02  0.14096893988E+04  0.14098940044E+04  0.10000000000E+02 0.  1.
</event>
<event>
 5    1  0.2693134E-008  0.3856995E+03  0.7957747E-01  0.3426711E+00
         13   -1    0    0    0    0  0.00000000000E+00  0.00000000000E+00  0.14999999963E+04  0.15000000000E+04  0.10566000000E+00 0. -1.
        994   -1    0    0    0    0 -0.00000000000E+00 -0.00000000000E+00  0.11368683772E-12  0.17120000000E+03  0.17120000000E+03 0.  0.
         13    1    1    2    0    0  0.10219075705E+02 -0.88227547703E+01  0.74952761853E+02  0.76159032186E+02  0.10566000000E+00 0. -1.
        994    1    1    2    0    0 -0.27882443630E+01  0.11405889214E+01  0.13130380638E+01  0.17123153716E+03  0.17120000000E+03 0.  0.
        998    1    1    2    0    0 -0.74308313420E+01  0.76821658488E+01  0.14237341964E+04  0.14238094307E+04  0.10000000000E+02 0. -1.
</event>
<event>
 5    1  0.1688215E-008  0.3856334E+03  0.7957747E-01  0.3426990E+00
         13   -1    0    0    0    0  0.00000000000E+00  0.00000000000E+00  0.14999999963E+04  0.15000000000E+04  0.10566000000E+00 0. -1.
        994   -1    0    0    0    0 -0.00000000000E+00 -0.00000000000E+00  0.11368683772E-12  0.17120000000E+03  0.17120000000E+03 0.  0.
         13    1    1    2    0    0 -0.11149452406E+02  0.12206560741E+01  0.50397408543E+02  0.51630516578E+02  0.10566000000E+00 0. -1.
        994    1    1    2    0    0  0.70031582257E+00  0.58911084699E+01  0.14315290339E+01  0.17130874139E+03  0.17120000000E+03 0.  0.
        998    1    1    2    0    0  0.10449136584E+02 -0.71117645439E+01  0.14481710587E+04  0.14482607420E+04  0.10000000000E+02 0. -1.
</event>
<event>
 5    1  0.1688215E-008  0.3817657E+03  0.7957747E-01  0.3443506E+00
         13   -1    0    0    0    0  0.00000000000E+00  0.00000000000E+00  0.14999999963E+04  0.15000000000E+04  0.10566000000E+00 0. -1.
        994   -1    0    0    0    0 -0.00000000000E+00 -0.00000000000E+00  0.11368683772E-12  0.17120000000E+03  0.17120000000E+03 0.  0.
         13    1    1    2    0    0  0.13358673134E+02  0.97409369175E+01  0.39456560423E+02  0.42780501685E+02  0.10566000000E+00 0. -1.
        994    1    1    2    0    0 -0.13174297162E+02 -0.17755305392E+02  0.48707674778E+01  0.17269040897E+03  0.17120000000E+03 0.  0.
        998    1    1    2    0    0 -0.18437597204E+00  0.80143684745E+01  0.14556726684E+04  0.14557290893E+04  0.10000000000E+02 0. -1.
</event>
<event>
 5    1  0.1688215E-008  0.3835660E+03  0.7957747E-01  0.3435777E+00
         13   -1    0    0    0    0  0.00000000000E+00  0.00000000000E+00  0.14999999963E+04  0.15000000000E+04  0.10566000000E+00 0.  1.
        994   -1    0    0    0    0 -0.00000000000E+00 -0.00000000000E+00  0.11368683772E-12  0.17120000000E+03  0.17120000000E+03 0.  0.
         13    1    1    2    0    0  0.21177133025E+02 -0.12165669210E+02  0.14345137351E+03  0.14551557373E+03  0.10566000000E+00 0.  1.
        994    1    1    2    0    0 -0.22921498114E+01 -0.46116184636E+01  0.24314112163E+01  0.17129469559E+03  0.17120000000E+03 0.  0.
        998    1    1    2    0    0 -0.18884983214E+02  0.16777287673E+02  0.13541172115E+04  0.13543897307E+04  0.10000000000E+02 0.  1.
</event>
<event>
 5    1  0.1688215E-008  0.3804585E+03  0.7957747E-01  0.3449165E+00
         13   -1    0    0    0    0  0.00000000000E+00  0.00000000000E+00  0.14999999963E+04  0.15000000000E+04  0.10566000000E+00 0.  1.
        994   -1    0    0    0    0 -0.00000000000E+00 -0.00000000000E+00  0.11368683772E-12  0.17120000000E+03  0.17120000000E+03 0.  0.
         13    1    1    2    0    0 -0.24505994251E+02 -0.25094631575E+02  0.12564772233E+03  0.13045169826E+03  0.10566000000E+00 0.  1.
        994    1    1    2    0    0  0.50076965924E+02  0.33437752586E+02  0.16100527763E+02  0.18219344886E+03  0.17120000000E+03 0.  0.
        998    1    1    2    0    0 -0.25570971673E+02 -0.83431210111E+01  0.13582517462E+04  0.13585548529E+04  0.10000000000E+02 0.  1.
</event>
<event>
 5    1  0.1688215E-008  0.3816167E+03  0.7957747E-01  0.3444149E+00
         13   -1    0    0    0    0  0.00000000000E+00  0.00000000000E+00  0.14999999963E+04  0.15000000000E+04  0.10566000000E+00 0.  1.
        994   -1    0    0    0    0 -0.00000000000E+00 -0.00000000000E+00  0.11368683772E-12  0.17120000000E+03  0.17120000000E+03 0.  0.
         13    1    1    2    0    0  0.52412803033E+02 -0.18807770674E+02  0.31293253769E+03  0.31784842058E+03  0.10566000000E+00 0.  1.
        994    1    1    2    0    0 -0.79772669060E+02 -0.31805000693E+01  0.24811314475E+02  0.19052253314E+03  0.17120000000E+03 0.  0.
        998    1    1    2    0    0  0.27359866027E+02  0.21988270743E+02  0.11622561441E+04  0.11628290463E+04  0.10000000000E+02 0.  1.
</event>
<event>
 5    1  0.1688215E-008  0.3825218E+03  0.7957747E-01  0.3440251E+00
         13   -1    0    0    0    0  0.00000000000E+00  0.00000000000E+00  0.14999999963E+04  0.15000000000E+04  0.10566000000E+00 0. -1.
        994   -1    0    0    0    0 -0.00000000000E+00 -0.00000000000E+00  0.11368683772E-12  0.17120000000E+03  0.17120000000E+03 0.  0.
         13    1    1    2    0    0  0.11219839020E+02  0.24032882053E+02  0.13097049822E+03  0.13362913895E+03  0.10566000000E+00 0. -1.
        994    1    1    2    0    0 -0.39821727675E+01 -0.45137434503E+01  0.29856512705E+01  0.17133180001E+03  0.17120000000E+03 0.  0.
        998    1    1    2    0    0 -0.72376662525E+01 -0.19519138603E+02  0.13660438468E+04  0.13662390610E+04  0.10000000000E+02 0. -1.
</event>
<event>
 5    1  0.1688215E-008  0.3691996E+03  0.7957747E-01  0.3499577E+00
         13   -1    0    0    0    0  0.00000000000E+00  0.00000000000E+00  0.14999999963E+04  0.15000000000E+04  0.10566000000E+00 0. -1.
        994   -1    0    0    0    0 -0.00000000000E+00 -0.00000000000E+00  0.11368683772E-12  0.17120000000E+03  0.17120000000E+03 0.  0.
         13    1    1    2    0    0 -0.72832267886E+02 -0.15972346358E+02  0.32311743578E+03  0.33160902214E+03  0.10566000000E+00 0. -1.
        994    1    1    2    0    0  0.84909932209E+01  0.15880872370E+02  0.11647584856E+02  0.17253812711E+03  0.17120000000E+03 0.  0.
        998    1    1    2    0    0  0.64341274665E+02  0.91473988134E-01  0.11652349756E+04  0.11670528508E+04  0.10000000000E+02 0. -1.
</event>
<event>
 5    1  0.1688215E-008  0.3795709E+03  0.7957747E-01  0.3453029E+00
         13   -1    0    0    0    0  0.00000000000E+00  0.00000000000E+00  0.14999999963E+04  0.15000000000E+04  0.10566000000E+00 0.  1.
        994   -1    0    0    0    0 -0.00000000000E+00 -0.00000000000E+00  0.11368683772E-12  0.17120000000E+03  0.17120000000E+03 0.  0.
         13    1    1    2    0    0 -0.51010229861E+02  0.43849852016E+02  0.38274380930E+03  0.38860994299E+03  0.10566000000E+00 0.  1.
        994    1    1    2    0    0  0.70867024237E+02 -0.24965744559E+02  0.23486691509E+02  0.18843165393E+03  0.17120000000E+03 0.  0.
        998    1    1    2    0    0 -0.19856794376E+02 -0.18884107457E+02  0.10937694955E+04  0.10941584031E+04  0.10000000000E+02 0.  1.
</event>
<event>
 5    1  0.1688215E-008  0.3765154E+03  0.7957747E-01  0.3466473E+00
         13   -1    0    0    0    0  0.00000000000E+00  0.00000000000E+00  0.14999999963E+04  0.15000000000E+04  0.10566000000E+00 0. -1.
        994   -1    0    0    0    0 -0.00000000000E+00 -0.00000000000E+00  0.11368683772E-12  0.17120000000E+03  0.17120000000E+03 0.  0.
         13    1    1    2    0    0  0.33235897901E+02 -0.19075984635E+02  0.13844314859E+03  0.14364899810E+03  0.10566000000E+00 0. -1.
        994    1    1    2    0    0 -0.29266978729E+01 -0.62023749776E+01  0.60616674503E+01  0.17144450656E+03  0.17120000000E+03 0.  0.
        998    1    1    2    0    0 -0.30309200028E+02  0.25278359613E+02  0.13554951802E+04  0.13561064953E+04  0.10000000000E+02 0. -1.
</event>
<event>
 5    1  0.1688215E-008  0.4011055E+03  0.7957747E-01  0.3364113E+00
         13   -1    0    0    0    0  0.00000000000E+00  0.00000000000E+00  0.14999999963E+04  0.15000000000E+04  0.10566000000E+00 0. -1.
        994   -1    0    0    0    0 -0.00000000000E+00 -0.00000000000E+00  0.11368683772E-12  0.17120000000E+03  0.17120000000E+03 0.  0.
         13    1    1    2    0    0  0.10540633781E+03  0.91500338009E+02  0.46656596631E+03  0.48699755645E+03  0.10566000000E+00 0. -1.
        994    1    1    2    0    0 -0.27820947504E+02 -0.13778503627E+02  0.32240115003E+02  0.17695399769E+03  0.17120000000E+03 0.  0.
        998    1    1    2    0    0 -0.77585390302E+02 -0.77721834382E+02  0.10011939150E+04  0.10072484459E+04  0.10000000000E+02 0. -1.
</event>
<event>
 5    1  0.1688215E-008  0.3769317E+03  0.7957747E-01  0.3464628E+00
         13   -1    0    0    0    0  0.00000000000E+00  0.00000000000E+00  0.14999999963E+04  0.15000000000E+04  0.10566000000E+00 0. -1.
        994   -1    0    0    0    0 -0.00000000000E+00 -0.00000000000E+00  0.11368683772E-12  0.17120000000E+03  0.17120000000E+03 0.  0.
         13    1    1    2    0    0  0.77588110573E+01 -0.89489751869E+01  0.97954913233E+01  0.15370299939E+02  0.10566000000E+00 0. -1.
        994    1    1    2    0    0 -0.25585316549E+01  0.76681972994E+01  0.59107902599E+01  0.17149263767E+03  0.17120000000E+03 0.  0.
        998    1    1    2    0    0 -0.52002794024E+01  0.12807778875E+01  0.14842937147E+04  0.14843370624E+04  0.10000000000E+02 0. -1.
</event>
<event>
 5    1  0.1688215E-008  0.3704900E+03  0.7957747E-01  0.3493642E+00
         13   -1    0    0    0    0  0.00000000000E+00  0.00000000000E+00  0.14999999963E+04  0.15000000000E+04  0.10566000000E+00 0.  1.
        994   -1    0    0    0    0 -0.00000000000E+00 -0.00000000000E+00  0.11368683772E-12  0.17120000000E+03  0.17120000000E+03 0.  0.
         13    1    1    2    0    0  0.22757380457E+02  0.23468932965E+02  0.43806328150E+02  0.54659809090E+02  0.10566000000E+00 0.  1.
        994    1    1    2    0    0 -0.15194273974E+02 -0.11187922726E+02  0.12445922407E+02  0.17268577406E+03  0.17120000000E+03 0.  0.
        998    1    1    2    0    0 -0.75631064826E+01 -0.12281010238E+02  0.14437477457E+04  0.14438544169E+04  0.10000000000E+02 0.  1.
</event>
<event>
 5    1  0.1688215E-008  0.3900914E+03  0.7957747E-01  0.3408362E+00
         13   -1    0    0    0    0  0.00000000000E+00  0.00000000000E+00  0.14999999963E+04  0.15000000000E+04  0.10566000000E+00 0. -1.
        994   -1    0    0    0    0 -0.00000000000E+00 -0.00000000000E+00  0.11368683772E-12  0.17120000000E+03  0.17120000000E+03 0.  0.
         13    1    1    2    0    0 -0.12342908359E+02  0.89630118713E+01 -0.46818994238E+01  0.15956638581E+02  0.10566000000E+00 0. -1.
        994    1    1    2    0    0  0.13214759440E+02 -0.81891081680E+01  0.22895101534E+02  0.17342236601E+03  0.17120000000E+03 0.  0.
        998    1    1    2    0    0 -0.87185108161E+00 -0.77390370326E+00  0.14817867942E+04  0.14818209954E+04  0.10000000000E+02 0. -1.
</event>
<event>
 5    1  0.1688215E-008  0.3849169E+03  0.7957747E-01  0.3430025E+00
         13   -1    0    0    0    0  0.00000000000E+00  0.00000000000E+00  0.14999999963E+04  0.15000000000E+04  0.10566000000E+00 0. -1.
        994   -1    0    0    0    0 -0.00000000000E+00 -0.00000000000E+00  0.11368683772E-12  0.17120000000E+03  0.17120000000E+03 0.  0.
         13    1    1    2    0    0 -0.83005756460E+01  0.84357166484E+01  0.42992171659E+02  0.44591466217E+02  0.10566000000E+00 0. -1.
        994    1    1    2    0    0  0.85124480500E+00 -0.23675836582E+01  0.16922110573E+01  0.17122684850E+03  0.17120000000E+03 0.  0.
        998    1    1    2    0    0  0.74493308410E+01 -0.60681329902E+01  0.14553156136E+04  0.14553816853E+04  0.10000000000E+02 0. -1.
</event>
<event>
 5    1  0.1688215E-008  0.3747365E+03  0.7957747E-01  0.3474402E+00
         13   -1    0    0    0    0  0.00000000000E+00  0.00000000000E+00  0.14999999963E+04  0.15000000000E+04  0.10566000000E+00 0. -1.
        994   -1    0    0    0    0 -0.00000000000E+00 -0.00000000000E+00  0.11368683772E-12  0.17120000000E+03  0.17120000000E+03 0.  0.
         13    1    1    2    0    0  0.21061645744E+02 -0.74590457821E+01  0.32410044418E+02  0.39365624962E+02  0.10566000000E+00 0. -1.
        994    1    1    2    0    0 -0.33115491332E+02 -0.56053965848E+00  0.10555275919E+02  0.17469345672E+03  0.17120000000E+03 0.  0.
        998    1    1    2    0    0  0.12053845589E+02  0.80195854406E+01  0.14570346759E+04  0.14571409183E+04  0.10000000000E+02 0. -1.
</event>
<event>
 5    1  0.1688215E-008  0.3822984E+03  0.7957747E-01  0.3441211E+00
         13   -1    0    0    0    0  0.00000000000E+00  0.00000000000E+00  0.14999999963E+04  0.15000000000E+04  0.10566000000E+00 0. -1.
        994   -1    0    0    0    0 -0.00000000000E+00 -0.00000000000E+00  0.11368683772E-12  0.17120000000E+03  0.17120000000E+03 0.  0.
         13    1    1    2    0    0  0.19431468970E+02 -0.37086108010E+01  0.63342874180E+02  0.66360128495E+02  0.10566000000E+00 0. -1.
        994    1    1    2    0    0 -0.18524701220E+02 -0.41847443120E+01  0.41749330780E+01  0.17230074494E+03  0.17120000000E+03 0.  0.
        998    1    1    2    0    0 -0.90676774971E+00  0.78933551129E+01  0.14324821890E+04  0.14325391266E+04  0.10000000000E+02 0. -1.
</event>
<event>
 5    1  0.1688215E-008  0.3854518E+03  0.7957747E-01  0.3427758E+00
         13   -1    0    0    0    0  0.00000000000E+00  0.00000000000E+00  0.14999999963E+04  0.15000000000E+04  0.10566000000E+00 0. -1.
        994   -1    0    0    0    0 -0.00000000000E+00 -0.00000000000E+00  0.11368683772E-12  0.17120000000E+03  0.17120000000E+03 0.  0.
         13    1    1    2    0    0  0.38349742334E+01  0.95379971740E+01  0.36788924069E+02  0.38198383678E+02  0.10566000000E+00 0. -1.
        994    1    1    2    0    0 -0.67740711161E+01 -0.95905497641E+01  0.18588702225E+01  0.17161224339E+03  0.17120000000E+03 0.  0.
        998    1    1    2    0    0  0.29390968827E+01  0.52552590071E-01  0.14613522020E+04  0.14613893729E+04  0.10000000000E+02 0. -1.
</event>
<event>
 5    1  0.1688215E-008  0.3799598E+03  0.7957747E-01  0.3451333E+00
         13   -1    0    0    0    0  0.00000000000E+00  0.00000000000E+00  0.14999999963E+04  0.15000000000E+04  0.10566000000E+00 0. -1.
        994   -1    0    0    0    0 -0.00000000000E+00 -0.00000000000E+00  0.11368683772E-12  0.17120000000E+03  0.17120000000E+03 0.  0.
         13    1    1    2    0    0 -0.96072191334E+01 -0.10446772234E+02  0.22682433359E+02  0.26757011356E+02  0.10566000000E+00 0. -1.
        994    1    1    2    0    0  0.57822706084E+01  0.50678008994E+01  0.43511025967E+01  0.17142779633E+03  0.17120000000E+03 0.  0.
        998    1    1    2    0    0  0.38249485250E+01  0.53789713345E+01  0.14729664603E+04  0.14730151923E+04  0.10000000000E+02 0. -1.
</event>
<event>
 5    1  0.1688215E-008  0.3699325E+03  0.7957747E-01  0.3496201E+00
         13   -1    0    0    0    0  0.00000000000E+00  0.00000000000E+00  0.14999999963E+04  0.15000000000E+04  0.10566000000E+00 0.  1.
        994   -1    0    0    0    0 -0.00000000000E+00 -0.00000000000E+00  0.11368683772E-12  0.17120000000E+03  0.17120000000E+03 0.  0.
         13    1    1    2    0    0 -0.24815374440E+02  0.30712574126E+01  0.29832047917E+02  0.38925540172E+02  0.10566000000E+00 0.  1.
        994    1    1    2    0    0  0.16848869043E+02 -0.16030049438E+00  0.10286844457E+02  0.17233446914E+03  0.17120000000E+03 0.  0.
        998    1    1    2    0    0  0.79665053971E+01 -0.29109569182E+01  0.14598811039E+04  0.14599399907E+04  0.10000000000E+02 0.  1.
</event>
<event>
 5    1  0.1688215E-008  0.3743589E+03  0.7957747E-01  0.3476095E+00
         13   -1    0    0    0    0  0.00000000000E+00  0.00000000000E+00  0.14999999963E+04  0.15000000000E+04  0.10566000000E+00 0.  1.
        994   -1    0    0    0    0 -0.00000000000E+00 -0.00000000000E+00  0.11368683772E-12  0.17120000000E+03  0.17120000000E+03 0.  0.
         13    1    1    2    0    0  0.81470114992E+02 -0.61617706198E+02  0.31362136109E+03  0.32983706683E+03  0.10566000000E+00 0.  1.
        994    1    1    2    0    0 -0.78887125757E+02  0.56876375375E+02  0.47651236157E+02  0.20257882662E+03  0.17120000000E+03 0.  0.
        998    1    1    2    0    0 -0.25829892352E+01  0.47413308230E+01  0.11387273990E+04  0.11387841066E+04  0.10000000000E+02 0.  1.
</event>
<event>
 5    1  0.1688215E-008  0.3768378E+03  0.7957747E-01  0.3465044E+00
         13   -1    0    0    0    0  0.00000000000E+00  0.00000000000E+00  0.14999999963E+04  0.15000000000E+04  0.10566000000E+00 0. -1.
        994   -1    0    0    0    0 -0.00000000000E+00 -0.00000000000E+00  0.11368683772E-12  0.17120000000E+03  0.17120000000E+03 0.  0.
         13    1    1    2    0    0 -0.40445499526E+02 -0.10573005368E+03  0.49253945470E+03  0.50538085469E+03  0.10566000000E+00 0. -1.
        994    1    1    2    0    0 -0.19563265063E+02  0.63801220490E+02  0.30730440961E+02  0.18629846236E+03  0.17120000000E+03 0.  0.
        998    1    1    2    0    0  0.60008764589E+02  0.41928833193E+02  0.97673010062E+03  0.97952068295E+03  0.10000000000E+02 0. -1.
</event>
<event>
 5    1  0.1688215E-008  0.3773783E+03  0.7957747E-01  0.3462654E+00
         13   -1    0    0    0    0  0.00000000000E+00  0.00000000000E+00  0.14999999963E+04  0.15000000000E+04  0.10566000000E+00 0.  1.
        994   -1    0    0    0    0 -0.00000000000E+00 -0.00000000000E+00  0.11368683772E-12  0.17120000000E+03  0.17120000000E+03 0.  0.
         13    1    1    2    0    0  0.75960395859E+01  0.24358833349E+02  0.59706572857E+02  0.64930259400E+02  0.10566000000E+00 0.  1.
        994    1    1    2    0    0 -0.45505065456E+01 -0.50723447001E+01  0.56190727605E+01  0.17142768087E+03  0.17120000000E+03 0.  0.
        998    1    1    2    0    0 -0.30455330403E+01 -0.19286488649E+02  0.14346743507E+04  0.14348420597E+04  0.10000000000E+02 0.  1.
</event>
<event>
 5    1  0.1688215E-008  0.3846083E+03  0.7957747E-01  0.3431335E+00
         13   -1    0    0    0    0  0.00000000000E+00  0.00000000000E+00  0.14999999963E+04  0.15000000000E+04  0.10566000000E+00 0. -1.
        994   -1    0    0    0    0 -0.00000000000E+00 -0.00000000000E+00  0.11368683772E-12  0.17120000000E+03  0.17120000000E+03 0.  0.
         13    1    1    2    0    0  0.13230793999E+01 -0.11727503568E+02  0.38978212249E+02  0.40725877194E+02  0.10566000000E+00 0. -1.
        994    1    1    2    0    0 -0.15918528716E+01  0.16429193907E+01  0.18419893189E+01  0.17122519121E+03  0.17120000000E+03 0.  0.
        998    1    1    2    0    0  0.26877347172E+00  0.10084584178E+02  0.14591797947E+04  0.14592489316E+04  0.10000000000E+02 0. -1.
</event>
<event>
 5    1  0.1688215E-008  0.3829684E+03  0.7957747E-01  0.3438334E+00
         13   -1    0    0    0    0  0.00000000000E+00  0.00000000000E+00  0.14999999963E+04  0.15000000000E+04  0.10566000000E+00 0.  1.
        994   -1    0    0    0    0 -0.00000000000E+00 -0.00000000000E+00  0.11368683772E-12  0.17120000000E+03  0.17120000000E+03 0.  0.
         13    1    1    2    0    0 -0.23924315761E+02  0.11998769920E+02  0.14813827476E+03  0.15053671637E+03  0.10566000000E+00 0.  1.
        994    1    1    2    0    0  0.25864531431E+01 -0.38204125174E+01  0.27126394916E+01  0.17128363525E+03  0.17120000000E+03 0.  0.
        998    1    1    2    0    0  0.21337862618E+02 -0.81783574029E+01  0.13491490820E+04  0.13493796484E+04  0.10000000000E+02 0.  1.
</event>
<event>
 5    1  0.1688215E-008  0.3851453E+03  0.7957747E-01  0.3429056E+00
         13   -1    0    0    0    0  0.00000000000E+00  0.00000000000E+00  0.14999999963E+04  0.15000000000E+04  0.10566000000E+00 0. -1.
        994   -1    0    0    0    0 -0.00000000000E+00 -0.00000000000E+00  0.11368683772E-12  0.17120000000E+03  0.17120000000E+03 0.  0.
         13    1    1    2    0    0 -0.46043089761E+01 -0.12802344286E+02  0.58708696403E+02  0.60264598876E+02  0.10566000000E+00 0. -1.
        994    1    1    2    0    0  0.36609644239E+00  0.11727451361E+02  0.20106524022E+01  0.17161337321E+03  0.17120000000E+03 0.  0.
        998    1    1    2    0    0  0.42382125337E+01  0.10748929254E+01  0.14392806475E+04  0.14393220279E+04  0.10000000000E+02 0. -1.
</event>
<event>
 5    1  0.1688215E-008  0.3836641E+03  0.7957747E-01  0.3435358E+00
         13   -1    0    0    0    0  0.00000000000E+00  0.00000000000E+00  0.14999999963E+04  0.15000000000E+04  0.10566000000E+00 0. -1.
        994   -1    0    0    0    0 -0.00000000000E+00 -0.00000000000E+00  0.11368683772E-12  0.17120000000E+03  0.17120000000E+03 0.  0.
         13    1    1    2    0    0 -0.11951120123E+02  0.76319306343E+01  0.45094860989E+02  0.47271908032E+02  0.10566000000E+00 0. -1.
        994    1    1    2    0    0 -0.25697270875E+01 -0.42828115056E+01  0.23772428167E+01  0.17128933783E+03  0.17120000000E+03 0.  0.
        998    1    1    2    0    0  0.14520847210E+02 -0.33491191287E+01  0.14525278925E+04  0.14526387541E+04  0.10000000000E+02 0. -1.
</event>
<event>
 5    1  0.1688215E-008  0.3780388E+03  0.7957747E-01  0.3459743E+00
         13   -1    0    0    0    0  0.00000000000E+00  0.00000000000E+00  0.14999999963E+04  0.15000000000E+04  0.10566000000E+00 0.  1.
        994   -1    0    0    0    0 -0.00000000000E+00 -0.00000000000E+00  0.11368683772E-12  0.17120000000E+03  0.17120000000E+03 0.  0.
         13    1    1    2    0    0  0.10235460697E+02 -0.25146191020E+02  0.72701265248E+02  0.77605287908E+02  0.10566000000E+00 0.  1.
        994    1    1    2    0    0  0.66868765794E+01  0.11196623321E+02  0.56988947997E+01  0.17179055880E+03  0.17120000000E+03 0.  0.
        998    1    1    2    0    0 -0.16922337276E+02  0.13949567699E+02  0.14215998362E+04  0.14218041533E+04  0.10000000000E+02 0.  1.
</event>
<event>
 5    1  0.1688215E-008  0.3850378E+03  0.7957747E-01  0.3429512E+00
         13   -1    0    0    0    0  0.00000000000E+00  0.00000000000E+00  0.14999999963E+04  0.15000000000E+04  0.10566000000E+00 0.  1.
        994   -1    0    0    0    0 -0.00000000000E+00 -0.00000000000E+00  0.11368683772E-12  0.17120000000E+03  0.17120000000E+03 0.  0.
         13    1    1    2    0    0 -0.36831310958E+01  0.16352524448E+02  0.82281616749E+02  0.83971698383E+02  0.10566000000E+00 0.  1.
        994    1    1    2    0    0  0.51932198670E+01 -0.18461977448E+02  0.28217769781E+01  0.17229398297E+03  0.17120000000E+03 0.  0.
        998    1    1    2    0    0 -0.15100887712E+01  0.21094529993E+01  0.14148966026E+04  0.14149343186E+04  0.10000000000E+02 0.  1.
</event>
<event>
 5    1  0.1688215E-008  0.3749616E+03  0.7957747E-01  0.3473395E+00
         13   -1    0    0    0    0  0.00000000000E+00  0.00000000000E+00  0.14999999963E+04  0.15000000000E+04  0.10566000000E+00 0. -1.
        994   -1    0    0    0    0 -0.00000000000E+00 -0.00000000000E+00  0.11368683772E-12  0.17120000000E+03  0.17120000000E+03 0.  0.
         13    1    1    2    0    0  0.39568770858E+01 -0.30816507802E+02  0.68264798258E+02  0.75002719115E+02  0.10566000000E+00 0. -1.
        994    1    1    2    0    0  0.22083580410E+01  0.25518200850E+02  0.89320132056E+01  0.17333573284E+03  0.17120000000E+03 0.  0.
        998    1    1    2    0    0 -0.61652351268E+01  0.52983069517E+01  0.14228031848E+04  0.14228615480E+04  0.10000000000E+02 0. -1.
</event>
<event>
 5    1  0.1688215E-008  0.3805988E+03  0.7957747E-01  0.3448555E+00
         13   -1    0    0    0    0  0.00000000000E+00  0.00000000000E+00  0.14999999963E+04  0.15000000000E+04  0.10566000000E+00 0. -1.
        994   -1    0    0    0    0 -0.00000000000E+00 -0.00000000000E+00  0.11368683772E-12  0.17120000000E+03  0.17120000000E+03 0.  0.
         13    1    1    2    0    0  0.34773257341E+02  0.17250219883E+02  0.21309270896E+03  0.21659931506E+03  0.10566000000E+00 0. -1.
        994    1    1    2    0    0 -0.96670322473E+00 -0.26142545634E+02  0.61177932585E+01  0.17329522383E+03  0.17120000000E+03 0.  0.
        998    1    1    2    0    0 -0.33806554116E+02  0.88923257508E+01  0.12807894941E+04  0.12813054611E+04  0.10000000000E+02 0. -1.
</event>
<event>
 5    1  0.1688215E-008  0.3815630E+03  0.7957747E-01  0.3444381E+00
         13   -1    0    0    0    0  0.00000000000E+00  0.00000000000E+00  0.14999999963E+04  0.15000000000E+04  0.10566000000E+00 0. -1.
        994   -1    0    0    0    0 -0.00000000000E+00 -0.00000000000E+00  0.11368683772E-12  0.17120000000E+03  0.17120000000E+03 0.  0.
         13    1    1    2    0    0 -0.21981131693E+01 -0.32481736840E+02  0.14866833930E+03  0.15219126520E+03  0.10566000000E+00 0. -1.
        994    1    1    2    0    0  0.22963462153E+02  0.26513404681E+02  0.74486411508E+01  0.17491484636E+03  0.17120000000E+03 0.  0.
        998    1    1    2    0    0 -0.20765348984E+02  0.59683321592E+01  0.13438830158E+04  0.13440938884E+04  0.10000000000E+02 0. -1.
</event>
<event>
 5    1  0.1688215E-008  0.3842548E+03  0.7957747E-01  0.3432839E+00
         13   -1    0    0    0    0  0.00000000000E+00  0.00000000000E+00  0.14999999963E+04  0.15000000000E+04  0.10566000000E+00 0. -1.
        994   -1    0    0    0    0 -0.00000000000E+00 -0.00000000000E+00  0.11368683772E-12  0.17120000000E+03  0.17120000000E+03 0.  0.
         13    1    1    2    0    0 -0.25860782363E+01  0.16647522054E+02  0.71131044524E+02  0.73099004441E+02  0.10566000000E+00 0. -1.
        994    1    1    2    0    0 -0.33732394235E+01 -0.10389541908E+02  0.23940163486E+01  0.17156483509E+03  0.17120000000E+03 0.  0.
        998    1    1    2    0    0  0.59593176598E+01 -0.62579801461E+01  0.14264749354E+04  0.14265361605E+04  0.10000000000E+02 0. -1.
</event>
<event>
 5    1  0.1688215E-008  0.3835099E+03  0.7957747E-01  0.3436017E+00
         13   -1    0    0    0    0  0.00000000000E+00  0.00000000000E+00  0.14999999963E+04  0.15000000000E+04  0.10566000000E+00 0.  1.
        994   -1    0    0    0    0 -0.00000000000E+00 -0.00000000000E+00  0.11368683772E-12  0.17120000000E+03  0.17120000000E+03 0.  0.
         13    1    1    2    0    0 -0.13368755169E+02 -0.59688984126E+01  0.43955914118E+02  0.46330172814E+02  0.10566000000E+00 0.  1.
        994    1    1    2    0    0  0.14014022278E+02 -0.18696368775E+00  0.30211354858E+01  0.17179928706E+03  0.17120000000E+03 0.  0.
        998    1    1    2    0    0 -0.64526710983E+00  0.61558621003E+01  0.14530229467E+04  0.14530705401E+04  0.10000000000E+02 0.  1.
</event>
<event>
 5    1  0.1688215E-008  0.3841084E+03  0.7957747E-01  0.3433462E+00
         13   -1    0    0    0    0  0.00000000000E+00  0.00000000000E+00  0.14999999963E+04  0.15000000000E+04  0.10566000000E+00 0. -1.
        994   -1    0    0    0    0 -0.00000000000E+00 -0.00000000000E+00  0.11368683772E-12  0.17120000000E+03  0.17120000000E+03 0.  0.
         13    1    1    2    0    0  0.13561010466E+02  0.11492909760E+02  0.76021651291E+02  0.78072342149E+02  0.10566000000E+00 0. -1.
        994    1    1    2    0    0 -0.73260799491E+01 -0.84051350252E+01  0.24835562902E+01  0.17158066847E+03  0.17120000000E+03 0.  0.
        998    1    1    2    0    0 -0.62349305171E+01 -0.30877747353E+01  0.14214947887E+04  0.14215469894E+04  0.10000000000E+02 0. -1.
</event>
<event>
 5    1  0.1688215E-008  0.3774146E+03  0.7957747E-01  0.3462494E+00
         13   -1    0    0    0    0  0.00000000000E+00  0.00000000000E+00  0.14999999963E+04  0.15000000000E+04  0.10566000000E+00 0.  1.
        994   -1    0    0    0    0 -0.00000000000E+00 -0.00000000000E+00  0.11368683772E-12  0.17120000000E+03  0.17120000000E+03 0.  0.
         13    1    1    2    0    0 -0.25060063670E+02  0.21697717622E+03  0.91374804885E+03  0.93949061184E+03  0.10566000000E+00 0.  1.
        994    1    1    2    0    0  0.31585344812E+02 -0.22569917063E+03  0.20725184817E+03  0.35242093894E+03  0.17120000000E+03 0.  0.
        998    1    1    2    0    0 -0.65252811422E+01  0.87219944093E+01  0.37900009925E+03  0.37928844922E+03  0.10000000000E+02 0.  0.
</event>
<event>
 5    1  0.1688215E-008  0.3840633E+03  0.7957747E-01  0.3433655E+00
         13   -1    0    0    0    0  0.00000000000E+00  0.00000000000E+00  0.14999999963E+04  0.15000000000E+04  0.10566000000E+00 0.  1.
        994   -1    0    0    0    0 -0.00000000000E+00 -0.00000000000E+00  0.11368683772E-12  0.17120000000E+03  0.17120000000E+03 0.  0.
         13    1    1    2    0    0 -0.47055071347E+01 -0.14558324372E+02  0.51643474164E+02  0.53862289161E+02  0.10566000000E+00 0.  1.
        994    1    1    2    0    0  0.23576279903E+02  0.17995021581E+02  0.50030233814E+01  0.17382212753E+03  0.17120000000E+03 0.  0.
        998    1    1    2    0    0 -0.18870772769E+02 -0.34366972086E+01  0.14433534987E+04  0.14435155833E+04  0.10000000000E+02 0.  1.
</event>
<event>
 5    1  0.1688215E-008  0.3844058E+03  0.7957747E-01  0.3432196E+00
         13   -1    0    0    0    0  0.00000000000E+00  0.00000000000E+00  0.14999999963E+04  0.15000000000E+04  0.10566000000E+00 0. -1.
        994   -1    0    0    0    0 -0.00000000000E+00 -0.00000000000E+00  0.11368683772E-12  0.17120000000E+03  0.17120000000E+03 0.  0.
         13    1    1    2    0    0  0.22026260781E+01  0.12034383873E+02  0.34095221371E+02  0.36223931885E+02  0.10566000000E+00 0. -1.
        994    1    1    2    0    0 -0.80944202264E+01 -0.35512920174E+02  0.63091292857E+01  0.17514546026E+03  0.17120000000E+03 0.  0.
        998    1    1    2    0    0  0.58917941483E+01  0.23478536300E+02  0.14595956456E+04  0.14598306079E+04  0.10000000000E+02 0. -1.
</event>
<event>
 5    1  0.1688215E-008  0.3828658E+03  0.7957747E-01  0.3438774E+00
         13   -1    0    0    0    0  0.00000000000E+00  0.00000000000E+00  0.14999999963E+04  0.15000000000E+04  0.10566000000E+00 0.  1.
        994   -1    0    0    0    0 -0.00000000000E+00 -0.00000000000E+00  0.11368683772E-12  0.17120000000E+03  0.17120000000E+03 0.  0.
         13    1    1    2    0    0  0.18933729019E+02  0.50175544066E+01  0.64204520566E+02  0.67125953043E+02  0.10566000000E+00 0.  1.
        994    1    1    2    0    0 -0.27845065336E+02 -0.17074185026E+02  0.62345137386E+01  0.17439949719E+03  0.17120000000E+03 0.  0.
        998    1    1    2    0    0  0.89113363174E+01  0.12056630619E+02  0.14295609620E+04  0.14296745498E+04  0.10000000000E+02 0.  1.
</event>
<event>
 5    1  0.1688215E-008  0.3709710E+03  0.7957747E-01  0.3491440E+00
         13   -1    0    0    0    0  0.00000000000E+00  0.00000000000E+00  0.14999999963E+04  0.15000000000E+04  0.10566000000E+00 0.  1.
        994   -1    0    0    0    0 -0.00000000000E+00 -0.00000000000E+00  0.11368683772E-12  0.17120000000E+03  0.17120000000E+03 0.  0.
         13    1    1    2    0    0  0.38382464537E+02 -0.29244700417E+02  0.12863746894E+03  0.13739023134E+03  0.10566000000E+00 0.  1.
        994    1    1    2    0    0 -0.20002110082E+02  0.25931026758E+02  0.12467360412E+02  0.17474947105E+03  0.17120000000E+03 0.  0.
        998    1    1    2    0    0 -0.18380354454E+02  0.33136736589E+01  0.13588951669E+04  0.13590602976E+04  0.10000000000E+02 0.  1.
</event>
<event>
 5    1  0.1688215E-008  0.3843954E+03  0.7957747E-01  0.3432240E+00
         13   -1    0    0    0    0  0.00000000000E+00  0.00000000000E+00  0.14999999963E+04  0.15000000000E+04  0.10566000000E+00 0.  1.
        994   -1    0    0    0    0 -0.00000000000E+00 -0.00000000000E+00  0.11368683772E-12  0.17120000000E+03  0.17120000000E+03 0.  0.
         13    1    1    2    0    0  0.13574472631E+02 -0.13096746722E+02  0.97053503716E+02  0.98869534385E+02  0.10566000000E+00 0.  1.
        994    1    1    2    0    0 -0.55281935361E+01  0.64432564710E+00  0.20326678360E+01  0.17130250383E+03  0.17120000000E+03 0.  0.
        998    1    1    2    0    0 -0.80462790951E+01  0.12452421075E+02  0.14009138247E+04  0.14010279618E+04  0.10000000000E+02 0.  1.
</event>
<event>
 5    1  0.1688215E-008  0.3785968E+03  0.7957747E-01  0.3457291E+00
         13   -1    0    0    0    0  0.00000000000E+00  0.00000000000E+00  0.14999999963E+04  0.15000000000E+04  0.10566000000E+00 0. -1.
        994   -1    0    0    0    0 -0.00000000000E+00 -0.00000000000E+00  0.11368683772E-12  0.17120000000E+03  0.17120000000E+03 0.  0.
         13    1    1    2    0    0 -0.11096452964E+02  0.18653446725E+02  0.47372386033E+02  0.52107930928E+02  0.10566000000E+00 0. -1.
        994    1    1    2    0    0  0.87365959337E+01 -0.70863588521E+01  0.52682786408E+01  0.17165004908E+03  0.17120000000E+03 0.  0.
        998    1    1    2    0    0  0.23598570303E+01 -0.11567087873E+02  0.14473593316E+04  0.14474420200E+04  0.10000000000E+02 0. -1.
</event>
<event>
 5    1  0.1688215E-008  0.3845972E+03  0.7957747E-01  0.3431382E+00
         13   -1    0    0    0    0  0.00000000000E+00  0.00000000000E+00  0.14999999963E+04  0.15000000000E+04  0.10566000000E+00 0.  1.
        994   -1    0    0    0    0 -0.00000000000E+00 -0.00000000000E+00  0.11368683772E-12  0.17120000000E+03  0.17120000000E+03 0.  0.
         13    1    1    2    0    0  0.10048553573E+02  0.18747054944E+01  0.27582974839E+02  0.29416315449E+02  0.10566000000E+00 0.  1.
        994    1    1    2    0    0 -0.12166395095E+02  0.26824875262E+00  0.23180582304E+01  0.17164762311E+03  0.17120000000E+03 0.  0.
        998    1    1    2    0    0  0.21178415218E+01 -0.21429542470E+01  0.14700989632E+04  0.14701360614E+04  0.10000000000E+02 0.  1.
</event>
<event>
 5    1  0.1688215E-008  0.3757283E+03  0.7957747E-01  0.3469972E+00
         13   -1    0    0    0    0  0.00000000000E+00  0.00000000000E+00  0.14999999963E+04  0.15000000000E+04  0.10566000000E+00 0. -1.
        994   -1    0    0    0    0 -0.00000000000E+00 -0.00000000000E+00  0.11368683772E-12  0.17120000000E+03  0.17120000000E+03 0.  0.
         13    1    1    2    0    0 -0.33244752035E+02  0.15032644144E+02  0.11827355797E+03  0.12377333964E+03  0.10566000000E+00 0. -1.
        994    1    1    2    0    0 -0.41711573860E+01  0.61726326502E+01  0.64934236946E+01  0.17148499788E+03  0.17120000000E+03 0.  0.
        998    1    1    2    0    0  0.37415909421E+02 -0.21205276794E+02  0.13752330146E+04  0.13759416625E+04  0.10000000000E+02 0. -1.
</event>
<event>
 5    1  0.1688215E-008  0.3792530E+03  0.7957747E-01  0.3454417E+00
         13   -1    0    0    0    0  0.00000000000E+00  0.00000000000E+00  0.14999999963E+04  0.15000000000E+04  0.10566000000E+00 0. -1.
        994   -1    0    0    0    0 -0.00000000000E+00 -0.00000000000E+00  0.11368683772E-12  0.17120000000E+03  0.17120000000E+03 0.  0.
         13    1    1    2    0    0  0.16036401195E+02  0.20465125843E+00  0.26593083771E+02  0.31054972451E+02  0.10566000000E+00 0. -1.
        994    1    1    2    0    0 -0.12084612728E+02  0.11814719469E+01  0.50049146921E+01  0.17170300787E+03  0.17120000000E+03 0.  0.
        998    1    1    2    0    0 -0.39517884672E+01 -0.13861232053E+01  0.14684019978E+04  0.14684420197E+04  0.10000000000E+02 0. -1.
</event>
<event>
 5    1  0.1688215E-008  0.3810344E+03  0.7957747E-01  0.3446667E+00
         13   -1    0    0    0    0  0.00000000000E+00  0.00000000000E+00  0.14999999963E+04  0.15000000000E+04  0.10566000000E+00 0.  1.
        994   -1    0    0    0    0 -0.00000000000E+00 -0.00000000000E+00  0.11368683772E-12  0.17120000000E+03  0.17120000000E+03 0.  0.
         13    1    1    2    0    0  0.94385047101E+01  0.38055017875E+01  0.12666650872E+02  0.16248766826E+02  0.10566000000E+00 0.  1.
        994    1    1    2    0    0 -0.99353477315E+01 -0.51329481831E+01  0.40286423664E+01  0.17161214482E+03  0.17120000000E+03 0.  0.
        998    1    1    2    0    0  0.49684302144E+00  0.13274463957E+01  0.14833047030E+04  0.14833390884E+04  0.10000000000E+02 0.  1.
</event>
<event>
 5    1  0.3566327E-008  0.3861932E+03  0.7957747E-01  0.3424627E+00
         13   -1    0    0    0    0  0.00000000000E+00  0.00000000000E+00  0.14999999963E+04  0.15000000000E+04  0.10566000000E+00 0.  1.
        994   -1    0    0    0    0 -0.00000000000E+00 -0.00000000000E+00  0.11368683772E-12  0.17120000000E+03  0.17120000000E+03 0.  0.
         13    1    1    2    0    0  0.10627060380E+02 -0.49394355683E+00  0.56320853365E+02  0.57316909201E+02  0.10566000000E+00 0.  1.
        994    1    1    2    0    0 -0.46017550788E+01  0.16880540684E+01  0.11175897338E+01  0.17127380034E+03  0.17120000000E+03 0.  0.
        998    1    1    2    0    0 -0.60253053010E+01 -0.11941105115E+01  0.14425615532E+04  0.14426092905E+04  0.10000000000E+02 0.  1.
</event>
<event>
 5    1  0.1688215E-008  0.3853560E+03  0.7957747E-01  0.3428164E+00
         13   -1    0    0    0    0  0.00000000000E+00  0.00000000000E+00  0.14999999963E+04  0.15000000000E+04  0.10566000000E+00 0.  1.
        994   -1    0    0    0    0 -0.00000000000E+00 -0.00000000000E+00  0.11368683772E-12  0.17120000000E+03  0.17120000000E+03 0.  0.
         13    1    1    2    0    0  0.12961509437E+02  0.53451431053E+01  0.55889859516E+02  0.57621687258E+02  0.10566000000E+00 0.  1.
        994    1    1    2    0    0 -0.36847105948E+02 -0.19658823302E+02  0.72039640074E+01  0.17636755838E+03  0.17120000000E+03 0.  0.
        998    1    1    2    0    0  0.23885596511E+02  0.14313680197E+02  0.14369061728E+04  0.14372107544E+04  0.10000000000E+02 0.  1.
</event>
<event>
 5    1  0.1688215E-008  0.3826228E+03  0.7957747E-01  0.3439817E+00
         13   -1    0    0    0    0  0.00000000000E+00  0.00000000000E+00  0.14999999963E+04  0.15000000000E+04  0.10566000000E+00 0.  1.
        994   -1    0    0    0    0 -0.00000000000E+00 -0.00000000000E+00  0.11368683772E-12  0.17120000000E+03  0.17120000000E+03 0.  0.
         13    1    1    2    0    0 -0.16031421516E+02 -0.71638714085E+01  0.53156169508E+02  0.55981399144E+02  0.10566000000E+00 0.  1.
        994    1    1    2    0    0  0.13455119406E+02  0.53964021911E+01  0.35118286598E+01  0.17184857967E+03  0.17120000000E+03 0.  0.
        998    1    1    2    0    0  0.25763021102E+01  0.17674692174E+01  0.14433319981E+04  0.14433700212E+04  0.10000000000E+02 0.  1.
</event>
<event>
 5    1  0.1688215E-008  0.3807560E+03  0.7957747E-01  0.3447873E+00
         13   -1    0    0    0    0  0.00000000000E+00  0.00000000000E+00  0.14999999963E+04  0.15000000000E+04  0.10566000000E+00 0.  1.
        994   -1    0    0    0    0 -0.00000000000E+00 -0.00000000000E+00  0.11368683772E-12  0.17120000000E+03  0.17120000000E+03 0.  0.
         13    1    1    2    0    0 -0.22137853140E+02 -0.95000216834E+01  0.81511682649E+02  0.84997061867E+02  0.10566000000E+00 0.  1.
        994    1    1    2    0    0 -0.51074846599E+01  0.14559899023E+02  0.45462759286E+01  0.17195402201E+03  0.17120000000E+03 0.  0.
        998    1    1    2    0    0  0.27245337800E+02 -0.50598773400E+01  0.14139420377E+04  0.14142489161E+04  0.10000000000E+02 0.  1.
</event>
<event>
 5    1  0.1688215E-008  0.3844379E+03  0.7957747E-01  0.3432060E+00
         13   -1    0    0    0    0  0.00000000000E+00  0.00000000000E+00  0.14999999963E+04  0.15000000000E+04  0.10566000000E+00 0.  1.
        994   -1    0    0    0    0 -0.00000000000E+00 -0.00000000000E+00  0.11368683772E-12  0.17120000000E+03  0.17120000000E+03 0.  0.
         13    1    1    2    0    0 -0.77141459415E+02 -0.90746868099E+02  0.46448789257E+03  0.47951518468E+03  0.10566000000E+00 0.  1.
        994    1    1    2    0    0  0.13495844646E+02  0.38950646433E+02  0.25072029086E+02  0.17786887677E+03  0.17120000000E+03 0.  0.
        998    1    1    2    0    0  0.63645614769E+02  0.51796221665E+02  0.10104400746E+04  0.10138159385E+04  0.10000000000E+02 0.  1.
</event>
<event>
 5    1  0.1688215E-008  0.3856133E+03  0.7957747E-01  0.3427075E+00
         13   -1    0    0    0    0  0.00000000000E+00  0.00000000000E+00  0.14999999963E+04  0.15000000000E+04  0.10566000000E+00 0.  1.
        994   -1    0    0    0    0 -0.00000000000E+00 -0.00000000000E+00  0.11368683772E-12  0.17120000000E+03  0.17120000000E+03 0.  0.
         13    1    1    2    0    0 -0.76730991487E+01  0.12496182384E+02  0.81689678407E+02  0.82995456182E+02  0.10566000000E+00 0.  1.
        994    1    1    2    0    0  0.48436542752E+01 -0.80915278464E+01  0.16179127094E+01  0.17146717310E+03  0.17120000000E+03 0.  0.
        998    1    1    2    0    0  0.28294448735E+01 -0.44046545380E+01  0.14166924052E+04  0.14167373707E+04  0.10000000000E+02 0.  1.
</event>
<event>
 5    1  0.1688215E-008  0.3854059E+03  0.7957747E-01  0.3427953E+00
         13   -1    0    0    0    0  0.00000000000E+00  0.00000000000E+00  0.14999999963E+04  0.15000000000E+04  0.10566000000E+00 0. -1.
        994   -1    0    0    0    0 -0.00000000000E+00 -0.00000000000E+00  0.11368683772E-12  0.17120000000E+03  0.17120000000E+03 0.  0.
         13    1    1    2    0    0  0.64106450919E+01 -0.13457328214E+02  0.81920878953E+02  0.83266065271E+02  0.10566000000E+00 0. -1.
        994    1    1    2    0    0  0.29176047593E+02  0.19889450916E+02  0.55345275085E+01  0.17489111757E+03  0.17120000000E+03 0.  0.
        998    1    1    2    0    0 -0.35586692685E+02 -0.64321227023E+01  0.14125445898E+04  0.14130428172E+04  0.10000000000E+02 0. -1.
</event>
<event>
 5    1  0.1688215E-008  0.2291325E+03  0.7957747E-01  0.4582488E+00
         13   -1    0    0    0    0  0.00000000000E+00  0.00000000000E+00  0.14999999963E+04  0.15000000000E+04  0.10566000000E+00 0. -1.
        994   -1    0    0    0    0 -0.00000000000E+00 -0.00000000000E+00  0.11368683772E-12  0.17120000000E+03  0.17120000000E+03 0.  0.
         13    1    1    2    0    0  0.79765546396E+02  0.12831491929E+03  0.16354656138E+03  0.22265387894E+03  0.10566000000E+00 0. -1.
        994    1    1    2    0    0 -0.77889070173E+02 -0.12882108763E+03  0.17589014864E+03  0.28793812575E+03  0.17120000000E+03 0.  0.
        998    1    1    2    0    0 -0.18764762230E+01  0.50616834522E+00  0.11605632863E+04  0.11606079953E+04  0.10000000000E+02 0.  0.
</event>
<event>
 5    1  0.1688215E-008  0.3779175E+03  0.7957747E-01  0.3460277E+00
         13   -1    0    0    0    0  0.00000000000E+00  0.00000000000E+00  0.14999999963E+04  0.15000000000E+04  0.10566000000E+00 0.  1.
        994   -1    0    0    0    0 -0.00000000000E+00 -0.00000000000E+00  0.11368683772E-12  0.17120000000E+03  0.17120000000E+03 0.  0.
         13    1    1    2    0    0  0.12309721539E+02 -0.11132713029E+02  0.24583570652E+02  0.29661922625E+02  0.10566000000E+00 0.  1.
        994    1    1    2    0    0  0.29906780669E+01  0.15894688891E+02  0.60690945785E+01  0.17206934416E+03  0.17120000000E+03 0.  0.
        998    1    1    2    0    0 -0.15300399606E+02 -0.47619758612E+01  0.14693473310E+04  0.14694687332E+04  0.10000000000E+02 0.  1.
</event>
<event>
 5    1  0.1688215E-008  0.2596530E+03  0.7957747E-01  0.4234122E+00
         13   -1    0    0    0    0  0.00000000000E+00  0.00000000000E+00  0.14999999963E+04  0.15000000000E+04  0.10566000000E+00 0. -1.
        994   -1    0    0    0    0 -0.00000000000E+00 -0.00000000000E+00  0.11368683772E-12  0.17120000000E+03  0.17120000000E+03 0.  0.
         13    1    1    2    0    0 -0.13725444314E+03 -0.83868721750E+02  0.56738980754E+03  0.58974905639E+03  0.10566000000E+00 0. -1.
        994    1    1    2    0    0  0.63431630689E+01  0.59313167091E+02  0.48996279395E+02  0.18779872977E+03  0.17120000000E+03 0.  0.
        998    1    1    2    0    0  0.13091128007E+03  0.24555554659E+02  0.88361390934E+03  0.89365221384E+03  0.10000000000E+02 0. -1.
</event>
<event>
 5    1  0.1688215E-008  0.3849132E+03  0.7957747E-01  0.3430040E+00
         13   -1    0    0    0    0  0.00000000000E+00  0.00000000000E+00  0.14999999963E+04  0.15000000000E+04  0.10566000000E+00 0.  1.
        994   -1    0    0    0    0 -0.00000000000E+00 -0.00000000000E+00  0.11368683772E-12  0.17120000000E+03  0.17120000000E+03 0.  0.
         13    1    1    2    0    0 -0.29747411954E+01  0.12003407248E+02  0.46979105708E+02  0.48579608972E+02  0.10566000000E+00 0.  1.
        994    1    1    2    0    0  0.12098030864E+02  0.13093020136E+00  0.21548897405E+01  0.17164050525E+03  0.17120000000E+03 0.  0.
        998    1    1    2    0    0 -0.91232896686E+01 -0.12134337449E+02  0.14508660008E+04  0.14509798858E+04  0.10000000000E+02 0.  1.
</event>
<event>
 5    1  0.1688215E-008  0.3818385E+03  0.7957747E-01  0.3443192E+00
         13   -1    0    0    0    0  0.00000000000E+00  0.00000000000E+00  0.14999999963E+04  0.15000000000E+04  0.10566000000E+00 0. -1.
        994   -1    0    0    0    0 -0.00000000000E+00 -0.00000000000E+00  0.11368683772E-12  0.17120000000E+03  0.17120000000E+03 0.  0.
         13    1    1    2    0    0 -0.44485731993E+01 -0.20577408347E+02  0.71639360023E+02  0.74668792721E+02  0.10566000000E+00 0. -1.
        994    1    1    2    0    0  0.46993479177E+00  0.28219545163E+01  0.32351264708E+01  0.17125446070E+03  0.17120000000E+03 0.  0.
        998    1    1    2    0    0  0.39786384075E+01  0.17755453830E+02  0.14251255098E+04  0.14252767466E+04  0.10000000000E+02 0.  1.
</event>
<event>
 5    1  0.1688215E-008  0.3833786E+03  0.7957747E-01  0.3436578E+00
         13   -1    0    0    0    0  0.00000000000E+00  0.00000000000E+00  0.14999999963E+04  0.15000000000E+04  0.10566000000E+00 0. -1.
        994   -1    0    0    0    0 -0.00000000000E+00 -0.00000000000E+00  0.11368683772E-12  0.17120000000E+03  0.17120000000E+03 0.  0.
         13    1    1    2    0    0 -0.68525083122E+01  0.84573822905E+01  0.23228011667E+02  0.25652209952E+02  0.10566000000E+00 0. -1.
        994    1    1    2    0    0  0.78417269015E+01 -0.73147640063E+01  0.28175609016E+01  0.17155866956E+03  0.17120000000E+03 0.  0.
        998    1    1    2    0    0 -0.98921858930E+00 -0.11426182842E+01  0.14739544237E+04  0.14739891205E+04  0.10000000000E+02 0. -1.
</event>
<event>
 5    1  0.1688215E-008  0.3800585E+03  0.7957747E-01  0.3450904E+00
         13   -1    0    0    0    0  0.00000000000E+00  0.00000000000E+00  0.14999999963E+04  0.15000000000E+04  0.10566000000E+00 0. -1.
        994   -1    0    0    0    0 -0.00000000000E+00 -0.00000000000E+00  0.11368683772E-12  0.17120000000E+03  0.17120000000E+03 0.  0.
         13    1    1    2    0    0  0.52719765023E+01  0.30953533335E+02  0.12485264364E+03  0.12874047052E+03  0.10566000000E+00 0. -1.
        994    1    1    2    0    0 -0.43909886515E+01 -0.95216318362E+01  0.44711838123E+01  0.17157905973E+03  0.17120000000E+03 0.  0.
        998    1    1    2    0    0 -0.88098785082E+00 -0.21431901499E+02  0.13706761688E+04  0.13708804697E+04  0.10000000000E+02 0. -1.
</event>
<event>
 5    1  0.1688215E-008  0.3835707E+03  0.7957747E-01  0.3435757E+00
         13   -1    0    0    0    0  0.00000000000E+00  0.00000000000E+00  0.14999999963E+04  0.15000000000E+04  0.10566000000E+00 0. -1.
        994   -1    0    0    0    0 -0.00000000000E+00 -0.00000000000E+00  0.11368683772E-12  0.17120000000E+03  0.17120000000E+03 0.  0.
         13    1    1    2    0    0  0.23517978725E+02  0.10492013801E+02  0.14371542674E+03  0.14600449556E+03  0.10566000000E+00 0. -1.
        994    1    1    2    0    0 -0.21952808320E+02  0.14737497194E+02  0.46547167259E+01  0.17329231375E+03  0.17120000000E+03 0.  0.
        998    1    1    2    0    0 -0.15651704048E+01 -0.25229510995E+02  0.13516298528E+04  0.13519031907E+04  0.10000000000E+02 0. -1.
</event>
<event>
 5    1  0.1688215E-008  0.3777237E+03  0.7957747E-01  0.3461130E+00
         13   -1    0    0    0    0  0.00000000000E+00  0.00000000000E+00  0.14999999963E+04  0.15000000000E+04  0.10566000000E+00 0. -1.
        994   -1    0    0    0    0 -0.00000000000E+00 -0.00000000000E+00  0.11368683772E-12  0.17120000000E+03  0.17120000000E+03 0.  0.
         13    1    1    2    0    0  0.11101422036E+02  0.26737481604E+02  0.74505694024E+02  0.79932747355E+02  0.10566000000E+00 0. -1.
        994    1    1    2    0    0  0.60641133720E+01 -0.32228092154E+02  0.89174776127E+01  0.17454049617E+03  0.17120000000E+03 0.  0.
        998    1    1    2    0    0 -0.17165535408E+02  0.54906105502E+01  0.14165768246E+04  0.14167267565E+04  0.10000000000E+02 0. -1.
</event>
<event>
 5    1  0.1688215E-008  0.3724436E+03  0.7957747E-01  0.3484735E+00
         13   -1    0    0    0    0  0.00000000000E+00  0.00000000000E+00  0.14999999963E+04  0.15000000000E+04  0.10566000000E+00 0.  1.
        994   -1    0    0    0    0 -0.00000000000E+00 -0.00000000000E+00  0.11368683772E-12  0.17120000000E+03  0.17120000000E+03 0.  0.
         13    1    1    2    0    0 -0.45415964229E+02 -0.50051553609E+01  0.11664359671E+03  0.12527330603E+03  0.10566000000E+00 0.  1.
        994    1    1    2    0    0  0.46506683849E+02  0.30499876231E+02  0.18678485841E+02  0.18097358903E+03  0.17120000000E+03 0.  0.
        998    1    1    2    0    0 -0.10907196199E+01 -0.25494720870E+02  0.13646779137E+04  0.13649531049E+04  0.10000000000E+02 0.  1.
</event>
<event>
 5    1  0.3236427E-008  0.3862179E+03  0.7957747E-01  0.3424523E+00
         13   -1    0    0    0    0  0.00000000000E+00  0.00000000000E+00  0.14999999963E+04  0.15000000000E+04  0.10566000000E+00 0. -1.
        994   -1    0    0    0    0 -0.00000000000E+00 -0.00000000000E+00  0.11368683772E-12  0.17120000000E+03  0.17120000000E+03 0.  0.
         13    1    1    2    0    0 -0.11232699951E+02 -0.18532237436E+01  0.62071255881E+02  0.63106734641E+02  0.10566000000E+00 0. -1.
        994    1    1    2    0    0  0.11967489682E+02  0.16479625867E-01  0.14959411131E+01  0.17162429583E+03  0.17120000000E+03 0.  0.
        998    1    1    2    0    0 -0.73478973138E+00  0.18367441178E+01  0.14364327993E+04  0.14364689695E+04  0.10000000000E+02 0. -1.
</event>
<event>
 5    1  0.1688215E-008  0.3808548E+03  0.7957747E-01  0.3447445E+00
         13   -1    0    0    0    0  0.00000000000E+00  0.00000000000E+00  0.14999999963E+04  0.15000000000E+04  0.10566000000E+00 0. -1.
        994   -1    0    0    0    0 -0.00000000000E+00 -0.00000000000E+00  0.11368683772E-12  0.17120000000E+03  0.17120000000E+03 0.  0.
         13    1    1    2    0    0  0.85367913289E+01  0.43595521001E+02  0.26406194404E+03  0.26777260448E+03  0.10566000000E+00 0. -1.
        994    1    1    2    0    0  0.13842987012E+02 -0.29825378080E+02  0.73147596918E+01  0.17448245521E+03  0.17120000000E+03 0.  0.
        998    1    1    2    0    0 -0.22379778341E+02 -0.13770142920E+02  0.12286232925E+04  0.12289449403E+04  0.10000000000E+02 0. -1.
</event>
<event>
 5    1  0.1688215E-008  0.3858228E+03  0.7957747E-01  0.3426190E+00
         13   -1    0    0    0    0  0.00000000000E+00  0.00000000000E+00  0.14999999963E+04  0.15000000000E+04  0.10566000000E+00 0. -1.
        994   -1    0    0    0    0 -0.00000000000E+00 -0.00000000000E+00  0.11368683772E-12  0.17120000000E+03  0.17120000000E+03 0.  0.
         13    1    1    2    0    0  0.12544314364E+02 -0.28571879841E+01  0.74420484349E+02  0.75524452999E+02  0.10566000000E+00 0. -1.
        994    1    1    2    0    0  0.94303023659E+00 -0.58889623804E+01  0.13388645587E+01  0.17130908249E+03  0.17120000000E+03 0.  0.
        998    1    1    2    0    0 -0.13487344600E+02  0.87461503646E+01  0.14242406474E+04  0.14243664645E+04  0.10000000000E+02 0. -1.
</event>
<event>
 5    1  0.1688215E-008  0.3726576E+03  0.7957747E-01  0.3483766E+00
         13   -1    0    0    0    0  0.00000000000E+00  0.00000000000E+00  0.14999999963E+04  0.15000000000E+04  0.10566000000E+00 0. -1.
        994   -1    0    0    0    0 -0.00000000000E+00 -0.00000000000E+00  0.11368683772E-12  0.17120000000E+03  0.17120000000E+03 0.  0.
         13    1    1    2    0    0  0.78521017391E+01  0.47673466128E+02  0.12948600539E+03  0.13820655422E+03  0.10566000000E+00 0. -1.
        994    1    1    2    0    0 -0.12622362523E+02 -0.53665098267E+02  0.18372630971E+02  0.18079341906E+03  0.17120000000E+03 0.  0.
        998    1    1    2    0    0  0.47702607843E+01  0.59916321390E+01  0.13521413599E+04  0.13522000267E+04  0.10000000000E+02 0. -1.
</event>
<event>
 5    1  0.1688215E-008  0.3757441E+03  0.7957747E-01  0.3469902E+00
         13   -1    0    0    0    0  0.00000000000E+00  0.00000000000E+00  0.14999999963E+04  0.15000000000E+04  0.10566000000E+00 0.  1.
        994   -1    0    0    0    0 -0.00000000000E+00 -0.00000000000E+00  0.11368683772E-12  0.17120000000E+03  0.17120000000E+03 0.  0.
         13    1    1    2    0    0 -0.73786391456E+02 -0.12855220158E+03  0.81119327632E+03  0.82462394023E+03  0.10566000000E+00 0.  1.
        994    1    1    2    0    0  0.71366934671E+02  0.12287992073E+03  0.78165702189E+02  0.23582203307E+03  0.17120000000E+03 0.  0.
        998    1    1    2    0    0  0.24194567850E+01  0.56722808515E+01  0.61064101777E+03  0.61075402670E+03  0.10000000000E+02 0. -1.
</event>
<event>
 5    1  0.1688215E-008  0.3703132E+03  0.7957747E-01  0.3494453E+00
         13   -1    0    0    0    0  0.00000000000E+00  0.00000000000E+00  0.14999999963E+04  0.15000000000E+04  0.10566000000E+00 0. -1.
        994   -1    0    0    0    0 -0.00000000000E+00 -0.00000000000E+00  0.11368683772E-12  0.17120000000E+03  0.17120000000E+03 0.  0.
         13    1    1    2    0    0 -0.13996254967E+02  0.14516935893E+02  0.17791686235E+02  0.26892226459E+02  0.10566000000E+00 0. -1.
        994    1    1    2    0    0  0.79133439084E+01 -0.32205361798E+02  0.12913587337E+02  0.17485996420E+03  0.17120000000E+03 0.  0.
        998    1    1    2    0    0  0.60829110585E+01  0.17688425906E+02  0.14692947227E+04  0.14694478093E+04  0.10000000000E+02 0. -1.
</event>
<event>
 5    1  0.1688215E-008  0.3779314E+03  0.7957747E-01  0.3460216E+00
         13   -1    0    0    0    0  0.00000000000E+00  0.00000000000E+00  0.14999999963E+04  0.15000000000E+04  0.10566000000E+00 0.  1.
        994   -1    0    0    0    0 -0.00000000000E+00 -0.00000000000E+00  0.11368683772E-12  0.17120000000E+03  0.17120000000E+03 0.  0.
         13    1    1    2    0    0 -0.32894898658E+02  0.26261838913E+03  0.94241251736E+03  0.97887274797E+03  0.10566000000E+00 0.  1.
        994    1    1    2    0    0  0.49589576665E+02 -0.26783857018E+03  0.31959435704E+03  0.45348276576E+03  0.17120000000E+03 0.  0.
        998    1    1    2    0    0 -0.16694678008E+02  0.52201810450E+01  0.23799312187E+03  0.23884448627E+03  0.10000000000E+02 0. -1.
</event>
<event>
 5    1  0.1688215E-008  0.3778670E+03  0.7957747E-01  0.3460499E+00
         13   -1    0    0    0    0  0.00000000000E+00  0.00000000000E+00  0.14999999963E+04  0.15000000000E+04  0.10566000000E+00 0.  1.
        994   -1    0    0    0    0 -0.00000000000E+00 -0.00000000000E+00  0.11368683772E-12  0.17120000000E+03  0.17120000000E+03 0.  0.
         13    1    1    2    0    0  0.43630456917E+01  0.10592051903E+02  0.10297734594E+02  0.15403968094E+02  0.10566000000E+00 0.  1.
        994    1    1    2    0    0  0.10296294461E+01 -0.73280764353E+01  0.53981625948E+01  0.17144486286E+03  0.17120000000E+03 0.  0.
        998    1    1    2    0    0 -0.53926751378E+01 -0.32639754675E+01  0.14843040991E+04  0.14843511690E+04  0.10000000000E+02 0.  1.
</event>
<event>
 5    1  0.1688215E-008  0.3825228E+03  0.7957747E-01  0.3440247E+00
         13   -1    0    0    0    0  0.00000000000E+00  0.00000000000E+00  0.14999999963E+04  0.15000000000E+04  0.10566000000E+00 0.  1.
        994   -1    0    0    0    0 -0.00000000000E+00 -0.00000000000E+00  0.11368683772E-12  0.17120000000E+03  0.17120000000E+03 0.  0.
         13    1    1    2    0    0  0.76231859376E+01  0.15922114096E+02  0.52566094719E+02  0.55451169141E+02  0.10566000000E+00 0.  1.
        994    1    1    2    0    0 -0.53036363550E+01 -0.14517135987E+02  0.36573882707E+01  0.17193513976E+03  0.17120000000E+03 0.  0.
        998    1    1    2    0    0 -0.23195495826E+01 -0.14049781096E+01  0.14437765133E+04  0.14438136911E+04  0.10000000000E+02 0.  1.
</event>
<event>
 5    1  0.1688215E-008  0.3850468E+03  0.7957747E-01  0.3429474E+00
         13   -1    0    0    0    0  0.00000000000E+00  0.00000000000E+00  0.14999999963E+04  0.15000000000E+04  0.10566000000E+00 0.  1.
        994   -1    0    0    0    0 -0.00000000000E+00 -0.00000000000E+00  0.11368683772E-12  0.17120000000E+03  0.17120000000E+03 0.  0.
         13    1    1    2    0    0  0.95453346732E+01  0.40317604018E+02  0.50077571881E+02  0.64995361198E+02  0.10566000000E+00 0.  1.
        994    1    1    2    0    0  0.36843036041E+02  0.87458021032E+02  0.53196626466E+02  0.20284387054E+03  0.17120000000E+03 0.  0.
        998    1    1    2    0    0 -0.46388370714E+02 -0.12777562505E+03  0.13967257979E+04  0.14033607683E+04  0.10000000000E+02 0.  1.
</event>
<event>
 5    1  0.1688215E-008  0.3845755E+03  0.7957747E-01  0.3431475E+00
         13   -1    0    0    0    0  0.00000000000E+00  0.00000000000E+00  0.14999999963E+04  0.15000000000E+04  0.10566000000E+00 0. -1.
        994   -1    0    0    0    0 -0.00000000000E+00 -0.00000000000E+00  0.11368683772E-12  0.17120000000E+03  0.17120000000E+03 0.  0.
         13    1    1    2    0    0 -0.18602448520E+02  0.46565870028E+01  0.10843151101E+03  0.11011420725E+03  0.10566000000E+00 0. -1.
        994    1    1    2    0    0  0.18691323552E+01  0.15182130023E+01  0.18601619815E+01  0.17122703884E+03  0.17120000000E+03 0.  0.
        998    1    1    2    0    0  0.16733316165E+02 -0.61748000051E+01  0.13897083233E+04  0.13898587539E+04  0.10000000000E+02 0. -1.
</event>
<event>
 5    1  0.1688215E-008  0.3824319E+03  0.7957747E-01  0.3440637E+00
         13   -1    0    0    0    0  0.00000000000E+00  0.00000000000E+00  0.14999999963E+04  0.15000000000E+04  0.10566000000E+00 0.  1.
        994   -1    0    0    0    0 -0.00000000000E+00 -0.00000000000E+00  0.11368683772E-12  0.17120000000E+03  0.17120000000E+03 0.  0.
         13    1    1    2    0    0 -0.93062621676E+01  0.90553267170E+01  0.28077343970E+02  0.30934670936E+02  0.10566000000E+00 0.  1.
        994    1    1    2    0    0  0.91953190625E+01 -0.77141066141E+00  0.31929625591E+01  0.17147823179E+03  0.17120000000E+03 0.  0.
        998    1    1    2    0    0  0.11094310511E+00 -0.82839160556E+01  0.14687296897E+04  0.14687870973E+04  0.10000000000E+02 0.  1.
</event>
<event>
 5    1  0.1688215E-008  0.3842822E+03  0.7957747E-01  0.3432722E+00
         13   -1    0    0    0    0  0.00000000000E+00  0.00000000000E+00  0.14999999963E+04  0.15000000000E+04  0.10566000000E+00 0.  1.
        994   -1    0    0    0    0 -0.00000000000E+00 -0.00000000000E+00  0.11368683772E-12  0.17120000000E+03  0.17120000000E+03 0.  0.
         13    1    1    2    0    0 -0.85623463671E+01 -0.17801287636E+02  0.10226452413E+03  0.10415490232E+03  0.10566000000E+00 0.  1.
        994    1    1    2    0    0  0.25602860233E+00  0.70586203185E+01  0.21514133923E+01  0.17135914989E+03  0.17120000000E+03 0.  0.
        998    1    1    2    0    0  0.83063177648E+01  0.10742667317E+02  0.13955840588E+04  0.13956859478E+04  0.10000000000E+02 0.  1.
</event>
<event>
 5    1  0.1688215E-008  0.3759878E+03  0.7957747E-01  0.3468817E+00
         13   -1    0    0    0    0  0.00000000000E+00  0.00000000000E+00  0.14999999963E+04  0.15000000000E+04  0.10566000000E+00 0. -1.
        994   -1    0    0    0    0 -0.00000000000E+00 -0.00000000000E+00  0.11368683772E-12  0.17120000000E+03  0.17120000000E+03 0.  0.
         13    1    1    2    0    0 -0.45525461605E+02 -0.11842544148E+03  0.54672591060E+03  0.56125429650E+03  0.10566000000E+00 0. -1.
        994    1    1    2    0    0  0.96109412728E+02  0.13496147174E+03  0.10569496381E+03  0.26063860697E+03  0.17120000000E+03 0.  0.
        998    1    1    2    0    0 -0.50583951123E+02 -0.16536030256E+02  0.84757912186E+03  0.84930709653E+03  0.10000000000E+02 0.  1.
</event>
<event>
 5    1  0.1688215E-008  0.2795481E+03  0.7957747E-01  0.4053791E+00
         13   -1    0    0    0    0  0.00000000000E+00  0.00000000000E+00  0.14999999963E+04  0.15000000000E+04  0.10566000000E+00 0. -1.
        994   -1    0    0    0    0 -0.00000000000E+00 -0.00000000000E+00  0.11368683772E-12  0.17120000000E+03  0.17120000000E+03 0.  0.
         13    1    1    2    0    0  0.19710509399E+03  0.75775414198E+02  0.16929544911E+03  0.27065345319E+03  0.10566000000E+00 0. -1.
        994    1    1    2    0    0 -0.19292425123E+03 -0.70256657582E+02  0.47737862738E+03  0.54713394935E+03  0.17120000000E+03 0.  0.
        998    1    1    2    0    0 -0.41808427548E+01 -0.55187566163E+01  0.85332591979E+03  0.85341259746E+03  0.10000000000E+02 0. -1.
</event>
<event>
 5    1  0.1688215E-008  0.3807349E+03  0.7957747E-01  0.3447965E+00
         13   -1    0    0    0    0  0.00000000000E+00  0.00000000000E+00  0.14999999963E+04  0.15000000000E+04  0.10566000000E+00 0.  1.
        994   -1    0    0    0    0 -0.00000000000E+00 -0.00000000000E+00  0.11368683772E-12  0.17120000000E+03  0.17120000000E+03 0.  0.
         13    1    1    2    0    0  0.91475966012E+01 -0.35536450593E+02  0.15477229342E+03  0.15906285493E+03  0.10566000000E+00 0.  1.
        994    1    1    2    0    0 -0.25706071504E+02  0.37563899649E+02  0.10702963259E+02  0.17747067953E+03  0.17120000000E+03 0.  0.
        998    1    1    2    0    0  0.16558474903E+02 -0.20274490563E+01  0.13345247396E+04  0.13346664655E+04  0.10000000000E+02 0.  1.
</event>
<event>
 5    1  0.1688215E-008  0.4120143E+03  0.7957747E-01  0.3322604E+00
         13   -1    0    0    0    0  0.00000000000E+00  0.00000000000E+00  0.14999999963E+04  0.15000000000E+04  0.10566000000E+00 0. -1.
        994   -1    0    0    0    0 -0.00000000000E+00 -0.00000000000E+00  0.11368683772E-12  0.17120000000E+03  0.17120000000E+03 0.  0.
         13    1    1    2    0    0 -0.21941835481E+02 -0.32184153312E+02  0.74871266515E+01  0.39665250512E+02  0.10566000000E+00 0. -1.
        994    1    1    2    0    0  0.19464152182E+02  0.32930087744E+02  0.41212396222E+02  0.18019751802E+03  0.17120000000E+03 0.  0.
        998    1    1    2    0    0  0.24776832992E+01 -0.74593443264E+00  0.14513004734E+04  0.14513372315E+04  0.10000000000E+02 0. -1.
</event>
<event>
 5    1  0.1688215E-008  0.3811724E+03  0.7957747E-01  0.3446069E+00
         13   -1    0    0    0    0  0.00000000000E+00  0.00000000000E+00  0.14999999963E+04  0.15000000000E+04  0.10566000000E+00 0. -1.
        994   -1    0    0    0    0 -0.00000000000E+00 -0.00000000000E+00  0.11368683772E-12  0.17120000000E+03  0.17120000000E+03 0.  0.
         13    1    1    2    0    0  0.44957707201E+01  0.19516300664E+02  0.55468329569E+02  0.58973254066E+02  0.10566000000E+00 0. -1.
        994    1    1    2    0    0 -0.74084316360E+01 -0.11140863575E+02  0.41387914609E+01  0.17177186410E+03  0.17120000000E+03 0.  0.
        998    1    1    2    0    0  0.29126609158E+01 -0.83754370889E+01  0.14403928752E+04  0.14404548818E+04  0.10000000000E+02 0. -1.
</event>
<event>
 5    1  0.1688215E-008  0.3821113E+03  0.7957747E-01  0.3442017E+00
         13   -1    0    0    0    0  0.00000000000E+00  0.00000000000E+00  0.14999999963E+04  0.15000000000E+04  0.10566000000E+00 0.  1.
        994   -1    0    0    0    0 -0.00000000000E+00 -0.00000000000E+00  0.11368683772E-12  0.17120000000E+03  0.17120000000E+03 0.  0.
         13    1    1    2    0    0 -0.30448322575E+01  0.16236868979E+02  0.42085863146E+02  0.45212143928E+02  0.10566000000E+00 0.  1.
        994    1    1    2    0    0 -0.21834046766E+01 -0.19415891535E+02  0.43394871991E+01  0.17236593413E+03  0.17120000000E+03 0.  0.
        998    1    1    2    0    0  0.52282369342E+01  0.31790225563E+01  0.14535746459E+04  0.14536219219E+04  0.10000000000E+02 0.  1.
</event>
<event>
 5    1  0.1688215E-008  0.3751903E+03  0.7957747E-01  0.3472372E+00
         13   -1    0    0    0    0  0.00000000000E+00  0.00000000000E+00  0.14999999963E+04  0.15000000000E+04  0.10566000000E+00 0. -1.
        994   -1    0    0    0    0 -0.00000000000E+00 -0.00000000000E+00  0.11368683772E-12  0.17120000000E+03  0.17120000000E+03 0.  0.
         13    1    1    2    0    0 -0.47459183790E+02 -0.34427868802E+02  0.30660352401E+03  0.31215922920E+03  0.10566000000E+00 0. -1.
        994    1    1    2    0    0 -0.78325747121E+00  0.22818487679E+02  0.83539113474E+01  0.17291768188E+03  0.17120000000E+03 0.  0.
        998    1    1    2    0    0  0.48242441262E+02  0.11609381123E+02  0.11850425609E+04  0.11861230889E+04  0.10000000000E+02 0. -1.
</event>
<event>
 5    1  0.1688215E-008  0.3841005E+03  0.7957747E-01  0.3433496E+00
         13   -1    0    0    0    0  0.00000000000E+00  0.00000000000E+00  0.14999999963E+04  0.15000000000E+04  0.10566000000E+00 0. -1.
        994   -1    0    0    0    0 -0.00000000000E+00 -0.00000000000E+00  0.11368683772E-12  0.17120000000E+03  0.17120000000E+03 0.  0.
         13    1    1    2    0    0  0.15129954458E+02 -0.26127574917E+02  0.15616882053E+03  0.15906060909E+03  0.10566000000E+00 0. -1.
        994    1    1    2    0    0 -0.21943599007E+02  0.55105929828E+02  0.13768828882E+02  0.18170637217E+03  0.17120000000E+03 0.  0.
        998    1    1    2    0    0  0.68136445486E+01 -0.28978354910E+02  0.13300623469E+04  0.13304330187E+04  0.10000000000E+02 0. -1.
</event>
<event>
 5    1  0.1688215E-008  0.3692851E+03  0.7957747E-01  0.3499183E+00
         13   -1    0    0    0    0  0.00000000000E+00  0.00000000000E+00  0.14999999963E+04  0.15000000000E+04  0.10566000000E+00 0. -1.
        994   -1    0    0    0    0 -0.00000000000E+00 -0.00000000000E+00  0.11368683772E-12  0.17120000000E+03  0.17120000000E+03 0.  0.
         13    1    1    2    0    0 -0.72267097335E+02 -0.98611754725E+02  0.46387792955E+03  0.47971820501E+03  0.10566000000E+00 0. -1.
        994    1    1    2    0    0  0.72350356107E+02  0.11220310743E+03  0.74230435484E+02  0.22944216896E+03  0.17120000000E+03 0.  0.
        998    1    1    2    0    0 -0.83258771773E-01 -0.13591352701E+02  0.96189163124E+03  0.96203962603E+03  0.10000000000E+02 0. -1.
</event>
<event>
 5    1  0.1688215E-008  0.3716941E+03  0.7957747E-01  0.3488141E+00
         13   -1    0    0    0    0  0.00000000000E+00  0.00000000000E+00  0.14999999963E+04  0.15000000000E+04  0.10566000000E+00 0.  1.
        994   -1    0    0    0    0 -0.00000000000E+00 -0.00000000000E+00  0.11368683772E-12  0.17120000000E+03  0.17120000000E+03 0.  0.
         13    1    1    2    0    0  0.13644734841E+02 -0.62989600745E+01  0.95768897278E+01  0.17820877301E+02  0.10566000000E+00 0.  1.
        994    1    1    2    0    0 -0.10833885370E+02  0.15915601696E+02  0.96615341019E+01  0.17254989044E+03  0.17120000000E+03 0.  0.
        998    1    1    2    0    0 -0.28108494705E+01 -0.96166416215E+01  0.14807615724E+04  0.14808292323E+04  0.10000000000E+02 0.  1.
</event>
<event>
 5    1  0.1688215E-008  0.3764607E+03  0.7957747E-01  0.3466716E+00
         13   -1    0    0    0    0  0.00000000000E+00  0.00000000000E+00  0.14999999963E+04  0.15000000000E+04  0.10566000000E+00 0.  1.
        994   -1    0    0    0    0 -0.00000000000E+00 -0.00000000000E+00  0.11368683772E-12  0.17120000000E+03  0.17120000000E+03 0.  0.
         13    1    1    2    0    0 -0.35185637540E+02 -0.99159024802E+01  0.95427417847E+02  0.10218981090E+03  0.10566000000E+00 0.  1.
        994    1    1    2    0    0  0.40822051646E+02  0.67288515726E+02  0.27178646745E+02  0.19037411349E+03  0.17120000000E+03 0.  0.
        998    1    1    2    0    0 -0.56364141062E+01 -0.57372613245E+02  0.13773939317E+04  0.13786360756E+04  0.10000000000E+02 0.  1.
</event>
