<event>
 4    1  0.2496748E+000  0.5273799E+02  0.7957747E-01  0.1431109E+00
         13   -1    0    0    0    0  0.00000000000E+00  0.00000000000E+00  0.99999944178E+02  0.99999999999E+02  0.10566000000E+00 0.  1.
         22   -1    0    0    0    0 -0.00000000000E+00 -0.00000000000E+00 -0.13494463999E+02  0.13494463999E+02  0.00000000000E+00 0. -1.
         13    1    1    2    0    0 -0.12644705623E+02  0.11018494602E+02  0.71950639870E+01  0.18250367486E+02  0.10566000000E+00 0. -1.
        996    1    1    2    0    0  0.12644705623E+02 -0.11018494602E+02  0.79310416193E+02  0.95244096511E+02  0.50000000000E+02 0.  0.
<mgrwt>
<rscale>  0 0.52737992E+02</rscale>
<asrwt>0</asrwt>
<pdfrwt beam="1">  1       13 0.10000000E+01 0.52737992E+02</pdfrwt>
<pdfrwt beam="2">  1       22 0.13494488E+00 0.52737992E+02</pdfrwt>
<totfact> 0.89608275E-01</totfact>
</mgrwt>
</event>
<event>
 4    1  0.2496748E+000  0.5112079E+02  0.7957747E-01  0.1439388E+00
         13   -1    0    0    0    0  0.00000000000E+00  0.00000000000E+00  0.99999944182E+02  0.10000000000E+03  0.10566000000E+00 0. -1.
         22   -1    0    0    0    0 -0.00000000000E+00 -0.00000000000E+00 -0.95381090303E+01  0.95381090303E+01  0.00000000000E+00 0. -1.
         13    1    1    2    0    0 -0.10584822018E+02  0.11387968789E+01  0.15423357870E+02  0.18741036457E+02  0.10566000000E+00 0.  1.
        996    1    1    2    0    0  0.10584822018E+02 -0.11387968789E+01  0.75038477282E+02  0.90797072576E+02  0.50000000000E+02 0.  0.
<mgrwt>
<rscale>  0 0.51120791E+02</rscale>
<asrwt>0</asrwt>
<pdfrwt beam="1">  1       13 0.10000000E+01 0.51120791E+02</pdfrwt>
<pdfrwt beam="2">  1       22 0.95381343E-01 0.51120791E+02</pdfrwt>
<totfact> 0.15058539E+00</totfact>
</mgrwt>
</event>
<event>
 4    1  0.2496748E+000  0.5257407E+02  0.7957747E-01  0.1431932E+00
         13   -1    0    0    0    0  0.00000000000E+00  0.00000000000E+00  0.99999944180E+02  0.10000000000E+03  0.10566000000E+00 0. -1.
         22   -1    0    0    0    0 -0.00000000000E+00 -0.00000000000E+00 -0.14207859506E+02  0.14207859506E+02  0.00000000000E+00 0.  1.
         13    1    1    2    0    0 -0.75038944604E+01 -0.14412658169E+02  0.36061999786E+01  0.16644788671E+02  0.10566000000E+00 0.  1.
        996    1    1    2    0    0  0.75038944604E+01  0.14412658169E+02  0.82185884695E+02  0.97563070835E+02  0.50000000000E+02 0.  0.
<mgrwt>
<rscale>  0 0.52574073E+02</rscale>
<asrwt>0</asrwt>
<pdfrwt beam="1">  1       13 0.10000000E+01 0.52574073E+02</pdfrwt>
<pdfrwt beam="2">  1       22 0.14207883E+00 0.52574073E+02</pdfrwt>
<totfact> 0.82429956E-01</totfact>
</mgrwt>
</event>
<event>
 4    1  0.2496748E+000  0.5175061E+02  0.7957747E-01  0.1436122E+00
         13   -1    0    0    0    0  0.00000000000E+00  0.00000000000E+00  0.99999944181E+02  0.10000000000E+03  0.10566000000E+00 0. -1.
         22   -1    0    0    0    0 -0.00000000000E+00 -0.00000000000E+00 -0.35372351359E+02  0.35372351359E+02  0.00000000000E+00 0.  1.
         13    1    1    2    0    0  0.11782745718E+02  0.62683954514E+01 -0.27012329164E+02  0.30129768819E+02  0.10566000000E+00 0.  1.
        996    1    1    2    0    0 -0.11782745718E+02 -0.62683954514E+01  0.91639921986E+02  0.10524258254E+03  0.50000000000E+02 0.  0.
<mgrwt>
<rscale>  0 0.51750612E+02</rscale>
<asrwt>0</asrwt>
<pdfrwt beam="1">  1       13 0.10000000E+01 0.51750612E+02</pdfrwt>
<pdfrwt beam="2">  1       22 0.35372369E+00 0.51750612E+02</pdfrwt>
<totfact> 0.15423210E-01</totfact>
</mgrwt>
</event>
<event>
 4    1  0.2496748E+000  0.5764443E+02  0.7957747E-01  0.1407991E+00
         13   -1    0    0    0    0  0.00000000000E+00  0.00000000000E+00  0.99999944180E+02  0.10000000000E+03  0.10566000000E+00 0. -1.
         22   -1    0    0    0    0 -0.00000000000E+00 -0.00000000000E+00 -0.28443489408E+02  0.28443489408E+02  0.00000000000E+00 0.  1.
         13    1    1    2    0    0 -0.39962412068E+01 -0.28406174703E+02 -0.83848720149E+01  0.29886417447E+02  0.10566000000E+00 0.  1.
        996    1    1    2    0    0  0.39962412068E+01  0.28406174703E+02  0.79941326787E+02  0.98557071961E+02  0.50000000000E+02 0.  0.
<mgrwt>
<rscale>  0 0.57644433E+02</rscale>
<asrwt>0</asrwt>
<pdfrwt beam="1">  1       13 0.10000000E+01 0.57644433E+02</pdfrwt>
<pdfrwt beam="2">  1       22 0.28443509E+00 0.57644433E+02</pdfrwt>
<totfact> 0.23077705E-01</totfact>
</mgrwt>
</event>
<event>
 4    1  0.2496748E+000  0.5240300E+02  0.7957747E-01  0.1432795E+00
         13   -1    0    0    0    0  0.00000000000E+00  0.00000000000E+00  0.99999944178E+02  0.99999999998E+02  0.10566000000E+00 0.  1.
         22   -1    0    0    0    0 -0.00000000000E+00 -0.00000000000E+00 -0.12690089724E+02  0.12690089724E+02  0.00000000000E+00 0.  1.
         13    1    1    2    0    0  0.15664421649E+02 -0.83683004360E+00  0.79415460622E+01  0.17582767359E+02  0.10566000000E+00 0. -1.
        996    1    1    2    0    0 -0.15664421649E+02  0.83683004360E+00  0.79368308392E+02  0.95107322363E+02  0.50000000000E+02 0.  0.
<mgrwt>
<rscale>  0 0.52403000E+02</rscale>
<asrwt>0</asrwt>
<pdfrwt beam="1">  1       13 0.10000000E+01 0.52403000E+02</pdfrwt>
<pdfrwt beam="2">  1       22 0.12690114E+00 0.52403000E+02</pdfrwt>
<totfact> 0.98674721E-01</totfact>
</mgrwt>
</event>
<event>
 4    1  0.2496748E+000  0.5872760E+02  0.7957747E-01  0.1403250E+00
         13   -1    0    0    0    0  0.00000000000E+00  0.00000000000E+00  0.99999944180E+02  0.10000000000E+03  0.10566000000E+00 0.  1.
         22   -1    0    0    0    0 -0.00000000000E+00 -0.00000000000E+00 -0.38067846200E+02  0.38067846200E+02  0.00000000000E+00 0. -1.
         13    1    1    2    0    0 -0.35349909836E+01  0.30601230260E+02 -0.20392255168E+02  0.36943019497E+02  0.10566000000E+00 0. -1.
        996    1    1    2    0    0  0.35349909836E+01 -0.30601230260E+02  0.82324353148E+02  0.10112482670E+03  0.50000000000E+02 0.  0.
<mgrwt>
<rscale>  0 0.58727604E+02</rscale>
<asrwt>0</asrwt>
<pdfrwt beam="1">  1       13 0.10000000E+01 0.58727604E+02</pdfrwt>
<pdfrwt beam="2">  1       22 0.38067864E+00 0.58727604E+02</pdfrwt>
<totfact> 0.13626262E-01</totfact>
</mgrwt>
</event>
<event>
 4    1  0.2496748E+000  0.5203363E+02  0.7957747E-01  0.1434671E+00
         13   -1    0    0    0    0  0.00000000000E+00  0.00000000000E+00  0.99999944173E+02  0.99999999993E+02  0.10566000000E+00 0.  1.
         22   -1    0    0    0    0 -0.00000000000E+00 -0.00000000000E+00 -0.12674723879E+02  0.12674723879E+02  0.00000000000E+00 0.  1.
         13    1    1    2    0    0 -0.13488959213E+02 -0.50543916146E+01  0.49311240383E+01  0.15225834741E+02  0.10566000000E+00 0. -1.
        996    1    1    2    0    0  0.13488959213E+02  0.50543916146E+01  0.82394096255E+02  0.97448889131E+02  0.50000000000E+02 0.  0.
<mgrwt>
<rscale>  0 0.52033632E+02</rscale>
<asrwt>0</asrwt>
<pdfrwt beam="1">  1       13 0.10000000E+01 0.52033632E+02</pdfrwt>
<pdfrwt beam="2">  1       22 0.12674748E+00 0.52033632E+02</pdfrwt>
<totfact> 0.98782120E-01</totfact>
</mgrwt>
</event>
<event>
 4    1  0.2496748E+000  0.5296952E+02  0.7957747E-01  0.1429953E+00
         13   -1    0    0    0    0  0.00000000000E+00  0.00000000000E+00  0.99999944178E+02  0.99999999998E+02  0.10566000000E+00 0.  1.
         22   -1    0    0    0    0 -0.00000000000E+00 -0.00000000000E+00 -0.29359358997E+02  0.29359358997E+02  0.00000000000E+00 0. -1.
         13    1    1    2    0    0 -0.98041656624E+01 -0.14479223971E+02 -0.18633491534E+02  0.25553625221E+02  0.10566000000E+00 0. -1.
        996    1    1    2    0    0  0.98041656624E+01  0.14479223971E+02  0.89274076715E+02  0.10380573377E+03  0.50000000000E+02 0.  0.
<mgrwt>
<rscale>  0 0.52969516E+02</rscale>
<asrwt>0</asrwt>
<pdfrwt beam="1">  1       13 0.10000000E+01 0.52969516E+02</pdfrwt>
<pdfrwt beam="2">  1       22 0.29359379E+00 0.52969516E+02</pdfrwt>
<totfact> 0.21589519E-01</totfact>
</mgrwt>
</event>
<event>
 4    1  0.2496748E+000  0.5529793E+02  0.7957747E-01  0.1418695E+00
         13   -1    0    0    0    0  0.00000000000E+00  0.00000000000E+00  0.99999944179E+02  0.99999999999E+02  0.10566000000E+00 0.  1.
         22   -1    0    0    0    0 -0.00000000000E+00 -0.00000000000E+00 -0.20347076808E+02  0.20347076808E+02  0.00000000000E+00 0. -1.
         13    1    1    2    0    0  0.15075296605E+01 -0.23570934300E+02  0.29264631189E+00  0.23621142973E+02  0.10566000000E+00 0. -1.
        996    1    1    2    0    0 -0.15075296605E+01  0.23570934300E+02  0.79360221059E+02  0.96725933834E+02  0.50000000000E+02 0.  0.
<mgrwt>
<rscale>  0 0.55297935E+02</rscale>
<asrwt>0</asrwt>
<pdfrwt beam="1">  1       13 0.10000000E+01 0.55297935E+02</pdfrwt>
<pdfrwt beam="2">  1       22 0.20347099E+00 0.55297935E+02</pdfrwt>
<totfact> 0.44122423E-01</totfact>
</mgrwt>
</event>
<event>
 4    1  0.2496748E+000  0.6123554E+02  0.7957747E-01  0.1392719E+00
         13   -1    0    0    0    0  0.00000000000E+00  0.00000000000E+00  0.99999944184E+02  0.10000000000E+03  0.10566000000E+00 0.  1.
         22   -1    0    0    0    0 -0.00000000000E+00 -0.00000000000E+00 -0.38139918723E+02  0.38139918723E+02  0.00000000000E+00 0. -1.
         13    1    1    2    0    0  0.11501719540E+01 -0.35333665765E+02 -0.16232954281E+02  0.38901295616E+02  0.10566000000E+00 0. -1.
        996    1    1    2    0    0 -0.11501719540E+01  0.35333665765E+02  0.78092979742E+02  0.99238623111E+02  0.50000000000E+02 0.  0.
<mgrwt>
<rscale>  0 0.61235536E+02</rscale>
<asrwt>0</asrwt>
<pdfrwt beam="1">  1       13 0.10000000E+01 0.61235536E+02</pdfrwt>
<pdfrwt beam="2">  1       22 0.38139936E+00 0.61235536E+02</pdfrwt>
<totfact> 0.13605246E-01</totfact>
</mgrwt>
</event>
<event>
 4    1  0.2496748E+000  0.5282998E+02  0.7957747E-01  0.1430649E+00
         13   -1    0    0    0    0  0.00000000000E+00  0.00000000000E+00  0.99999944184E+02  0.10000000000E+03  0.10566000000E+00 0. -1.
         22   -1    0    0    0    0 -0.00000000000E+00 -0.00000000000E+00 -0.26242698610E+02  0.26242698610E+02  0.00000000000E+00 0.  1.
         13    1    1    2    0    0  0.16786198518E+02  0.30380869275E+01 -0.15155432119E+02  0.22818955270E+02  0.10566000000E+00 0.  1.
        996    1    1    2    0    0 -0.16786198518E+02 -0.30380869275E+01  0.88912677693E+02  0.10342374334E+03  0.50000000000E+02 0.  0.
<mgrwt>
<rscale>  0 0.52829977E+02</rscale>
<asrwt>0</asrwt>
<pdfrwt beam="1">  1       13 0.10000000E+01 0.52829977E+02</pdfrwt>
<pdfrwt beam="2">  1       22 0.26242719E+00 0.52829977E+02</pdfrwt>
<totfact> 0.26829324E-01</totfact>
</mgrwt>
</event>
<event>
 4    1  0.2496748E+000  0.5285390E+02  0.7957747E-01  0.1430529E+00
         13   -1    0    0    0    0  0.00000000000E+00  0.00000000000E+00  0.99999944184E+02  0.10000000000E+03  0.10566000000E+00 0.  1.
         22   -1    0    0    0    0 -0.00000000000E+00 -0.00000000000E+00 -0.27170347595E+02  0.27170347595E+02  0.00000000000E+00 0.  1.
         13    1    1    2    0    0  0.16862035080E+02 -0.30341449100E+01 -0.16235234889E+02  0.23603564949E+02  0.10566000000E+00 0. -1.
        996    1    1    2    0    0 -0.16862035080E+02  0.30341449100E+01  0.89064831478E+02  0.10356678265E+03  0.50000000000E+02 0.  0.
<mgrwt>
<rscale>  0 0.52853895E+02</rscale>
<asrwt>0</asrwt>
<pdfrwt beam="1">  1       13 0.10000000E+01 0.52853895E+02</pdfrwt>
<pdfrwt beam="2">  1       22 0.27170368E+00 0.52853895E+02</pdfrwt>
<totfact> 0.25064035E-01</totfact>
</mgrwt>
</event>
<event>
 4    1  0.2496748E+000  0.5319123E+02  0.7957747E-01  0.1428852E+00
         13   -1    0    0    0    0  0.00000000000E+00  0.00000000000E+00  0.99999944185E+02  0.10000000000E+03  0.10566000000E+00 0.  1.
         22   -1    0    0    0    0 -0.00000000000E+00 -0.00000000000E+00 -0.18652319227E+02  0.18652319227E+02  0.00000000000E+00 0.  1.
         13    1    1    2    0    0 -0.56704313218E+01  0.17238133153E+02 -0.35276882776E+01  0.18486827056E+02  0.10566000000E+00 0. -1.
        996    1    1    2    0    0  0.56704313218E+01 -0.17238133153E+02  0.84875313236E+02  0.10016549218E+03  0.50000000000E+02 0.  0.
<mgrwt>
<rscale>  0 0.53191231E+02</rscale>
<asrwt>0</asrwt>
<pdfrwt beam="1">  1       13 0.10000000E+01 0.53191231E+02</pdfrwt>
<pdfrwt beam="2">  1       22 0.18652342E+00 0.53191231E+02</pdfrwt>
<totfact> 0.51633140E-01</totfact>
</mgrwt>
</event>
<event>
 4    1  0.2496748E+000  0.5216033E+02  0.7957747E-01  0.1434026E+00
         13   -1    0    0    0    0  0.00000000000E+00  0.00000000000E+00  0.99999944181E+02  0.10000000000E+03  0.10566000000E+00 0. -1.
         22   -1    0    0    0    0 -0.00000000000E+00 -0.00000000000E+00 -0.60568738843E+02  0.60568738843E+02  0.00000000000E+00 0.  1.
         13    1    1    2    0    0 -0.54626179175E+01 -0.13815208036E+02 -0.52668805509E+02  0.54723983822E+02  0.10566000000E+00 0.  1.
        996    1    1    2    0    0  0.54626179175E+01  0.13815208036E+02  0.92100010847E+02  0.10584475502E+03  0.50000000000E+02 0.  0.
<mgrwt>
<rscale>  0 0.52160331E+02</rscale>
<asrwt>0</asrwt>
<pdfrwt beam="1">  1       13 0.10000000E+01 0.52160331E+02</pdfrwt>
<pdfrwt beam="2">  1       22 0.60568750E+00 0.52160331E+02</pdfrwt>
<totfact> 0.65752041E-02</totfact>
</mgrwt>
</event>
<event>
 4    1  0.2496748E+000  0.5154925E+02  0.7957747E-01  0.1437160E+00
         13   -1    0    0    0    0  0.00000000000E+00  0.00000000000E+00  0.99999944184E+02  0.10000000000E+03  0.10566000000E+00 0.  1.
         22   -1    0    0    0    0 -0.00000000000E+00 -0.00000000000E+00 -0.14909627866E+02  0.14909627866E+02  0.00000000000E+00 0.  1.
         13    1    1    2    0    0  0.92097613596E+01 -0.85150142387E+01 -0.29521480710E+01  0.12886097705E+02  0.10566000000E+00 0. -1.
        996    1    1    2    0    0 -0.92097613596E+01  0.85150142387E+01  0.88042464388E+02  0.10202353017E+03  0.50000000000E+02 0.  0.
<mgrwt>
<rscale>  0 0.51549250E+02</rscale>
<asrwt>0</asrwt>
<pdfrwt beam="1">  1       13 0.10000000E+01 0.51549250E+02</pdfrwt>
<pdfrwt beam="2">  1       22 0.14909652E+00 0.51549250E+02</pdfrwt>
<totfact> 0.75982426E-01</totfact>
</mgrwt>
</event>
<event>
 4    1  0.2496748E+000  0.5354910E+02  0.7957747E-01  0.1427088E+00
         13   -1    0    0    0    0  0.00000000000E+00  0.00000000000E+00  0.99999944180E+02  0.10000000000E+03  0.10566000000E+00 0.  1.
         22   -1    0    0    0    0 -0.00000000000E+00 -0.00000000000E+00 -0.16581337796E+02  0.16581337796E+02  0.00000000000E+00 0. -1.
         13    1    1    2    0    0 -0.16970476892E+02  0.89167996232E+01  0.21974487419E+01  0.19296278047E+02  0.10566000000E+00 0. -1.
        996    1    1    2    0    0  0.16970476892E+02 -0.89167996232E+01  0.81221157643E+02  0.97285059749E+02  0.50000000000E+02 0.  0.
<mgrwt>
<rscale>  0 0.53549103E+02</rscale>
<asrwt>0</asrwt>
<pdfrwt beam="1">  1       13 0.10000000E+01 0.53549103E+02</pdfrwt>
<pdfrwt beam="2">  1       22 0.16581361E+00 0.53549103E+02</pdfrwt>
<totfact> 0.63689720E-01</totfact>
</mgrwt>
</event>
<event>
 4    1  0.2496748E+000  0.6179211E+02  0.7957747E-01  0.1390461E+00
         13   -1    0    0    0    0  0.00000000000E+00  0.00000000000E+00  0.99999944168E+02  0.99999999989E+02  0.10566000000E+00 0.  1.
         22   -1    0    0    0    0 -0.00000000000E+00 -0.00000000000E+00 -0.44220639889E+02  0.44220639889E+02  0.00000000000E+00 0. -1.
         13    1    1    2    0    0 -0.30850175831E+02  0.19145011858E+02 -0.23840722054E+02  0.43435653787E+02  0.10566000000E+00 0. -1.
        996    1    1    2    0    0  0.30850175831E+02 -0.19145011858E+02  0.79620026334E+02  0.10078498609E+03  0.50000000000E+02 0.  0.
<mgrwt>
<rscale>  0 0.61792110E+02</rscale>
<asrwt>0</asrwt>
<pdfrwt beam="1">  1       13 0.10000000E+01 0.61792110E+02</pdfrwt>
<pdfrwt beam="2">  1       22 0.44220655E+00 0.61792110E+02</pdfrwt>
<totfact> 0.10113844E-01</totfact>
</mgrwt>
</event>
<event>
 4    1  0.2496748E+000  0.5100664E+02  0.7957747E-01  0.1439986E+00
         13   -1    0    0    0    0  0.00000000000E+00  0.00000000000E+00  0.99999944181E+02  0.10000000000E+03  0.10566000000E+00 0.  1.
         22   -1    0    0    0    0 -0.00000000000E+00 -0.00000000000E+00 -0.10650840193E+02  0.10650840193E+02  0.00000000000E+00 0.  1.
         13    1    1    2    0    0 -0.77253765213E+01  0.64803916918E+01  0.32819330301E+01  0.10604676672E+02  0.10566000000E+00 0. -1.
        996    1    1    2    0    0  0.77253765213E+01 -0.64803916918E+01  0.86067170958E+02  0.10004616352E+03  0.50000000000E+02 0.  0.
<mgrwt>
<rscale>  0 0.51006636E+02</rscale>
<asrwt>0</asrwt>
<pdfrwt beam="1">  1       13 0.10000000E+01 0.51006636E+02</pdfrwt>
<pdfrwt beam="2">  1       22 0.10650865E+00 0.51006636E+02</pdfrwt>
<totfact> 0.12826842E+00</totfact>
</mgrwt>
</event>
<event>
 4    1  0.2496748E+000  0.5144930E+02  0.7957747E-01  0.1437678E+00
         13   -1    0    0    0    0  0.00000000000E+00  0.00000000000E+00  0.99999944178E+02  0.99999999998E+02  0.10566000000E+00 0.  1.
         22   -1    0    0    0    0 -0.00000000000E+00 -0.00000000000E+00 -0.12237200951E+02  0.12237200951E+02  0.00000000000E+00 0.  1.
         13    1    1    2    0    0  0.92241272325E+01  0.78705743914E+01  0.20927504374E+01  0.12305333514E+02  0.10566000000E+00 0. -1.
        996    1    1    2    0    0 -0.92241272325E+01 -0.78705743914E+01  0.85669992790E+02  0.99931867435E+02  0.50000000000E+02 0.  0.
<mgrwt>
<rscale>  0 0.51449300E+02</rscale>
<asrwt>0</asrwt>
<pdfrwt beam="1">  1       13 0.10000000E+01 0.51449300E+02</pdfrwt>
<pdfrwt beam="2">  1       22 0.12237225E+00 0.51449300E+02</pdfrwt>
<totfact> 0.10418019E+00</totfact>
</mgrwt>
</event>
<event>
 4    1  0.2496748E+000  0.5134176E+02  0.7957747E-01  0.1438236E+00
         13   -1    0    0    0    0  0.00000000000E+00  0.00000000000E+00  0.99999944179E+02  0.10000000000E+03  0.10566000000E+00 0. -1.
         22   -1    0    0    0    0 -0.00000000000E+00 -0.00000000000E+00 -0.34799319652E+02  0.34799319652E+02  0.00000000000E+00 0.  1.
         13    1    1    2    0    0  0.10912796527E+02 -0.41093414294E+01 -0.26920174551E+02  0.29337395537E+02  0.10566000000E+00 0.  1.
        996    1    1    2    0    0 -0.10912796527E+02  0.41093414294E+01  0.92120799078E+02  0.10546192411E+03  0.50000000000E+02 0.  0.
<mgrwt>
<rscale>  0 0.51341755E+02</rscale>
<asrwt>0</asrwt>
<pdfrwt beam="1">  1       13 0.10000000E+01 0.51341755E+02</pdfrwt>
<pdfrwt beam="2">  1       22 0.34799338E+00 0.51341755E+02</pdfrwt>
<totfact> 0.15861586E-01</totfact>
</mgrwt>
</event>
<event>
 4    1  0.2496748E+000  0.5166701E+02  0.7957747E-01  0.1436552E+00
         13   -1    0    0    0    0  0.00000000000E+00  0.00000000000E+00  0.99999944182E+02  0.10000000000E+03  0.10566000000E+00 0.  1.
         22   -1    0    0    0    0 -0.00000000000E+00 -0.00000000000E+00 -0.20968410103E+02  0.20968410103E+02  0.00000000000E+00 0. -1.
         13    1    1    2    0    0  0.66860500265E+00  0.13001251718E+02 -0.11080022508E+02  0.17095544499E+02  0.10566000000E+00 0. -1.
        996    1    1    2    0    0 -0.66860500265E+00 -0.13001251718E+02  0.90111556587E+02  0.10387286561E+03  0.50000000000E+02 0.  0.
<mgrwt>
<rscale>  0 0.51667007E+02</rscale>
<asrwt>0</asrwt>
<pdfrwt beam="1">  1       13 0.10000000E+01 0.51667007E+02</pdfrwt>
<pdfrwt beam="2">  1       22 0.20968432E+00 0.51667007E+02</pdfrwt>
<totfact> 0.41428614E-01</totfact>
</mgrwt>
</event>
<event>
 4    1  0.2496748E+000  0.5198752E+02  0.7957747E-01  0.1434907E+00
         13   -1    0    0    0    0  0.00000000000E+00  0.00000000000E+00  0.99999944182E+02  0.10000000000E+03  0.10566000000E+00 0. -1.
         22   -1    0    0    0    0 -0.00000000000E+00 -0.00000000000E+00 -0.18331854561E+02  0.18331854561E+02  0.00000000000E+00 0.  1.
         13    1    1    2    0    0 -0.23583597275E+01  0.14040680222E+02 -0.67544724654E+01  0.15758699948E+02  0.10566000000E+00 0.  1.
        996    1    1    2    0    0  0.23583597275E+01 -0.14040680222E+02  0.88422562087E+02  0.10257315462E+03  0.50000000000E+02 0.  0.
<mgrwt>
<rscale>  0 0.51987523E+02</rscale>
<asrwt>0</asrwt>
<pdfrwt beam="1">  1       13 0.10000000E+01 0.51987523E+02</pdfrwt>
<pdfrwt beam="2">  1       22 0.18331877E+00 0.51987523E+02</pdfrwt>
<totfact> 0.53162548E-01</totfact>
</mgrwt>
</event>
<event>
 4    1  0.2496748E+000  0.5863258E+02  0.7957747E-01  0.1403661E+00
         13   -1    0    0    0    0  0.00000000000E+00  0.00000000000E+00  0.99999944177E+02  0.99999999997E+02  0.10566000000E+00 0.  1.
         22   -1    0    0    0    0 -0.00000000000E+00 -0.00000000000E+00 -0.20917158861E+02  0.20917158861E+02  0.00000000000E+00 0. -1.
         13    1    1    2    0    0 -0.20227963158E+02  0.22991505679E+02  0.15138463438E+02  0.34160855759E+02  0.10566000000E+00 0. -1.
        996    1    1    2    0    0  0.20227963158E+02 -0.22991505679E+02  0.63944321878E+02  0.86756303099E+02  0.50000000000E+02 0.  0.
<mgrwt>
<rscale>  0 0.58632583E+02</rscale>
<asrwt>0</asrwt>
<pdfrwt beam="1">  1       13 0.10000000E+01 0.58632583E+02</pdfrwt>
<pdfrwt beam="2">  1       22 0.20917181E+00 0.58632583E+02</pdfrwt>
<totfact> 0.42101833E-01</totfact>
</mgrwt>
</event>
<event>
 4    1  0.2496748E+000  0.5103375E+02  0.7957747E-01  0.1439844E+00
         13   -1    0    0    0    0  0.00000000000E+00  0.00000000000E+00  0.99999944174E+02  0.99999999994E+02  0.10566000000E+00 0. -1.
         22   -1    0    0    0    0 -0.00000000000E+00 -0.00000000000E+00 -0.12552565623E+02  0.12552565623E+02  0.00000000000E+00 0.  1.
         13    1    1    2    0    0  0.98419132330E+01  0.27532933797E+01 -0.11737229306E+01  0.10287500672E+02  0.10566000000E+00 0.  1.
        996    1    1    2    0    0 -0.98419132330E+01 -0.27532933797E+01  0.88621101481E+02  0.10226506495E+03  0.50000000000E+02 0.  0.
<mgrwt>
<rscale>  0 0.51033752E+02</rscale>
<asrwt>0</asrwt>
<pdfrwt beam="1">  1       13 0.10000000E+01 0.51033752E+02</pdfrwt>
<pdfrwt beam="2">  1       22 0.12552590E+00 0.51033752E+02</pdfrwt>
<totfact> 0.10006247E+00</totfact>
</mgrwt>
</event>
<event>
 4    1  0.2496748E+000  0.6264293E+02  0.7957747E-01  0.1387064E+00
         13   -1    0    0    0    0  0.00000000000E+00  0.00000000000E+00  0.99999944176E+02  0.99999999996E+02  0.10566000000E+00 0.  1.
         22   -1    0    0    0    0 -0.00000000000E+00 -0.00000000000E+00 -0.28790618928E+02  0.28790618928E+02  0.00000000000E+00 0. -1.
         13    1    1    2    0    0 -0.13014309654E+01 -0.37715282813E+02  0.57266885232E+01  0.38169914929E+02  0.10566000000E+00 0. -1.
        996    1    1    2    0    0  0.13014309654E+01  0.37715282813E+02  0.65482636724E+02  0.90620703995E+02  0.50000000000E+02 0.  0.
<mgrwt>
<rscale>  0 0.62642927E+02</rscale>
<asrwt>0</asrwt>
<pdfrwt beam="1">  1       13 0.10000000E+01 0.62642927E+02</pdfrwt>
<pdfrwt beam="2">  1       22 0.28790639E+00 0.62642927E+02</pdfrwt>
<totfact> 0.22679006E-01</totfact>
</mgrwt>
</event>
<event>
 4    1  0.2496748E+000  0.5121952E+02  0.7957747E-01  0.1438873E+00
         13   -1    0    0    0    0  0.00000000000E+00  0.00000000000E+00  0.99999944188E+02  0.10000000001E+03  0.10566000000E+00 0.  1.
         22   -1    0    0    0    0 -0.00000000000E+00 -0.00000000000E+00 -0.31765803959E+02  0.31765803959E+02  0.00000000000E+00 0. -1.
         13    1    1    2    0    0 -0.10512250695E+02 -0.35960393492E+01 -0.23897343648E+02  0.26353996113E+02  0.10566000000E+00 0. -1.
        996    1    1    2    0    0  0.10512250695E+02  0.35960393492E+01  0.92131483877E+02  0.10541180785E+03  0.50000000000E+02 0.  0.
<mgrwt>
<rscale>  0 0.51219517E+02</rscale>
<asrwt>0</asrwt>
<pdfrwt beam="1">  1       13 0.10000000E+01 0.51219517E+02</pdfrwt>
<pdfrwt beam="2">  1       22 0.31765823E+00 0.51219517E+02</pdfrwt>
<totfact> 0.18624673E-01</totfact>
</mgrwt>
</event>
<event>
 4    1  0.2496748E+000  0.5161151E+02  0.7957747E-01  0.1436838E+00
         13   -1    0    0    0    0  0.00000000000E+00  0.00000000000E+00  0.99999944171E+02  0.99999999991E+02  0.10566000000E+00 0. -1.
         22   -1    0    0    0    0 -0.00000000000E+00 -0.00000000000E+00 -0.12713482387E+02  0.12713482387E+02  0.00000000000E+00 0.  1.
         13    1    1    2    0    0  0.12532265493E+02  0.25866161314E+01  0.18948861277E+01  0.12936383531E+02  0.10566000000E+00 0.  1.
        996    1    1    2    0    0 -0.12532265493E+02 -0.25866161314E+01  0.85391575656E+02  0.99777098847E+02  0.50000000000E+02 0.  0.
<mgrwt>
<rscale>  0 0.51611513E+02</rscale>
<asrwt>0</asrwt>
<pdfrwt beam="1">  1       13 0.10000000E+01 0.51611513E+02</pdfrwt>
<pdfrwt beam="2">  1       22 0.12713507E+00 0.51611513E+02</pdfrwt>
<totfact> 0.98221144E-01</totfact>
</mgrwt>
</event>
<event>
 4    1  0.2496748E+000  0.5226792E+02  0.7957747E-01  0.1433479E+00
         13   -1    0    0    0    0  0.00000000000E+00  0.00000000000E+00  0.99999944172E+02  0.99999999992E+02  0.10566000000E+00 0. -1.
         22   -1    0    0    0    0 -0.00000000000E+00 -0.00000000000E+00 -0.11622702339E+02  0.11622702339E+02  0.00000000000E+00 0. -1.
         13    1    1    2    0    0 -0.74509463043E+01 -0.13282272089E+02  0.27059635267E+02  0.31051093017E+02  0.10566000000E+00 0.  1.
        996    1    1    2    0    0  0.74509463043E+01  0.13282272089E+02  0.61317606566E+02  0.80571609315E+02  0.50000000000E+02 0.  0.
<mgrwt>
<rscale>  0 0.52267919E+02</rscale>
<asrwt>0</asrwt>
<pdfrwt beam="1">  1       13 0.10000000E+01 0.52267919E+02</pdfrwt>
<pdfrwt beam="2">  1       22 0.11622727E+00 0.52267919E+02</pdfrwt>
<totfact> 0.11291976E+00</totfact>
</mgrwt>
</event>
<event>
 4    1  0.2496748E+000  0.5169943E+02  0.7957747E-01  0.1436385E+00
         13   -1    0    0    0    0  0.00000000000E+00  0.00000000000E+00  0.99999944183E+02  0.10000000000E+03  0.10566000000E+00 0.  1.
         22   -1    0    0    0    0 -0.00000000000E+00 -0.00000000000E+00 -0.10710810963E+02  0.10710810963E+02  0.00000000000E+00 0. -1.
         13    1    1    2    0    0 -0.12671451594E+02 -0.35022363787E+01  0.12508283640E+02  0.18146615905E+02  0.10566000000E+00 0. -1.
        996    1    1    2    0    0  0.12671451594E+02  0.35022363787E+01  0.76780849580E+02  0.92564195061E+02  0.50000000000E+02 0.  0.
<mgrwt>
<rscale>  0 0.51699433E+02</rscale>
<asrwt>0</asrwt>
<pdfrwt beam="1">  1       13 0.10000000E+01 0.51699433E+02</pdfrwt>
<pdfrwt beam="2">  1       22 0.10710836E+00 0.51699433E+02</pdfrwt>
<totfact> 0.12741959E+00</totfact>
</mgrwt>
</event>
<event>
 4    1  0.2496748E+000  0.5377428E+02  0.7957747E-01  0.1425986E+00
         13   -1    0    0    0    0  0.00000000000E+00  0.00000000000E+00  0.99999944179E+02  0.99999999999E+02  0.10566000000E+00 0.  1.
         22   -1    0    0    0    0 -0.00000000000E+00 -0.00000000000E+00 -0.20909478187E+02  0.20909478187E+02  0.00000000000E+00 0. -1.
         13    1    1    2    0    0  0.18228719642E+02  0.77062633932E+01 -0.56190001120E+01  0.20573211747E+02  0.10566000000E+00 0. -1.
        996    1    1    2    0    0 -0.18228719642E+02 -0.77062633932E+01  0.84709466104E+02  0.10033626644E+03  0.50000000000E+02 0.  0.
<mgrwt>
<rscale>  0 0.53774276E+02</rscale>
<asrwt>0</asrwt>
<pdfrwt beam="1">  1       13 0.10000000E+01 0.53774276E+02</pdfrwt>
<pdfrwt beam="2">  1       22 0.20909500E+00 0.53774276E+02</pdfrwt>
<totfact> 0.41802142E-01</totfact>
</mgrwt>
</event>
<event>
 4    1  0.2496748E+000  0.5322484E+02  0.7957747E-01  0.1428685E+00
         13   -1    0    0    0    0  0.00000000000E+00  0.00000000000E+00  0.99999944174E+02  0.99999999994E+02  0.10566000000E+00 0.  1.
         22   -1    0    0    0    0 -0.00000000000E+00 -0.00000000000E+00 -0.12913470311E+02  0.12913470311E+02  0.00000000000E+00 0.  1.
         13    1    1    2    0    0 -0.27599710348E+01 -0.18035123410E+02  0.17269669516E+02  0.25122415603E+02  0.10566000000E+00 0. -1.
        996    1    1    2    0    0  0.27599710348E+01  0.18035123410E+02  0.69816804347E+02  0.87791054702E+02  0.50000000000E+02 0.  0.
<mgrwt>
<rscale>  0 0.53224836E+02</rscale>
<asrwt>0</asrwt>
<pdfrwt beam="1">  1       13 0.10000000E+01 0.53224836E+02</pdfrwt>
<pdfrwt beam="2">  1       22 0.12913495E+00 0.53224836E+02</pdfrwt>
<totfact> 0.96181583E-01</totfact>
</mgrwt>
</event>
<event>
 4    1  0.2496748E+000  0.5428119E+02  0.7957747E-01  0.1423529E+00
         13   -1    0    0    0    0  0.00000000000E+00  0.00000000000E+00  0.99999944177E+02  0.99999999997E+02  0.10566000000E+00 0. -1.
         22   -1    0    0    0    0 -0.00000000000E+00 -0.00000000000E+00 -0.14563998830E+02  0.14563998830E+02  0.00000000000E+00 0. -1.
         13    1    1    2    0    0  0.18467864366E+02 -0.10265749303E+02  0.16421076315E+02  0.26760241672E+02  0.10566000000E+00 0.  1.
        996    1    1    2    0    0 -0.18467864366E+02  0.10265749303E+02  0.69014869032E+02  0.87803757155E+02  0.50000000000E+02 0.  0.
<mgrwt>
<rscale>  0 0.54281190E+02</rscale>
<asrwt>0</asrwt>
<pdfrwt beam="1">  1       13 0.10000000E+01 0.54281190E+02</pdfrwt>
<pdfrwt beam="2">  1       22 0.14564023E+00 0.54281190E+02</pdfrwt>
<totfact> 0.79425437E-01</totfact>
</mgrwt>
</event>
<event>
 4    1  0.2496748E+000  0.5362016E+02  0.7957747E-01  0.1426739E+00
         13   -1    0    0    0    0  0.00000000000E+00  0.00000000000E+00  0.99999944171E+02  0.99999999991E+02  0.10566000000E+00 0.  1.
         22   -1    0    0    0    0 -0.00000000000E+00 -0.00000000000E+00 -0.13869714597E+02  0.13869714597E+02  0.00000000000E+00 0. -1.
         13    1    1    2    0    0  0.14596646275E+02 -0.12730251313E+02  0.13578170206E+02  0.23653736515E+02  0.10566000000E+00 0. -1.
        996    1    1    2    0    0 -0.14596646275E+02  0.12730251313E+02  0.72552059369E+02  0.90215978073E+02  0.50000000000E+02 0.  0.
<mgrwt>
<rscale>  0 0.53620158E+02</rscale>
<asrwt>0</asrwt>
<pdfrwt beam="1">  1       13 0.10000000E+01 0.53620158E+02</pdfrwt>
<pdfrwt beam="2">  1       22 0.13869739E+00 0.53620158E+02</pdfrwt>
<totfact> 0.85901096E-01</totfact>
</mgrwt>
</event>
<event>
 4    1  0.2496748E+000  0.5285612E+02  0.7957747E-01  0.1430518E+00
         13   -1    0    0    0    0  0.00000000000E+00  0.00000000000E+00  0.99999944175E+02  0.99999999995E+02  0.10566000000E+00 0.  1.
         22   -1    0    0    0    0 -0.00000000000E+00 -0.00000000000E+00 -0.16778195641E+02  0.16778195641E+02  0.00000000000E+00 0. -1.
         13    1    1    2    0    0 -0.13155159733E+02 -0.10986877333E+02 -0.11923502200E+01  0.17181459898E+02  0.10566000000E+00 0. -1.
        996    1    1    2    0    0  0.13155159733E+02  0.10986877333E+02  0.84414098755E+02  0.99596735738E+02  0.50000000000E+02 0.  0.
<mgrwt>
<rscale>  0 0.52856123E+02</rscale>
<asrwt>0</asrwt>
<pdfrwt beam="1">  1       13 0.10000000E+01 0.52856123E+02</pdfrwt>
<pdfrwt beam="2">  1       22 0.16778219E+00 0.52856123E+02</pdfrwt>
<totfact> 0.62312957E-01</totfact>
</mgrwt>
</event>
<event>
 4    1  0.2496748E+000  0.5172112E+02  0.7957747E-01  0.1436273E+00
         13   -1    0    0    0    0  0.00000000000E+00  0.00000000000E+00  0.99999944180E+02  0.10000000000E+03  0.10566000000E+00 0.  1.
         22   -1    0    0    0    0 -0.00000000000E+00 -0.00000000000E+00 -0.19239909109E+02  0.19239909109E+02  0.00000000000E+00 0. -1.
         13    1    1    2    0    0 -0.13182922048E+02 -0.11335350888E+01 -0.87485613670E+01  0.15862623540E+02  0.10566000000E+00 0. -1.
        996    1    1    2    0    0  0.13182922048E+02  0.11335350888E+01  0.89508596438E+02  0.10337728557E+03  0.50000000000E+02 0.  0.
<mgrwt>
<rscale>  0 0.51721121E+02</rscale>
<asrwt>0</asrwt>
<pdfrwt beam="1">  1       13 0.10000000E+01 0.51721121E+02</pdfrwt>
<pdfrwt beam="2">  1       22 0.19239932E+00 0.51721121E+02</pdfrwt>
<totfact> 0.48654494E-01</totfact>
</mgrwt>
</event>
<event>
 4    1  0.2496748E+000  0.5383257E+02  0.7957747E-01  0.1425702E+00
         13   -1    0    0    0    0  0.00000000000E+00  0.00000000000E+00  0.99999944174E+02  0.99999999994E+02  0.10566000000E+00 0.  1.
         22   -1    0    0    0    0 -0.00000000000E+00 -0.00000000000E+00 -0.28582837164E+02  0.28582837164E+02  0.00000000000E+00 0. -1.
         13    1    1    2    0    0 -0.17053206568E+02 -0.10350562816E+02 -0.16234572140E+02  0.25720001972E+02  0.10566000000E+00 0. -1.
        996    1    1    2    0    0  0.17053206568E+02  0.10350562816E+02  0.87651679150E+02  0.10286283519E+03  0.50000000000E+02 0.  0.
<mgrwt>
<rscale>  0 0.53832574E+02</rscale>
<asrwt>0</asrwt>
<pdfrwt beam="1">  1       13 0.10000000E+01 0.53832574E+02</pdfrwt>
<pdfrwt beam="2">  1       22 0.28582857E+00 0.53832574E+02</pdfrwt>
<totfact> 0.22748699E-01</totfact>
</mgrwt>
</event>
<event>
 4    1  0.2496748E+000  0.5136442E+02  0.7957747E-01  0.1438118E+00
         13   -1    0    0    0    0  0.00000000000E+00  0.00000000000E+00  0.99999944179E+02  0.10000000000E+03  0.10566000000E+00 0.  1.
         22   -1    0    0    0    0 -0.00000000000E+00 -0.00000000000E+00 -0.13965455300E+02  0.13965455300E+02  0.00000000000E+00 0. -1.
         13    1    1    2    0    0  0.56928508559E+01 -0.10290554416E+02 -0.21085796138E+01  0.11948277411E+02  0.10566000000E+00 0. -1.
        996    1    1    2    0    0 -0.56928508559E+01  0.10290554416E+02  0.88143068493E+02  0.10201717789E+03  0.50000000000E+02 0.  0.
<mgrwt>
<rscale>  0 0.51364424E+02</rscale>
<asrwt>0</asrwt>
<pdfrwt beam="1">  1       13 0.10000000E+01 0.51364424E+02</pdfrwt>
<pdfrwt beam="2">  1       22 0.13965479E+00 0.51364424E+02</pdfrwt>
<totfact> 0.84551840E-01</totfact>
</mgrwt>
</event>
<event>
 4    1  0.2496748E+000  0.5443721E+02  0.7957747E-01  0.1422779E+00
         13   -1    0    0    0    0  0.00000000000E+00  0.00000000000E+00  0.99999944178E+02  0.99999999999E+02  0.10566000000E+00 0. -1.
         22   -1    0    0    0    0 -0.00000000000E+00 -0.00000000000E+00 -0.74517164524E+02  0.74517164524E+02  0.00000000000E+00 0.  1.
         13    1    1    2    0    0  0.18701218222E+02 -0.10661793814E+02 -0.65248520297E+02  0.68708005177E+02  0.10566000000E+00 0.  1.
        996    1    1    2    0    0 -0.18701218222E+02  0.10661793814E+02  0.90731299952E+02  0.10580915935E+03  0.50000000000E+02 0.  0.
<mgrwt>
<rscale>  0 0.54437206E+02</rscale>
<asrwt>0</asrwt>
<pdfrwt beam="1">  1       13 0.10000000E+01 0.54437206E+02</pdfrwt>
<pdfrwt beam="2">  1       22 0.74517172E+00 0.54437206E+02</pdfrwt>
<totfact> 0.51249176E-02</totfact>
</mgrwt>
</event>
<event>
 4    1  0.2496748E+000  0.6090606E+02  0.7957747E-01  0.1394068E+00
         13   -1    0    0    0    0  0.00000000000E+00  0.00000000000E+00  0.99999944169E+02  0.99999999989E+02  0.10566000000E+00 0.  1.
         22   -1    0    0    0    0 -0.00000000000E+00 -0.00000000000E+00 -0.28066447483E+02  0.28066447483E+02  0.00000000000E+00 0. -1.
         13    1    1    2    0    0  0.13111669066E+02  0.32212308827E+02  0.13042578984E+01  0.34803174544E+02  0.10566000000E+00 0. -1.
        996    1    1    2    0    0 -0.13111669066E+02 -0.32212308827E+02  0.70629238787E+02  0.93263272928E+02  0.50000000000E+02 0.  0.
<mgrwt>
<rscale>  0 0.60906065E+02</rscale>
<asrwt>0</asrwt>
<pdfrwt beam="1">  1       13 0.10000000E+01 0.60906065E+02</pdfrwt>
<pdfrwt beam="2">  1       22 0.28066468E+00 0.60906065E+02</pdfrwt>
<totfact> 0.23777404E-01</totfact>
</mgrwt>
</event>
<event>
 4    1  0.2496748E+000  0.5153835E+02  0.7957747E-01  0.1437216E+00
         13   -1    0    0    0    0  0.00000000000E+00  0.00000000000E+00  0.99999944183E+02  0.10000000000E+03  0.10566000000E+00 0. -1.
         22   -1    0    0    0    0 -0.00000000000E+00 -0.00000000000E+00 -0.18931191271E+02  0.18931191271E+02  0.00000000000E+00 0.  1.
         13    1    1    2    0    0 -0.25748730890E+01 -0.12229940579E+02 -0.88327289419E+01  0.15304564110E+02  0.10566000000E+00 0.  1.
        996    1    1    2    0    0  0.25748730890E+01  0.12229940579E+02  0.89901481854E+02  0.10362662716E+03  0.50000000000E+02 0.  0.
<mgrwt>
<rscale>  0 0.51538349E+02</rscale>
<asrwt>0</asrwt>
<pdfrwt beam="1">  1       13 0.10000000E+01 0.51538349E+02</pdfrwt>
<pdfrwt beam="2">  1       22 0.18931214E+00 0.51538349E+02</pdfrwt>
<totfact> 0.50102215E-01</totfact>
</mgrwt>
</event>
<event>
 4    1  0.2496748E+000  0.5683704E+02  0.7957747E-01  0.1411606E+00
         13   -1    0    0    0    0  0.00000000000E+00  0.00000000000E+00  0.99999944171E+02  0.99999999992E+02  0.10566000000E+00 0. -1.
         22   -1    0    0    0    0 -0.00000000000E+00 -0.00000000000E+00 -0.26979819041E+02  0.26979819041E+02  0.00000000000E+00 0.  1.
         13    1    1    2    0    0  0.26546621435E+02 -0.50720941230E+01 -0.78412337752E+01  0.28141523760E+02  0.10566000000E+00 0.  1.
        996    1    1    2    0    0 -0.26546621435E+02  0.50720941230E+01  0.80861358905E+02  0.98838295273E+02  0.50000000000E+02 0.  0.
<mgrwt>
<rscale>  0 0.56837041E+02</rscale>
<asrwt>0</asrwt>
<pdfrwt beam="1">  1       13 0.10000000E+01 0.56837041E+02</pdfrwt>
<pdfrwt beam="2">  1       22 0.26979839E+00 0.56837041E+02</pdfrwt>
<totfact> 0.25552780E-01</totfact>
</mgrwt>
</event>
<event>
 4    1  0.2496748E+000  0.5110348E+02  0.7957747E-01  0.1439479E+00
         13   -1    0    0    0    0  0.00000000000E+00  0.00000000000E+00  0.99999944177E+02  0.99999999997E+02  0.10566000000E+00 0. -1.
         22   -1    0    0    0    0 -0.00000000000E+00 -0.00000000000E+00 -0.18729884640E+02  0.18729884640E+02  0.00000000000E+00 0.  1.
         13    1    1    2    0    0 -0.98379182393E+01 -0.38445524570E+01 -0.97306442342E+01  0.14361818134E+02  0.10566000000E+00 0.  1.
        996    1    1    2    0    0  0.98379182393E+01  0.38445524570E+01  0.91000703771E+02  0.10436806650E+03  0.50000000000E+02 0.  0.
<mgrwt>
<rscale>  0 0.51103476E+02</rscale>
<asrwt>0</asrwt>
<pdfrwt beam="1">  1       13 0.10000000E+01 0.51103476E+02</pdfrwt>
<pdfrwt beam="2">  1       22 0.18729907E+00 0.51103476E+02</pdfrwt>
<totfact> 0.51047139E-01</totfact>
</mgrwt>
</event>
<event>
 4    1  0.2496748E+000  0.5100440E+02  0.7957747E-01  0.1439998E+00
         13   -1    0    0    0    0  0.00000000000E+00  0.00000000000E+00  0.99999944178E+02  0.99999999998E+02  0.10566000000E+00 0. -1.
         22   -1    0    0    0    0 -0.00000000000E+00 -0.00000000000E+00 -0.66423230040E+02  0.66423230040E+02  0.00000000000E+00 0.  1.
         13    1    1    2    0    0 -0.10059007125E+02  0.51530584216E+00 -0.59468458425E+02  0.60315486203E+02  0.10566000000E+00 0.  1.
        996    1    1    2    0    0  0.10059007125E+02 -0.51530584216E+00  0.93045172563E+02  0.10610774383E+03  0.50000000000E+02 0.  0.
<mgrwt>
<rscale>  0 0.51004403E+02</rscale>
<asrwt>0</asrwt>
<pdfrwt beam="1">  1       13 0.10000000E+01 0.51004403E+02</pdfrwt>
<pdfrwt beam="2">  1       22 0.66423239E+00 0.51004403E+02</pdfrwt>
<totfact> 0.87066761E-02</totfact>
</mgrwt>
</event>
<event>
 4    1  0.2496748E+000  0.6177227E+02  0.7957747E-01  0.1390541E+00
         13   -1    0    0    0    0  0.00000000000E+00  0.00000000000E+00  0.99999944167E+02  0.99999999987E+02  0.10566000000E+00 0.  1.
         22   -1    0    0    0    0 -0.00000000000E+00 -0.00000000000E+00 -0.25322473265E+02  0.25322473265E+02  0.00000000000E+00 0. -1.
         13    1    1    2    0    0  0.43982386783E+00 -0.36271468723E+02  0.14443143657E+02  0.39043929760E+02  0.10566000000E+00 0. -1.
        996    1    1    2    0    0 -0.43982386783E+00  0.36271468723E+02  0.60234327245E+02  0.86278543492E+02  0.50000000000E+02 0.  0.
<mgrwt>
<rscale>  0 0.61772266E+02</rscale>
<asrwt>0</asrwt>
<pdfrwt beam="1">  1       13 0.10000000E+01 0.61772266E+02</pdfrwt>
<pdfrwt beam="2">  1       22 0.25322494E+00 0.61772266E+02</pdfrwt>
<totfact> 0.29145622E-01</totfact>
</mgrwt>
</event>
<event>
 4    1  0.2496748E+000  0.5131279E+02  0.7957747E-01  0.1438387E+00
         13   -1    0    0    0    0  0.00000000000E+00  0.00000000000E+00  0.99999944189E+02  0.10000000001E+03  0.10566000000E+00 0.  1.
         22   -1    0    0    0    0 -0.00000000000E+00 -0.00000000000E+00 -0.20885555802E+02  0.20885555802E+02  0.00000000000E+00 0. -1.
         13    1    1    2    0    0  0.10681032013E+02 -0.43494916617E+01 -0.11793634703E+02  0.16495560194E+02  0.10566000000E+00 0. -1.
        996    1    1    2    0    0 -0.10681032013E+02  0.43494916617E+01  0.90908023090E+02  0.10438999562E+03  0.50000000000E+02 0.  0.
<mgrwt>
<rscale>  0 0.51312791E+02</rscale>
<asrwt>0</asrwt>
<pdfrwt beam="1">  1       13 0.10000000E+01 0.51312791E+02</pdfrwt>
<pdfrwt beam="2">  1       22 0.20885578E+00 0.51312791E+02</pdfrwt>
<totfact> 0.41714210E-01</totfact>
</mgrwt>
</event>
<event>
 4    1  0.2496748E+000  0.5105372E+02  0.7957747E-01  0.1439740E+00
         13   -1    0    0    0    0  0.00000000000E+00  0.00000000000E+00  0.99999944186E+02  0.10000000001E+03  0.10566000000E+00 0. -1.
         22   -1    0    0    0    0 -0.00000000000E+00 -0.00000000000E+00 -0.94515083536E+01  0.94515083536E+01  0.00000000000E+00 0. -1.
         13    1    1    2    0    0 -0.63149263232E+01  0.81611117558E+01  0.12847156171E+02  0.16478550461E+02  0.10566000000E+00 0.  1.
        996    1    1    2    0    0  0.63149263232E+01 -0.81611117558E+01  0.77701279661E+02  0.92972957899E+02  0.50000000000E+02 0.  0.
<mgrwt>
<rscale>  0 0.51053717E+02</rscale>
<asrwt>0</asrwt>
<pdfrwt beam="1">  1       13 0.10000000E+01 0.51053717E+02</pdfrwt>
<pdfrwt beam="2">  1       22 0.94515336E-01 0.51053717E+02</pdfrwt>
<totfact> 0.15253476E+00</totfact>
</mgrwt>
</event>
<event>
 4    1  0.2496748E+000  0.5154579E+02  0.7957747E-01  0.1437178E+00
         13   -1    0    0    0    0  0.00000000000E+00  0.00000000000E+00  0.99999944184E+02  0.10000000000E+03  0.10566000000E+00 0. -1.
         22   -1    0    0    0    0 -0.00000000000E+00 -0.00000000000E+00 -0.10274007085E+02  0.10274007085E+02  0.00000000000E+00 0. -1.
         13    1    1    2    0    0 -0.91724103697E+01 -0.85343552561E+01  0.18939158383E+02  0.22708395274E+02  0.10566000000E+00 0.  1.
        996    1    1    2    0    0  0.91724103697E+01  0.85343552561E+01  0.70786778715E+02  0.87565611815E+02  0.50000000000E+02 0.  0.
<mgrwt>
<rscale>  0 0.51545789E+02</rscale>
<asrwt>0</asrwt>
<pdfrwt beam="1">  1       13 0.10000000E+01 0.51545789E+02</pdfrwt>
<pdfrwt beam="2">  1       22 0.10274032E+00 0.51545789E+02</pdfrwt>
<totfact> 0.13539816E+00</totfact>
</mgrwt>
</event>
<event>
 4    1  0.2496748E+000  0.5626345E+02  0.7957747E-01  0.1414217E+00
         13   -1    0    0    0    0  0.00000000000E+00  0.00000000000E+00  0.99999944179E+02  0.99999999999E+02  0.10566000000E+00 0. -1.
         22   -1    0    0    0    0 -0.00000000000E+00 -0.00000000000E+00 -0.17836052534E+02  0.17836052534E+02  0.00000000000E+00 0.  1.
         13    1    1    2    0    0 -0.46493801998E+01 -0.25376339725E+02  0.13671452412E+02  0.29197519229E+02  0.10566000000E+00 0.  1.
        996    1    1    2    0    0  0.46493801998E+01  0.25376339725E+02  0.68492439234E+02  0.88638533304E+02  0.50000000000E+02 0.  0.
<mgrwt>
<rscale>  0 0.56263446E+02</rscale>
<asrwt>0</asrwt>
<pdfrwt beam="1">  1       13 0.10000000E+01 0.56263446E+02</pdfrwt>
<pdfrwt beam="2">  1       22 0.17836075E+00 0.56263446E+02</pdfrwt>
<totfact> 0.56281654E-01</totfact>
</mgrwt>
</event>
<event>
 4    1  0.2496748E+000  0.5218810E+02  0.7957747E-01  0.1433885E+00
         13   -1    0    0    0    0  0.00000000000E+00  0.00000000000E+00  0.99999944179E+02  0.10000000000E+03  0.10566000000E+00 0.  1.
         22   -1    0    0    0    0 -0.00000000000E+00 -0.00000000000E+00 -0.11272744536E+02  0.11272744536E+02  0.00000000000E+00 0.  1.
         13    1    1    2    0    0  0.68764578262E+01 -0.13278248935E+02  0.19041761775E+02  0.24211514256E+02  0.10566000000E+00 0. -1.
        996    1    1    2    0    0 -0.68764578262E+01  0.13278248935E+02  0.69685437868E+02  0.87061230280E+02  0.50000000000E+02 0.  0.
<mgrwt>
<rscale>  0 0.52188098E+02</rscale>
<asrwt>0</asrwt>
<pdfrwt beam="1">  1       13 0.10000000E+01 0.52188098E+02</pdfrwt>
<pdfrwt beam="2">  1       22 0.11272769E+00 0.52188098E+02</pdfrwt>
<totfact> 0.11822069E+00</totfact>
</mgrwt>
</event>
<event>
 4    1  0.2496748E+000  0.5113900E+02  0.7957747E-01  0.1439293E+00
         13   -1    0    0    0    0  0.00000000000E+00  0.00000000000E+00  0.99999944181E+02  0.10000000000E+03  0.10566000000E+00 0.  1.
         22   -1    0    0    0    0 -0.00000000000E+00 -0.00000000000E+00 -0.39967831943E+02  0.39967831943E+02  0.00000000000E+00 0. -1.
         13    1    1    2    0    0  0.64359036258E+01 -0.85893283398E+01 -0.32509909137E+02  0.34235986519E+02  0.10566000000E+00 0. -1.
        996    1    1    2    0    0 -0.64359036258E+01  0.85893283398E+01  0.92542021375E+02  0.10573184542E+03  0.50000000000E+02 0.  0.
<mgrwt>
<rscale>  0 0.51139001E+02</rscale>
<asrwt>0</asrwt>
<pdfrwt beam="1">  1       13 0.10000000E+01 0.51139001E+02</pdfrwt>
<pdfrwt beam="2">  1       22 0.39967849E+00 0.51139001E+02</pdfrwt>
<totfact> 0.12378078E-01</totfact>
</mgrwt>
</event>
<event>
 4    1  0.2496748E+000  0.5390484E+02  0.7957747E-01  0.1425350E+00
         13   -1    0    0    0    0  0.00000000000E+00  0.00000000000E+00  0.99999944174E+02  0.99999999994E+02  0.10566000000E+00 0. -1.
         22   -1    0    0    0    0 -0.00000000000E+00 -0.00000000000E+00 -0.14472796838E+02  0.14472796838E+02  0.00000000000E+00 0. -1.
         13    1    1    2    0    0  0.15635230760E+02  0.12699286152E+02  0.12503140497E+02  0.23708057618E+02  0.10566000000E+00 0.  1.
        996    1    1    2    0    0 -0.15635230760E+02 -0.12699286152E+02  0.73024006839E+02  0.90764739214E+02  0.50000000000E+02 0.  0.
<mgrwt>
<rscale>  0 0.53904845E+02</rscale>
<asrwt>0</asrwt>
<pdfrwt beam="1">  1       13 0.10000000E+01 0.53904845E+02</pdfrwt>
<pdfrwt beam="2">  1       22 0.14472821E+00 0.53904845E+02</pdfrwt>
<totfact> 0.80190781E-01</totfact>
</mgrwt>
</event>
<event>
 4    1  0.2496748E+000  0.5150134E+02  0.7957747E-01  0.1437408E+00
         13   -1    0    0    0    0  0.00000000000E+00  0.00000000000E+00  0.99999944172E+02  0.99999999993E+02  0.10566000000E+00 0.  1.
         22   -1    0    0    0    0 -0.00000000000E+00 -0.00000000000E+00 -0.39580286637E+02  0.39580286637E+02  0.00000000000E+00 0. -1.
         13    1    1    2    0    0 -0.37908061863E+01  0.11748078803E+02 -0.31712540450E+02  0.34030632567E+02  0.10566000000E+00 0. -1.
        996    1    1    2    0    0  0.37908061863E+01 -0.11748078803E+02  0.92132197985E+02  0.10554965406E+03  0.50000000000E+02 0.  0.
<mgrwt>
<rscale>  0 0.51501336E+02</rscale>
<asrwt>0</asrwt>
<pdfrwt beam="1">  1       13 0.10000000E+01 0.51501336E+02</pdfrwt>
<pdfrwt beam="2">  1       22 0.39580304E+00 0.51501336E+02</pdfrwt>
<totfact> 0.12611071E-01</totfact>
</mgrwt>
</event>
<event>
 4    1  0.2496748E+000  0.5113383E+02  0.7957747E-01  0.1439320E+00
         13   -1    0    0    0    0  0.00000000000E+00  0.00000000000E+00  0.99999944178E+02  0.99999999998E+02  0.10566000000E+00 0. -1.
         22   -1    0    0    0    0 -0.00000000000E+00 -0.00000000000E+00 -0.24592590243E+02  0.24592590243E+02  0.00000000000E+00 0.  1.
         13    1    1    2    0    0 -0.82510161592E+01  0.68256043916E+01 -0.16352627858E+02  0.19547064866E+02  0.10566000000E+00 0.  1.
        996    1    1    2    0    0  0.82510161592E+01 -0.68256043916E+01  0.91759981792E+02  0.10504552538E+03  0.50000000000E+02 0.  0.
<mgrwt>
<rscale>  0 0.51133826E+02</rscale>
<asrwt>0</asrwt>
<pdfrwt beam="1">  1       13 0.10000000E+01 0.51133826E+02</pdfrwt>
<pdfrwt beam="2">  1       22 0.24592611E+00 0.51133826E+02</pdfrwt>
<totfact> 0.30404916E-01</totfact>
</mgrwt>
</event>
<event>
 4    1  0.2496748E+000  0.5110180E+02  0.7957747E-01  0.1439488E+00
         13   -1    0    0    0    0  0.00000000000E+00  0.00000000000E+00  0.99999944176E+02  0.99999999997E+02  0.10566000000E+00 0.  1.
         22   -1    0    0    0    0 -0.00000000000E+00 -0.00000000000E+00 -0.11362733110E+02  0.11362733110E+02  0.00000000000E+00 0.  1.
         13    1    1    2    0    0  0.12502006864E+01 -0.10480007355E+02  0.19486555082E+01  0.10733218448E+02  0.10566000000E+00 0. -1.
        996    1    1    2    0    0 -0.12502006864E+01  0.10480007355E+02  0.86688555558E+02  0.10062951466E+03  0.50000000000E+02 0.  0.
<mgrwt>
<rscale>  0 0.51101796E+02</rscale>
<asrwt>0</asrwt>
<pdfrwt beam="1">  1       13 0.10000000E+01 0.51101796E+02</pdfrwt>
<pdfrwt beam="2">  1       22 0.11362758E+00 0.51101796E+02</pdfrwt>
<totfact> 0.11652670E+00</totfact>
</mgrwt>
</event>
<event>
 4    1  0.2496748E+000  0.5303692E+02  0.7957747E-01  0.1429617E+00
         13   -1    0    0    0    0  0.00000000000E+00  0.00000000000E+00  0.99999944178E+02  0.99999999998E+02  0.10566000000E+00 0.  1.
         22   -1    0    0    0    0 -0.00000000000E+00 -0.00000000000E+00 -0.16286412647E+02  0.16286412647E+02  0.00000000000E+00 0.  1.
         13    1    1    2    0    0 -0.17595172349E+02 -0.18234764698E+01  0.60923628862E+00  0.17700211561E+02  0.10566000000E+00 0. -1.
        996    1    1    2    0    0  0.17595172349E+02  0.18234764698E+01  0.83104295243E+02  0.98586201084E+02  0.50000000000E+02 0.  0.
<mgrwt>
<rscale>  0 0.53036923E+02</rscale>
<asrwt>0</asrwt>
<pdfrwt beam="1">  1       13 0.10000000E+01 0.53036923E+02</pdfrwt>
<pdfrwt beam="2">  1       22 0.16286436E+00 0.53036923E+02</pdfrwt>
<totfact> 0.65632971E-01</totfact>
</mgrwt>
</event>
<event>
 4    1  0.2496748E+000  0.5126304E+02  0.7957747E-01  0.1438646E+00
         13   -1    0    0    0    0  0.00000000000E+00  0.00000000000E+00  0.99999944174E+02  0.99999999995E+02  0.10566000000E+00 0. -1.
         22   -1    0    0    0    0 -0.00000000000E+00 -0.00000000000E+00 -0.98744037132E+01  0.98744037132E+01  0.00000000000E+00 0. -1.
         13    1    1    2    0    0  0.95534985755E+01  0.60522531465E+01  0.12581837086E+02  0.16917827629E+02  0.10566000000E+00 0.  1.
        996    1    1    2    0    0 -0.95534985755E+01 -0.60522531465E+01  0.77543703375E+02  0.92956576079E+02  0.50000000000E+02 0.  0.
<mgrwt>
<rscale>  0 0.51263038E+02</rscale>
<asrwt>0</asrwt>
<pdfrwt beam="1">  1       13 0.10000000E+01 0.51263038E+02</pdfrwt>
<pdfrwt beam="2">  1       22 0.98744289E-01 0.51263038E+02</pdfrwt>
<totfact> 0.14332271E+00</totfact>
</mgrwt>
</event>
<event>
 4    1  0.2496748E+000  0.5659934E+02  0.7957747E-01  0.1412683E+00
         13   -1    0    0    0    0  0.00000000000E+00  0.00000000000E+00  0.99999944181E+02  0.10000000000E+03  0.10566000000E+00 0. -1.
         22   -1    0    0    0    0 -0.00000000000E+00 -0.00000000000E+00 -0.19876874518E+02  0.19876874518E+02  0.00000000000E+00 0. -1.
         13    1    1    2    0    0  0.19597680328E+02  0.17872227123E+02  0.70440284502E+01  0.27442942215E+02  0.10566000000E+00 0.  1.
        996    1    1    2    0    0 -0.19597680328E+02 -0.17872227123E+02  0.73079041213E+02  0.92433932304E+02  0.50000000000E+02 0.  0.
<mgrwt>
<rscale>  0 0.56599343E+02</rscale>
<asrwt>0</asrwt>
<pdfrwt beam="1">  1       13 0.10000000E+01 0.56599343E+02</pdfrwt>
<pdfrwt beam="2">  1       22 0.19876897E+00 0.56599343E+02</pdfrwt>
<totfact> 0.46196264E-01</totfact>
</mgrwt>
</event>
<event>
 4    1  0.2496748E+000  0.5107458E+02  0.7957747E-01  0.1439630E+00
         13   -1    0    0    0    0  0.00000000000E+00  0.00000000000E+00  0.99999944176E+02  0.99999999996E+02  0.10566000000E+00 0.  1.
         22   -1    0    0    0    0 -0.00000000000E+00 -0.00000000000E+00 -0.41875419049E+02  0.41875419049E+02  0.00000000000E+00 0. -1.
         13    1    1    2    0    0  0.34379564041E+01 -0.98383305515E+01 -0.34534146245E+02  0.36072575639E+02  0.10566000000E+00 0. -1.
        996    1    1    2    0    0 -0.34379564041E+01  0.98383305515E+01  0.92658671372E+02  0.10580284341E+03  0.50000000000E+02 0.  0.
<mgrwt>
<rscale>  0 0.51074576E+02</rscale>
<asrwt>0</asrwt>
<pdfrwt beam="1">  1       13 0.10000000E+01 0.51074576E+02</pdfrwt>
<pdfrwt beam="2">  1       22 0.41875435E+00 0.51074576E+02</pdfrwt>
<totfact> 0.11296259E-01</totfact>
</mgrwt>
</event>
<event>
 4    1  0.2496748E+000  0.5344490E+02  0.7957747E-01  0.1427599E+00
         13   -1    0    0    0    0  0.00000000000E+00  0.00000000000E+00  0.99999944178E+02  0.99999999999E+02  0.10566000000E+00 0.  1.
         22   -1    0    0    0    0 -0.00000000000E+00 -0.00000000000E+00 -0.13112440553E+02  0.13112440553E+02  0.00000000000E+00 0.  1.
         13    1    1    2    0    0  0.18875664078E+02  0.25873335550E+00  0.20130499206E+02  0.27597206373E+02  0.10566000000E+00 0. -1.
        996    1    1    2    0    0 -0.18875664078E+02 -0.25873335550E+00  0.66757004420E+02  0.85515234178E+02  0.50000000000E+02 0.  0.
<mgrwt>
<rscale>  0 0.53444903E+02</rscale>
<asrwt>0</asrwt>
<pdfrwt beam="1">  1       13 0.10000000E+01 0.53444903E+02</pdfrwt>
<pdfrwt beam="2">  1       22 0.13112465E+00 0.53444903E+02</pdfrwt>
<totfact> 0.93933349E-01</totfact>
</mgrwt>
</event>
<event>
 4    1  0.2496748E+000  0.5782017E+02  0.7957747E-01  0.1407214E+00
         13   -1    0    0    0    0  0.00000000000E+00  0.00000000000E+00  0.99999944170E+02  0.99999999990E+02  0.10566000000E+00 0. -1.
         22   -1    0    0    0    0 -0.00000000000E+00 -0.00000000000E+00 -0.50006884722E+02  0.50006884722E+02  0.00000000000E+00 0.  1.
         13    1    1    2    0    0  0.37498902476E+01  0.28794278173E+02 -0.36081657907E+02  0.46314893217E+02  0.10566000000E+00 0.  1.
        996    1    1    2    0    0 -0.37498902476E+01 -0.28794278173E+02  0.86074717355E+02  0.10369199149E+03  0.50000000000E+02 0.  0.
<mgrwt>
<rscale>  0 0.57820171E+02</rscale>
<asrwt>0</asrwt>
<pdfrwt beam="1">  1       13 0.10000000E+01 0.57820171E+02</pdfrwt>
<pdfrwt beam="2">  1       22 0.50006899E+00 0.57820171E+02</pdfrwt>
<totfact> 0.73767746E-02</totfact>
</mgrwt>
</event>
<event>
 4    1  0.2496748E+000  0.5241521E+02  0.7957747E-01  0.1432733E+00
         13   -1    0    0    0    0  0.00000000000E+00  0.00000000000E+00  0.99999944179E+02  0.99999999999E+02  0.10566000000E+00 0.  1.
         22   -1    0    0    0    0 -0.00000000000E+00 -0.00000000000E+00 -0.13616573453E+02  0.13616573453E+02  0.00000000000E+00 0.  1.
         13    1    1    2    0    0  0.46595556822E+01  0.15021405555E+02  0.44385041621E+01  0.16342140840E+02  0.10566000000E+00 0. -1.
        996    1    1    2    0    0 -0.46595556822E+01 -0.15021405555E+02  0.81944866563E+02  0.97274432612E+02  0.50000000000E+02 0.  0.
<mgrwt>
<rscale>  0 0.52415209E+02</rscale>
<asrwt>0</asrwt>
<pdfrwt beam="1">  1       13 0.10000000E+01 0.52415209E+02</pdfrwt>
<pdfrwt beam="2">  1       22 0.13616598E+00 0.52415209E+02</pdfrwt>
<totfact> 0.88265596E-01</totfact>
</mgrwt>
</event>
<event>
 4    1  0.2496748E+000  0.5595271E+02  0.7957747E-01  0.1415646E+00
         13   -1    0    0    0    0  0.00000000000E+00  0.00000000000E+00  0.99999944175E+02  0.99999999996E+02  0.10566000000E+00 0.  1.
         22   -1    0    0    0    0 -0.00000000000E+00 -0.00000000000E+00 -0.18877018653E+02  0.18877018653E+02  0.00000000000E+00 0. -1.
         13    1    1    2    0    0  0.16704150468E+02 -0.18753047019E+02  0.71228501439E+01  0.26104627436E+02  0.10566000000E+00 0. -1.
        996    1    1    2    0    0 -0.16704150468E+02  0.18753047019E+02  0.74000075378E+02  0.92772391213E+02  0.50000000000E+02 0.  0.
<mgrwt>
<rscale>  0 0.55952707E+02</rscale>
<asrwt>0</asrwt>
<pdfrwt beam="1">  1       13 0.10000000E+01 0.55952707E+02</pdfrwt>
<pdfrwt beam="2">  1       22 0.18877041E+00 0.55952707E+02</pdfrwt>
<totfact> 0.50763290E-01</totfact>
</mgrwt>
</event>
<event>
 4    1  0.2496748E+000  0.5170189E+02  0.7957747E-01  0.1436372E+00
         13   -1    0    0    0    0  0.00000000000E+00  0.00000000000E+00  0.99999944177E+02  0.99999999998E+02  0.10566000000E+00 0.  1.
         22   -1    0    0    0    0 -0.00000000000E+00 -0.00000000000E+00 -0.33301208886E+02  0.33301208886E+02  0.00000000000E+00 0. -1.
         13    1    1    2    0    0 -0.13153587746E+02  0.26125434547E+00 -0.24875100493E+02  0.28140129939E+02  0.10566000000E+00 0. -1.
        996    1    1    2    0    0  0.13153587746E+02 -0.26125434547E+00  0.91573835784E+02  0.10516107894E+03  0.50000000000E+02 0.  0.
<mgrwt>
<rscale>  0 0.51701887E+02</rscale>
<asrwt>0</asrwt>
<pdfrwt beam="1">  1       13 0.10000000E+01 0.51701887E+02</pdfrwt>
<pdfrwt beam="2">  1       22 0.33301228E+00 0.51701887E+02</pdfrwt>
<totfact> 0.17136466E-01</totfact>
</mgrwt>
</event>
<event>
 4    1  0.2496748E+000  0.5407277E+02  0.7957747E-01  0.1424535E+00
         13   -1    0    0    0    0  0.00000000000E+00  0.00000000000E+00  0.99999944175E+02  0.99999999995E+02  0.10566000000E+00 0.  1.
         22   -1    0    0    0    0 -0.00000000000E+00 -0.00000000000E+00 -0.32751622331E+02  0.32751622331E+02  0.00000000000E+00 0. -1.
         13    1    1    2    0    0  0.36185236475E+01 -0.20267486988E+02 -0.20901544551E+02  0.29338549229E+02  0.10566000000E+00 0. -1.
        996    1    1    2    0    0 -0.36185236475E+01  0.20267486988E+02  0.88149866395E+02  0.10341307310E+03  0.50000000000E+02 0.  0.
<mgrwt>
<rscale>  0 0.54072773E+02</rscale>
<asrwt>0</asrwt>
<pdfrwt beam="1">  1       13 0.10000000E+01 0.54072773E+02</pdfrwt>
<pdfrwt beam="2">  1       22 0.32751641E+00 0.54072773E+02</pdfrwt>
<totfact> 0.17694735E-01</totfact>
</mgrwt>
</event>
<event>
 4    1  0.2496748E+000  0.5360519E+02  0.7957747E-01  0.1426813E+00
         13   -1    0    0    0    0  0.00000000000E+00  0.00000000000E+00  0.99999944185E+02  0.10000000000E+03  0.10566000000E+00 0.  1.
         22   -1    0    0    0    0 -0.00000000000E+00 -0.00000000000E+00 -0.20126016366E+02  0.20126016366E+02  0.00000000000E+00 0. -1.
         13    1    1    2    0    0 -0.51109752724E+01  0.18638531463E+02  0.59866322331E+02  0.62908700803E+02  0.10566000000E+00 0. -1.
        996    1    1    2    0    0  0.51109752724E+01 -0.18638531463E+02  0.20007605489E+02  0.57217315567E+02  0.50000000000E+02 0.  0.
<mgrwt>
<rscale>  0 0.53605195E+02</rscale>
<asrwt>0</asrwt>
<pdfrwt beam="1">  1       13 0.10000000E+01 0.53605195E+02</pdfrwt>
<pdfrwt beam="2">  1       22 0.20126039E+00 0.53605195E+02</pdfrwt>
<totfact> 0.44906310E-01</totfact>
</mgrwt>
</event>
<event>
 4    1  0.2496748E+000  0.5105501E+02  0.7957747E-01  0.1439733E+00
         13   -1    0    0    0    0  0.00000000000E+00  0.00000000000E+00  0.99999944179E+02  0.99999999999E+02  0.10566000000E+00 0.  1.
         22   -1    0    0    0    0 -0.00000000000E+00 -0.00000000000E+00 -0.95065386846E+01  0.95065386846E+01  0.00000000000E+00 0.  1.
         13    1    1    2    0    0  0.30243145054E+01 -0.98725776287E+01  0.11555596761E+02  0.15497007705E+02  0.10566000000E+00 0. -1.
        996    1    1    2    0    0 -0.30243145054E+01  0.98725776287E+01  0.78937808733E+02  0.94009530979E+02  0.50000000000E+02 0.  0.
<mgrwt>
<rscale>  0 0.51055012E+02</rscale>
<asrwt>0</asrwt>
<pdfrwt beam="1">  1       13 0.10000000E+01 0.51055012E+02</pdfrwt>
<pdfrwt beam="2">  1       22 0.95065639E-01 0.51055012E+02</pdfrwt>
<totfact> 0.15127605E+00</totfact>
</mgrwt>
</event>
<event>
 4    1  0.2496748E+000  0.5132738E+02  0.7957747E-01  0.1438311E+00
         13   -1    0    0    0    0  0.00000000000E+00  0.00000000000E+00  0.99999944180E+02  0.10000000000E+03  0.10566000000E+00 0.  1.
         22   -1    0    0    0    0 -0.00000000000E+00 -0.00000000000E+00 -0.21580275912E+02  0.21580275912E+02  0.00000000000E+00 0. -1.
         13    1    1    2    0    0 -0.49502796795E+01 -0.10487829831E+02 -0.12575547160E+02  0.17107173755E+02  0.10566000000E+00 0. -1.
        996    1    1    2    0    0  0.49502796795E+01  0.10487829831E+02  0.90995215428E+02  0.10447310216E+03  0.50000000000E+02 0.  0.
<mgrwt>
<rscale>  0 0.51327379E+02</rscale>
<asrwt>0</asrwt>
<pdfrwt beam="1">  1       13 0.10000000E+01 0.51327379E+02</pdfrwt>
<pdfrwt beam="2">  1       22 0.21580298E+00 0.51327379E+02</pdfrwt>
<totfact> 0.39198213E-01</totfact>
</mgrwt>
</event>
<event>
 4    1  0.2496748E+000  0.8193595E+02  0.7957747E-01  0.1323646E+00
         13   -1    0    0    0    0  0.00000000000E+00  0.00000000000E+00  0.99999944181E+02  0.10000000000E+03  0.10566000000E+00 0.  1.
         22   -1    0    0    0    0 -0.00000000000E+00 -0.00000000000E+00 -0.63650993893E+02  0.63650993893E+02  0.00000000000E+00 0. -1.
         13    1    1    2    0    0 -0.64201938817E+02  0.95713837287E+01 -0.15436754047E+02  0.66721847051E+02  0.10566000000E+00 0. -1.
        996    1    1    2    0    0  0.64201938817E+02 -0.95713837287E+01  0.51785704336E+02  0.96929146844E+02  0.50000000000E+02 0.  0.
<mgrwt>
<rscale>  0 0.81935953E+02</rscale>
<asrwt>0</asrwt>
<pdfrwt beam="1">  1       13 0.10000000E+01 0.81935953E+02</pdfrwt>
<pdfrwt beam="2">  1       22 0.63651004E+00 0.81935953E+02</pdfrwt>
<totfact> 0.81986239E-02</totfact>
</mgrwt>
</event>
<event>
 4    1  0.2496748E+000  0.6131759E+02  0.7957747E-01  0.1392384E+00
         13   -1    0    0    0    0  0.00000000000E+00  0.00000000000E+00  0.99999944186E+02  0.10000000001E+03  0.10566000000E+00 0. -1.
         22   -1    0    0    0    0 -0.00000000000E+00 -0.00000000000E+00 -0.38938811279E+02  0.38938811279E+02  0.00000000000E+00 0.  1.
         13    1    1    2    0    0  0.33190544392E+01 -0.35338796325E+02 -0.17261185992E+02  0.39469055651E+02  0.10566000000E+00 0.  1.
        996    1    1    2    0    0 -0.33190544392E+01  0.35338796325E+02  0.78322318899E+02  0.99469755634E+02  0.50000000000E+02 0.  0.
<mgrwt>
<rscale>  0 0.61317588E+02</rscale>
<asrwt>0</asrwt>
<pdfrwt beam="1">  1       13 0.10000000E+01 0.61317588E+02</pdfrwt>
<pdfrwt beam="2">  1       22 0.38938828E+00 0.61317588E+02</pdfrwt>
<totfact> 0.13097725E-01</totfact>
</mgrwt>
</event>
<event>
 4    1  0.2496748E+000  0.5469165E+02  0.7957747E-01  0.1421563E+00
         13   -1    0    0    0    0  0.00000000000E+00  0.00000000000E+00  0.99999944184E+02  0.10000000000E+03  0.10566000000E+00 0. -1.
         22   -1    0    0    0    0 -0.00000000000E+00 -0.00000000000E+00 -0.61360919099E+02  0.61360919099E+02  0.00000000000E+00 0.  1.
         13    1    1    2    0    0 -0.81740719160E+01 -0.20600030096E+02 -0.51421648301E+02  0.55994408378E+02  0.10566000000E+00 0.  1.
        996    1    1    2    0    0  0.81740719160E+01  0.20600030096E+02  0.90060673386E+02  0.10536651073E+03  0.50000000000E+02 0.  0.
<mgrwt>
<rscale>  0 0.54691651E+02</rscale>
<asrwt>0</asrwt>
<pdfrwt beam="1">  1       13 0.10000000E+01 0.54691651E+02</pdfrwt>
<pdfrwt beam="2">  1       22 0.61360930E+00 0.54691651E+02</pdfrwt>
<totfact> 0.69304274E-02</totfact>
</mgrwt>
</event>
<event>
 4    1  0.2496748E+000  0.5363505E+02  0.7957747E-01  0.1426666E+00
         13   -1    0    0    0    0  0.00000000000E+00  0.00000000000E+00  0.99999944185E+02  0.10000000000E+03  0.10566000000E+00 0. -1.
         22   -1    0    0    0    0 -0.00000000000E+00 -0.00000000000E+00 -0.75523970362E+02  0.75523970362E+02  0.00000000000E+00 0.  1.
         13    1    1    2    0    0  0.52536488858E+01 -0.18684684037E+02 -0.66851205767E+02  0.69611874854E+02  0.10566000000E+00 0.  1.
        996    1    1    2    0    0 -0.52536488858E+01  0.18684684037E+02  0.91327179590E+02  0.10591209551E+03  0.50000000000E+02 0.  0.
<mgrwt>
<rscale>  0 0.53635047E+02</rscale>
<asrwt>0</asrwt>
<pdfrwt beam="1">  1       13 0.10000000E+01 0.53635047E+02</pdfrwt>
<pdfrwt beam="2">  1       22 0.75523977E+00 0.53635047E+02</pdfrwt>
<totfact> 0.46711402E-02</totfact>
</mgrwt>
</event>
<event>
 4    1  0.2496748E+000  0.6305650E+02  0.7957747E-01  0.1385435E+00
         13   -1    0    0    0    0  0.00000000000E+00  0.00000000000E+00  0.99999944179E+02  0.10000000000E+03  0.10566000000E+00 0.  1.
         22   -1    0    0    0    0 -0.00000000000E+00 -0.00000000000E+00 -0.30858101557E+02  0.30858101557E+02  0.00000000000E+00 0. -1.
         13    1    1    2    0    0  0.31372912600E+02  0.22177974475E+02  0.15957966229E+01  0.38453607473E+02  0.10566000000E+00 0. -1.
        996    1    1    2    0    0 -0.31372912600E+02 -0.22177974475E+02  0.67546045999E+02  0.92404494084E+02  0.50000000000E+02 0.  0.
<mgrwt>
<rscale>  0 0.63056500E+02</rscale>
<asrwt>0</asrwt>
<pdfrwt beam="1">  1       13 0.10000000E+01 0.63056500E+02</pdfrwt>
<pdfrwt beam="2">  1       22 0.30858121E+00 0.63056500E+02</pdfrwt>
<totfact> 0.19900996E-01</totfact>
</mgrwt>
</event>
<event>
 4    1  0.2496748E+000  0.5594310E+02  0.7957747E-01  0.1415691E+00
         13   -1    0    0    0    0  0.00000000000E+00  0.00000000000E+00  0.99999944187E+02  0.10000000001E+03  0.10566000000E+00 0.  1.
         22   -1    0    0    0    0 -0.00000000000E+00 -0.00000000000E+00 -0.20549674879E+02  0.20549674879E+02  0.00000000000E+00 0. -1.
         13    1    1    2    0    0 -0.25082137808E+02  0.71926122515E+00  0.53060440998E+02  0.58694569908E+02  0.10566000000E+00 0. -1.
        996    1    1    2    0    0  0.25082137808E+02 -0.71926122515E+00  0.26389828310E+02  0.61855104979E+02  0.50000000000E+02 0.  0.
<mgrwt>
<rscale>  0 0.55943105E+02</rscale>
<asrwt>0</asrwt>
<pdfrwt beam="1">  1       13 0.10000000E+01 0.55943105E+02</pdfrwt>
<pdfrwt beam="2">  1       22 0.20549697E+00 0.55943105E+02</pdfrwt>
<totfact> 0.43353041E-01</totfact>
</mgrwt>
</event>
<event>
 4    1  0.2496748E+000  0.8854172E+02  0.7957747E-01  0.1306422E+00
         13   -1    0    0    0    0  0.00000000000E+00  0.00000000000E+00  0.99999944161E+02  0.99999999981E+02  0.10566000000E+00 0.  1.
         22   -1    0    0    0    0 -0.00000000000E+00 -0.00000000000E+00 -0.73829443806E+02  0.73829443806E+02  0.00000000000E+00 0. -1.
         13    1    1    2    0    0  0.23777330038E+02 -0.69096127971E+02 -0.17447579475E+02  0.75126995933E+02  0.10566000000E+00 0. -1.
        996    1    1    2    0    0 -0.23777330038E+02  0.69096127971E+02  0.43618079831E+02  0.98702447854E+02  0.50000000000E+02 0.  0.
<mgrwt>
<rscale>  0 0.88541721E+02</rscale>
<asrwt>0</asrwt>
<pdfrwt beam="1">  1       13 0.10000000E+01 0.88541721E+02</pdfrwt>
<pdfrwt beam="2">  1       22 0.73829451E+00 0.88541721E+02</pdfrwt>
<totfact> 0.54531885E-02</totfact>
</mgrwt>
</event>
<event>
 4    1  0.2496748E+000  0.5462879E+02  0.7957747E-01  0.1421863E+00
         13   -1    0    0    0    0  0.00000000000E+00  0.00000000000E+00  0.99999944184E+02  0.10000000000E+03  0.10566000000E+00 0.  1.
         22   -1    0    0    0    0 -0.00000000000E+00 -0.00000000000E+00 -0.24846735091E+02  0.24846735091E+02  0.00000000000E+00 0. -1.
         13    1    1    2    0    0 -0.18930467198E+02  0.11222401915E+02 -0.96026095101E+01  0.24010959300E+02  0.10566000000E+00 0. -1.
        996    1    1    2    0    0  0.18930467198E+02 -0.11222401915E+02  0.84755818603E+02  0.10083577579E+03  0.50000000000E+02 0.  0.
<mgrwt>
<rscale>  0 0.54628792E+02</rscale>
<asrwt>0</asrwt>
<pdfrwt beam="1">  1       13 0.10000000E+01 0.54628792E+02</pdfrwt>
<pdfrwt beam="2">  1       22 0.24846756E+00 0.54628792E+02</pdfrwt>
<totfact> 0.29958768E-01</totfact>
</mgrwt>
</event>
<event>
 4    1  0.2496748E+000  0.6597245E+02  0.7957747E-01  0.1374350E+00
         13   -1    0    0    0    0  0.00000000000E+00  0.00000000000E+00  0.99999944177E+02  0.99999999998E+02  0.10566000000E+00 0.  1.
         22   -1    0    0    0    0 -0.00000000000E+00 -0.00000000000E+00 -0.55197978094E+02  0.55197978094E+02  0.00000000000E+00 0. -1.
         13    1    1    2    0    0 -0.21626789351E+02  0.37210836781E+02 -0.32235325647E+02  0.53772593160E+02  0.10566000000E+00 0. -1.
        996    1    1    2    0    0  0.21626789351E+02 -0.37210836781E+02  0.77037291730E+02  0.10142538493E+03  0.50000000000E+02 0.  0.
<mgrwt>
<rscale>  0 0.65972452E+02</rscale>
<asrwt>0</asrwt>
<pdfrwt beam="1">  1       13 0.10000000E+01 0.65972452E+02</pdfrwt>
<pdfrwt beam="2">  1       22 0.55197991E+00 0.65972452E+02</pdfrwt>
<totfact> 0.59251977E-02</totfact>
</mgrwt>
</event>
<event>
 4    1  0.2496748E+000  0.5403857E+02  0.7957747E-01  0.1424701E+00
         13   -1    0    0    0    0  0.00000000000E+00  0.00000000000E+00  0.99999944177E+02  0.99999999997E+02  0.10566000000E+00 0.  1.
         22   -1    0    0    0    0 -0.00000000000E+00 -0.00000000000E+00 -0.14721923171E+02  0.14721923171E+02  0.00000000000E+00 0.  1.
         13    1    1    2    0    0 -0.86410449869E+01 -0.18587611806E+02  0.12268023265E+02  0.23888962513E+02  0.10566000000E+00 0. -1.
        996    1    1    2    0    0  0.86410449869E+01  0.18587611806E+02  0.73009997741E+02  0.90832960654E+02  0.50000000000E+02 0.  0.
<mgrwt>
<rscale>  0 0.54038569E+02</rscale>
<asrwt>0</asrwt>
<pdfrwt beam="1">  1       13 0.10000000E+01 0.54038569E+02</pdfrwt>
<pdfrwt beam="2">  1       22 0.14721947E+00 0.54038569E+02</pdfrwt>
<totfact> 0.77986309E-01</totfact>
</mgrwt>
</event>
<event>
 4    1  0.2496748E+000  0.5160220E+02  0.7957747E-01  0.1436886E+00
         13   -1    0    0    0    0  0.00000000000E+00  0.00000000000E+00  0.99999944182E+02  0.10000000000E+03  0.10566000000E+00 0. -1.
         22   -1    0    0    0    0 -0.00000000000E+00 -0.00000000000E+00 -0.18967716143E+02  0.18967716143E+02  0.00000000000E+00 0.  1.
         13    1    1    2    0    0 -0.12248567882E+02  0.35720166382E+01 -0.87091048017E+01  0.15448183987E+02  0.10566000000E+00 0.  1.
        996    1    1    2    0    0  0.12248567882E+02 -0.35720166382E+01  0.89741332841E+02  0.10351953216E+03  0.50000000000E+02 0.  0.
<mgrwt>
<rscale>  0 0.51602197E+02</rscale>
<asrwt>0</asrwt>
<pdfrwt beam="1">  1       13 0.10000000E+01 0.51602197E+02</pdfrwt>
<pdfrwt beam="2">  1       22 0.18967739E+00 0.51602197E+02</pdfrwt>
<totfact> 0.49931862E-01</totfact>
</mgrwt>
</event>
<event>
 4    1  0.2496748E+000  0.5635052E+02  0.7957747E-01  0.1413818E+00
         13   -1    0    0    0    0  0.00000000000E+00  0.00000000000E+00  0.99999944181E+02  0.10000000000E+03  0.10566000000E+00 0. -1.
         22   -1    0    0    0    0 -0.00000000000E+00 -0.00000000000E+00 -0.22269949581E+02  0.22269949581E+02  0.00000000000E+00 0. -1.
         13    1    1    2    0    0  0.61309861341E+01  0.25254546026E+02 -0.33634869411E+00  0.25990486345E+02  0.10566000000E+00 0.  1.
        996    1    1    2    0    0 -0.61309861341E+01 -0.25254546026E+02  0.78066343294E+02  0.96279463237E+02  0.50000000000E+02 0.  0.
<mgrwt>
<rscale>  0 0.56350520E+02</rscale>
<asrwt>0</asrwt>
<pdfrwt beam="1">  1       13 0.10000000E+01 0.56350520E+02</pdfrwt>
<pdfrwt beam="2">  1       22 0.22269971E+00 0.56350520E+02</pdfrwt>
<totfact> 0.37204715E-01</totfact>
</mgrwt>
</event>
<event>
 4    1  0.2496748E+000  0.5171956E+02  0.7957747E-01  0.1436281E+00
         13   -1    0    0    0    0  0.00000000000E+00  0.00000000000E+00  0.99999944175E+02  0.99999999995E+02  0.10566000000E+00 0.  1.
         22   -1    0    0    0    0 -0.00000000000E+00 -0.00000000000E+00 -0.11741748848E+02  0.11741748848E+02  0.00000000000E+00 0. -1.
         13    1    1    2    0    0  0.13479245357E+00  0.13224757486E+02  0.58808515702E+01  0.14474389755E+02  0.10566000000E+00 0. -1.
        996    1    1    2    0    0 -0.13479245357E+00 -0.13224757486E+02  0.82377343756E+02  0.97267359088E+02  0.50000000000E+02 0.  0.
<mgrwt>
<rscale>  0 0.51719555E+02</rscale>
<asrwt>0</asrwt>
<pdfrwt beam="1">  1       13 0.10000000E+01 0.51719555E+02</pdfrwt>
<pdfrwt beam="2">  1       22 0.11741773E+00 0.51719555E+02</pdfrwt>
<totfact> 0.11105088E+00</totfact>
</mgrwt>
</event>
<event>
 4    1  0.2496748E+000  0.5327410E+02  0.7957747E-01  0.1428442E+00
         13   -1    0    0    0    0  0.00000000000E+00  0.00000000000E+00  0.99999944179E+02  0.10000000000E+03  0.10566000000E+00 0. -1.
         22   -1    0    0    0    0 -0.00000000000E+00 -0.00000000000E+00 -0.12971400465E+02  0.12971400465E+02  0.00000000000E+00 0. -1.
         13    1    1    2    0    0  0.18036146434E+02 -0.35815544298E+01  0.27543805238E+02  0.33118008414E+02  0.10566000000E+00 0.  1.
        996    1    1    2    0    0 -0.18036146434E+02  0.35815544298E+01  0.59484738476E+02  0.79853392050E+02  0.50000000000E+02 0.  0.
<mgrwt>
<rscale>  0 0.53274104E+02</rscale>
<asrwt>0</asrwt>
<pdfrwt beam="1">  1       13 0.10000000E+01 0.53274104E+02</pdfrwt>
<pdfrwt beam="2">  1       22 0.12971425E+00 0.53274104E+02</pdfrwt>
<totfact> 0.95516284E-01</totfact>
</mgrwt>
</event>
<event>
 4    1  0.2496748E+000  0.6705037E+02  0.7957747E-01  0.1370421E+00
         13   -1    0    0    0    0  0.00000000000E+00  0.00000000000E+00  0.99999944184E+02  0.10000000000E+03  0.10566000000E+00 0.  1.
         22   -1    0    0    0    0 -0.00000000000E+00 -0.00000000000E+00 -0.42905595062E+02  0.42905595062E+02  0.00000000000E+00 0. -1.
         13    1    1    2    0    0  0.25031429780E+02  0.37002431613E+02 -0.12375148875E+02  0.46356314519E+02  0.10566000000E+00 0. -1.
        996    1    1    2    0    0 -0.25031429780E+02 -0.37002431613E+02  0.69469497997E+02  0.96549280546E+02  0.50000000000E+02 0.  0.
<mgrwt>
<rscale>  0 0.67050372E+02</rscale>
<asrwt>0</asrwt>
<pdfrwt beam="1">  1       13 0.10000000E+01 0.67050372E+02</pdfrwt>
<pdfrwt beam="2">  1       22 0.42905611E+00 0.67050372E+02</pdfrwt>
<totfact> 0.10841191E-01</totfact>
</mgrwt>
</event>
<event>
 4    1  0.2496748E+000  0.7244674E+02  0.7957747E-01  0.1351965E+00
         13   -1    0    0    0    0  0.00000000000E+00  0.00000000000E+00  0.99999944172E+02  0.99999999992E+02  0.10566000000E+00 0. -1.
         22   -1    0    0    0    0 -0.00000000000E+00 -0.00000000000E+00 -0.70980682404E+02  0.70980682404E+02  0.00000000000E+00 0.  1.
         13    1    1    2    0    0 -0.19286340089E+01  0.52390935267E+02 -0.43760339738E+02  0.68289883769E+02  0.10566000000E+00 0.  1.
        996    1    1    2    0    0  0.19286340089E+01 -0.52390935267E+02  0.72779601505E+02  0.10269079863E+03  0.50000000000E+02 0.  0.
<mgrwt>
<rscale>  0 0.72446737E+02</rscale>
<asrwt>0</asrwt>
<pdfrwt beam="1">  1       13 0.10000000E+01 0.72446737E+02</pdfrwt>
<pdfrwt beam="2">  1       22 0.70980691E+00 0.72446737E+02</pdfrwt>
<totfact> 0.69490776E-02</totfact>
</mgrwt>
</event>
<event>
 4    1  0.2496748E+000  0.5158940E+02  0.7957747E-01  0.1436953E+00
         13   -1    0    0    0    0  0.00000000000E+00  0.00000000000E+00  0.99999944178E+02  0.99999999998E+02  0.10566000000E+00 0. -1.
         22   -1    0    0    0    0 -0.00000000000E+00 -0.00000000000E+00 -0.12222865203E+02  0.12222865203E+02  0.00000000000E+00 0. -1.
         13    1    1    2    0    0 -0.93311962166E+01 -0.86252796546E+01  0.31194557269E+01  0.13084679592E+02  0.10566000000E+00 0.  1.
        996    1    1    2    0    0  0.93311962166E+01  0.86252796546E+01  0.84657623248E+02  0.99138185610E+02  0.50000000000E+02 0.  0.
<mgrwt>
<rscale>  0 0.51589405E+02</rscale>
<asrwt>0</asrwt>
<pdfrwt beam="1">  1       13 0.10000000E+01 0.51589405E+02</pdfrwt>
<pdfrwt beam="2">  1       22 0.12222890E+00 0.51589405E+02</pdfrwt>
<totfact> 0.10440134E+00</totfact>
</mgrwt>
</event>
<event>
 4    1  0.2496748E+000  0.5135405E+02  0.7957747E-01  0.1438172E+00
         13   -1    0    0    0    0  0.00000000000E+00  0.00000000000E+00  0.99999944182E+02  0.10000000000E+03  0.10566000000E+00 0. -1.
         22   -1    0    0    0    0 -0.00000000000E+00 -0.00000000000E+00 -0.26712242262E+02  0.26712242262E+02  0.00000000000E+00 0.  1.
         13    1    1    2    0    0 -0.47523336721E+01  0.10707630718E+02 -0.18288848294E+02  0.21719373077E+02  0.10566000000E+00 0.  1.
        996    1    1    2    0    0  0.47523336721E+01 -0.10707630718E+02  0.91576550214E+02  0.10499286919E+03  0.50000000000E+02 0.  0.
<mgrwt>
<rscale>  0 0.51354046E+02</rscale>
<asrwt>0</asrwt>
<pdfrwt beam="1">  1       13 0.10000000E+01 0.51354046E+02</pdfrwt>
<pdfrwt beam="2">  1       22 0.26712263E+00 0.51354046E+02</pdfrwt>
<totfact> 0.25854473E-01</totfact>
</mgrwt>
</event>
<event>
 4    1  0.2496748E+000  0.5681816E+02  0.7957747E-01  0.1411691E+00
         13   -1    0    0    0    0  0.00000000000E+00  0.00000000000E+00  0.99999944185E+02  0.10000000001E+03  0.10566000000E+00 0. -1.
         22   -1    0    0    0    0 -0.00000000000E+00 -0.00000000000E+00 -0.40903159998E+02  0.40903159998E+02  0.00000000000E+00 0.  1.
         13    1    1    2    0    0  0.19164284026E+02 -0.19000885734E+02 -0.26722891346E+02  0.37979303928E+02  0.10566000000E+00 0.  1.
        996    1    1    2    0    0 -0.19164284026E+02  0.19000885734E+02  0.85819675533E+02  0.10292385608E+03  0.50000000000E+02 0.  0.
<mgrwt>
<rscale>  0 0.56818161E+02</rscale>
<asrwt>0</asrwt>
<pdfrwt beam="1">  1       13 0.10000000E+01 0.56818161E+02</pdfrwt>
<pdfrwt beam="2">  1       22 0.40903177E+00 0.56818161E+02</pdfrwt>
<totfact> 0.11887565E-01</totfact>
</mgrwt>
</event>
<event>
 4    1  0.2496748E+000  0.5360829E+02  0.7957747E-01  0.1426797E+00
         13   -1    0    0    0    0  0.00000000000E+00  0.00000000000E+00  0.99999944185E+02  0.10000000001E+03  0.10566000000E+00 0.  1.
         22   -1    0    0    0    0 -0.00000000000E+00 -0.00000000000E+00 -0.83751329976E+02  0.83751329976E+02  0.00000000000E+00 0. -1.
         13    1    1    2    0    0 -0.19235023792E+02  0.19654492967E+01 -0.75255722306E+02  0.77699961615E+02  0.10566000000E+00 0. -1.
        996    1    1    2    0    0  0.19235023792E+02 -0.19654492967E+01  0.91504336515E+02  0.10605136837E+03  0.50000000000E+02 0.  0.
<mgrwt>
<rscale>  0 0.53608293E+02</rscale>
<asrwt>0</asrwt>
<pdfrwt beam="1">  1       13 0.10000000E+01 0.53608293E+02</pdfrwt>
<pdfrwt beam="2">  1       22 0.83751335E+00 0.53608293E+02</pdfrwt>
<totfact> 0.21594235E-02</totfact>
</mgrwt>
</event>
<event>
 4    1  0.2496748E+000  0.5121571E+02  0.7957747E-01  0.1438893E+00
         13   -1    0    0    0    0  0.00000000000E+00  0.00000000000E+00  0.99999944173E+02  0.99999999994E+02  0.10566000000E+00 0.  1.
         22   -1    0    0    0    0 -0.00000000000E+00 -0.00000000000E+00 -0.16776065544E+02  0.16776065544E+02  0.00000000000E+00 0. -1.
         13    1    1    2    0    0 -0.34848329986E+00 -0.11087268452E+02 -0.69372841154E+01  0.13083808210E+02  0.10566000000E+00 0. -1.
        996    1    1    2    0    0  0.34848329986E+00  0.11087268452E+02  0.90161162744E+02  0.10369225733E+03  0.50000000000E+02 0.  0.
<mgrwt>
<rscale>  0 0.51215710E+02</rscale>
<asrwt>0</asrwt>
<pdfrwt beam="1">  1       13 0.10000000E+01 0.51215710E+02</pdfrwt>
<pdfrwt beam="2">  1       22 0.16776089E+00 0.51215710E+02</pdfrwt>
<totfact> 0.62127953E-01</totfact>
</mgrwt>
</event>
<event>
 4    1  0.2496748E+000  0.5156437E+02  0.7957747E-01  0.1437082E+00
         13   -1    0    0    0    0  0.00000000000E+00  0.00000000000E+00  0.99999944186E+02  0.10000000001E+03  0.10566000000E+00 0. -1.
         22   -1    0    0    0    0 -0.00000000000E+00 -0.00000000000E+00 -0.10305417327E+02  0.10305417327E+02  0.00000000000E+00 0. -1.
         13    1    1    2    0    0  0.34745432444E+01 -0.12116608310E+02  0.19083880946E+02  0.22871167957E+02  0.10566000000E+00 0.  1.
        996    1    1    2    0    0 -0.34745432444E+01  0.12116608310E+02  0.70610645913E+02  0.87434249376E+02  0.50000000000E+02 0.  0.
<mgrwt>
<rscale>  0 0.51564374E+02</rscale>
<asrwt>0</asrwt>
<pdfrwt beam="1">  1       13 0.10000000E+01 0.51564374E+02</pdfrwt>
<pdfrwt beam="2">  1       22 0.10305442E+00 0.51564374E+02</pdfrwt>
<totfact> 0.13480226E+00</totfact>
</mgrwt>
</event>
<event>
 4    1  0.2496748E+000  0.5238808E+02  0.7957747E-01  0.1432871E+00
         13   -1    0    0    0    0  0.00000000000E+00  0.00000000000E+00  0.99999944176E+02  0.99999999996E+02  0.10566000000E+00 0. -1.
         22   -1    0    0    0    0 -0.00000000000E+00 -0.00000000000E+00 -0.20962623381E+02  0.20962623381E+02  0.00000000000E+00 0.  1.
         13    1    1    2    0    0 -0.54523279930E+01 -0.14655474582E+02 -0.93477047967E+01  0.18218165791E+02  0.10566000000E+00 0.  1.
        996    1    1    2    0    0  0.54523279930E+01  0.14655474582E+02  0.88385025592E+02  0.10274445759E+03  0.50000000000E+02 0.  0.
<mgrwt>
<rscale>  0 0.52388079E+02</rscale>
<asrwt>0</asrwt>
<pdfrwt beam="1">  1       13 0.10000000E+01 0.52388079E+02</pdfrwt>
<pdfrwt beam="2">  1       22 0.20962645E+00 0.52388079E+02</pdfrwt>
<totfact> 0.41502681E-01</totfact>
</mgrwt>
</event>
<event>
 4    1  0.2496748E+000  0.5231047E+02  0.7957747E-01  0.1433264E+00
         13   -1    0    0    0    0  0.00000000000E+00  0.00000000000E+00  0.99999944177E+02  0.99999999997E+02  0.10566000000E+00 0.  1.
         22   -1    0    0    0    0 -0.00000000000E+00 -0.00000000000E+00 -0.25730262860E+02  0.25730262860E+02  0.00000000000E+00 0. -1.
         13    1    1    2    0    0 -0.33423495103E+01  0.15007126167E+02 -0.15499450425E+02  0.21831840590E+02  0.10566000000E+00 0. -1.
        996    1    1    2    0    0  0.33423495103E+01 -0.15007126167E+02  0.89769131741E+02  0.10389842227E+03  0.50000000000E+02 0.  0.
<mgrwt>
<rscale>  0 0.52310469E+02</rscale>
<asrwt>0</asrwt>
<pdfrwt beam="1">  1       13 0.10000000E+01 0.52310469E+02</pdfrwt>
<pdfrwt beam="2">  1       22 0.25730284E+00 0.52310469E+02</pdfrwt>
<totfact> 0.27868761E-01</totfact>
</mgrwt>
</event>
<event>
 4    1  0.2496748E+000  0.5307781E+02  0.7957747E-01  0.1429414E+00
         13   -1    0    0    0    0  0.00000000000E+00  0.00000000000E+00  0.99999944173E+02  0.99999999993E+02  0.10566000000E+00 0.  1.
         22   -1    0    0    0    0 -0.00000000000E+00 -0.00000000000E+00 -0.39338754705E+02  0.39338754705E+02  0.00000000000E+00 0. -1.
         13    1    1    2    0    0 -0.14308831096E+02 -0.10607122798E+02 -0.29647727578E+02  0.34586885028E+02  0.10566000000E+00 0. -1.
        996    1    1    2    0    0  0.14308831096E+02  0.10607122798E+02  0.90308917046E+02  0.10475186967E+03  0.50000000000E+02 0.  0.
<mgrwt>
<rscale>  0 0.53077808E+02</rscale>
<asrwt>0</asrwt>
<pdfrwt beam="1">  1       13 0.10000000E+01 0.53077808E+02</pdfrwt>
<pdfrwt beam="2">  1       22 0.39338772E+00 0.53077808E+02</pdfrwt>
<totfact> 0.12772292E-01</totfact>
</mgrwt>
</event>
<event>
 4    1  0.2496748E+000  0.5132466E+02  0.7957747E-01  0.1438325E+00
         13   -1    0    0    0    0  0.00000000000E+00  0.00000000000E+00  0.99999944177E+02  0.99999999997E+02  0.10566000000E+00 0.  1.
         22   -1    0    0    0    0 -0.00000000000E+00 -0.00000000000E+00 -0.12497035262E+02  0.12497035262E+02  0.00000000000E+00 0.  1.
         13    1    1    2    0    0  0.11145984513E+02 -0.31603492167E+01  0.63928127321E+00  0.11603474588E+02  0.10566000000E+00 0. -1.
        996    1    1    2    0    0 -0.11145984513E+02  0.31603492167E+01  0.86863627641E+02  0.10089356067E+03  0.50000000000E+02 0.  0.
<mgrwt>
<rscale>  0 0.51324661E+02</rscale>
<asrwt>0</asrwt>
<pdfrwt beam="1">  1       13 0.10000000E+01 0.51324661E+02</pdfrwt>
<pdfrwt beam="2">  1       22 0.12497060E+00 0.51324661E+02</pdfrwt>
<totfact> 0.10081977E+00</totfact>
</mgrwt>
</event>
<event>
 4    1  0.2496748E+000  0.5205311E+02  0.7957747E-01  0.1434572E+00
         13   -1    0    0    0    0  0.00000000000E+00  0.00000000000E+00  0.99999944178E+02  0.99999999998E+02  0.10566000000E+00 0.  1.
         22   -1    0    0    0    0 -0.00000000000E+00 -0.00000000000E+00 -0.16665347503E+02  0.16665347503E+02  0.00000000000E+00 0.  1.
         13    1    1    2    0    0 -0.23338639127E+01  0.14285622684E+02 -0.39796534502E+01  0.15012486198E+02  0.10566000000E+00 0. -1.
        996    1    1    2    0    0  0.23338639127E+01 -0.14285622684E+02  0.87314250125E+02  0.10165286130E+03  0.50000000000E+02 0.  0.
<mgrwt>
<rscale>  0 0.52053107E+02</rscale>
<asrwt>0</asrwt>
<pdfrwt beam="1">  1       13 0.10000000E+01 0.52053107E+02</pdfrwt>
<pdfrwt beam="2">  1       22 0.16665371E+00 0.52053107E+02</pdfrwt>
<totfact> 0.62951524E-01</totfact>
</mgrwt>
</event>
<event>
 4    1  0.2496748E+000  0.8490986E+02  0.7957747E-01  0.1315668E+00
         13   -1    0    0    0    0  0.00000000000E+00  0.00000000000E+00  0.99999944174E+02  0.99999999994E+02  0.10566000000E+00 0. -1.
         22   -1    0    0    0    0 -0.00000000000E+00 -0.00000000000E+00 -0.79374703050E+02  0.79374703050E+02  0.00000000000E+00 0.  1.
         13    1    1    2    0    0 -0.67207979154E+02  0.13884210674E+02 -0.35822155688E+02  0.77413963664E+02  0.10566000000E+00 0.  1.
        996    1    1    2    0    0  0.67207979154E+02 -0.13884210674E+02  0.56447396812E+02  0.10196073938E+03  0.50000000000E+02 0.  0.
<mgrwt>
<rscale>  0 0.84909857E+02</rscale>
<asrwt>0</asrwt>
<pdfrwt beam="1">  1       13 0.10000000E+01 0.84909857E+02</pdfrwt>
<pdfrwt beam="2">  1       22 0.79374709E+00 0.84909857E+02</pdfrwt>
<totfact> 0.32682735E-02</totfact>
</mgrwt>
</event>
<event>
 4    1  0.2496748E+000  0.5548201E+02  0.7957747E-01  0.1417833E+00
         13   -1    0    0    0    0  0.00000000000E+00  0.00000000000E+00  0.99999944180E+02  0.10000000000E+03  0.10566000000E+00 0. -1.
         22   -1    0    0    0    0 -0.00000000000E+00 -0.00000000000E+00 -0.15812256832E+02  0.15812256832E+02  0.00000000000E+00 0. -1.
         13    1    1    2    0    0  0.14718329291E+02 -0.19016417923E+02  0.25344122297E+02  0.34936929842E+02  0.10566000000E+00 0.  1.
        996    1    1    2    0    0 -0.14718329291E+02  0.19016417923E+02  0.58843565051E+02  0.80875326989E+02  0.50000000000E+02 0.  0.
<mgrwt>
<rscale>  0 0.55482009E+02</rscale>
<asrwt>0</asrwt>
<pdfrwt beam="1">  1       13 0.10000000E+01 0.55482009E+02</pdfrwt>
<pdfrwt beam="2">  1       22 0.15812280E+00 0.55482009E+02</pdfrwt>
<totfact> 0.69362237E-01</totfact>
</mgrwt>
</event>
<event>
 4    1  0.2496748E+000  0.5142795E+02  0.7957747E-01  0.1437788E+00
         13   -1    0    0    0    0  0.00000000000E+00  0.00000000000E+00  0.99999944179E+02  0.99999999999E+02  0.10566000000E+00 0. -1.
         22   -1    0    0    0    0 -0.00000000000E+00 -0.00000000000E+00 -0.25547247664E+02  0.25547247664E+02  0.00000000000E+00 0.  1.
         13    1    1    2    0    0  0.77710460907E+01  0.91893925187E+01 -0.16879783381E+02  0.20730951334E+02  0.10566000000E+00 0.  1.
        996    1    1    2    0    0 -0.77710460907E+01 -0.91893925187E+01  0.91332479895E+02  0.10481629633E+03  0.50000000000E+02 0.  0.
<mgrwt>
<rscale>  0 0.51427950E+02</rscale>
<asrwt>0</asrwt>
<pdfrwt beam="1">  1       13 0.10000000E+01 0.51427950E+02</pdfrwt>
<pdfrwt beam="2">  1       22 0.25547268E+00 0.51427950E+02</pdfrwt>
<totfact> 0.28224475E-01</totfact>
</mgrwt>
</event>
<event>
 4    1  0.2496748E+000  0.5759483E+02  0.7957747E-01  0.1408212E+00
         13   -1    0    0    0    0  0.00000000000E+00  0.00000000000E+00  0.99999944175E+02  0.99999999995E+02  0.10566000000E+00 0.  1.
         22   -1    0    0    0    0 -0.00000000000E+00 -0.00000000000E+00 -0.23284640469E+02  0.23284640469E+02  0.00000000000E+00 0.  1.
         13    1    1    2    0    0  0.18713951042E+02 -0.21609086691E+02  0.16011963039E+01  0.28631094720E+02  0.10566000000E+00 0. -1.
        996    1    1    2    0    0 -0.18713951042E+02  0.21609086691E+02  0.75114107402E+02  0.94653545744E+02  0.50000000000E+02 0.  0.
<mgrwt>
<rscale>  0 0.57594831E+02</rscale>
<asrwt>0</asrwt>
<pdfrwt beam="1">  1       13 0.10000000E+01 0.57594831E+02</pdfrwt>
<pdfrwt beam="2">  1       22 0.23284662E+00 0.57594831E+02</pdfrwt>
<totfact> 0.34182090E-01</totfact>
</mgrwt>
</event>
<event>
 4    1  0.2496748E+000  0.6080410E+02  0.7957747E-01  0.1394488E+00
         13   -1    0    0    0    0  0.00000000000E+00  0.00000000000E+00  0.99999944171E+02  0.99999999992E+02  0.10566000000E+00 0. -1.
         22   -1    0    0    0    0 -0.00000000000E+00 -0.00000000000E+00 -0.30165223751E+02  0.30165223751E+02  0.00000000000E+00 0.  1.
         13    1    1    2    0    0 -0.30785305522E+02  0.15792526807E+02 -0.36436388268E+01  0.34791180017E+02  0.10566000000E+00 0.  1.
        996    1    1    2    0    0  0.30785305522E+02 -0.15792526807E+02  0.73478359247E+02  0.95374043726E+02  0.50000000000E+02 0.  0.
<mgrwt>
<rscale>  0 0.60804103E+02</rscale>
<asrwt>0</asrwt>
<pdfrwt beam="1">  1       13 0.10000000E+01 0.60804103E+02</pdfrwt>
<pdfrwt beam="2">  1       22 0.30165243E+00 0.60804103E+02</pdfrwt>
<totfact> 0.20710224E-01</totfact>
</mgrwt>
</event>
<event>
 4    1  0.2496748E+000  0.5874582E+02  0.7957747E-01  0.1403172E+00
         13   -1    0    0    0    0  0.00000000000E+00  0.00000000000E+00  0.99999944178E+02  0.99999999998E+02  0.10566000000E+00 0.  1.
         22   -1    0    0    0    0 -0.00000000000E+00 -0.00000000000E+00 -0.66248814056E+02  0.66248814056E+02  0.00000000000E+00 0. -1.
         13    1    1    2    0    0  0.29261947685E+02 -0.97370473982E+01 -0.53093893338E+02  0.61400686870E+02  0.10566000000E+00 0. -1.
        996    1    1    2    0    0 -0.29261947685E+02  0.97370473982E+01  0.86845023459E+02  0.10484812718E+03  0.50000000000E+02 0.  0.
<mgrwt>
<rscale>  0 0.58745823E+02</rscale>
<asrwt>0</asrwt>
<pdfrwt beam="1">  1       13 0.10000000E+01 0.58745823E+02</pdfrwt>
<pdfrwt beam="2">  1       22 0.66248824E+00 0.58745823E+02</pdfrwt>
<totfact> 0.87189618E-02</totfact>
</mgrwt>
</event>
<event>
 4    1  0.2496748E+000  0.5173797E+02  0.7957747E-01  0.1436187E+00
         13   -1    0    0    0    0  0.00000000000E+00  0.00000000000E+00  0.99999944176E+02  0.99999999996E+02  0.10566000000E+00 0.  1.
         22   -1    0    0    0    0 -0.00000000000E+00 -0.00000000000E+00 -0.10599518141E+02  0.10599518141E+02  0.00000000000E+00 0.  1.
         13    1    1    2    0    0 -0.10749021762E+02  0.78279007365E+01  0.16155837986E+02  0.20924620996E+02  0.10566000000E+00 0. -1.
        996    1    1    2    0    0  0.10749021762E+02 -0.78279007365E+01  0.73244588049E+02  0.89674897141E+02  0.50000000000E+02 0.  0.
<mgrwt>
<rscale>  0 0.51737970E+02</rscale>
<asrwt>0</asrwt>
<pdfrwt beam="1">  1       13 0.10000000E+01 0.51737970E+02</pdfrwt>
<pdfrwt beam="2">  1       22 0.10599543E+00 0.51737970E+02</pdfrwt>
<totfact> 0.12940819E+00</totfact>
</mgrwt>
</event>
<event>
 4    1  0.2496748E+000  0.5203975E+02  0.7957747E-01  0.1434640E+00
         13   -1    0    0    0    0  0.00000000000E+00  0.00000000000E+00  0.99999944177E+02  0.99999999997E+02  0.10566000000E+00 0. -1.
         22   -1    0    0    0    0 -0.00000000000E+00 -0.00000000000E+00 -0.21349224142E+02  0.21349224142E+02  0.00000000000E+00 0.  1.
         13    1    1    2    0    0  0.67307114527E+01  0.12760593525E+02 -0.10690772411E+02  0.17956586606E+02  0.10566000000E+00 0.  1.
        996    1    1    2    0    0 -0.67307114527E+01 -0.12760593525E+02  0.89341492446E+02  0.10339263753E+03  0.50000000000E+02 0.  0.
<mgrwt>
<rscale>  0 0.52039747E+02</rscale>
<asrwt>0</asrwt>
<pdfrwt beam="1">  1       13 0.10000000E+01 0.52039747E+02</pdfrwt>
<pdfrwt beam="2">  1       22 0.21349246E+00 0.52039747E+02</pdfrwt>
<totfact> 0.40061563E-01</totfact>
</mgrwt>
</event>
<event>
 4    1  0.2496748E+000  0.6130447E+02  0.7957747E-01  0.1392438E+00
         13   -1    0    0    0    0  0.00000000000E+00  0.00000000000E+00  0.99999944183E+02  0.10000000000E+03  0.10566000000E+00 0.  1.
         22   -1    0    0    0    0 -0.00000000000E+00 -0.00000000000E+00 -0.32751811964E+02  0.32751811964E+02  0.00000000000E+00 0. -1.
         13    1    1    2    0    0  0.23315288315E+02  0.26732667612E+02 -0.73194534936E+01  0.36219107531E+02  0.10566000000E+00 0. -1.
        996    1    1    2    0    0 -0.23315288315E+02 -0.26732667612E+02  0.74567585712E+02  0.96532704436E+02  0.50000000000E+02 0.  0.
<mgrwt>
<rscale>  0 0.61304471E+02</rscale>
<asrwt>0</asrwt>
<pdfrwt beam="1">  1       13 0.10000000E+01 0.61304471E+02</pdfrwt>
<pdfrwt beam="2">  1       22 0.32751831E+00 0.61304471E+02</pdfrwt>
<totfact> 0.17828752E-01</totfact>
</mgrwt>
</event>
<event>
 4    1  0.2496748E+000  0.5361117E+02  0.7957747E-01  0.1426783E+00
         13   -1    0    0    0    0  0.00000000000E+00  0.00000000000E+00  0.99999944176E+02  0.99999999996E+02  0.10566000000E+00 0.  1.
         22   -1    0    0    0    0 -0.00000000000E+00 -0.00000000000E+00 -0.13599719776E+02  0.13599719776E+02  0.00000000000E+00 0.  1.
         13    1    1    2    0    0 -0.89384388759E+01 -0.17154071924E+02  0.30739561524E+02  0.36319274220E+02  0.10566000000E+00 0. -1.
        996    1    1    2    0    0  0.89384388759E+01  0.17154071924E+02  0.55660662875E+02  0.77280445553E+02  0.50000000000E+02 0.  0.
<mgrwt>
<rscale>  0 0.53611173E+02</rscale>
<asrwt>0</asrwt>
<pdfrwt beam="1">  1       13 0.10000000E+01 0.53611173E+02</pdfrwt>
<pdfrwt beam="2">  1       22 0.13599744E+00 0.53611173E+02</pdfrwt>
<totfact> 0.88661574E-01</totfact>
</mgrwt>
</event>
<event>
 4    1  0.2496748E+000  0.5147492E+02  0.7957747E-01  0.1437545E+00
         13   -1    0    0    0    0  0.00000000000E+00  0.00000000000E+00  0.99999944181E+02  0.10000000000E+03  0.10566000000E+00 0. -1.
         22   -1    0    0    0    0 -0.00000000000E+00 -0.00000000000E+00 -0.24794076920E+02  0.24794076920E+02  0.00000000000E+00 0.  1.
         13    1    1    2    0    0 -0.79235084771E+01 -0.93212424405E+01 -0.15954072673E+02  0.20105003012E+02  0.10566000000E+00 0.  1.
        996    1    1    2    0    0  0.79235084771E+01  0.93212424405E+01  0.91159939934E+02  0.10468907391E+03  0.50000000000E+02 0.  0.
<mgrwt>
<rscale>  0 0.51474922E+02</rscale>
<asrwt>0</asrwt>
<pdfrwt beam="1">  1       13 0.10000000E+01 0.51474922E+02</pdfrwt>
<pdfrwt beam="2">  1       22 0.24794098E+00 0.51474922E+02</pdfrwt>
<totfact> 0.29937801E-01</totfact>
</mgrwt>
</event>
<event>
 4    1  0.2496748E+000  0.5214305E+02  0.7957747E-01  0.1434114E+00
         13   -1    0    0    0    0  0.00000000000E+00  0.00000000000E+00  0.99999944179E+02  0.99999999999E+02  0.10566000000E+00 0. -1.
         22   -1    0    0    0    0 -0.00000000000E+00 -0.00000000000E+00 -0.34946207734E+02  0.34946207734E+02  0.00000000000E+00 0.  1.
         13    1    1    2    0    0 -0.14862367806E+01  0.14720340298E+02 -0.26059959590E+02  0.29967148281E+02  0.10566000000E+00 0.  1.
        996    1    1    2    0    0  0.14862367806E+01 -0.14720340298E+02  0.91113696035E+02  0.10497905945E+03  0.50000000000E+02 0.  0.
<mgrwt>
<rscale>  0 0.52143047E+02</rscale>
<asrwt>0</asrwt>
<pdfrwt beam="1">  1       13 0.10000000E+01 0.52143047E+02</pdfrwt>
<pdfrwt beam="2">  1       22 0.34946226E+00 0.52143047E+02</pdfrwt>
<totfact> 0.15758856E-01</totfact>
</mgrwt>
</event>
<event>
 4    1  0.2496748E+000  0.5177057E+02  0.7957747E-01  0.1436019E+00
         13   -1    0    0    0    0  0.00000000000E+00  0.00000000000E+00  0.99999944181E+02  0.10000000000E+03  0.10566000000E+00 0.  1.
         22   -1    0    0    0    0 -0.00000000000E+00 -0.00000000000E+00 -0.21201418101E+02  0.21201418101E+02  0.00000000000E+00 0. -1.
         13    1    1    2    0    0 -0.68756633236E+01 -0.11528972810E+02 -0.11128520379E+02  0.17436946122E+02  0.10566000000E+00 0. -1.
        996    1    1    2    0    0  0.68756633236E+01  0.11528972810E+02  0.89927046459E+02  0.10376447198E+03  0.50000000000E+02 0.  0.
<mgrwt>
<rscale>  0 0.51770570E+02</rscale>
<asrwt>0</asrwt>
<pdfrwt beam="1">  1       13 0.10000000E+01 0.51770570E+02</pdfrwt>
<pdfrwt beam="2">  1       22 0.21201440E+00 0.51770570E+02</pdfrwt>
<totfact> 0.40575923E-01</totfact>
</mgrwt>
</event>
<event>
 4    1  0.2496748E+000  0.5117261E+02  0.7957747E-01  0.1439118E+00
         13   -1    0    0    0    0  0.00000000000E+00  0.00000000000E+00  0.99999944174E+02  0.99999999994E+02  0.10566000000E+00 0. -1.
         22   -1    0    0    0    0 -0.00000000000E+00 -0.00000000000E+00 -0.10866297722E+02  0.10866297722E+02  0.00000000000E+00 0. -1.
         13    1    1    2    0    0 -0.10892026129E+02 -0.97932703515E-02  0.41322912632E+01  0.11650035375E+02  0.10566000000E+00 0.  1.
        996    1    1    2    0    0  0.10892026129E+02  0.97932703515E-02  0.85001355188E+02  0.99216262341E+02  0.50000000000E+02 0.  0.
<mgrwt>
<rscale>  0 0.51172613E+02</rscale>
<asrwt>0</asrwt>
<pdfrwt beam="1">  1       13 0.10000000E+01 0.51172613E+02</pdfrwt>
<pdfrwt beam="2">  1       22 0.10866323E+00 0.51172613E+02</pdfrwt>
<totfact> 0.12457764E+00</totfact>
</mgrwt>
</event>
<event>
 4    1  0.2496748E+000  0.5175060E+02  0.7957747E-01  0.1436122E+00
         13   -1    0    0    0    0  0.00000000000E+00  0.00000000000E+00  0.99999944175E+02  0.99999999995E+02  0.10566000000E+00 0.  1.
         22   -1    0    0    0    0 -0.00000000000E+00 -0.00000000000E+00 -0.11353262691E+02  0.11353262691E+02  0.00000000000E+00 0.  1.
         13    1    1    2    0    0 -0.30760297632E+01 -0.12987010755E+02  0.31753732739E+02  0.34444667430E+02  0.10566000000E+00 0. -1.
        996    1    1    2    0    0  0.30760297632E+01  0.12987010755E+02  0.56892948745E+02  0.76908595257E+02  0.50000000000E+02 0.  0.
<mgrwt>
<rscale>  0 0.51750598E+02</rscale>
<asrwt>0</asrwt>
<pdfrwt beam="1">  1       13 0.10000000E+01 0.51750598E+02</pdfrwt>
<pdfrwt beam="2">  1       22 0.11353287E+00 0.51750598E+02</pdfrwt>
<totfact> 0.11684766E+00</totfact>
</mgrwt>
</event>
<event>
 4    1  0.2496748E+000  0.5253627E+02  0.7957747E-01  0.1432123E+00
         13   -1    0    0    0    0  0.00000000000E+00  0.00000000000E+00  0.99999944178E+02  0.99999999999E+02  0.10566000000E+00 0. -1.
         22   -1    0    0    0    0 -0.00000000000E+00 -0.00000000000E+00 -0.15306627910E+02  0.15306627910E+02  0.00000000000E+00 0. -1.
         13    1    1    2    0    0  0.15596262605E+02 -0.41007356701E+01  0.49528331537E+02  0.52087678285E+02  0.10566000000E+00 0.  1.
        996    1    1    2    0    0 -0.15596262605E+02  0.41007356701E+01  0.35164984732E+02  0.63218949623E+02  0.50000000000E+02 0.  0.
<mgrwt>
<rscale>  0 0.52536268E+02</rscale>
<asrwt>0</asrwt>
<pdfrwt beam="1">  1       13 0.10000000E+01 0.52536268E+02</pdfrwt>
<pdfrwt beam="2">  1       22 0.15306652E+00 0.52536268E+02</pdfrwt>
<totfact> 0.72866583E-01</totfact>
</mgrwt>
</event>
<event>
 4    1  0.2496748E+000  0.5585906E+02  0.7957747E-01  0.1416079E+00
         13   -1    0    0    0    0  0.00000000000E+00  0.00000000000E+00  0.99999944179E+02  0.99999999999E+02  0.10566000000E+00 0. -1.
         22   -1    0    0    0    0 -0.00000000000E+00 -0.00000000000E+00 -0.16348145703E+02  0.16348145703E+02  0.00000000000E+00 0.  1.
         13    1    1    2    0    0 -0.21601908931E+02  0.12393228074E+02  0.28533449386E+02  0.37873519369E+02  0.10566000000E+00 0.  1.
        996    1    1    2    0    0  0.21601908931E+02 -0.12393228074E+02  0.55118349091E+02  0.78474626332E+02  0.50000000000E+02 0.  0.
<mgrwt>
<rscale>  0 0.55859060E+02</rscale>
<asrwt>0</asrwt>
<pdfrwt beam="1">  1       13 0.10000000E+01 0.55859060E+02</pdfrwt>
<pdfrwt beam="2">  1       22 0.16348169E+00 0.55859060E+02</pdfrwt>
<totfact> 0.65552142E-01</totfact>
</mgrwt>
</event>
<event>
 4    1  0.2496748E+000  0.5557497E+02  0.7957747E-01  0.1417399E+00
         13   -1    0    0    0    0  0.00000000000E+00  0.00000000000E+00  0.99999944180E+02  0.10000000000E+03  0.10566000000E+00 0. -1.
         22   -1    0    0    0    0 -0.00000000000E+00 -0.00000000000E+00 -0.16014982304E+02  0.16014982304E+02  0.00000000000E+00 0. -1.
         13    1    1    2    0    0  0.91123473116E+01 -0.22484277867E+02  0.29391977656E+02  0.38111378082E+02  0.10566000000E+00 0.  1.
        996    1    1    2    0    0 -0.91123473116E+01  0.22484277867E+02  0.54592984220E+02  0.77903604222E+02  0.50000000000E+02 0.  0.
<mgrwt>
<rscale>  0 0.55574973E+02</rscale>
<asrwt>0</asrwt>
<pdfrwt beam="1">  1       13 0.10000000E+01 0.55574973E+02</pdfrwt>
<pdfrwt beam="2">  1       22 0.16015006E+00 0.55574973E+02</pdfrwt>
<totfact> 0.67880428E-01</totfact>
</mgrwt>
</event>
<event>
 4    1  0.2496748E+000  0.5556095E+02  0.7957747E-01  0.1417465E+00
         13   -1    0    0    0    0  0.00000000000E+00  0.00000000000E+00  0.99999944179E+02  0.99999999999E+02  0.10566000000E+00 0. -1.
         22   -1    0    0    0    0 -0.00000000000E+00 -0.00000000000E+00 -0.22966493527E+02  0.22966493527E+02  0.00000000000E+00 0.  1.
         13    1    1    2    0    0  0.56445388749E+01  0.23561789476E+02 -0.41593363333E+01  0.24583123991E+02  0.10566000000E+00 0.  1.
        996    1    1    2    0    0 -0.56445388749E+01 -0.23561789476E+02  0.81192786986E+02  0.98383369534E+02  0.50000000000E+02 0.  0.
<mgrwt>
<rscale>  0 0.55560946E+02</rscale>
<asrwt>0</asrwt>
<pdfrwt beam="1">  1       13 0.10000000E+01 0.55560946E+02</pdfrwt>
<pdfrwt beam="2">  1       22 0.22966515E+00 0.55560946E+02</pdfrwt>
<totfact> 0.35004018E-01</totfact>
</mgrwt>
</event>
<event>
 4    1  0.2496748E+000  0.5375560E+02  0.7957747E-01  0.1426077E+00
         13   -1    0    0    0    0  0.00000000000E+00  0.00000000000E+00  0.99999944177E+02  0.99999999997E+02  0.10566000000E+00 0.  1.
         22   -1    0    0    0    0 -0.00000000000E+00 -0.00000000000E+00 -0.14372386181E+02  0.14372386181E+02  0.00000000000E+00 0. -1.
         13    1    1    2    0    0 -0.33690076621E+01  0.19450310503E+02  0.36758127033E+02  0.41723325111E+02  0.10566000000E+00 0. -1.
        996    1    1    2    0    0  0.33690076621E+01 -0.19450310503E+02  0.48869430963E+02  0.72649061067E+02  0.50000000000E+02 0.  0.
<mgrwt>
<rscale>  0 0.53755602E+02</rscale>
<asrwt>0</asrwt>
<pdfrwt beam="1">  1       13 0.10000000E+01 0.53755602E+02</pdfrwt>
<pdfrwt beam="2">  1       22 0.14372410E+00 0.53755602E+02</pdfrwt>
<totfact> 0.81087973E-01</totfact>
</mgrwt>
</event>
<event>
 4    1  0.2496748E+000  0.5151756E+02  0.7957747E-01  0.1437324E+00
         13   -1    0    0    0    0  0.00000000000E+00  0.00000000000E+00  0.99999944181E+02  0.10000000000E+03  0.10566000000E+00 0.  1.
         22   -1    0    0    0    0 -0.00000000000E+00 -0.00000000000E+00 -0.10229937464E+02  0.10229937464E+02  0.00000000000E+00 0.  1.
         13    1    1    2    0    0  0.12412058702E+02 -0.14222345164E-02  0.18976740726E+02  0.22675693062E+02  0.10566000000E+00 0. -1.
        996    1    1    2    0    0 -0.12412058702E+02  0.14222345164E-02  0.70793265991E+02  0.87554244403E+02  0.50000000000E+02 0.  0.
<mgrwt>
<rscale>  0 0.51517562E+02</rscale>
<asrwt>0</asrwt>
<pdfrwt beam="1">  1       13 0.10000000E+01 0.51517562E+02</pdfrwt>
<pdfrwt beam="2">  1       22 0.10229963E+00 0.51517562E+02</pdfrwt>
<totfact> 0.13624021E+00</totfact>
</mgrwt>
</event>
<event>
 4    1  0.2496748E+000  0.5167705E+02  0.7957747E-01  0.1436500E+00
         13   -1    0    0    0    0  0.00000000000E+00  0.00000000000E+00  0.99999944179E+02  0.99999999999E+02  0.10566000000E+00 0. -1.
         22   -1    0    0    0    0 -0.00000000000E+00 -0.00000000000E+00 -0.37309303500E+02  0.37309303500E+02  0.00000000000E+00 0.  1.
         13    1    1    2    0    0  0.10019439265E+02  0.83742859762E+01 -0.29142497415E+02  0.31934529093E+02  0.10566000000E+00 0.  1.
        996    1    1    2    0    0 -0.10019439265E+02 -0.83742859762E+01  0.91833138094E+02  0.10537477441E+03  0.50000000000E+02 0.  0.
<mgrwt>
<rscale>  0 0.51677053E+02</rscale>
<asrwt>0</asrwt>
<pdfrwt beam="1">  1       13 0.10000000E+01 0.51677053E+02</pdfrwt>
<pdfrwt beam="2">  1       22 0.37309321E+00 0.51677053E+02</pdfrwt>
<totfact> 0.14043604E-01</totfact>
</mgrwt>
</event>
<event>
 4    1  0.2496748E+000  0.5426107E+02  0.7957747E-01  0.1423626E+00
         13   -1    0    0    0    0  0.00000000000E+00  0.00000000000E+00  0.99999944179E+02  0.99999999999E+02  0.10566000000E+00 0.  1.
         22   -1    0    0    0    0 -0.00000000000E+00 -0.00000000000E+00 -0.25177827221E+02  0.25177827221E+02  0.00000000000E+00 0. -1.
         13    1    1    2    0    0  0.12237135701E+02 -0.17161460080E+02 -0.10897124671E+02  0.23728078144E+02  0.10566000000E+00 0. -1.
        996    1    1    2    0    0 -0.12237135701E+02  0.17161460080E+02  0.85719241629E+02  0.10144974908E+03  0.50000000000E+02 0.  0.
<mgrwt>
<rscale>  0 0.54261065E+02</rscale>
<asrwt>0</asrwt>
<pdfrwt beam="1">  1       13 0.10000000E+01 0.54261065E+02</pdfrwt>
<pdfrwt beam="2">  1       22 0.25177848E+00 0.54261065E+02</pdfrwt>
<totfact> 0.29171592E-01</totfact>
</mgrwt>
</event>
<event>
 4    1  0.2496748E+000  0.5665922E+02  0.7957747E-01  0.1412411E+00
         13   -1    0    0    0    0  0.00000000000E+00  0.00000000000E+00  0.99999944183E+02  0.10000000000E+03  0.10566000000E+00 0. -1.
         22   -1    0    0    0    0 -0.00000000000E+00 -0.00000000000E+00 -0.47599854976E+02  0.47599854976E+02  0.00000000000E+00 0.  1.
         13    1    1    2    0    0  0.23005639114E+02 -0.13453920089E+02 -0.34662737912E+02  0.43723951792E+02  0.10566000000E+00 0.  1.
        996    1    1    2    0    0 -0.23005639114E+02  0.13453920089E+02  0.87062827119E+02  0.10387590319E+03  0.50000000000E+02 0.  0.
<mgrwt>
<rscale>  0 0.56659222E+02</rscale>
<asrwt>0</asrwt>
<pdfrwt beam="1">  1       13 0.10000000E+01 0.56659222E+02</pdfrwt>
<pdfrwt beam="2">  1       22 0.47599870E+00 0.56659222E+02</pdfrwt>
<totfact> 0.84276077E-02</totfact>
</mgrwt>
</event>
<event>
 4    1  0.2496748E+000  0.5160262E+02  0.7957747E-01  0.1436884E+00
         13   -1    0    0    0    0  0.00000000000E+00  0.00000000000E+00  0.99999944184E+02  0.10000000000E+03  0.10566000000E+00 0. -1.
         22   -1    0    0    0    0 -0.00000000000E+00 -0.00000000000E+00 -0.16837928657E+02  0.16837928657E+02  0.00000000000E+00 0. -1.
         13    1    1    2    0    0 -0.12746643863E+02  0.59425755420E+00 -0.57811201720E+01  0.14009374943E+02  0.10566000000E+00 0.  1.
        996    1    1    2    0    0  0.12746643863E+02 -0.59425755420E+00  0.88943135698E+02  0.10282855372E+03  0.50000000000E+02 0.  0.
<mgrwt>
<rscale>  0 0.51602617E+02</rscale>
<asrwt>0</asrwt>
<pdfrwt beam="1">  1       13 0.10000000E+01 0.51602617E+02</pdfrwt>
<pdfrwt beam="2">  1       22 0.16837952E+00 0.51602617E+02</pdfrwt>
<totfact> 0.61777575E-01</totfact>
</mgrwt>
</event>
<event>
 4    1  0.2496748E+000  0.5239423E+02  0.7957747E-01  0.1432840E+00
         13   -1    0    0    0    0  0.00000000000E+00  0.00000000000E+00  0.99999944175E+02  0.99999999995E+02  0.10566000000E+00 0.  1.
         22   -1    0    0    0    0 -0.00000000000E+00 -0.00000000000E+00 -0.11865294198E+02  0.11865294198E+02  0.00000000000E+00 0.  1.
         13    1    1    2    0    0 -0.13302859290E+02  0.82576868672E+01  0.13488237744E+02  0.20666377988E+02  0.10566000000E+00 0. -1.
        996    1    1    2    0    0  0.13302859290E+02 -0.82576868672E+01  0.74646412233E+02  0.91198916205E+02  0.50000000000E+02 0.  0.
<mgrwt>
<rscale>  0 0.52394231E+02</rscale>
<asrwt>0</asrwt>
<pdfrwt beam="1">  1       13 0.10000000E+01 0.52394231E+02</pdfrwt>
<pdfrwt beam="2">  1       22 0.11865319E+00 0.52394231E+02</pdfrwt>
<totfact> 0.10946183E+00</totfact>
</mgrwt>
</event>
<event>
 4    1  0.2496748E+000  0.5099255E+02  0.7957747E-01  0.1440060E+00
         13   -1    0    0    0    0  0.00000000000E+00  0.00000000000E+00  0.99999944182E+02  0.10000000000E+03  0.10566000000E+00 0.  1.
         22   -1    0    0    0    0 -0.00000000000E+00 -0.00000000000E+00 -0.10010006054E+02  0.10010006054E+02  0.00000000000E+00 0.  1.
         13    1    1    2    0    0  0.95357842286E+01 -0.30511287216E+01  0.57710984203E+01  0.11556699717E+02  0.10566000000E+00 0. -1.
        996    1    1    2    0    0 -0.95357842286E+01  0.30511287216E+01  0.84218839708E+02  0.98453306339E+02  0.50000000000E+02 0.  0.
<mgrwt>
<rscale>  0 0.50992554E+02</rscale>
<asrwt>0</asrwt>
<pdfrwt beam="1">  1       13 0.10000000E+01 0.50992554E+02</pdfrwt>
<pdfrwt beam="2">  1       22 0.10010031E+00 0.50992554E+02</pdfrwt>
<totfact> 0.14043133E+00</totfact>
</mgrwt>
</event>
<event>
 4    1  0.2496748E+000  0.8059238E+02  0.7957747E-01  0.1327379E+00
         13   -1    0    0    0    0  0.00000000000E+00  0.00000000000E+00  0.99999944183E+02  0.10000000000E+03  0.10566000000E+00 0.  1.
         22   -1    0    0    0    0 -0.00000000000E+00 -0.00000000000E+00 -0.59022397663E+02  0.59022397663E+02  0.00000000000E+00 0. -1.
         13    1    1    2    0    0 -0.55352282915E+01 -0.62964219203E+02 -0.95147571532E+01  0.63919272679E+02  0.10566000000E+00 0. -1.
        996    1    1    2    0    0  0.55352282915E+01  0.62964219203E+02  0.50492303674E+02  0.95103124987E+02  0.50000000000E+02 0.  0.
<mgrwt>
<rscale>  0 0.80592380E+02</rscale>
<asrwt>0</asrwt>
<pdfrwt beam="1">  1       13 0.10000000E+01 0.80592380E+02</pdfrwt>
<pdfrwt beam="2">  1       22 0.59022409E+00 0.80592380E+02</pdfrwt>
<totfact> 0.60703294E-02</totfact>
</mgrwt>
</event>
<event>
 4    1  0.2496748E+000  0.5399193E+02  0.7957747E-01  0.1424927E+00
         13   -1    0    0    0    0  0.00000000000E+00  0.00000000000E+00  0.99999944177E+02  0.99999999997E+02  0.10566000000E+00 0. -1.
         22   -1    0    0    0    0 -0.00000000000E+00 -0.00000000000E+00 -0.15786046425E+02  0.15786046425E+02  0.00000000000E+00 0. -1.
         13    1    1    2    0    0 -0.16187060013E+02 -0.12373670649E+02  0.69521841795E+01  0.21528415318E+02  0.10566000000E+00 0.  1.
        996    1    1    2    0    0  0.16187060013E+02  0.12373670649E+02  0.77261713573E+02  0.94257631104E+02  0.50000000000E+02 0.  0.
<mgrwt>
<rscale>  0 0.53991931E+02</rscale>
<asrwt>0</asrwt>
<pdfrwt beam="1">  1       13 0.10000000E+01 0.53991931E+02</pdfrwt>
<pdfrwt beam="2">  1       22 0.15786070E+00 0.53991931E+02</pdfrwt>
<totfact> 0.69362797E-01</totfact>
</mgrwt>
</event>
<event>
 4    1  0.2496748E+000  0.6031676E+02  0.7957747E-01  0.1396507E+00
         13   -1    0    0    0    0  0.00000000000E+00  0.00000000000E+00  0.99999944176E+02  0.99999999996E+02  0.10566000000E+00 0.  1.
         22   -1    0    0    0    0 -0.00000000000E+00 -0.00000000000E+00 -0.35051218519E+02  0.35051218519E+02  0.00000000000E+00 0. -1.
         13    1    1    2    0    0 -0.76973486594E+01 -0.32846031350E+02 -0.13291784448E+02  0.36260083421E+02  0.10566000000E+00 0. -1.
        996    1    1    2    0    0  0.76973486594E+01  0.32846031350E+02  0.78240510104E+02  0.98791135094E+02  0.50000000000E+02 0.  0.
<mgrwt>
<rscale>  0 0.60316755E+02</rscale>
<asrwt>0</asrwt>
<pdfrwt beam="1">  1       13 0.10000000E+01 0.60316755E+02</pdfrwt>
<pdfrwt beam="2">  1       22 0.35051237E+00 0.60316755E+02</pdfrwt>
<totfact> 0.15799597E-01</totfact>
</mgrwt>
</event>
<event>
 4    1  0.2496748E+000  0.5240931E+02  0.7957747E-01  0.1432763E+00
         13   -1    0    0    0    0  0.00000000000E+00  0.00000000000E+00  0.99999944179E+02  0.10000000000E+03  0.10566000000E+00 0. -1.
         22   -1    0    0    0    0 -0.00000000000E+00 -0.00000000000E+00 -0.15572603638E+02  0.15572603638E+02  0.00000000000E+00 0.  1.
         13    1    1    2    0    0  0.15178043379E+02  0.40451507499E+01 -0.56746690127E+00  0.15718442294E+02  0.10566000000E+00 0.  1.
        996    1    1    2    0    0 -0.15178043379E+02 -0.40451507499E+01  0.84994807443E+02  0.99854161344E+02  0.50000000000E+02 0.  0.
<mgrwt>
<rscale>  0 0.52409314E+02</rscale>
<asrwt>0</asrwt>
<pdfrwt beam="1">  1       13 0.10000000E+01 0.52409314E+02</pdfrwt>
<pdfrwt beam="2">  1       22 0.15572627E+00 0.52409314E+02</pdfrwt>
<totfact> 0.70763857E-01</totfact>
</mgrwt>
</event>
<event>
 4    1  0.2496748E+000  0.5237213E+02  0.7957747E-01  0.1432951E+00
         13   -1    0    0    0    0  0.00000000000E+00  0.00000000000E+00  0.99999944179E+02  0.99999999999E+02  0.10566000000E+00 0.  1.
         22   -1    0    0    0    0 -0.00000000000E+00 -0.00000000000E+00 -0.49754518898E+02  0.49754518898E+02  0.00000000000E+00 0. -1.
         13    1    1    2    0    0 -0.95514372266E+01  0.12312997732E+02 -0.41380210132E+02  0.44217336203E+02  0.10566000000E+00 0. -1.
        996    1    1    2    0    0  0.95514372266E+01 -0.12312997732E+02  0.91625635413E+02  0.10553718269E+03  0.50000000000E+02 0.  0.
<mgrwt>
<rscale>  0 0.52372129E+02</rscale>
<asrwt>0</asrwt>
<pdfrwt beam="1">  1       13 0.10000000E+01 0.52372129E+02</pdfrwt>
<pdfrwt beam="2">  1       22 0.49754533E+00 0.52372129E+02</pdfrwt>
<totfact> 0.74629922E-02</totfact>
</mgrwt>
</event>
<event>
 4    1  0.2496748E+000  0.5272765E+02  0.7957747E-01  0.1431161E+00
         13   -1    0    0    0    0  0.00000000000E+00  0.00000000000E+00  0.99999944173E+02  0.99999999994E+02  0.10566000000E+00 0. -1.
         22   -1    0    0    0    0 -0.00000000000E+00 -0.00000000000E+00 -0.18952895431E+02  0.18952895431E+02  0.00000000000E+00 0.  1.
         13    1    1    2    0    0 -0.56997605936E+01 -0.15739045941E+02 -0.54904780785E+01  0.17617075567E+02  0.10566000000E+00 0.  1.
        996    1    1    2    0    0  0.56997605936E+01  0.15739045941E+02  0.86537526821E+02  0.10133581986E+03  0.50000000000E+02 0.  0.
<mgrwt>
<rscale>  0 0.52727648E+02</rscale>
<asrwt>0</asrwt>
<pdfrwt beam="1">  1       13 0.10000000E+01 0.52727648E+02</pdfrwt>
<pdfrwt beam="2">  1       22 0.18952918E+00 0.52727648E+02</pdfrwt>
<totfact> 0.50106837E-01</totfact>
</mgrwt>
</event>
<event>
 4    1  0.2496748E+000  0.5284676E+02  0.7957747E-01  0.1430565E+00
         13   -1    0    0    0    0  0.00000000000E+00  0.00000000000E+00  0.99999944182E+02  0.10000000000E+03  0.10566000000E+00 0. -1.
         22   -1    0    0    0    0 -0.00000000000E+00 -0.00000000000E+00 -0.15787375282E+02  0.15787375282E+02  0.00000000000E+00 0. -1.
         13    1    1    2    0    0  0.14082747994E+02 -0.97188377076E+01  0.90915245857E+00  0.17135265381E+02  0.10566000000E+00 0.  1.
        996    1    1    2    0    0 -0.14082747994E+02  0.97188377076E+01  0.83303416441E+02  0.98652109903E+02  0.50000000000E+02 0.  0.
<mgrwt>
<rscale>  0 0.52846756E+02</rscale>
<asrwt>0</asrwt>
<pdfrwt beam="1">  1       13 0.10000000E+01 0.52846756E+02</pdfrwt>
<pdfrwt beam="2">  1       22 0.15787399E+00 0.52846756E+02</pdfrwt>
<totfact> 0.69198735E-01</totfact>
</mgrwt>
</event>
<event>
 4    1  0.2496748E+000  0.6886665E+02  0.7957747E-01  0.1363990E+00
         13   -1    0    0    0    0  0.00000000000E+00  0.00000000000E+00  0.99999944183E+02  0.10000000000E+03  0.10566000000E+00 0. -1.
         22   -1    0    0    0    0 -0.00000000000E+00 -0.00000000000E+00 -0.69916934329E+02  0.69916934329E+02  0.00000000000E+00 0.  1.
         13    1    1    2    0    0 -0.42593241337E+02  0.20698596580E+02 -0.46883416459E+02  0.66638442441E+02  0.10566000000E+00 0.  1.
        996    1    1    2    0    0  0.42593241337E+02 -0.20698596580E+02  0.76966426314E+02  0.10327849189E+03  0.50000000000E+02 0.  0.
<mgrwt>
<rscale>  0 0.68866655E+02</rscale>
<asrwt>0</asrwt>
<pdfrwt beam="1">  1       13 0.10000000E+01 0.68866655E+02</pdfrwt>
<pdfrwt beam="2">  1       22 0.69916943E+00 0.68866655E+02</pdfrwt>
<totfact> 0.75052923E-02</totfact>
</mgrwt>
</event>
<event>
 4    1  0.2496748E+000  0.6302544E+02  0.7957747E-01  0.1385557E+00
         13   -1    0    0    0    0  0.00000000000E+00  0.00000000000E+00  0.99999944184E+02  0.10000000000E+03  0.10566000000E+00 0.  1.
         22   -1    0    0    0    0 -0.00000000000E+00 -0.00000000000E+00 -0.29329179950E+02  0.29329179950E+02  0.00000000000E+00 0.  1.
         13    1    1    2    0    0  0.20587553237E+02  0.32378362218E+02  0.56629071057E+01  0.38785117882E+02  0.10566000000E+00 0. -1.
        996    1    1    2    0    0 -0.20587553237E+02 -0.32378362218E+02  0.65007857128E+02  0.90544062072E+02  0.50000000000E+02 0.  0.
<mgrwt>
<rscale>  0 0.63025437E+02</rscale>
<asrwt>0</asrwt>
<pdfrwt beam="1">  1       13 0.10000000E+01 0.63025437E+02</pdfrwt>
<pdfrwt beam="2">  1       22 0.29329200E+00 0.63025437E+02</pdfrwt>
<totfact> 0.21896296E-01</totfact>
</mgrwt>
</event>
<event>
 4    1  0.2496748E+000  0.5161327E+02  0.7957747E-01  0.1436829E+00
         13   -1    0    0    0    0  0.00000000000E+00  0.00000000000E+00  0.99999944179E+02  0.10000000000E+03  0.10566000000E+00 0.  1.
         22   -1    0    0    0    0 -0.00000000000E+00 -0.00000000000E+00 -0.13609745012E+02  0.13609745012E+02  0.00000000000E+00 0. -1.
         13    1    1    2    0    0  0.99685639741E+01  0.80347830015E+01 -0.19830157371E+00  0.12805486837E+02  0.10566000000E+00 0. -1.
        996    1    1    2    0    0 -0.99685639741E+01 -0.80347830015E+01  0.86588500741E+02  0.10080425817E+03  0.50000000000E+02 0.  0.
<mgrwt>
<rscale>  0 0.51613274E+02</rscale>
<asrwt>0</asrwt>
<pdfrwt beam="1">  1       13 0.10000000E+01 0.51613274E+02</pdfrwt>
<pdfrwt beam="2">  1       22 0.13609769E+00 0.51613274E+02</pdfrwt>
<totfact> 0.88186112E-01</totfact>
</mgrwt>
</event>
<event>
 4    1  0.2496748E+000  0.5365435E+02  0.7957747E-01  0.1426572E+00
         13   -1    0    0    0    0  0.00000000000E+00  0.00000000000E+00  0.99999944178E+02  0.99999999999E+02  0.10566000000E+00 0.  1.
         22   -1    0    0    0    0 -0.00000000000E+00 -0.00000000000E+00 -0.13702376283E+02  0.13702376283E+02  0.00000000000E+00 0.  1.
         13    1    1    2    0    0  0.92706945509E+01  0.17112660499E+02  0.15558424394E+02  0.24917155946E+02  0.10566000000E+00 0. -1.
        996    1    1    2    0    0 -0.92706945509E+01 -0.17112660499E+02  0.70739143501E+02  0.88785220336E+02  0.50000000000E+02 0.  0.
<mgrwt>
<rscale>  0 0.53654347E+02</rscale>
<asrwt>0</asrwt>
<pdfrwt beam="1">  1       13 0.10000000E+01 0.53654347E+02</pdfrwt>
<pdfrwt beam="2">  1       22 0.13702400E+00 0.53654347E+02</pdfrwt>
<totfact> 0.87605075E-01</totfact>
</mgrwt>
</event>
<event>
 4    1  0.2496748E+000  0.5105562E+02  0.7957747E-01  0.1439730E+00
         13   -1    0    0    0    0  0.00000000000E+00  0.00000000000E+00  0.99999944184E+02  0.10000000000E+03  0.10566000000E+00 0.  1.
         22   -1    0    0    0    0 -0.00000000000E+00 -0.00000000000E+00 -0.16133022312E+02  0.16133022312E+02  0.00000000000E+00 0.  1.
         13    1    1    2    0    0  0.11867005339E+01  0.10260034353E+02 -0.65971704710E+01  0.12256034650E+02  0.10566000000E+00 0. -1.
        996    1    1    2    0    0 -0.11867005339E+01 -0.10260034353E+02  0.90464092343E+02  0.10387698767E+03  0.50000000000E+02 0.  0.
<mgrwt>
<rscale>  0 0.51055622E+02</rscale>
<asrwt>0</asrwt>
<pdfrwt beam="1">  1       13 0.10000000E+01 0.51055622E+02</pdfrwt>
<pdfrwt beam="2">  1       22 0.16133046E+00 0.51055622E+02</pdfrwt>
<totfact> 0.66448446E-01</totfact>
</mgrwt>
</event>
<event>
 4    1  0.2496748E+000  0.6358551E+02  0.7957747E-01  0.1383373E+00
         13   -1    0    0    0    0  0.00000000000E+00  0.00000000000E+00  0.99999944177E+02  0.99999999997E+02  0.10566000000E+00 0.  1.
         22   -1    0    0    0    0 -0.00000000000E+00 -0.00000000000E+00 -0.31741118516E+02  0.31741118516E+02  0.00000000000E+00 0. -1.
         13    1    1    2    0    0 -0.30985368660E+02 -0.24145893987E+02  0.11597803294E+01  0.39299790354E+02  0.10566000000E+00 0. -1.
        996    1    1    2    0    0  0.30985368660E+02  0.24145893987E+02  0.67099045332E+02  0.92441328159E+02  0.50000000000E+02 0.  0.
<mgrwt>
<rscale>  0 0.63585511E+02</rscale>
<asrwt>0</asrwt>
<pdfrwt beam="1">  1       13 0.10000000E+01 0.63585511E+02</pdfrwt>
<pdfrwt beam="2">  1       22 0.31741138E+00 0.63585511E+02</pdfrwt>
<totfact> 0.18907303E-01</totfact>
</mgrwt>
</event>
<event>
 4    1  0.2496748E+000  0.5135023E+02  0.7957747E-01  0.1438192E+00
         13   -1    0    0    0    0  0.00000000000E+00  0.00000000000E+00  0.99999944173E+02  0.99999999993E+02  0.10566000000E+00 0. -1.
         22   -1    0    0    0    0 -0.00000000000E+00 -0.00000000000E+00 -0.10781026421E+02  0.10781026421E+02  0.00000000000E+00 0. -1.
         13    1    1    2    0    0 -0.86472337936E+01  0.78785427614E+01  0.64007604390E+01  0.13335178535E+02  0.10566000000E+00 0.  1.
        996    1    1    2    0    0  0.86472337936E+01 -0.78785427614E+01  0.82818157312E+02  0.97445847879E+02  0.50000000000E+02 0.  0.
<mgrwt>
<rscale>  0 0.51350230E+02</rscale>
<asrwt>0</asrwt>
<pdfrwt beam="1">  1       13 0.10000000E+01 0.51350230E+02</pdfrwt>
<pdfrwt beam="2">  1       22 0.10781051E+00 0.51350230E+02</pdfrwt>
<totfact> 0.12609180E+00</totfact>
</mgrwt>
</event>
<event>
 4    1  0.2496748E+000  0.5101747E+02  0.7957747E-01  0.1439930E+00
         13   -1    0    0    0    0  0.00000000000E+00  0.00000000000E+00  0.99999944182E+02  0.10000000000E+03  0.10566000000E+00 0.  1.
         22   -1    0    0    0    0 -0.00000000000E+00 -0.00000000000E+00 -0.18138992833E+02  0.18138992833E+02  0.00000000000E+00 0.  1.
         13    1    1    2    0    0 -0.24012115853E+01 -0.98496979195E+01 -0.92451792538E+01  0.13721037485E+02  0.10566000000E+00 0. -1.
        996    1    1    2    0    0  0.24012115853E+01  0.98496979195E+01  0.91106130603E+02  0.10441795535E+03  0.50000000000E+02 0.  0.
<mgrwt>
<rscale>  0 0.51017471E+02</rscale>
<asrwt>0</asrwt>
<pdfrwt beam="1">  1       13 0.10000000E+01 0.51017471E+02</pdfrwt>
<pdfrwt beam="2">  1       22 0.18139016E+00 0.51017471E+02</pdfrwt>
<totfact> 0.54085670E-01</totfact>
</mgrwt>
</event>
<event>
 4    1  0.2496748E+000  0.5144707E+02  0.7957747E-01  0.1437689E+00
         13   -1    0    0    0    0  0.00000000000E+00  0.00000000000E+00  0.99999944169E+02  0.99999999990E+02  0.10566000000E+00 0. -1.
         22   -1    0    0    0    0 -0.00000000000E+00 -0.00000000000E+00 -0.23049534984E+02  0.23049534984E+02  0.00000000000E+00 0.  1.
         13    1    1    2    0    0  0.99610694633E+01 -0.68977185592E+01 -0.14025434124E+02  0.18534438017E+02  0.10566000000E+00 0.  1.
        996    1    1    2    0    0 -0.99610694633E+01  0.68977185592E+01  0.90975843309E+02  0.10451509696E+03  0.50000000000E+02 0.  0.
<mgrwt>
<rscale>  0 0.51447074E+02</rscale>
<asrwt>0</asrwt>
<pdfrwt beam="1">  1       13 0.10000000E+01 0.51447074E+02</pdfrwt>
<pdfrwt beam="2">  1       22 0.23049556E+00 0.51447074E+02</pdfrwt>
<totfact> 0.34529396E-01</totfact>
</mgrwt>
</event>
<event>
 4    1  0.2496748E+000  0.5270832E+02  0.7957747E-01  0.1431258E+00
         13   -1    0    0    0    0  0.00000000000E+00  0.00000000000E+00  0.99999944180E+02  0.10000000000E+03  0.10566000000E+00 0. -1.
         22   -1    0    0    0    0 -0.00000000000E+00 -0.00000000000E+00 -0.13985737185E+02  0.13985737185E+02  0.00000000000E+00 0. -1.
         13    1    1    2    0    0  0.15688266013E+02  0.56608290455E+01  0.42434362640E+02  0.45594440151E+02  0.10566000000E+00 0.  1.
        996    1    1    2    0    0 -0.15688266013E+02 -0.56608290455E+01  0.43579844355E+02  0.68391297034E+02  0.50000000000E+02 0.  0.
<mgrwt>
<rscale>  0 0.52708317E+02</rscale>
<asrwt>0</asrwt>
<pdfrwt beam="1">  1       13 0.10000000E+01 0.52708317E+02</pdfrwt>
<pdfrwt beam="2">  1       22 0.13985761E+00 0.52708317E+02</pdfrwt>
<totfact> 0.84591995E-01</totfact>
</mgrwt>
</event>
<event>
 4    1  0.2496748E+000  0.5310997E+02  0.7957747E-01  0.1429254E+00
         13   -1    0    0    0    0  0.00000000000E+00  0.00000000000E+00  0.99999944177E+02  0.99999999997E+02  0.10566000000E+00 0.  1.
         22   -1    0    0    0    0 -0.00000000000E+00 -0.00000000000E+00 -0.18869289419E+02  0.18869289419E+02  0.00000000000E+00 0.  1.
         13    1    1    2    0    0  0.36249202857E+01 -0.17536512330E+02 -0.41694782036E+01  0.18386544654E+02  0.10566000000E+00 0. -1.
        996    1    1    2    0    0 -0.36249202857E+01  0.17536512330E+02  0.85300132961E+02  0.10048274476E+03  0.50000000000E+02 0.  0.
<mgrwt>
<rscale>  0 0.53109974E+02</rscale>
<asrwt>0</asrwt>
<pdfrwt beam="1">  1       13 0.10000000E+01 0.53109974E+02</pdfrwt>
<pdfrwt beam="2">  1       22 0.18869312E+00 0.53109974E+02</pdfrwt>
<totfact> 0.50548501E-01</totfact>
</mgrwt>
</event>
<event>
 4    1  0.2496748E+000  0.5245099E+02  0.7957747E-01  0.1432553E+00
         13   -1    0    0    0    0  0.00000000000E+00  0.00000000000E+00  0.99999944177E+02  0.99999999997E+02  0.10566000000E+00 0.  1.
         22   -1    0    0    0    0 -0.00000000000E+00 -0.00000000000E+00 -0.36487256222E+02  0.36487256222E+02  0.00000000000E+00 0. -1.
         13    1    1    2    0    0 -0.98680413501E+01  0.12398701952E+02 -0.27328740260E+02  0.31590778059E+02  0.10566000000E+00 0. -1.
        996    1    1    2    0    0  0.98680413501E+01 -0.12398701952E+02  0.90841428215E+02  0.10489647816E+03  0.50000000000E+02 0.  0.
<mgrwt>
<rscale>  0 0.52450987E+02</rscale>
<asrwt>0</asrwt>
<pdfrwt beam="1">  1       13 0.10000000E+01 0.52450987E+02</pdfrwt>
<pdfrwt beam="2">  1       22 0.36487274E+00 0.52450987E+02</pdfrwt>
<totfact> 0.14617966E-01</totfact>
</mgrwt>
</event>
<event>
 4    1  0.2496748E+000  0.5613715E+02  0.7957747E-01  0.1414797E+00
         13   -1    0    0    0    0  0.00000000000E+00  0.00000000000E+00  0.99999944173E+02  0.99999999993E+02  0.10566000000E+00 0.  1.
         22   -1    0    0    0    0 -0.00000000000E+00 -0.00000000000E+00 -0.66649707307E+02  0.66649707307E+02  0.00000000000E+00 0. -1.
         13    1    1    2    0    0 -0.95465877019E+01 -0.23669427233E+02 -0.55764335133E+02  0.61327411157E+02  0.10566000000E+00 0. -1.
        996    1    1    2    0    0  0.95465877019E+01  0.23669427233E+02  0.89114572000E+02  0.10532229614E+03  0.50000000000E+02 0.  0.
<mgrwt>
<rscale>  0 0.56137146E+02</rscale>
<asrwt>0</asrwt>
<pdfrwt beam="1">  1       13 0.10000000E+01 0.56137146E+02</pdfrwt>
<pdfrwt beam="2">  1       22 0.66649717E+00 0.56137146E+02</pdfrwt>
<totfact> 0.86828882E-02</totfact>
</mgrwt>
</event>
<event>
 4    1  0.2496748E+000  0.5117842E+02  0.7957747E-01  0.1439087E+00
         13   -1    0    0    0    0  0.00000000000E+00  0.00000000000E+00  0.99999944179E+02  0.99999999999E+02  0.10566000000E+00 0. -1.
         22   -1    0    0    0    0 -0.00000000000E+00 -0.00000000000E+00 -0.39032641030E+02  0.39032641030E+02  0.00000000000E+00 0.  1.
         13    1    1    2    0    0  0.86570504530E+01  0.66547964821E+01 -0.31504427232E+02  0.33343229268E+02  0.10566000000E+00 0.  1.
        996    1    1    2    0    0 -0.86570504530E+01 -0.66547964821E+01  0.92471730381E+02  0.10568941176E+03  0.50000000000E+02 0.  0.
<mgrwt>
<rscale>  0 0.51178422E+02</rscale>
<asrwt>0</asrwt>
<pdfrwt beam="1">  1       13 0.10000000E+01 0.51178422E+02</pdfrwt>
<pdfrwt beam="2">  1       22 0.39032658E+00 0.51178422E+02</pdfrwt>
<totfact> 0.12938100E-01</totfact>
</mgrwt>
</event>
<event>
 4    1  0.2496748E+000  0.5105876E+02  0.7957747E-01  0.1439713E+00
         13   -1    0    0    0    0  0.00000000000E+00  0.00000000000E+00  0.99999944175E+02  0.99999999995E+02  0.10566000000E+00 0.  1.
         22   -1    0    0    0    0 -0.00000000000E+00 -0.00000000000E+00 -0.22702713727E+02  0.22702713727E+02  0.00000000000E+00 0. -1.
         13    1    1    2    0    0  0.41774639409E+01  0.94628504598E+01 -0.14410744967E+02  0.17739151004E+02  0.10566000000E+00 0. -1.
        996    1    1    2    0    0 -0.41774639409E+01 -0.94628504598E+01  0.91707975415E+02  0.10496356272E+03  0.50000000000E+02 0.  0.
<mgrwt>
<rscale>  0 0.51058758E+02</rscale>
<asrwt>0</asrwt>
<pdfrwt beam="1">  1       13 0.10000000E+01 0.51058758E+02</pdfrwt>
<pdfrwt beam="2">  1       22 0.22702735E+00 0.51058758E+02</pdfrwt>
<totfact> 0.35537079E-01</totfact>
</mgrwt>
</event>
<event>
 4    1  0.2496748E+000  0.5109119E+02  0.7957747E-01  0.1439543E+00
         13   -1    0    0    0    0  0.00000000000E+00  0.00000000000E+00  0.99999944176E+02  0.99999999997E+02  0.10566000000E+00 0.  1.
         22   -1    0    0    0    0 -0.00000000000E+00 -0.00000000000E+00 -0.15178678264E+02  0.15178678264E+02  0.00000000000E+00 0.  1.
         13    1    1    2    0    0 -0.98015396166E+01  0.37734683475E+01 -0.51614899524E+01  0.11703050234E+02  0.10566000000E+00 0. -1.
        996    1    1    2    0    0  0.98015396166E+01 -0.37734683475E+01  0.89982755865E+02  0.10347562803E+03  0.50000000000E+02 0.  0.
<mgrwt>
<rscale>  0 0.51091186E+02</rscale>
<asrwt>0</asrwt>
<pdfrwt beam="1">  1       13 0.10000000E+01 0.51091186E+02</pdfrwt>
<pdfrwt beam="2">  1       22 0.15178702E+00 0.51091186E+02</pdfrwt>
<totfact> 0.73681444E-01</totfact>
</mgrwt>
</event>
<event>
 4    1  0.2496748E+000  0.5170996E+02  0.7957747E-01  0.1436331E+00
         13   -1    0    0    0    0  0.00000000000E+00  0.00000000000E+00  0.99999944177E+02  0.99999999997E+02  0.10566000000E+00 0. -1.
         22   -1    0    0    0    0 -0.00000000000E+00 -0.00000000000E+00 -0.11717730890E+02  0.11717730890E+02  0.00000000000E+00 0. -1.
         13    1    1    2    0    0  0.73631191848E+01  0.10940949848E+02  0.58920814275E+01  0.14444642442E+02  0.10566000000E+00 0.  1.
        996    1    1    2    0    0 -0.73631191848E+01 -0.10940949848E+02  0.82390131860E+02  0.97273088445E+02  0.50000000000E+02 0.  0.
<mgrwt>
<rscale>  0 0.51709959E+02</rscale>
<asrwt>0</asrwt>
<pdfrwt beam="1">  1       13 0.10000000E+01 0.51709959E+02</pdfrwt>
<pdfrwt beam="2">  1       22 0.11717756E+00 0.51709959E+02</pdfrwt>
<totfact> 0.11139415E+00</totfact>
</mgrwt>
</event>
<event>
 4    1  0.2496748E+000  0.5280291E+02  0.7957747E-01  0.1430784E+00
         13   -1    0    0    0    0  0.00000000000E+00  0.00000000000E+00  0.99999944176E+02  0.99999999996E+02  0.10566000000E+00 0.  1.
         22   -1    0    0    0    0 -0.00000000000E+00 -0.00000000000E+00 -0.13085436464E+02  0.13085436464E+02  0.00000000000E+00 0.  1.
         13    1    1    2    0    0  0.15479699210E+02  0.69661037780E+01  0.35676219252E+02  0.39508878415E+02  0.10566000000E+00 0. -1.
        996    1    1    2    0    0 -0.15479699210E+02 -0.69661037780E+01  0.51238288460E+02  0.73576558045E+02  0.50000000000E+02 0.  0.
<mgrwt>
<rscale>  0 0.52802914E+02</rscale>
<asrwt>0</asrwt>
<pdfrwt beam="1">  1       13 0.10000000E+01 0.52802914E+02</pdfrwt>
<pdfrwt beam="2">  1       22 0.13085461E+00 0.52802914E+02</pdfrwt>
<totfact> 0.94112436E-01</totfact>
</mgrwt>
</event>
<event>
 4    1  0.2496748E+000  0.5237397E+02  0.7957747E-01  0.1432942E+00
         13   -1    0    0    0    0  0.00000000000E+00  0.00000000000E+00  0.99999944176E+02  0.99999999996E+02  0.10566000000E+00 0. -1.
         22   -1    0    0    0    0 -0.00000000000E+00 -0.00000000000E+00 -0.35164134545E+02  0.35164134545E+02  0.00000000000E+00 0.  1.
         13    1    1    2    0    0  0.15551354059E+02 -0.10899359871E+01 -0.25997262000E+02  0.30313385972E+02  0.10566000000E+00 0.  1.
        996    1    1    2    0    0 -0.15551354059E+02  0.10899359871E+01  0.90833071632E+02  0.10485074857E+03  0.50000000000E+02 0.  0.
<mgrwt>
<rscale>  0 0.52373968E+02</rscale>
<asrwt>0</asrwt>
<pdfrwt beam="1">  1       13 0.10000000E+01 0.52373968E+02</pdfrwt>
<pdfrwt beam="2">  1       22 0.35164153E+00 0.52373968E+02</pdfrwt>
<totfact> 0.15592700E-01</totfact>
</mgrwt>
</event>
<event>
 4    1  0.2496748E+000  0.5131841E+02  0.7957747E-01  0.1438357E+00
         13   -1    0    0    0    0  0.00000000000E+00  0.00000000000E+00  0.99999944187E+02  0.10000000001E+03  0.10566000000E+00 0. -1.
         22   -1    0    0    0    0 -0.00000000000E+00 -0.00000000000E+00 -0.98886439720E+01  0.98886439720E+01  0.00000000000E+00 0. -1.
         13    1    1    2    0    0  0.84565046633E+01  0.78782531524E+01  0.15619912538E+02  0.19431216524E+02  0.10566000000E+00 0.  1.
        996    1    1    2    0    0 -0.84565046633E+01 -0.78782531524E+01  0.74491387676E+02  0.90457427455E+02  0.50000000000E+02 0.  0.
<mgrwt>
<rscale>  0 0.51318411E+02</rscale>
<asrwt>0</asrwt>
<pdfrwt beam="1">  1       13 0.10000000E+01 0.51318411E+02</pdfrwt>
<pdfrwt beam="2">  1       22 0.98886691E-01 0.51318411E+02</pdfrwt>
<totfact> 0.14304420E+00</totfact>
</mgrwt>
</event>
<event>
 4    1  0.2496748E+000  0.5140561E+02  0.7957747E-01  0.1437904E+00
         13   -1    0    0    0    0  0.00000000000E+00  0.00000000000E+00  0.99999944175E+02  0.99999999995E+02  0.10566000000E+00 0. -1.
         22   -1    0    0    0    0 -0.00000000000E+00 -0.00000000000E+00 -0.32919031409E+02  0.32919031409E+02  0.00000000000E+00 0.  1.
         13    1    1    2    0    0 -0.93152876138E+01 -0.74674016463E+01 -0.24862630380E+02  0.27580758222E+02  0.10566000000E+00 0.  1.
        996    1    1    2    0    0  0.93152876138E+01  0.74674016463E+01  0.91943543146E+02  0.10533827318E+03  0.50000000000E+02 0.  0.
<mgrwt>
<rscale>  0 0.51405609E+02</rscale>
<asrwt>0</asrwt>
<pdfrwt beam="1">  1       13 0.10000000E+01 0.51405609E+02</pdfrwt>
<pdfrwt beam="2">  1       22 0.32919050E+00 0.51405609E+02</pdfrwt>
<totfact> 0.17482429E-01</totfact>
</mgrwt>
</event>
<event>
 4    1  0.2496748E+000  0.5403313E+02  0.7957747E-01  0.1424727E+00
         13   -1    0    0    0    0  0.00000000000E+00  0.00000000000E+00  0.99999944180E+02  0.10000000000E+03  0.10566000000E+00 0. -1.
         22   -1    0    0    0    0 -0.00000000000E+00 -0.00000000000E+00 -0.13930361990E+02  0.13930361990E+02  0.00000000000E+00 0. -1.
         13    1    1    2    0    0  0.17059444861E+02 -0.11338165482E+02  0.26727101453E+02  0.33673844027E+02  0.10566000000E+00 0.  1.
        996    1    1    2    0    0 -0.17059444861E+02  0.11338165482E+02  0.59342480737E+02  0.80256517963E+02  0.50000000000E+02 0.  0.
<mgrwt>
<rscale>  0 0.54033126E+02</rscale>
<asrwt>0</asrwt>
<pdfrwt beam="1">  1       13 0.10000000E+01 0.54033126E+02</pdfrwt>
<pdfrwt beam="2">  1       22 0.13930386E+00 0.54033126E+02</pdfrwt>
<totfact> 0.85368464E-01</totfact>
</mgrwt>
</event>
<event>
 4    1  0.2496748E+000  0.5263646E+02  0.7957747E-01  0.1431619E+00
         13   -1    0    0    0    0  0.00000000000E+00  0.00000000000E+00  0.99999944177E+02  0.99999999997E+02  0.10566000000E+00 0.  1.
         22   -1    0    0    0    0 -0.00000000000E+00 -0.00000000000E+00 -0.21744961096E+02  0.21744961096E+02  0.00000000000E+00 0. -1.
         13    1    1    2    0    0  0.39448337832E+01  0.15969831310E+02 -0.98065650926E+01  0.19151425759E+02  0.10566000000E+00 0. -1.
        996    1    1    2    0    0 -0.39448337832E+01 -0.15969831310E+02  0.88061548173E+02  0.10259353533E+03  0.50000000000E+02 0.  0.
<mgrwt>
<rscale>  0 0.52636463E+02</rscale>
<asrwt>0</asrwt>
<pdfrwt beam="1">  1       13 0.10000000E+01 0.52636463E+02</pdfrwt>
<pdfrwt beam="2">  1       22 0.21744983E+00 0.52636463E+02</pdfrwt>
<totfact> 0.38719100E-01</totfact>
</mgrwt>
</event>
<event>
 4    1  0.2496748E+000  0.5200739E+02  0.7957747E-01  0.1434805E+00
         13   -1    0    0    0    0  0.00000000000E+00  0.00000000000E+00  0.99999944176E+02  0.99999999996E+02  0.10566000000E+00 0.  1.
         22   -1    0    0    0    0 -0.00000000000E+00 -0.00000000000E+00 -0.14892057313E+02  0.14892057313E+02  0.00000000000E+00 0.  1.
         13    1    1    2    0    0 -0.11080660744E+02  0.90547238384E+01 -0.94814916986E+00  0.14341520742E+02  0.10566000000E+00 0. -1.
        996    1    1    2    0    0  0.11080660744E+02 -0.90547238384E+01  0.86056036033E+02  0.10055053657E+03  0.50000000000E+02 0.  0.
<mgrwt>
<rscale>  0 0.52007394E+02</rscale>
<asrwt>0</asrwt>
<pdfrwt beam="1">  1       13 0.10000000E+01 0.52007394E+02</pdfrwt>
<pdfrwt beam="2">  1       22 0.14892081E+00 0.52007394E+02</pdfrwt>
<totfact> 0.76203172E-01</totfact>
</mgrwt>
</event>
<event>
 4    1  0.2496748E+000  0.5467213E+02  0.7957747E-01  0.1421656E+00
         13   -1    0    0    0    0  0.00000000000E+00  0.00000000000E+00  0.99999944178E+02  0.99999999998E+02  0.10566000000E+00 0. -1.
         22   -1    0    0    0    0 -0.00000000000E+00 -0.00000000000E+00 -0.23457773445E+02  0.23457773445E+02  0.00000000000E+00 0.  1.
         13    1    1    2    0    0  0.24119740314E+01 -0.21982372919E+02 -0.73666268472E+01  0.23309240507E+02  0.10566000000E+00 0.  1.
        996    1    1    2    0    0 -0.24119740314E+01  0.21982372919E+02  0.83908797580E+02  0.10014853294E+03  0.50000000000E+02 0.  0.
<mgrwt>
<rscale>  0 0.54672135E+02</rscale>
<asrwt>0</asrwt>
<pdfrwt beam="1">  1       13 0.10000000E+01 0.54672135E+02</pdfrwt>
<pdfrwt beam="2">  1       22 0.23457795E+00 0.54672135E+02</pdfrwt>
<totfact> 0.33541970E-01</totfact>
</mgrwt>
</event>
<event>
 4    1  0.2496748E+000  0.5506333E+02  0.7957747E-01  0.1419800E+00
         13   -1    0    0    0    0  0.00000000000E+00  0.00000000000E+00  0.99999944173E+02  0.99999999993E+02  0.10566000000E+00 0.  1.
         22   -1    0    0    0    0 -0.00000000000E+00 -0.00000000000E+00 -0.32254062835E+02  0.32254062835E+02  0.00000000000E+00 0.  1.
         13    1    1    2    0    0  0.76499409830E+01 -0.21758886349E+02 -0.18746058034E+02  0.29721988292E+02  0.10566000000E+00 0. -1.
        996    1    1    2    0    0 -0.76499409830E+01  0.21758886349E+02  0.86491939372E+02  0.10253207454E+03  0.50000000000E+02 0.  0.
<mgrwt>
<rscale>  0 0.55063334E+02</rscale>
<asrwt>0</asrwt>
<pdfrwt beam="1">  1       13 0.10000000E+01 0.55063334E+02</pdfrwt>
<pdfrwt beam="2">  1       22 0.32254082E+00 0.55063334E+02</pdfrwt>
<totfact> 0.18204215E-01</totfact>
</mgrwt>
</event>
<event>
 4    1  0.2496748E+000  0.5245779E+02  0.7957747E-01  0.1432518E+00
         13   -1    0    0    0    0  0.00000000000E+00  0.00000000000E+00  0.99999944186E+02  0.10000000001E+03  0.10566000000E+00 0.  1.
         22   -1    0    0    0    0 -0.00000000000E+00 -0.00000000000E+00 -0.51891616248E+02  0.51891616248E+02  0.00000000000E+00 0. -1.
         13    1    1    2    0    0  0.13107070849E+02 -0.89456470734E+01 -0.43512557277E+02  0.46316020043E+02  0.10566000000E+00 0. -1.
        996    1    1    2    0    0 -0.13107070849E+02  0.89456470734E+01  0.91620885215E+02  0.10557559621E+03  0.50000000000E+02 0.  0.
<mgrwt>
<rscale>  0 0.52457792E+02</rscale>
<asrwt>0</asrwt>
<pdfrwt beam="1">  1       13 0.10000000E+01 0.52457792E+02</pdfrwt>
<pdfrwt beam="2">  1       22 0.51891630E+00 0.52457792E+02</pdfrwt>
<totfact> 0.66662698E-02</totfact>
</mgrwt>
</event>
<event>
 4    1  0.2496748E+000  0.5301860E+02  0.7957747E-01  0.1429708E+00
         13   -1    0    0    0    0  0.00000000000E+00  0.00000000000E+00  0.99999944181E+02  0.10000000000E+03  0.10566000000E+00 0.  1.
         22   -1    0    0    0    0 -0.00000000000E+00 -0.00000000000E+00 -0.21749415275E+02  0.21749415275E+02  0.00000000000E+00 0.  1.
         13    1    1    2    0    0  0.12468495190E+02  0.12470295359E+02  0.64653072438E+02  0.67014942948E+02  0.10566000000E+00 0. -1.
        996    1    1    2    0    0 -0.12468495190E+02 -0.12470295359E+02  0.13597456468E+02  0.54734472328E+02  0.50000000000E+02 0.  0.
<mgrwt>
<rscale>  0 0.53018597E+02</rscale>
<asrwt>0</asrwt>
<pdfrwt beam="1">  1       13 0.10000000E+01 0.53018597E+02</pdfrwt>
<pdfrwt beam="2">  1       22 0.21749437E+00 0.53018597E+02</pdfrwt>
<totfact> 0.38728885E-01</totfact>
</mgrwt>
</event>
<event>
 4    1  0.2496748E+000  0.5157951E+02  0.7957747E-01  0.1437004E+00
         13   -1    0    0    0    0  0.00000000000E+00  0.00000000000E+00  0.99999944171E+02  0.99999999991E+02  0.10566000000E+00 0. -1.
         22   -1    0    0    0    0 -0.00000000000E+00 -0.00000000000E+00 -0.13612152467E+02  0.13612152467E+02  0.00000000000E+00 0. -1.
         13    1    1    2    0    0  0.73369101029E+01  0.10325496354E+02 -0.37800917029E+00  0.12672812624E+02  0.10566000000E+00 0.  1.
        996    1    1    2    0    0 -0.73369101029E+01 -0.10325496354E+02  0.86765800874E+02  0.10093933983E+03  0.50000000000E+02 0.  0.
<mgrwt>
<rscale>  0 0.51579513E+02</rscale>
<asrwt>0</asrwt>
<pdfrwt beam="1">  1       13 0.10000000E+01 0.51579513E+02</pdfrwt>
<pdfrwt beam="2">  1       22 0.13612177E+00 0.51579513E+02</pdfrwt>
<totfact> 0.88154747E-01</totfact>
</mgrwt>
</event>
<event>
 4    1  0.2496748E+000  0.5299734E+02  0.7957747E-01  0.1429814E+00
         13   -1    0    0    0    0  0.00000000000E+00  0.00000000000E+00  0.99999944175E+02  0.99999999995E+02  0.10566000000E+00 0. -1.
         22   -1    0    0    0    0 -0.00000000000E+00 -0.00000000000E+00 -0.26981095896E+02  0.26981095896E+02  0.00000000000E+00 0.  1.
         13    1    1    2    0    0 -0.17522916463E+02  0.12904583055E+01 -0.15749247850E+02  0.23595928799E+02  0.10566000000E+00 0.  1.
        996    1    1    2    0    0  0.17522916463E+02 -0.12904583055E+01  0.88768096130E+02  0.10338516709E+03  0.50000000000E+02 0.  0.
<mgrwt>
<rscale>  0 0.52997338E+02</rscale>
<asrwt>0</asrwt>
<pdfrwt beam="1">  1       13 0.10000000E+01 0.52997338E+02</pdfrwt>
<pdfrwt beam="2">  1       22 0.26981116E+00 0.52997338E+02</pdfrwt>
<totfact> 0.25414174E-01</totfact>
</mgrwt>
</event>
<event>
 4    1  0.2496748E+000  0.5185904E+02  0.7957747E-01  0.1435565E+00
         13   -1    0    0    0    0  0.00000000000E+00  0.00000000000E+00  0.99999944182E+02  0.10000000000E+03  0.10566000000E+00 0.  1.
         22   -1    0    0    0    0 -0.00000000000E+00 -0.00000000000E+00 -0.17793420652E+02  0.17793420652E+02  0.00000000000E+00 0.  1.
         13    1    1    2    0    0 -0.12086704639E+02  0.65781326479E+01 -0.63609902135E+01  0.15160264467E+02  0.10566000000E+00 0. -1.
        996    1    1    2    0    0  0.12086704639E+02 -0.65781326479E+01  0.88567513744E+02  0.10263315619E+03  0.50000000000E+02 0.  0.
<mgrwt>
<rscale>  0 0.51859042E+02</rscale>
<asrwt>0</asrwt>
<pdfrwt beam="1">  1       13 0.10000000E+01 0.51859042E+02</pdfrwt>
<pdfrwt beam="2">  1       22 0.17793444E+00 0.51859042E+02</pdfrwt>
<totfact> 0.56071540E-01</totfact>
</mgrwt>
</event>
<event>
 4    1  0.2496748E+000  0.5494977E+02  0.7957747E-01  0.1420337E+00
         13   -1    0    0    0    0  0.00000000000E+00  0.00000000000E+00  0.99999944174E+02  0.99999999995E+02  0.10566000000E+00 0.  1.
         22   -1    0    0    0    0 -0.00000000000E+00 -0.00000000000E+00 -0.15215163748E+02  0.15215163748E+02  0.00000000000E+00 0.  1.
         13    1    1    2    0    0 -0.21170143419E+01 -0.22693508685E+02  0.29351752422E+02  0.37161991610E+02  0.10566000000E+00 0. -1.
        996    1    1    2    0    0  0.21170143419E+01  0.22693508685E+02  0.55433028005E+02  0.78053172133E+02  0.50000000000E+02 0.  0.
<mgrwt>
<rscale>  0 0.54949769E+02</rscale>
<asrwt>0</asrwt>
<pdfrwt beam="1">  1       13 0.10000000E+01 0.54949769E+02</pdfrwt>
<pdfrwt beam="2">  1       22 0.15215187E+00 0.54949769E+02</pdfrwt>
<totfact> 0.73951707E-01</totfact>
</mgrwt>
</event>
<event>
 4    1  0.2496748E+000  0.6205115E+02  0.7957747E-01  0.1389420E+00
         13   -1    0    0    0    0  0.00000000000E+00  0.00000000000E+00  0.99999944179E+02  0.99999999999E+02  0.10566000000E+00 0.  1.
         22   -1    0    0    0    0 -0.00000000000E+00 -0.00000000000E+00 -0.75204878686E+02  0.75204878686E+02  0.00000000000E+00 0. -1.
         13    1    1    2    0    0 -0.12501004000E+02  0.34555315730E+02 -0.59862650824E+02  0.70241676189E+02  0.10566000000E+00 0. -1.
        996    1    1    2    0    0  0.12501004000E+02 -0.34555315730E+02  0.84657716317E+02  0.10496320250E+03  0.50000000000E+02 0.  0.
<mgrwt>
<rscale>  0 0.62051148E+02</rscale>
<asrwt>0</asrwt>
<pdfrwt beam="1">  1       13 0.10000000E+01 0.62051148E+02</pdfrwt>
<pdfrwt beam="2">  1       22 0.75204886E+00 0.62051148E+02</pdfrwt>
<totfact> 0.48100286E-02</totfact>
</mgrwt>
</event>
<event>
 4    1  0.2496748E+000  0.5107721E+02  0.7957747E-01  0.1439616E+00
         13   -1    0    0    0    0  0.00000000000E+00  0.00000000000E+00  0.99999944179E+02  0.99999999999E+02  0.10566000000E+00 0.  1.
         22   -1    0    0    0    0 -0.00000000000E+00 -0.00000000000E+00 -0.14243760020E+02  0.14243760020E+02  0.00000000000E+00 0.  1.
         13    1    1    2    0    0  0.38856034293E+01 -0.96842118120E+01 -0.38332016713E+01  0.11116945242E+02  0.10566000000E+00 0. -1.
        996    1    1    2    0    0 -0.38856034293E+01  0.96842118120E+01  0.89589385831E+02  0.10312681478E+03  0.50000000000E+02 0.  0.
<mgrwt>
<rscale>  0 0.51077215E+02</rscale>
<asrwt>0</asrwt>
<pdfrwt beam="1">  1       13 0.10000000E+01 0.51077215E+02</pdfrwt>
<pdfrwt beam="2">  1       22 0.14243784E+00 0.51077215E+02</pdfrwt>
<totfact> 0.81834305E-01</totfact>
</mgrwt>
</event>
<event>
 4    1  0.2496748E+000  0.5117980E+02  0.7957747E-01  0.1439080E+00
         13   -1    0    0    0    0  0.00000000000E+00  0.00000000000E+00  0.99999944181E+02  0.10000000000E+03  0.10566000000E+00 0.  1.
         22   -1    0    0    0    0 -0.00000000000E+00 -0.00000000000E+00 -0.11331331861E+02  0.11331331861E+02  0.00000000000E+00 0. -1.
         13    1    1    2    0    0  0.21774558946E+01 -0.10706568145E+02  0.26572453571E+01  0.11244733547E+02  0.10566000000E+00 0. -1.
        996    1    1    2    0    0 -0.21774558946E+01  0.10706568145E+02  0.86011366962E+02  0.10008659832E+03  0.50000000000E+02 0.  0.
<mgrwt>
<rscale>  0 0.51179800E+02</rscale>
<asrwt>0</asrwt>
<pdfrwt beam="1">  1       13 0.10000000E+01 0.51179800E+02</pdfrwt>
<pdfrwt beam="2">  1       22 0.11331357E+00 0.51179800E+02</pdfrwt>
<totfact> 0.11703307E+00</totfact>
</mgrwt>
</event>
<event>
 4    1  0.2496748E+000  0.9347709E+02  0.7957747E-01  0.1294643E+00
         13   -1    0    0    0    0  0.00000000000E+00  0.00000000000E+00  0.99999944168E+02  0.99999999989E+02  0.10566000000E+00 0.  1.
         22   -1    0    0    0    0 -0.00000000000E+00 -0.00000000000E+00 -0.78262699163E+02  0.78262699163E+02  0.00000000000E+00 0. -1.
         13    1    1    2    0    0  0.30000441948E+02 -0.73061208702E+02 -0.98505119577E+01  0.79592779094E+02  0.10566000000E+00 0. -1.
        996    1    1    2    0    0 -0.30000441948E+02  0.73061208702E+02  0.31587756963E+02  0.98669920057E+02  0.50000000000E+02 0.  0.
<mgrwt>
<rscale>  0 0.93477092E+02</rscale>
<asrwt>0</asrwt>
<pdfrwt beam="1">  1       13 0.10000000E+01 0.93477092E+02</pdfrwt>
<pdfrwt beam="2">  1       22 0.78262705E+00 0.93477092E+02</pdfrwt>
<totfact> 0.36183723E-02</totfact>
</mgrwt>
</event>
<event>
 4    1  0.2496748E+000  0.5671941E+02  0.7957747E-01  0.1412138E+00
         13   -1    0    0    0    0  0.00000000000E+00  0.00000000000E+00  0.99999944182E+02  0.10000000000E+03  0.10566000000E+00 0. -1.
         22   -1    0    0    0    0 -0.00000000000E+00 -0.00000000000E+00 -0.23913203324E+02  0.23913203324E+02  0.00000000000E+00 0.  1.
         13    1    1    2    0    0  0.23059124431E+02 -0.13615008176E+02 -0.26110972870E+01  0.26905773735E+02  0.10566000000E+00 0.  1.
        996    1    1    2    0    0 -0.23059124431E+02  0.13615008176E+02  0.78697838146E+02  0.97007429592E+02  0.50000000000E+02 0.  0.
<mgrwt>
<rscale>  0 0.56719412E+02</rscale>
<asrwt>0</asrwt>
<pdfrwt beam="1">  1       13 0.10000000E+01 0.56719412E+02</pdfrwt>
<pdfrwt beam="2">  1       22 0.23913225E+00 0.56719412E+02</pdfrwt>
<totfact> 0.32402503E-01</totfact>
</mgrwt>
</event>
<event>
 4    1  0.2496748E+000  0.6059270E+02  0.7957747E-01  0.1395361E+00
         13   -1    0    0    0    0  0.00000000000E+00  0.00000000000E+00  0.99999944183E+02  0.10000000000E+03  0.10566000000E+00 0. -1.
         22   -1    0    0    0    0 -0.00000000000E+00 -0.00000000000E+00 -0.35708344091E+02  0.35708344091E+02  0.00000000000E+00 0.  1.
         13    1    1    2    0    0  0.74425012840E+01 -0.33407843800E+02 -0.13767256469E+02  0.36892050193E+02  0.10566000000E+00 0.  1.
        996    1    1    2    0    0 -0.74425012840E+01  0.33407843800E+02  0.78058856561E+02  0.98816293901E+02  0.50000000000E+02 0.  0.
<mgrwt>
<rscale>  0 0.60592696E+02</rscale>
<asrwt>0</asrwt>
<pdfrwt beam="1">  1       13 0.10000000E+01 0.60592696E+02</pdfrwt>
<pdfrwt beam="2">  1       22 0.35708362E+00 0.60592696E+02</pdfrwt>
<totfact> 0.15295491E-01</totfact>
</mgrwt>
</event>
<event>
 4    1  0.2496748E+000  0.5107232E+02  0.7957747E-01  0.1439642E+00
         13   -1    0    0    0    0  0.00000000000E+00  0.00000000000E+00  0.99999944178E+02  0.99999999998E+02  0.10566000000E+00 0. -1.
         22   -1    0    0    0    0 -0.00000000000E+00 -0.00000000000E+00 -0.15374040653E+02  0.15374040653E+02  0.00000000000E+00 0. -1.
         13    1    1    2    0    0 -0.10351747759E+02 -0.11059122354E+01 -0.55063846705E+01  0.11777655103E+02  0.10566000000E+00 0.  1.
        996    1    1    2    0    0  0.10351747759E+02  0.11059122354E+01  0.90132288195E+02  0.10359638555E+03  0.50000000000E+02 0.  0.
<mgrwt>
<rscale>  0 0.51072319E+02</rscale>
<asrwt>0</asrwt>
<pdfrwt beam="1">  1       13 0.10000000E+01 0.51072319E+02</pdfrwt>
<pdfrwt beam="2">  1       22 0.15374064E+00 0.51072319E+02</pdfrwt>
<totfact> 0.72115696E-01</totfact>
</mgrwt>
</event>
<event>
 4    1  0.2496748E+000  0.5156629E+02  0.7957747E-01  0.1437072E+00
         13   -1    0    0    0    0  0.00000000000E+00  0.00000000000E+00  0.99999944180E+02  0.10000000000E+03  0.10566000000E+00 0. -1.
         22   -1    0    0    0    0 -0.00000000000E+00 -0.00000000000E+00 -0.19593628398E+02  0.19593628398E+02  0.00000000000E+00 0.  1.
         13    1    1    2    0    0 -0.11861557393E+02 -0.42878551525E+01 -0.96075856095E+01  0.15855570342E+02  0.10566000000E+00 0.  1.
        996    1    1    2    0    0  0.11861557393E+02  0.42878551525E+01  0.90013901391E+02  0.10373805806E+03  0.50000000000E+02 0.  0.
<mgrwt>
<rscale>  0 0.51566290E+02</rscale>
<asrwt>0</asrwt>
<pdfrwt beam="1">  1       13 0.10000000E+01 0.51566290E+02</pdfrwt>
<pdfrwt beam="2">  1       22 0.19593651E+00 0.51566290E+02</pdfrwt>
<totfact> 0.47032732E-01</totfact>
</mgrwt>
</event>
<event>
 4    1  0.2496748E+000  0.5308747E+02  0.7957747E-01  0.1429366E+00
         13   -1    0    0    0    0  0.00000000000E+00  0.00000000000E+00  0.99999944176E+02  0.99999999997E+02  0.10566000000E+00 0. -1.
         22   -1    0    0    0    0 -0.00000000000E+00 -0.00000000000E+00 -0.56115584890E+02  0.56115584890E+02  0.00000000000E+00 0.  1.
         13    1    1    2    0    0 -0.17828134641E+02 -0.66105945414E+00 -0.47328019841E+02  0.50578968064E+02  0.10566000000E+00 0.  1.
        996    1    1    2    0    0  0.17828134641E+02  0.66105945414E+00  0.91212379127E+02  0.10553661682E+03  0.50000000000E+02 0.  0.
<mgrwt>
<rscale>  0 0.53087469E+02</rscale>
<asrwt>0</asrwt>
<pdfrwt beam="1">  1       13 0.10000000E+01 0.53087469E+02</pdfrwt>
<pdfrwt beam="2">  1       22 0.56115597E+00 0.53087469E+02</pdfrwt>
<totfact> 0.58374934E-02</totfact>
</mgrwt>
</event>
<event>
 4    1  0.2496748E+000  0.5309005E+02  0.7957747E-01  0.1429353E+00
         13   -1    0    0    0    0  0.00000000000E+00  0.00000000000E+00  0.99999944181E+02  0.10000000000E+03  0.10566000000E+00 0.  1.
         22   -1    0    0    0    0 -0.00000000000E+00 -0.00000000000E+00 -0.12715490211E+02  0.12715490211E+02  0.00000000000E+00 0.  1.
         13    1    1    2    0    0  0.65476953170E+01 -0.16603653178E+02  0.17145172342E+02  0.24749175976E+02  0.10566000000E+00 0. -1.
        996    1    1    2    0    0 -0.65476953170E+01  0.16603653178E+02  0.70139281629E+02  0.87966314236E+02  0.50000000000E+02 0.  0.
<mgrwt>
<rscale>  0 0.53090052E+02</rscale>
<asrwt>0</asrwt>
<pdfrwt beam="1">  1       13 0.10000000E+01 0.53090052E+02</pdfrwt>
<pdfrwt beam="2">  1       22 0.12715515E+00 0.53090052E+02</pdfrwt>
<totfact> 0.98512343E-01</totfact>
</mgrwt>
</event>
<event>
 4    1  0.2496748E+000  0.5185453E+02  0.7957747E-01  0.1435588E+00
         13   -1    0    0    0    0  0.00000000000E+00  0.00000000000E+00  0.99999944194E+02  0.10000000001E+03  0.10566000000E+00 0. -1.
         22   -1    0    0    0    0 -0.00000000000E+00 -0.00000000000E+00 -0.17727744837E+02  0.17727744837E+02  0.00000000000E+00 0.  1.
         13    1    1    2    0    0  0.45933424998E+01  0.12953494883E+02 -0.62793094972E+01  0.15110682209E+02  0.10566000000E+00 0.  1.
        996    1    1    2    0    0 -0.45933424998E+01 -0.12953494883E+02  0.88551508854E+02  0.10261706264E+03  0.50000000000E+02 0.  0.
<mgrwt>
<rscale>  0 0.51854526E+02</rscale>
<asrwt>0</asrwt>
<pdfrwt beam="1">  1       13 0.10000000E+01 0.51854526E+02</pdfrwt>
<pdfrwt beam="2">  1       22 0.17727768E+00 0.51854526E+02</pdfrwt>
<totfact> 0.56442020E-01</totfact>
</mgrwt>
</event>
<event>
 4    1  0.2496748E+000  0.5266814E+02  0.7957747E-01  0.1431460E+00
         13   -1    0    0    0    0  0.00000000000E+00  0.00000000000E+00  0.99999944183E+02  0.10000000000E+03  0.10566000000E+00 0. -1.
         22   -1    0    0    0    0 -0.00000000000E+00 -0.00000000000E+00 -0.61360851096E+02  0.61360851096E+02  0.00000000000E+00 0.  1.
         13    1    1    2    0    0  0.15087299211E+02 -0.68048435332E+01 -0.53077145165E+02  0.55597904600E+02  0.10566000000E+00 0.  1.
        996    1    1    2    0    0 -0.15087299211E+02  0.68048435332E+01  0.91716238252E+02  0.10576294650E+03  0.50000000000E+02 0.  0.
<mgrwt>
<rscale>  0 0.52668135E+02</rscale>
<asrwt>0</asrwt>
<pdfrwt beam="1">  1       13 0.10000000E+01 0.52668135E+02</pdfrwt>
<pdfrwt beam="2">  1       22 0.61360862E+00 0.52668135E+02</pdfrwt>
<totfact> 0.69292005E-02</totfact>
</mgrwt>
</event>
<event>
 4    1  0.2496748E+000  0.5282124E+02  0.7957747E-01  0.1430693E+00
         13   -1    0    0    0    0  0.00000000000E+00  0.00000000000E+00  0.99999944176E+02  0.99999999996E+02  0.10566000000E+00 0.  1.
         22   -1    0    0    0    0 -0.00000000000E+00 -0.00000000000E+00 -0.15603213741E+02  0.15603213741E+02  0.00000000000E+00 0.  1.
         13    1    1    2    0    0 -0.76436414088E+01  0.15220332593E+02  0.49365827562E+02  0.52221450316E+02  0.10566000000E+00 0. -1.
        996    1    1    2    0    0  0.76436414088E+01 -0.15220332593E+02  0.35030902873E+02  0.63381763421E+02  0.50000000000E+02 0.  0.
<mgrwt>
<rscale>  0 0.52821244E+02</rscale>
<asrwt>0</asrwt>
<pdfrwt beam="1">  1       13 0.10000000E+01 0.52821244E+02</pdfrwt>
<pdfrwt beam="2">  1       22 0.15603237E+00 0.52821244E+02</pdfrwt>
<totfact> 0.70586846E-01</totfact>
</mgrwt>
</event>
<event>
 4    1  0.2496748E+000  0.5484543E+02  0.7957747E-01  0.1420831E+00
         13   -1    0    0    0    0  0.00000000000E+00  0.00000000000E+00  0.99999944160E+02  0.99999999980E+02  0.10566000000E+00 0.  1.
         22   -1    0    0    0    0 -0.00000000000E+00 -0.00000000000E+00 -0.69696741879E+02  0.69696741879E+02  0.00000000000E+00 0. -1.
         13    1    1    2    0    0  0.84483279489E+01 -0.20896108515E+02 -0.59971617238E+02  0.64067367937E+02  0.10566000000E+00 0. -1.
        996    1    1    2    0    0 -0.84483279489E+01  0.20896108515E+02  0.90274819518E+02  0.10562937392E+03  0.50000000000E+02 0.  0.
<mgrwt>
<rscale>  0 0.54845434E+02</rscale>
<asrwt>0</asrwt>
<pdfrwt beam="1">  1       13 0.10000000E+01 0.54845434E+02</pdfrwt>
<pdfrwt beam="2">  1       22 0.69696750E+00 0.54845434E+02</pdfrwt>
<totfact> 0.76168181E-02</totfact>
</mgrwt>
</event>
<event>
 4    1  0.2496748E+000  0.5235793E+02  0.7957747E-01  0.1433023E+00
         13   -1    0    0    0    0  0.00000000000E+00  0.00000000000E+00  0.99999944179E+02  0.99999999999E+02  0.10566000000E+00 0.  1.
         22   -1    0    0    0    0 -0.00000000000E+00 -0.00000000000E+00 -0.22370201187E+02  0.22370201187E+02  0.00000000000E+00 0. -1.
         13    1    1    2    0    0 -0.49379288769E+01  0.14729904567E+02 -0.11273293888E+02  0.19195091801E+02  0.10566000000E+00 0. -1.
        996    1    1    2    0    0  0.49379288769E+01 -0.14729904567E+02  0.88903036880E+02  0.10317510939E+03  0.50000000000E+02 0.  0.
<mgrwt>
<rscale>  0 0.52357934E+02</rscale>
<asrwt>0</asrwt>
<pdfrwt beam="1">  1       13 0.10000000E+01 0.52357934E+02</pdfrwt>
<pdfrwt beam="2">  1       22 0.22370223E+00 0.52357934E+02</pdfrwt>
<totfact> 0.36646363E-01</totfact>
</mgrwt>
</event>
<event>
 4    1  0.2496748E+000  0.5111359E+02  0.7957747E-01  0.1439426E+00
         13   -1    0    0    0    0  0.00000000000E+00  0.00000000000E+00  0.99999944183E+02  0.10000000000E+03  0.10566000000E+00 0. -1.
         22   -1    0    0    0    0 -0.00000000000E+00 -0.00000000000E+00 -0.12277457953E+02  0.12277457953E+02  0.00000000000E+00 0.  1.
         13    1    1    2    0    0  0.20774046151E+01 -0.10405941592E+02 -0.15848578301E+00  0.10612987898E+02  0.10566000000E+00 0.  1.
        996    1    1    2    0    0 -0.20774046151E+01  0.10405941592E+02  0.87880972013E+02  0.10166447006E+03  0.50000000000E+02 0.  0.
<mgrwt>
<rscale>  0 0.51113591E+02</rscale>
<asrwt>0</asrwt>
<pdfrwt beam="1">  1       13 0.10000000E+01 0.51113591E+02</pdfrwt>
<pdfrwt beam="2">  1       22 0.12277482E+00 0.51113591E+02</pdfrwt>
<totfact> 0.10357555E+00</totfact>
</mgrwt>
</event>
<event>
 4    1  0.2496748E+000  0.5442251E+02  0.7957747E-01  0.1422850E+00
         13   -1    0    0    0    0  0.00000000000E+00  0.00000000000E+00  0.99999944183E+02  0.10000000000E+03  0.10566000000E+00 0.  1.
         22   -1    0    0    0    0 -0.00000000000E+00 -0.00000000000E+00 -0.14444443577E+02  0.14444443577E+02  0.00000000000E+00 0.  1.
         13    1    1    2    0    0  0.16548402001E+02  0.13709859437E+02  0.26902506725E+02  0.34432047379E+02  0.10566000000E+00 0. -1.
        996    1    1    2    0    0 -0.16548402001E+02 -0.13709859437E+02  0.58652993881E+02  0.80012396201E+02  0.50000000000E+02 0.  0.
<mgrwt>
<rscale>  0 0.54422512E+02</rscale>
<asrwt>0</asrwt>
<pdfrwt beam="1">  1       13 0.10000000E+01 0.54422512E+02</pdfrwt>
<pdfrwt beam="2">  1       22 0.14444467E+00 0.54422512E+02</pdfrwt>
<totfact> 0.80532214E-01</totfact>
</mgrwt>
</event>
<event>
 4    1  0.2496748E+000  0.5133976E+02  0.7957747E-01  0.1438246E+00
         13   -1    0    0    0    0  0.00000000000E+00  0.00000000000E+00  0.99999944182E+02  0.10000000000E+03  0.10566000000E+00 0. -1.
         22   -1    0    0    0    0 -0.00000000000E+00 -0.00000000000E+00 -0.15308022454E+02  0.15308022454E+02  0.00000000000E+00 0.  1.
         13    1    1    2    0    0 -0.11207638976E+02 -0.31873807821E+01 -0.44218370945E+01  0.12463321186E+02  0.10566000000E+00 0.  1.
        996    1    1    2    0    0  0.11207638976E+02  0.31873807821E+01  0.89113758823E+02  0.10284470127E+03  0.50000000000E+02 0.  0.
<mgrwt>
<rscale>  0 0.51339756E+02</rscale>
<asrwt>0</asrwt>
<pdfrwt beam="1">  1       13 0.10000000E+01 0.51339756E+02</pdfrwt>
<pdfrwt beam="2">  1       22 0.15308046E+00 0.51339756E+02</pdfrwt>
<totfact> 0.72678772E-01</totfact>
</mgrwt>
</event>
<event>
 4    1  0.2496748E+000  0.5362862E+02  0.7957747E-01  0.1426698E+00
         13   -1    0    0    0    0  0.00000000000E+00  0.00000000000E+00  0.99999944184E+02  0.10000000000E+03  0.10566000000E+00 0.  1.
         22   -1    0    0    0    0 -0.00000000000E+00 -0.00000000000E+00 -0.20275141860E+02  0.20275141860E+02  0.00000000000E+00 0. -1.
         13    1    1    2    0    0  0.17873418287E+02  0.75212831190E+01 -0.49798227115E+01  0.20020953506E+02  0.10566000000E+00 0. -1.
        996    1    1    2    0    0 -0.17873418287E+02 -0.75212831190E+01  0.84704625036E+02  0.10025418836E+03  0.50000000000E+02 0.  0.
<mgrwt>
<rscale>  0 0.53628619E+02</rscale>
<asrwt>0</asrwt>
<pdfrwt beam="1">  1       13 0.10000000E+01 0.53628619E+02</pdfrwt>
<pdfrwt beam="2">  1       22 0.20275164E+00 0.53628619E+02</pdfrwt>
<totfact> 0.44291333E-01</totfact>
</mgrwt>
</event>
<event>
 4    1  0.2496748E+000  0.6999317E+02  0.7957747E-01  0.1360116E+00
         13   -1    0    0    0    0  0.00000000000E+00  0.00000000000E+00  0.99999944181E+02  0.10000000000E+03  0.10566000000E+00 0.  1.
         22   -1    0    0    0    0 -0.00000000000E+00 -0.00000000000E+00 -0.36390019256E+02  0.36390019256E+02  0.00000000000E+00 0. -1.
         13    1    1    2    0    0  0.38363630111E+02 -0.30451194120E+02  0.15191501561E+02  0.51281928809E+02  0.10566000000E+00 0. -1.
        996    1    1    2    0    0 -0.38363630111E+02  0.30451194120E+02  0.48418423364E+02  0.85108090448E+02  0.50000000000E+02 0.  0.
<mgrwt>
<rscale>  0 0.69993166E+02</rscale>
<asrwt>0</asrwt>
<pdfrwt beam="1">  1       13 0.10000000E+01 0.69993166E+02</pdfrwt>
<pdfrwt beam="2">  1       22 0.36390037E+00 0.69993166E+02</pdfrwt>
<totfact> 0.14899091E-01</totfact>
</mgrwt>
</event>
<event>
 4    1  0.2496748E+000  0.6589105E+02  0.7957747E-01  0.1374651E+00
         13   -1    0    0    0    0  0.00000000000E+00  0.00000000000E+00  0.99999944187E+02  0.10000000001E+03  0.10566000000E+00 0. -1.
         22   -1    0    0    0    0 -0.00000000000E+00 -0.00000000000E+00 -0.73020603179E+02  0.73020603179E+02  0.00000000000E+00 0.  1.
         13    1    1    2    0    0  0.21441592387E+02 -0.37173758586E+02 -0.53772266070E+02  0.68797514299E+02  0.10566000000E+00 0.  1.
        996    1    1    2    0    0 -0.21441592387E+02  0.37173758586E+02  0.80751607078E+02  0.10422308889E+03  0.50000000000E+02 0.  0.
<mgrwt>
<rscale>  0 0.65891048E+02</rscale>
<asrwt>0</asrwt>
<pdfrwt beam="1">  1       13 0.10000000E+01 0.65891048E+02</pdfrwt>
<pdfrwt beam="2">  1       22 0.73020611E+00 0.65891048E+02</pdfrwt>
<totfact> 0.58649859E-02</totfact>
</mgrwt>
</event>
<event>
 4    1  0.2496748E+000  0.6358991E+02  0.7957747E-01  0.1383356E+00
         13   -1    0    0    0    0  0.00000000000E+00  0.00000000000E+00  0.99999944184E+02  0.10000000000E+03  0.10566000000E+00 0.  1.
         22   -1    0    0    0    0 -0.00000000000E+00 -0.00000000000E+00 -0.27423565292E+02  0.27423565292E+02  0.00000000000E+00 0. -1.
         13    1    1    2    0    0  0.11926303715E+02  0.37435806296E+02  0.39631252647E+02  0.55806125683E+02  0.10566000000E+00 0. -1.
        996    1    1    2    0    0 -0.11926303715E+02 -0.37435806296E+02  0.32945126245E+02  0.71617439612E+02  0.50000000000E+02 0.  0.
<mgrwt>
<rscale>  0 0.63589907E+02</rscale>
<asrwt>0</asrwt>
<pdfrwt beam="1">  1       13 0.10000000E+01 0.63589907E+02</pdfrwt>
<pdfrwt beam="2">  1       22 0.27423586E+00 0.63589907E+02</pdfrwt>
<totfact> 0.24958169E-01</totfact>
</mgrwt>
</event>
<event>
 4    1  0.2496748E+000  0.5142686E+02  0.7957747E-01  0.1437794E+00
         13   -1    0    0    0    0  0.00000000000E+00  0.00000000000E+00  0.99999944180E+02  0.10000000000E+03  0.10566000000E+00 0. -1.
         22   -1    0    0    0    0 -0.00000000000E+00 -0.00000000000E+00 -0.15601256727E+02  0.15601256727E+02  0.00000000000E+00 0.  1.
         13    1    1    2    0    0 -0.55169423329E+01 -0.10690424070E+02 -0.45449254395E+01  0.12860378330E+02  0.10566000000E+00 0.  1.
        996    1    1    2    0    0  0.55169423329E+01  0.10690424070E+02  0.88943612892E+02  0.10274087840E+03  0.50000000000E+02 0.  0.
<mgrwt>
<rscale>  0 0.51426859E+02</rscale>
<asrwt>0</asrwt>
<pdfrwt beam="1">  1       13 0.10000000E+01 0.51426859E+02</pdfrwt>
<pdfrwt beam="2">  1       22 0.15601280E+00 0.51426859E+02</pdfrwt>
<totfact> 0.70404682E-01</totfact>
</mgrwt>
</event>
<event>
 4    1  0.2496748E+000  0.7644566E+02  0.7957747E-01  0.1339452E+00
         13   -1    0    0    0    0  0.00000000000E+00  0.00000000000E+00  0.99999944187E+02  0.10000000001E+03  0.10566000000E+00 0.  1.
         22   -1    0    0    0    0 -0.00000000000E+00 -0.00000000000E+00 -0.45076061708E+02  0.45076061708E+02  0.00000000000E+00 0. -1.
         13    1    1    2    0    0 -0.11602576143E+01  0.57815164502E+02  0.23042149101E+02  0.62248624430E+02  0.10566000000E+00 0. -1.
        996    1    1    2    0    0  0.11602576143E+01 -0.57815164502E+02  0.31881733377E+02  0.82827437285E+02  0.50000000000E+02 0.  0.
<mgrwt>
<rscale>  0 0.76445663E+02</rscale>
<asrwt>0</asrwt>
<pdfrwt beam="1">  1       13 0.10000000E+01 0.76445663E+02</pdfrwt>
<pdfrwt beam="2">  1       22 0.45076077E+00 0.76445663E+02</pdfrwt>
<totfact> 0.97380508E-02</totfact>
</mgrwt>
</event>
<event>
 4    1  0.2496748E+000  0.5120763E+02  0.7957747E-01  0.1438935E+00
         13   -1    0    0    0    0  0.00000000000E+00  0.00000000000E+00  0.99999944178E+02  0.99999999998E+02  0.10566000000E+00 0.  1.
         22   -1    0    0    0    0 -0.00000000000E+00 -0.00000000000E+00 -0.14217734800E+02  0.14217734800E+02  0.00000000000E+00 0.  1.
         13    1    1    2    0    0 -0.99646961323E+01 -0.47880983356E+01 -0.32377810889E+01  0.11520218969E+02  0.10566000000E+00 0. -1.
        996    1    1    2    0    0  0.99646961323E+01  0.47880983356E+01  0.89019990467E+02  0.10269751583E+03  0.50000000000E+02 0.  0.
<mgrwt>
<rscale>  0 0.51207627E+02</rscale>
<asrwt>0</asrwt>
<pdfrwt beam="1">  1       13 0.10000000E+01 0.51207627E+02</pdfrwt>
<pdfrwt beam="2">  1       22 0.14217759E+00 0.51207627E+02</pdfrwt>
<totfact> 0.82101389E-01</totfact>
</mgrwt>
</event>
<event>
 4    1  0.2496748E+000  0.5330498E+02  0.7957747E-01  0.1428289E+00
         13   -1    0    0    0    0  0.00000000000E+00  0.00000000000E+00  0.99999944182E+02  0.10000000000E+03  0.10566000000E+00 0.  1.
         22   -1    0    0    0    0 -0.00000000000E+00 -0.00000000000E+00 -0.13793393330E+02  0.13793393330E+02  0.00000000000E+00 0.  1.
         13    1    1    2    0    0 -0.53806433098E+00  0.18469729384E+02  0.36491255319E+02  0.40902851924E+02  0.10566000000E+00 0. -1.
        996    1    1    2    0    0  0.53806433098E+00 -0.18469729384E+02  0.49715295533E+02  0.72890541408E+02  0.50000000000E+02 0.  0.
<mgrwt>
<rscale>  0 0.53304976E+02</rscale>
<asrwt>0</asrwt>
<pdfrwt beam="1">  1       13 0.10000000E+01 0.53304976E+02</pdfrwt>
<pdfrwt beam="2">  1       22 0.13793417E+00 0.53304976E+02</pdfrwt>
<totfact> 0.86613734E-01</totfact>
</mgrwt>
</event>
<event>
 4    1  0.2496748E+000  0.5320414E+02  0.7957747E-01  0.1428788E+00
         13   -1    0    0    0    0  0.00000000000E+00  0.00000000000E+00  0.99999944175E+02  0.99999999996E+02  0.10566000000E+00 0.  1.
         22   -1    0    0    0    0 -0.00000000000E+00 -0.00000000000E+00 -0.33358507146E+02  0.33358507146E+02  0.00000000000E+00 0. -1.
         13    1    1    2    0    0  0.16907502446E+02  0.66945505423E+01 -0.22876240699E+02  0.29223521322E+02  0.10566000000E+00 0. -1.
        996    1    1    2    0    0 -0.16907502446E+02 -0.66945505423E+01  0.89517677728E+02  0.10413498582E+03  0.50000000000E+02 0.  0.
<mgrwt>
<rscale>  0 0.53204141E+02</rscale>
<asrwt>0</asrwt>
<pdfrwt beam="1">  1       13 0.10000000E+01 0.53204141E+02</pdfrwt>
<pdfrwt beam="2">  1       22 0.33358526E+00 0.53204141E+02</pdfrwt>
<totfact> 0.17113555E-01</totfact>
</mgrwt>
</event>
<event>
 4    1  0.2496748E+000  0.5276080E+02  0.7957747E-01  0.1430995E+00
         13   -1    0    0    0    0  0.00000000000E+00  0.00000000000E+00  0.99999944174E+02  0.99999999995E+02  0.10566000000E+00 0. -1.
         22   -1    0    0    0    0 -0.00000000000E+00 -0.00000000000E+00 -0.31703195083E+02  0.31703195083E+02  0.00000000000E+00 0.  1.
         13    1    1    2    0    0  0.10980355474E+02 -0.12772375426E+02 -0.21646120717E+02  0.27427495082E+02  0.10566000000E+00 0.  1.
        996    1    1    2    0    0 -0.10980355474E+02  0.12772375426E+02  0.89942869808E+02  0.10427570000E+03  0.50000000000E+02 0.  0.
<mgrwt>
<rscale>  0 0.52760798E+02</rscale>
<asrwt>0</asrwt>
<pdfrwt beam="1">  1       13 0.10000000E+01 0.52760798E+02</pdfrwt>
<pdfrwt beam="2">  1       22 0.31703214E+00 0.52760798E+02</pdfrwt>
<totfact> 0.18726222E-01</totfact>
</mgrwt>
</event>
<event>
 4    1  0.2496748E+000  0.5322666E+02  0.7957747E-01  0.1428676E+00
         13   -1    0    0    0    0  0.00000000000E+00  0.00000000000E+00  0.99999944177E+02  0.99999999997E+02  0.10566000000E+00 0.  1.
         22   -1    0    0    0    0 -0.00000000000E+00 -0.00000000000E+00 -0.15148871897E+02  0.15148871897E+02  0.00000000000E+00 0. -1.
         13    1    1    2    0    0 -0.15164102728E+01 -0.18187304436E+02  0.45502984138E+01  0.18809410476E+02  0.10566000000E+00 0. -1.
        996    1    1    2    0    0  0.15164102728E+01  0.18187304436E+02  0.80300773866E+02  0.96339461418E+02  0.50000000000E+02 0.  0.
<mgrwt>
<rscale>  0 0.53226662E+02</rscale>
<asrwt>0</asrwt>
<pdfrwt beam="1">  1       13 0.10000000E+01 0.53226662E+02</pdfrwt>
<pdfrwt beam="2">  1       22 0.15148896E+00 0.53226662E+02</pdfrwt>
<totfact> 0.74244889E-01</totfact>
</mgrwt>
</event>
<event>
 4    1  0.2496748E+000  0.5378429E+02  0.7957747E-01  0.1425937E+00
         13   -1    0    0    0    0  0.00000000000E+00  0.00000000000E+00  0.99999944176E+02  0.99999999996E+02  0.10566000000E+00 0. -1.
         22   -1    0    0    0    0 -0.00000000000E+00 -0.00000000000E+00 -0.22519396522E+02  0.22519396522E+02  0.00000000000E+00 0.  1.
         13    1    1    2    0    0  0.12114696796E+02 -0.15683868497E+02 -0.81258768417E+01  0.21419398871E+02  0.10566000000E+00 0.  1.
        996    1    1    2    0    0 -0.12114696796E+02  0.15683868497E+02  0.85606424495E+02  0.10109999765E+03  0.50000000000E+02 0.  0.
<mgrwt>
<rscale>  0 0.53784288E+02</rscale>
<asrwt>0</asrwt>
<pdfrwt beam="1">  1       13 0.10000000E+01 0.53784288E+02</pdfrwt>
<pdfrwt beam="2">  1       22 0.22519418E+00 0.53784288E+02</pdfrwt>
<totfact> 0.36263580E-01</totfact>
</mgrwt>
</event>
<event>
 4    1  0.2496748E+000  0.5140712E+02  0.7957747E-01  0.1437896E+00
         13   -1    0    0    0    0  0.00000000000E+00  0.00000000000E+00  0.99999944184E+02  0.10000000000E+03  0.10566000000E+00 0.  1.
         22   -1    0    0    0    0 -0.00000000000E+00 -0.00000000000E+00 -0.10906264224E+02  0.10906264224E+02  0.00000000000E+00 0.  1.
         13    1    1    2    0    0 -0.30036675540E+01 -0.11561576125E+02  0.64427913684E+01  0.13572501093E+02  0.10566000000E+00 0. -1.
        996    1    1    2    0    0  0.30036675540E+01  0.11561576125E+02  0.82650888591E+02  0.97333763136E+02  0.50000000000E+02 0.  0.
<mgrwt>
<rscale>  0 0.51407121E+02</rscale>
<asrwt>0</asrwt>
<pdfrwt beam="1">  1       13 0.10000000E+01 0.51407121E+02</pdfrwt>
<pdfrwt beam="2">  1       22 0.10906289E+00 0.51407121E+02</pdfrwt>
<totfact> 0.12396973E+00</totfact>
</mgrwt>
</event>
<event>
 4    1  0.2496748E+000  0.5247788E+02  0.7957747E-01  0.1432417E+00
         13   -1    0    0    0    0  0.00000000000E+00  0.00000000000E+00  0.99999944176E+02  0.99999999996E+02  0.10566000000E+00 0. -1.
         22   -1    0    0    0    0 -0.00000000000E+00 -0.00000000000E+00 -0.33366737799E+02  0.33366737799E+02  0.00000000000E+00 0.  1.
         13    1    1    2    0    0  0.13869052558E+02 -0.78470944612E+01 -0.23898931157E+02  0.28724511916E+02  0.10566000000E+00 0.  1.
        996    1    1    2    0    0 -0.13869052558E+02  0.78470944612E+01  0.90532137534E+02  0.10464222588E+03  0.50000000000E+02 0.  0.
<mgrwt>
<rscale>  0 0.52477876E+02</rscale>
<asrwt>0</asrwt>
<pdfrwt beam="1">  1       13 0.10000000E+01 0.52477876E+02</pdfrwt>
<pdfrwt beam="2">  1       22 0.33366756E+00 0.52477876E+02</pdfrwt>
<totfact> 0.17092335E-01</totfact>
</mgrwt>
</event>
<event>
 4    1  0.2496748E+000  0.6865662E+02  0.7957747E-01  0.1364722E+00
         13   -1    0    0    0    0  0.00000000000E+00  0.00000000000E+00  0.99999944180E+02  0.10000000000E+03  0.10566000000E+00 0.  1.
         22   -1    0    0    0    0 -0.00000000000E+00 -0.00000000000E+00 -0.46409618467E+02  0.46409618467E+02  0.00000000000E+00 0. -1.
         13    1    1    2    0    0 -0.44422882547E+02 -0.15502881333E+02 -0.14977954516E+02  0.49376939040E+02  0.10566000000E+00 0. -1.
        996    1    1    2    0    0  0.44422882547E+02  0.15502881333E+02  0.68568280229E+02  0.97032679428E+02  0.50000000000E+02 0.  0.
<mgrwt>
<rscale>  0 0.68656623E+02</rscale>
<asrwt>0</asrwt>
<pdfrwt beam="1">  1       13 0.10000000E+01 0.68656623E+02</pdfrwt>
<pdfrwt beam="2">  1       22 0.46409633E+00 0.68656623E+02</pdfrwt>
<totfact> 0.90402060E-02</totfact>
</mgrwt>
</event>
<event>
 4    1  0.2496748E+000  0.5235885E+02  0.7957747E-01  0.1433018E+00
         13   -1    0    0    0    0  0.00000000000E+00  0.00000000000E+00  0.99999944182E+02  0.10000000000E+03  0.10566000000E+00 0.  1.
         22   -1    0    0    0    0 -0.00000000000E+00 -0.00000000000E+00 -0.12734903012E+02  0.12734903012E+02  0.00000000000E+00 0.  1.
         13    1    1    2    0    0 -0.11661860993E+02 -0.10268899432E+02  0.37100902052E+02  0.40223592511E+02  0.10566000000E+00 0. -1.
        996    1    1    2    0    0  0.11661860993E+02  0.10268899432E+02  0.50164139118E+02  0.72511310503E+02  0.50000000000E+02 0.  0.
<mgrwt>
<rscale>  0 0.52358851E+02</rscale>
<asrwt>0</asrwt>
<pdfrwt beam="1">  1       13 0.10000000E+01 0.52358851E+02</pdfrwt>
<pdfrwt beam="2">  1       22 0.12734927E+00 0.52358851E+02</pdfrwt>
<totfact> 0.98123076E-01</totfact>
</mgrwt>
</event>
<event>
 4    1  0.2496748E+000  0.6010840E+02  0.7957747E-01  0.1397377E+00
         13   -1    0    0    0    0  0.00000000000E+00  0.00000000000E+00  0.99999944170E+02  0.99999999991E+02  0.10566000000E+00 0. -1.
         22   -1    0    0    0    0 -0.00000000000E+00 -0.00000000000E+00 -0.44729574930E+02  0.44729574930E+02  0.00000000000E+00 0.  1.
         13    1    1    2    0    0 -0.31355209268E+02  0.11396073247E+02 -0.26945246020E+02  0.42884461997E+02  0.10566000000E+00 0.  1.
        996    1    1    2    0    0  0.31355209268E+02 -0.11396073247E+02  0.82215615260E+02  0.10184511292E+03  0.50000000000E+02 0.  0.
<mgrwt>
<rscale>  0 0.60108399E+02</rscale>
<asrwt>0</asrwt>
<pdfrwt beam="1">  1       13 0.10000000E+01 0.60108399E+02</pdfrwt>
<pdfrwt beam="2">  1       22 0.44729590E+00 0.60108399E+02</pdfrwt>
<totfact> 0.98429314E-02</totfact>
</mgrwt>
</event>
<event>
 4    1  0.2496748E+000  0.5101704E+02  0.7957747E-01  0.1439932E+00
         13   -1    0    0    0    0  0.00000000000E+00  0.00000000000E+00  0.99999944185E+02  0.10000000001E+03  0.10566000000E+00 0. -1.
         22   -1    0    0    0    0 -0.00000000000E+00 -0.00000000000E+00 -0.13399085361E+02  0.13399085361E+02  0.00000000000E+00 0. -1.
         13    1    1    2    0    0 -0.98531694982E+01  0.23776465787E+01 -0.27555963604E+01  0.10504409919E+02  0.10566000000E+00 0.  1.
        996    1    1    2    0    0  0.98531694982E+01 -0.23776465787E+01  0.89356455184E+02  0.10289467545E+03  0.50000000000E+02 0.  0.
<mgrwt>
<rscale>  0 0.51017038E+02</rscale>
<asrwt>0</asrwt>
<pdfrwt beam="1">  1       13 0.10000000E+01 0.51017038E+02</pdfrwt>
<pdfrwt beam="2">  1       22 0.13399110E+00 0.51017038E+02</pdfrwt>
<totfact> 0.90294400E-01</totfact>
</mgrwt>
</event>
<event>
 4    1  0.2496748E+000  0.5958300E+02  0.7957747E-01  0.1399590E+00
         13   -1    0    0    0    0  0.00000000000E+00  0.00000000000E+00  0.99999944175E+02  0.99999999996E+02  0.10566000000E+00 0.  1.
         22   -1    0    0    0    0 -0.00000000000E+00 -0.00000000000E+00 -0.21467273751E+02  0.21467273751E+02  0.00000000000E+00 0. -1.
         13    1    1    2    0    0 -0.29164044481E+02 -0.14127733357E+02  0.20830299105E+02  0.38523328843E+02  0.10566000000E+00 0. -1.
        996    1    1    2    0    0  0.29164044481E+02  0.14127733357E+02  0.57702371319E+02  0.82943944904E+02  0.50000000000E+02 0.  0.
<mgrwt>
<rscale>  0 0.59583004E+02</rscale>
<asrwt>0</asrwt>
<pdfrwt beam="1">  1       13 0.10000000E+01 0.59583004E+02</pdfrwt>
<pdfrwt beam="2">  1       22 0.21467296E+00 0.59583004E+02</pdfrwt>
<totfact> 0.40125244E-01</totfact>
</mgrwt>
</event>
<event>
 4    1  0.2496748E+000  0.5412310E+02  0.7957747E-01  0.1424292E+00
         13   -1    0    0    0    0  0.00000000000E+00  0.00000000000E+00  0.99999944179E+02  0.10000000000E+03  0.10566000000E+00 0.  1.
         22   -1    0    0    0    0 -0.00000000000E+00 -0.00000000000E+00 -0.63582494879E+02  0.63582494879E+02  0.00000000000E+00 0. -1.
         13    1    1    2    0    0 -0.16384511741E+02 -0.12682977432E+02 -0.54203810668E+02  0.58029082334E+02  0.10566000000E+00 0. -1.
        996    1    1    2    0    0  0.16384511741E+02  0.12682977432E+02  0.90621259969E+02  0.10555341254E+03  0.50000000000E+02 0.  0.
<mgrwt>
<rscale>  0 0.54123102E+02</rscale>
<asrwt>0</asrwt>
<pdfrwt beam="1">  1       13 0.10000000E+01 0.54123102E+02</pdfrwt>
<pdfrwt beam="2">  1       22 0.63582505E+00 0.54123102E+02</pdfrwt>
<totfact> 0.81624325E-02</totfact>
</mgrwt>
</event>
<event>
 4    1  0.2496748E+000  0.7598181E+02  0.7957747E-01  0.1340857E+00
         13   -1    0    0    0    0  0.00000000000E+00  0.00000000000E+00  0.99999944185E+02  0.10000000001E+03  0.10566000000E+00 0. -1.
         22   -1    0    0    0    0 -0.00000000000E+00 -0.00000000000E+00 -0.72435353745E+02  0.72435353745E+02  0.00000000000E+00 0.  1.
         13    1    1    2    0    0  0.56004565809E+02 -0.11692919933E+02 -0.40763910721E+02  0.70249151947E+02  0.10566000000E+00 0.  1.
        996    1    1    2    0    0 -0.56004565809E+02  0.11692919933E+02  0.68328501161E+02  0.10218620180E+03  0.50000000000E+02 0.  0.
<mgrwt>
<rscale>  0 0.75981812E+02</rscale>
<asrwt>0</asrwt>
<pdfrwt beam="1">  1       13 0.10000000E+01 0.75981812E+02</pdfrwt>
<pdfrwt beam="2">  1       22 0.72435361E+00 0.75981812E+02</pdfrwt>
<totfact> 0.61692411E-02</totfact>
</mgrwt>
</event>
<event>
 4    1  0.2496748E+000  0.7470407E+02  0.7957747E-01  0.1344790E+00
         13   -1    0    0    0    0  0.00000000000E+00  0.00000000000E+00  0.99999944181E+02  0.10000000000E+03  0.10566000000E+00 0.  1.
         22   -1    0    0    0    0 -0.00000000000E+00 -0.00000000000E+00 -0.52392143935E+02  0.52392143935E+02  0.00000000000E+00 0. -1.
         13    1    1    2    0    0  0.29919578522E+02 -0.46749517690E+02 -0.12041604271E+02  0.56795334145E+02  0.10566000000E+00 0. -1.
        996    1    1    2    0    0 -0.29919578522E+02  0.46749517690E+02  0.59649404517E+02  0.95596809792E+02  0.50000000000E+02 0.  0.
<mgrwt>
<rscale>  0 0.74704073E+02</rscale>
<asrwt>0</asrwt>
<pdfrwt beam="1">  1       13 0.10000000E+01 0.74704073E+02</pdfrwt>
<pdfrwt beam="2">  1       22 0.52392157E+00 0.74704073E+02</pdfrwt>
<totfact> 0.65497210E-02</totfact>
</mgrwt>
</event>
<event>
 4    1  0.2496748E+000  0.5204545E+02  0.7957747E-01  0.1434611E+00
         13   -1    0    0    0    0  0.00000000000E+00  0.00000000000E+00  0.99999944174E+02  0.99999999994E+02  0.10566000000E+00 0.  1.
         22   -1    0    0    0    0 -0.00000000000E+00 -0.00000000000E+00 -0.12238882210E+02  0.12238882210E+02  0.00000000000E+00 0. -1.
         13    1    1    2    0    0  0.10298211167E+02  0.10132922469E+02  0.67421969288E+01  0.15943577216E+02  0.10566000000E+00 0. -1.
        996    1    1    2    0    0 -0.10298211167E+02 -0.10132922469E+02  0.81018865035E+02  0.96295304987E+02  0.50000000000E+02 0.  0.
<mgrwt>
<rscale>  0 0.52045454E+02</rscale>
<asrwt>0</asrwt>
<pdfrwt beam="1">  1       13 0.10000000E+01 0.52045454E+02</pdfrwt>
<pdfrwt beam="2">  1       22 0.12238907E+00 0.52045454E+02</pdfrwt>
<totfact> 0.10429662E+00</totfact>
</mgrwt>
</event>
<event>
 4    1  0.2496748E+000  0.5103175E+02  0.7957747E-01  0.1439855E+00
         13   -1    0    0    0    0  0.00000000000E+00  0.00000000000E+00  0.99999944175E+02  0.99999999995E+02  0.10566000000E+00 0. -1.
         22   -1    0    0    0    0 -0.00000000000E+00 -0.00000000000E+00 -0.11114568259E+02  0.11114568259E+02  0.00000000000E+00 0. -1.
         13    1    1    2    0    0  0.83186165227E+01 -0.59194454449E+01  0.20801506059E+01  0.10420048263E+02  0.10566000000E+00 0.  1.
        996    1    1    2    0    0 -0.83186165227E+01  0.59194454449E+01  0.86805225310E+02  0.10069451999E+03  0.50000000000E+02 0.  0.
<mgrwt>
<rscale>  0 0.51031747E+02</rscale>
<asrwt>0</asrwt>
<pdfrwt beam="1">  1       13 0.10000000E+01 0.51031747E+02</pdfrwt>
<pdfrwt beam="2">  1       22 0.11114593E+00 0.51031747E+02</pdfrwt>
<totfact> 0.12042295E+00</totfact>
</mgrwt>
</event>
<event>
 4    1  0.2496748E+000  0.5512277E+02  0.7957747E-01  0.1419519E+00
         13   -1    0    0    0    0  0.00000000000E+00  0.00000000000E+00  0.99999944178E+02  0.99999999998E+02  0.10566000000E+00 0. -1.
         22   -1    0    0    0    0 -0.00000000000E+00 -0.00000000000E+00 -0.17023925606E+02  0.17023925606E+02  0.00000000000E+00 0.  1.
         13    1    1    2    0    0  0.14702119579E+02  0.17954597710E+02  0.92791097998E+01  0.24992657757E+02  0.10566000000E+00 0.  1.
        996    1    1    2    0    0 -0.14702119579E+02 -0.17954597710E+02  0.73696908772E+02  0.92031267848E+02  0.50000000000E+02 0.  0.
<mgrwt>
<rscale>  0 0.55122771E+02</rscale>
<asrwt>0</asrwt>
<pdfrwt beam="1">  1       13 0.10000000E+01 0.55122771E+02</pdfrwt>
<pdfrwt beam="2">  1       22 0.17023949E+00 0.55122771E+02</pdfrwt>
<totfact> 0.61005093E-01</totfact>
</mgrwt>
</event>
<event>
 4    1  0.2496748E+000  0.5476328E+02  0.7957747E-01  0.1421222E+00
         13   -1    0    0    0    0  0.00000000000E+00  0.00000000000E+00  0.99999944167E+02  0.99999999987E+02  0.10566000000E+00 0. -1.
         22   -1    0    0    0    0 -0.00000000000E+00 -0.00000000000E+00 -0.20954390079E+02  0.20954390079E+02  0.00000000000E+00 0.  1.
         13    1    1    2    0    0  0.13949008838E+02  0.17448277052E+02 -0.27619637102E+01  0.22509038789E+02  0.10566000000E+00 0.  1.
        996    1    1    2    0    0 -0.13949008838E+02 -0.17448277052E+02  0.81807517798E+02  0.98445351276E+02  0.50000000000E+02 0.  0.
<mgrwt>
<rscale>  0 0.54763283E+02</rscale>
<asrwt>0</asrwt>
<pdfrwt beam="1">  1       13 0.10000000E+01 0.54763283E+02</pdfrwt>
<pdfrwt beam="2">  1       22 0.20954412E+00 0.54763283E+02</pdfrwt>
<totfact> 0.41701414E-01</totfact>
</mgrwt>
</event>
<event>
 4    1  0.2496748E+000  0.5367964E+02  0.7957747E-01  0.1426448E+00
         13   -1    0    0    0    0  0.00000000000E+00  0.00000000000E+00  0.99999944185E+02  0.10000000001E+03  0.10566000000E+00 0. -1.
         22   -1    0    0    0    0 -0.00000000000E+00 -0.00000000000E+00 -0.22336441534E+02  0.22336441534E+02  0.00000000000E+00 0.  1.
         13    1    1    2    0    0  0.19075359515E+02 -0.41993160480E+01 -0.81110800956E+01  0.21149571633E+02  0.10566000000E+00 0.  1.
        996    1    1    2    0    0 -0.19075359515E+02  0.41993160480E+01  0.85774582747E+02  0.10118686991E+03  0.50000000000E+02 0.  0.
<mgrwt>
<rscale>  0 0.53679639E+02</rscale>
<asrwt>0</asrwt>
<pdfrwt beam="1">  1       13 0.10000000E+01 0.53679639E+02</pdfrwt>
<pdfrwt beam="2">  1       22 0.22336463E+00 0.53679639E+02</pdfrwt>
<totfact> 0.36833950E-01</totfact>
</mgrwt>
</event>
<event>
 4    1  0.2496748E+000  0.5258069E+02  0.7957747E-01  0.1431899E+00
         13   -1    0    0    0    0  0.00000000000E+00  0.00000000000E+00  0.99999944176E+02  0.99999999996E+02  0.10566000000E+00 0.  1.
         22   -1    0    0    0    0 -0.00000000000E+00 -0.00000000000E+00 -0.12560416811E+02  0.12560416811E+02  0.00000000000E+00 0.  1.
         13    1    1    2    0    0 -0.68608530481E+01  0.14753217867E+02  0.33449815870E+02  0.37197178492E+02  0.10566000000E+00 0. -1.
        996    1    1    2    0    0  0.68608530481E+01 -0.14753217867E+02  0.53989711495E+02  0.75363238315E+02  0.50000000000E+02 0.  0.
<mgrwt>
<rscale>  0 0.52580688E+02</rscale>
<asrwt>0</asrwt>
<pdfrwt beam="1">  1       13 0.10000000E+01 0.52580688E+02</pdfrwt>
<pdfrwt beam="2">  1       22 0.12560441E+00 0.52580688E+02</pdfrwt>
<totfact> 0.10030661E+00</totfact>
</mgrwt>
</event>
<event>
 4    1  0.2496748E+000  0.5156981E+02  0.7957747E-01  0.1437054E+00
         13   -1    0    0    0    0  0.00000000000E+00  0.00000000000E+00  0.99999944181E+02  0.10000000000E+03  0.10566000000E+00 0.  1.
         22   -1    0    0    0    0 -0.00000000000E+00 -0.00000000000E+00 -0.14961786346E+02  0.14961786346E+02  0.00000000000E+00 0.  1.
         13    1    1    2    0    0 -0.97520304463E+01  0.80214057760E+01 -0.29565303459E+01  0.12969089566E+02  0.10566000000E+00 0. -1.
        996    1    1    2    0    0  0.97520304463E+01 -0.80214057760E+01  0.87994688181E+02  0.10199269678E+03  0.50000000000E+02 0.  0.
<mgrwt>
<rscale>  0 0.51569808E+02</rscale>
<asrwt>0</asrwt>
<pdfrwt beam="1">  1       13 0.10000000E+01 0.51569808E+02</pdfrwt>
<pdfrwt beam="2">  1       22 0.14961810E+00 0.51569808E+02</pdfrwt>
<totfact> 0.75545944E-01</totfact>
</mgrwt>
</event>
<event>
 4    1  0.2496748E+000  0.5275811E+02  0.7957747E-01  0.1431008E+00
         13   -1    0    0    0    0  0.00000000000E+00  0.00000000000E+00  0.99999944185E+02  0.10000000000E+03  0.10566000000E+00 0.  1.
         22   -1    0    0    0    0 -0.00000000000E+00 -0.00000000000E+00 -0.88948738237E+02  0.88948738237E+02  0.00000000000E+00 0. -1.
         13    1    1    2    0    0  0.34278274178E+00 -0.16831536901E+02 -0.81064655182E+02  0.82794369484E+02  0.10566000000E+00 0. -1.
        996    1    1    2    0    0 -0.34278274178E+00  0.16831536901E+02  0.92115861130E+02  0.10615436876E+03  0.50000000000E+02 0.  0.
<mgrwt>
<rscale>  0 0.52758110E+02</rscale>
<asrwt>0</asrwt>
<pdfrwt beam="1">  1       13 0.10000000E+01 0.52758110E+02</pdfrwt>
<pdfrwt beam="2">  1       22 0.88948741E+00 0.52758110E+02</pdfrwt>
<totfact> 0.11983572E-02</totfact>
</mgrwt>
</event>
<event>
 4    1  0.2496748E+000  0.7070419E+02  0.7957747E-01  0.1357715E+00
         13   -1    0    0    0    0  0.00000000000E+00  0.00000000000E+00  0.99999944177E+02  0.99999999997E+02  0.10566000000E+00 0.  1.
         22   -1    0    0    0    0 -0.00000000000E+00 -0.00000000000E+00 -0.48835344087E+02  0.48835344087E+02  0.00000000000E+00 0. -1.
         13    1    1    2    0    0 -0.34653247417E+02  0.36031022062E+02 -0.14802177195E+02  0.52136337819E+02  0.10566000000E+00 0. -1.
        996    1    1    2    0    0  0.34653247417E+02 -0.36031022062E+02  0.65966777285E+02  0.96699006266E+02  0.50000000000E+02 0.  0.
<mgrwt>
<rscale>  0 0.70704187E+02</rscale>
<asrwt>0</asrwt>
<pdfrwt beam="1">  1       13 0.10000000E+01 0.70704187E+02</pdfrwt>
<pdfrwt beam="2">  1       22 0.48835358E+00 0.70704187E+02</pdfrwt>
<totfact> 0.79139453E-02</totfact>
</mgrwt>
</event>
<event>
 4    1  0.2496748E+000  0.5332114E+02  0.7957747E-01  0.1428209E+00
         13   -1    0    0    0    0  0.00000000000E+00  0.00000000000E+00  0.99999944180E+02  0.10000000000E+03  0.10566000000E+00 0.  1.
         22   -1    0    0    0    0 -0.00000000000E+00 -0.00000000000E+00 -0.15205111899E+02  0.15205111899E+02  0.00000000000E+00 0.  1.
         13    1    1    2    0    0 -0.12616802484E+02  0.13563197435E+02  0.45022710273E+02  0.48684696095E+02  0.10566000000E+00 0. -1.
        996    1    1    2    0    0  0.12616802484E+02 -0.13563197435E+02  0.39772122008E+02  0.66520415803E+02  0.50000000000E+02 0.  0.
<mgrwt>
<rscale>  0 0.53321141E+02</rscale>
<asrwt>0</asrwt>
<pdfrwt beam="1">  1       13 0.10000000E+01 0.53321141E+02</pdfrwt>
<pdfrwt beam="2">  1       22 0.15205136E+00 0.53321141E+02</pdfrwt>
<totfact> 0.73799580E-01</totfact>
</mgrwt>
</event>
<event>
 4    1  0.2496748E+000  0.5209781E+02  0.7957747E-01  0.1434344E+00
         13   -1    0    0    0    0  0.00000000000E+00  0.00000000000E+00  0.99999944178E+02  0.99999999998E+02  0.10566000000E+00 0.  1.
         22   -1    0    0    0    0 -0.00000000000E+00 -0.00000000000E+00 -0.18905031133E+02  0.18905031133E+02  0.00000000000E+00 0. -1.
         13    1    1    2    0    0  0.12038932917E+02  0.83214265942E+01 -0.72577896928E+01  0.16336117091E+02  0.10566000000E+00 0. -1.
        996    1    1    2    0    0 -0.12038932917E+02 -0.83214265942E+01  0.88352702738E+02  0.10256891404E+03  0.50000000000E+02 0.  0.
<mgrwt>
<rscale>  0 0.52097812E+02</rscale>
<asrwt>0</asrwt>
<pdfrwt beam="1">  1       13 0.10000000E+01 0.52097812E+02</pdfrwt>
<pdfrwt beam="2">  1       22 0.18905054E+00 0.52097812E+02</pdfrwt>
<totfact> 0.50281076E-01</totfact>
</mgrwt>
</event>
<event>
 4    1  0.2496748E+000  0.5183493E+02  0.7957747E-01  0.1435688E+00
         13   -1    0    0    0    0  0.00000000000E+00  0.00000000000E+00  0.99999944174E+02  0.99999999995E+02  0.10566000000E+00 0.  1.
         22   -1    0    0    0    0 -0.00000000000E+00 -0.00000000000E+00 -0.11090352746E+02  0.11090352746E+02  0.00000000000E+00 0.  1.
         13    1    1    2    0    0  0.85105384076E+01 -0.10697207568E+02  0.27639402048E+02  0.30835162126E+02  0.10566000000E+00 0. -1.
        996    1    1    2    0    0 -0.85105384076E+01  0.10697207568E+02  0.61270189381E+02  0.80255190614E+02  0.50000000000E+02 0.  0.
<mgrwt>
<rscale>  0 0.51834926E+02</rscale>
<asrwt>0</asrwt>
<pdfrwt beam="1">  1       13 0.10000000E+01 0.51834926E+02</pdfrwt>
<pdfrwt beam="2">  1       22 0.11090378E+00 0.51834926E+02</pdfrwt>
<totfact> 0.12104159E+00</totfact>
</mgrwt>
</event>
<event>
 4    1  0.2496748E+000  0.6634566E+02  0.7957747E-01  0.1372980E+00
         13   -1    0    0    0    0  0.00000000000E+00  0.00000000000E+00  0.99999944184E+02  0.10000000000E+03  0.10566000000E+00 0. -1.
         22   -1    0    0    0    0 -0.00000000000E+00 -0.00000000000E+00 -0.51868510920E+02  0.51868510920E+02  0.00000000000E+00 0.  1.
         13    1    1    2    0    0  0.22708499546E+02 -0.37229963950E+02 -0.27270228315E+02  0.51433672664E+02  0.10566000000E+00 0.  1.
        996    1    1    2    0    0 -0.22708499546E+02  0.37229963950E+02  0.75401661579E+02  0.10043483826E+03  0.50000000000E+02 0.  0.
<mgrwt>
<rscale>  0 0.66345657E+02</rscale>
<asrwt>0</asrwt>
<pdfrwt beam="1">  1       13 0.10000000E+01 0.66345657E+02</pdfrwt>
<pdfrwt beam="2">  1       22 0.51868524E+00 0.66345657E+02</pdfrwt>
<totfact> 0.67065010E-02</totfact>
</mgrwt>
</event>
<event>
 4    1  0.2496748E+000  0.5255771E+02  0.7957747E-01  0.1432015E+00
         13   -1    0    0    0    0  0.00000000000E+00  0.00000000000E+00  0.99999944180E+02  0.10000000000E+03  0.10566000000E+00 0.  1.
         22   -1    0    0    0    0 -0.00000000000E+00 -0.00000000000E+00 -0.24641637470E+02  0.24641637470E+02  0.00000000000E+00 0. -1.
         13    1    1    2    0    0  0.66922851418E+01  0.14748776792E+02 -0.13711792689E+02  0.21221157369E+02  0.10566000000E+00 0. -1.
        996    1    1    2    0    0 -0.66922851418E+01 -0.14748776792E+02  0.89070099400E+02  0.10342048010E+03  0.50000000000E+02 0.  0.
<mgrwt>
<rscale>  0 0.52557712E+02</rscale>
<asrwt>0</asrwt>
<pdfrwt beam="1">  1       13 0.10000000E+01 0.52557712E+02</pdfrwt>
<pdfrwt beam="2">  1       22 0.24641659E+00 0.52557712E+02</pdfrwt>
<totfact> 0.30354903E-01</totfact>
</mgrwt>
</event>
<event>
 4    1  0.2496748E+000  0.5330501E+02  0.7957747E-01  0.1428289E+00
         13   -1    0    0    0    0  0.00000000000E+00  0.00000000000E+00  0.99999944178E+02  0.99999999999E+02  0.10566000000E+00 0. -1.
         22   -1    0    0    0    0 -0.00000000000E+00 -0.00000000000E+00 -0.25702329831E+02  0.25702329831E+02  0.00000000000E+00 0.  1.
         13    1    1    2    0    0 -0.16091604880E+02  0.90820866513E+01 -0.13573120410E+02  0.22927381169E+02  0.10566000000E+00 0.  1.
        996    1    1    2    0    0  0.16091604880E+02 -0.90820866513E+01  0.87870734757E+02  0.10277494866E+03  0.50000000000E+02 0.  0.
<mgrwt>
<rscale>  0 0.53305010E+02</rscale>
<asrwt>0</asrwt>
<pdfrwt beam="1">  1       13 0.10000000E+01 0.53305010E+02</pdfrwt>
<pdfrwt beam="2">  1       22 0.25702351E+00 0.53305010E+02</pdfrwt>
<totfact> 0.27970440E-01</totfact>
</mgrwt>
</event>
<event>
 4    1  0.2496748E+000  0.5138000E+02  0.7957747E-01  0.1438037E+00
         13   -1    0    0    0    0  0.00000000000E+00  0.00000000000E+00  0.99999944185E+02  0.10000000001E+03  0.10566000000E+00 0.  1.
         22   -1    0    0    0    0 -0.00000000000E+00 -0.00000000000E+00 -0.27198146242E+02  0.27198146242E+02  0.00000000000E+00 0. -1.
         13    1    1    2    0    0 -0.56825199721E+01  0.10373663125E+02 -0.18776119990E+02  0.22191389451E+02  0.10566000000E+00 0. -1.
        996    1    1    2    0    0  0.56825199721E+01 -0.10373663125E+02  0.91577917933E+02  0.10500675680E+03  0.50000000000E+02 0.  0.
<mgrwt>
<rscale>  0 0.51379995E+02</rscale>
<asrwt>0</asrwt>
<pdfrwt beam="1">  1       13 0.10000000E+01 0.51379995E+02</pdfrwt>
<pdfrwt beam="2">  1       22 0.27198167E+00 0.51379995E+02</pdfrwt>
<totfact> 0.24960205E-01</totfact>
</mgrwt>
</event>
<event>
 4    1  0.2496748E+000  0.5173318E+02  0.7957747E-01  0.1436211E+00
         13   -1    0    0    0    0  0.00000000000E+00  0.00000000000E+00  0.99999944177E+02  0.99999999998E+02  0.10566000000E+00 0. -1.
         22   -1    0    0    0    0 -0.00000000000E+00 -0.00000000000E+00 -0.12970994923E+02  0.12970994923E+02  0.00000000000E+00 0. -1.
         13    1    1    2    0    0  0.12387461462E+02  0.47825686314E+01  0.19829288933E+01  0.13426292683E+02  0.10566000000E+00 0.  1.
        996    1    1    2    0    0 -0.12387461462E+02 -0.47825686314E+01  0.85046020361E+02  0.99544702237E+02  0.50000000000E+02 0.  0.
<mgrwt>
<rscale>  0 0.51733182E+02</rscale>
<asrwt>0</asrwt>
<pdfrwt beam="1">  1       13 0.10000000E+01 0.51733182E+02</pdfrwt>
<pdfrwt beam="2">  1       22 0.12971019E+00 0.51733182E+02</pdfrwt>
<totfact> 0.95205725E-01</totfact>
</mgrwt>
</event>
<event>
 4    1  0.2496748E+000  0.5787690E+02  0.7957747E-01  0.1406964E+00
         13   -1    0    0    0    0  0.00000000000E+00  0.00000000000E+00  0.99999944175E+02  0.99999999995E+02  0.10566000000E+00 0.  1.
         22   -1    0    0    0    0 -0.00000000000E+00 -0.00000000000E+00 -0.62443650756E+02  0.62443650756E+02  0.00000000000E+00 0. -1.
         13    1    1    2    0    0 -0.27352917308E+02 -0.10077400923E+02 -0.49770382362E+02  0.57678750153E+02  0.10566000000E+00 0. -1.
        996    1    1    2    0    0  0.27352917308E+02  0.10077400923E+02  0.87326675780E+02  0.10476490060E+03  0.50000000000E+02 0.  0.
<mgrwt>
<rscale>  0 0.57876905E+02</rscale>
<asrwt>0</asrwt>
<pdfrwt beam="1">  1       13 0.10000000E+01 0.57876905E+02</pdfrwt>
<pdfrwt beam="2">  1       22 0.62443661E+00 0.57876905E+02</pdfrwt>
<totfact> 0.75551829E-02</totfact>
</mgrwt>
</event>
<event>
 4    1  0.2496748E+000  0.5138982E+02  0.7957747E-01  0.1437986E+00
         13   -1    0    0    0    0  0.00000000000E+00  0.00000000000E+00  0.99999944179E+02  0.99999999999E+02  0.10566000000E+00 0. -1.
         22   -1    0    0    0    0 -0.00000000000E+00 -0.00000000000E+00 -0.28225075841E+02  0.28225075841E+02  0.00000000000E+00 0.  1.
         13    1    1    2    0    0 -0.10007809312E+02 -0.63841220304E+01 -0.19875220712E+02  0.23150568540E+02  0.10566000000E+00 0.  1.
        996    1    1    2    0    0  0.10007809312E+02  0.63841220304E+01  0.91650089051E+02  0.10507450730E+03  0.50000000000E+02 0.  0.
<mgrwt>
<rscale>  0 0.51389817E+02</rscale>
<asrwt>0</asrwt>
<pdfrwt beam="1">  1       13 0.10000000E+01 0.51389817E+02</pdfrwt>
<pdfrwt beam="2">  1       22 0.28225096E+00 0.51389817E+02</pdfrwt>
<totfact> 0.23228123E-01</totfact>
</mgrwt>
</event>
<event>
 4    1  0.2496748E+000  0.5101420E+02  0.7957747E-01  0.1439947E+00
         13   -1    0    0    0    0  0.00000000000E+00  0.00000000000E+00  0.99999944179E+02  0.99999999999E+02  0.10566000000E+00 0.  1.
         22   -1    0    0    0    0 -0.00000000000E+00 -0.00000000000E+00 -0.96531821459E+01  0.96531821459E+01  0.00000000000E+00 0.  1.
         13    1    1    2    0    0 -0.38916808424E+01  0.93436229071E+01  0.85393589140E+01  0.13243122121E+02  0.10566000000E+00 0. -1.
        996    1    1    2    0    0  0.38916808424E+01 -0.93436229071E+01  0.81807403119E+02  0.96410060025E+02  0.50000000000E+02 0.  0.
<mgrwt>
<rscale>  0 0.51014199E+02</rscale>
<asrwt>0</asrwt>
<pdfrwt beam="1">  1       13 0.10000000E+01 0.51014199E+02</pdfrwt>
<pdfrwt beam="2">  1       22 0.96532074E-01 0.51014199E+02</pdfrwt>
<totfact> 0.14798174E+00</totfact>
</mgrwt>
</event>
<event>
 4    1  0.2496748E+000  0.5263383E+02  0.7957747E-01  0.1431632E+00
         13   -1    0    0    0    0  0.00000000000E+00  0.00000000000E+00  0.99999944178E+02  0.99999999998E+02  0.10566000000E+00 0. -1.
         22   -1    0    0    0    0 -0.00000000000E+00 -0.00000000000E+00 -0.31709926468E+02  0.31709926468E+02  0.00000000000E+00 0.  1.
         13    1    1    2    0    0 -0.98639995640E+01  0.13153784903E+02 -0.21839842168E+02  0.27336978887E+02  0.10566000000E+00 0.  1.
        996    1    1    2    0    0  0.98639995640E+01 -0.13153784903E+02  0.90129859878E+02  0.10437294758E+03  0.50000000000E+02 0.  0.
<mgrwt>
<rscale>  0 0.52633835E+02</rscale>
<asrwt>0</asrwt>
<pdfrwt beam="1">  1       13 0.10000000E+01 0.52633835E+02</pdfrwt>
<pdfrwt beam="2">  1       22 0.31709946E+00 0.52633835E+02</pdfrwt>
<totfact> 0.18716185E-01</totfact>
</mgrwt>
</event>
<event>
 4    1  0.2496748E+000  0.5119141E+02  0.7957747E-01  0.1439019E+00
         13   -1    0    0    0    0  0.00000000000E+00  0.00000000000E+00  0.99999944185E+02  0.10000000001E+03  0.10566000000E+00 0.  1.
         22   -1    0    0    0    0 -0.00000000000E+00 -0.00000000000E+00 -0.17199035080E+02  0.17199035080E+02  0.00000000000E+00 0. -1.
         13    1    1    2    0    0 -0.84226537793E+01  0.70441051121E+01 -0.75695069406E+01  0.13336757960E+02  0.10566000000E+00 0. -1.
        996    1    1    2    0    0  0.84226537793E+01 -0.70441051121E+01  0.90370416045E+02  0.10386227713E+03  0.50000000000E+02 0.  0.
<mgrwt>
<rscale>  0 0.51191411E+02</rscale>
<asrwt>0</asrwt>
<pdfrwt beam="1">  1       13 0.10000000E+01 0.51191411E+02</pdfrwt>
<pdfrwt beam="2">  1       22 0.17199058E+00 0.51191411E+02</pdfrwt>
<totfact> 0.59474616E-01</totfact>
</mgrwt>
</event>
<event>
 4    1  0.2496748E+000  0.5181343E+02  0.7957747E-01  0.1435799E+00
         13   -1    0    0    0    0  0.00000000000E+00  0.00000000000E+00  0.99999944181E+02  0.10000000000E+03  0.10566000000E+00 0. -1.
         22   -1    0    0    0    0 -0.00000000000E+00 -0.00000000000E+00 -0.12800411014E+02  0.12800411014E+02  0.00000000000E+00 0. -1.
         13    1    1    2    0    0 -0.57784048987E+01 -0.12298027041E+02  0.41655196238E+02  0.43815499198E+02  0.10566000000E+00 0.  1.
        996    1    1    2    0    0  0.57784048987E+01  0.12298027041E+02  0.45544336929E+02  0.68984911818E+02  0.50000000000E+02 0.  0.
<mgrwt>
<rscale>  0 0.51813429E+02</rscale>
<asrwt>0</asrwt>
<pdfrwt beam="1">  1       13 0.10000000E+01 0.51813429E+02</pdfrwt>
<pdfrwt beam="2">  1       22 0.12800435E+00 0.51813429E+02</pdfrwt>
<totfact> 0.97222584E-01</totfact>
</mgrwt>
</event>
<event>
 4    1  0.2496748E+000  0.5411939E+02  0.7957747E-01  0.1424310E+00
         13   -1    0    0    0    0  0.00000000000E+00  0.00000000000E+00  0.99999944187E+02  0.10000000001E+03  0.10566000000E+00 0. -1.
         22   -1    0    0    0    0 -0.00000000000E+00 -0.00000000000E+00 -0.43690589261E+02  0.43690589261E+02  0.00000000000E+00 0.  1.
         13    1    1    2    0    0  0.19264373102E+02  0.76021566317E+01 -0.33177765363E+02  0.39111176599E+02  0.10566000000E+00 0.  1.
        996    1    1    2    0    0 -0.19264373102E+02 -0.76021566317E+01  0.89487120290E+02  0.10457941267E+03  0.50000000000E+02 0.  0.
<mgrwt>
<rscale>  0 0.54119394E+02</rscale>
<asrwt>0</asrwt>
<pdfrwt beam="1">  1       13 0.10000000E+01 0.54119394E+02</pdfrwt>
<pdfrwt beam="2">  1       22 0.43690605E+00 0.54119394E+02</pdfrwt>
<totfact> 0.10345915E-01</totfact>
</mgrwt>
</event>
<event>
 4    1  0.2496748E+000  0.5108044E+02  0.7957747E-01  0.1439600E+00
         13   -1    0    0    0    0  0.00000000000E+00  0.00000000000E+00  0.99999944179E+02  0.99999999999E+02  0.10566000000E+00 0. -1.
         22   -1    0    0    0    0 -0.00000000000E+00 -0.00000000000E+00 -0.98692630108E+01  0.98692630108E+01  0.00000000000E+00 0. -1.
         13    1    1    2    0    0  0.24281451403E+01  0.10164398575E+02  0.25004825428E+02  0.27100984224E+02  0.10566000000E+00 0.  1.
        996    1    1    2    0    0 -0.24281451403E+01 -0.10164398575E+02  0.65125855740E+02  0.82768278786E+02  0.50000000000E+02 0.  0.
<mgrwt>
<rscale>  0 0.51080435E+02</rscale>
<asrwt>0</asrwt>
<pdfrwt beam="1">  1       13 0.10000000E+01 0.51080435E+02</pdfrwt>
<pdfrwt beam="2">  1       22 0.98692882E-01 0.51080435E+02</pdfrwt>
<totfact> 0.14336635E+00</totfact>
</mgrwt>
</event>
<event>
 4    1  0.2496748E+000  0.5181911E+02  0.7957747E-01  0.1435770E+00
         13   -1    0    0    0    0  0.00000000000E+00  0.00000000000E+00  0.99999944179E+02  0.99999999999E+02  0.10566000000E+00 0. -1.
         22   -1    0    0    0    0 -0.00000000000E+00 -0.00000000000E+00 -0.10711389926E+02  0.10711389926E+02  0.00000000000E+00 0. -1.
         13    1    1    2    0    0 -0.96091297101E+01  0.96376517875E+01  0.19898469326E+02  0.24107674117E+02  0.10566000000E+00 0.  1.
        996    1    1    2    0    0  0.96091297101E+01 -0.96376517875E+01  0.69390084926E+02  0.86603715808E+02  0.50000000000E+02 0.  0.
<mgrwt>
<rscale>  0 0.51819106E+02</rscale>
<asrwt>0</asrwt>
<pdfrwt beam="1">  1       13 0.10000000E+01 0.51819106E+02</pdfrwt>
<pdfrwt beam="2">  1       22 0.10711415E+00 0.51819106E+02</pdfrwt>
<totfact> 0.12744518E+00</totfact>
</mgrwt>
</event>
<event>
 4    1  0.2496748E+000  0.5106785E+02  0.7957747E-01  0.1439666E+00
         13   -1    0    0    0    0  0.00000000000E+00  0.00000000000E+00  0.99999944176E+02  0.99999999996E+02  0.10566000000E+00 0.  1.
         22   -1    0    0    0    0 -0.00000000000E+00 -0.00000000000E+00 -0.96748779669E+01  0.96748779669E+01  0.00000000000E+00 0.  1.
         13    1    1    2    0    0  0.99203982519E+00 -0.10341231778E+02  0.22418769714E+02  0.24709059416E+02  0.10566000000E+00 0. -1.
        996    1    1    2    0    0 -0.99203982519E+00  0.10341231778E+02  0.67906296496E+02  0.84965818547E+02  0.50000000000E+02 0.  0.
<mgrwt>
<rscale>  0 0.51067849E+02</rscale>
<asrwt>0</asrwt>
<pdfrwt beam="1">  1       13 0.10000000E+01 0.51067849E+02</pdfrwt>
<pdfrwt beam="2">  1       22 0.96749032E-01 0.51067849E+02</pdfrwt>
<totfact> 0.14752538E+00</totfact>
</mgrwt>
</event>
<event>
 4    1  0.2496748E+000  0.5218770E+02  0.7957747E-01  0.1433887E+00
         13   -1    0    0    0    0  0.00000000000E+00  0.00000000000E+00  0.99999944180E+02  0.10000000000E+03  0.10566000000E+00 0. -1.
         22   -1    0    0    0    0 -0.00000000000E+00 -0.00000000000E+00 -0.17378332945E+02  0.17378332945E+02  0.00000000000E+00 0.  1.
         13    1    1    2    0    0  0.85488819512E+00  0.14927318525E+02 -0.46798942562E+01  0.15667426287E+02  0.10566000000E+00 0.  1.
        996    1    1    2    0    0 -0.85488819512E+00 -0.14927318525E+02  0.87301505491E+02  0.10171090666E+03  0.50000000000E+02 0.  0.
<mgrwt>
<rscale>  0 0.52187697E+02</rscale>
<asrwt>0</asrwt>
<pdfrwt beam="1">  1       13 0.10000000E+01 0.52187697E+02</pdfrwt>
<pdfrwt beam="2">  1       22 0.17378356E+00 0.52187697E+02</pdfrwt>
<totfact> 0.58509238E-01</totfact>
</mgrwt>
</event>
<event>
 4    1  0.2496748E+000  0.5176753E+02  0.7957747E-01  0.1436035E+00
         13   -1    0    0    0    0  0.00000000000E+00  0.00000000000E+00  0.99999944181E+02  0.10000000000E+03  0.10566000000E+00 0.  1.
         22   -1    0    0    0    0 -0.00000000000E+00 -0.00000000000E+00 -0.23682783785E+02  0.23682783785E+02  0.00000000000E+00 0. -1.
         13    1    1    2    0    0  0.10800637062E+02  0.79513409793E+01 -0.14121721128E+02  0.19475927603E+02  0.10566000000E+00 0. -1.
        996    1    1    2    0    0 -0.10800637062E+02 -0.79513409793E+01  0.90438881525E+02  0.10420685618E+03  0.50000000000E+02 0.  0.
<mgrwt>
<rscale>  0 0.51767534E+02</rscale>
<asrwt>0</asrwt>
<pdfrwt beam="1">  1       13 0.10000000E+01 0.51767534E+02</pdfrwt>
<pdfrwt beam="2">  1       22 0.23682805E+00 0.51767534E+02</pdfrwt>
<totfact> 0.32769670E-01</totfact>
</mgrwt>
</event>
<event>
 4    1  0.2496748E+000  0.5116104E+02  0.7957747E-01  0.1439178E+00
         13   -1    0    0    0    0  0.00000000000E+00  0.00000000000E+00  0.99999944183E+02  0.10000000000E+03  0.10566000000E+00 0.  1.
         22   -1    0    0    0    0 -0.00000000000E+00 -0.00000000000E+00 -0.10023486064E+02  0.10023486064E+02  0.00000000000E+00 0.  1.
         13    1    1    2    0    0 -0.71141684477E+01 -0.81756197809E+01  0.25554557519E+02  0.27757858807E+02  0.10566000000E+00 0. -1.
        996    1    1    2    0    0  0.71141684477E+01  0.81756197809E+01  0.64421900600E+02  0.82265627260E+02  0.50000000000E+02 0.  0.
<mgrwt>
<rscale>  0 0.51161041E+02</rscale>
<asrwt>0</asrwt>
<pdfrwt beam="1">  1       13 0.10000000E+01 0.51161041E+02</pdfrwt>
<pdfrwt beam="2">  1       22 0.10023511E+00 0.51161041E+02</pdfrwt>
<totfact> 0.14021549E+00</totfact>
</mgrwt>
</event>
<event>
 4    1  0.2496748E+000  0.6200247E+02  0.7957747E-01  0.1389615E+00
         13   -1    0    0    0    0  0.00000000000E+00  0.00000000000E+00  0.99999944180E+02  0.10000000000E+03  0.10566000000E+00 0.  1.
         22   -1    0    0    0    0 -0.00000000000E+00 -0.00000000000E+00 -0.33034114779E+02  0.33034114779E+02  0.00000000000E+00 0. -1.
         13    1    1    2    0    0 -0.11722002237E+02 -0.34740484102E+02 -0.61405979349E+01  0.37175592519E+02  0.10566000000E+00 0. -1.
        996    1    1    2    0    0  0.11722002237E+02  0.34740484102E+02  0.73106427336E+02  0.95858522260E+02  0.50000000000E+02 0.  0.
<mgrwt>
<rscale>  0 0.62002472E+02</rscale>
<asrwt>0</asrwt>
<pdfrwt beam="1">  1       13 0.10000000E+01 0.62002472E+02</pdfrwt>
<pdfrwt beam="2">  1       22 0.33034133E+00 0.62002472E+02</pdfrwt>
<totfact> 0.17569787E-01</totfact>
</mgrwt>
</event>
<event>
 4    1  0.2496748E+000  0.5104742E+02  0.7957747E-01  0.1439773E+00
         13   -1    0    0    0    0  0.00000000000E+00  0.00000000000E+00  0.99999944176E+02  0.99999999997E+02  0.10566000000E+00 0.  1.
         22   -1    0    0    0    0 -0.00000000000E+00 -0.00000000000E+00 -0.10282432104E+02  0.10282432104E+02  0.00000000000E+00 0.  1.
         13    1    1    2    0    0 -0.53290722355E+00  0.10273987751E+02  0.51572635914E+01  0.11508577071E+02  0.10566000000E+00 0. -1.
        996    1    1    2    0    0  0.53290722355E+00 -0.10273987751E+02  0.84560248481E+02  0.98773855030E+02  0.50000000000E+02 0.  0.
<mgrwt>
<rscale>  0 0.51047417E+02</rscale>
<asrwt>0</asrwt>
<pdfrwt beam="1">  1       13 0.10000000E+01 0.51047417E+02</pdfrwt>
<pdfrwt beam="2">  1       22 0.10282457E+00 0.51047417E+02</pdfrwt>
<totfact> 0.13507434E+00</totfact>
</mgrwt>
</event>
<event>
 4    1  0.2496748E+000  0.5104560E+02  0.7957747E-01  0.1439782E+00
         13   -1    0    0    0    0  0.00000000000E+00  0.00000000000E+00  0.99999944173E+02  0.99999999994E+02  0.10566000000E+00 0. -1.
         22   -1    0    0    0    0 -0.00000000000E+00 -0.00000000000E+00 -0.13645742604E+02  0.13645742604E+02  0.00000000000E+00 0.  1.
         13    1    1    2    0    0 -0.94420189132E+01  0.40622551330E+01 -0.30266973846E+01  0.10715675388E+02  0.10566000000E+00 0.  1.
        996    1    1    2    0    0  0.94420189132E+01 -0.40622551330E+01  0.89380898954E+02  0.10293006721E+03  0.50000000000E+02 0.  0.
<mgrwt>
<rscale>  0 0.51045604E+02</rscale>
<asrwt>0</asrwt>
<pdfrwt beam="1">  1       13 0.10000000E+01 0.51045604E+02</pdfrwt>
<pdfrwt beam="2">  1       22 0.13645767E+00 0.51045604E+02</pdfrwt>
<totfact> 0.87706255E-01</totfact>
</mgrwt>
</event>
<event>
 4    1  0.2496748E+000  0.5234498E+02  0.7957747E-01  0.1433089E+00
         13   -1    0    0    0    0  0.00000000000E+00  0.00000000000E+00  0.99999944181E+02  0.10000000000E+03  0.10566000000E+00 0. -1.
         22   -1    0    0    0    0 -0.00000000000E+00 -0.00000000000E+00 -0.14774367811E+02  0.14774367811E+02  0.00000000000E+00 0. -1.
         13    1    1    2    0    0  0.27136694020E+01 -0.15252303661E+02  0.89385753420E+00  0.15517954566E+02  0.10566000000E+00 0.  1.
        996    1    1    2    0    0 -0.27136694020E+01  0.15252303661E+02  0.84331718836E+02  0.99256413246E+02  0.50000000000E+02 0.  0.
<mgrwt>
<rscale>  0 0.52344978E+02</rscale>
<asrwt>0</asrwt>
<pdfrwt beam="1">  1       13 0.10000000E+01 0.52344978E+02</pdfrwt>
<pdfrwt beam="2">  1       22 0.14774392E+00 0.52344978E+02</pdfrwt>
<totfact> 0.77265497E-01</totfact>
</mgrwt>
</event>
<event>
 4    1  0.2496748E+000  0.5104063E+02  0.7957747E-01  0.1439808E+00
         13   -1    0    0    0    0  0.00000000000E+00  0.00000000000E+00  0.99999944172E+02  0.99999999992E+02  0.10566000000E+00 0. -1.
         22   -1    0    0    0    0 -0.00000000000E+00 -0.00000000000E+00 -0.14538047168E+02  0.14538047168E+02  0.00000000000E+00 0.  1.
         13    1    1    2    0    0 -0.42844256920E+01  0.93160772663E+01 -0.44267002570E+01  0.11169263107E+02  0.10566000000E+00 0.  1.
        996    1    1    2    0    0  0.42844256920E+01 -0.93160772663E+01  0.89888597261E+02  0.10336878405E+03  0.50000000000E+02 0.  0.
<mgrwt>
<rscale>  0 0.51040627E+02</rscale>
<asrwt>0</asrwt>
<pdfrwt beam="1">  1       13 0.10000000E+01 0.51040627E+02</pdfrwt>
<pdfrwt beam="2">  1       22 0.14538071E+00 0.51040627E+02</pdfrwt>
<totfact> 0.79133611E-01</totfact>
</mgrwt>
</event>
<event>
 4    1  0.2496748E+000  0.5167521E+02  0.7957747E-01  0.1436510E+00
         13   -1    0    0    0    0  0.00000000000E+00  0.00000000000E+00  0.99999944182E+02  0.10000000000E+03  0.10566000000E+00 0. -1.
         22   -1    0    0    0    0 -0.00000000000E+00 -0.00000000000E+00 -0.11431049051E+02  0.11431049051E+02  0.00000000000E+00 0. -1.
         13    1    1    2    0    0 -0.87388686583E+01  0.96932891016E+01  0.33305747037E+02  0.35771659575E+02  0.10566000000E+00 0.  1.
        996    1    1    2    0    0  0.87388686583E+01 -0.96932891016E+01  0.55263148093E+02  0.75659389478E+02  0.50000000000E+02 0.  0.
<mgrwt>
<rscale>  0 0.51675213E+02</rscale>
<asrwt>0</asrwt>
<pdfrwt beam="1">  1       13 0.10000000E+01 0.51675213E+02</pdfrwt>
<pdfrwt beam="2">  1       22 0.11431074E+00 0.51675213E+02</pdfrwt>
<totfact> 0.11563406E+00</totfact>
</mgrwt>
</event>
<event>
 4    1  0.2496748E+000  0.5197749E+02  0.7957747E-01  0.1434958E+00
         13   -1    0    0    0    0  0.00000000000E+00  0.00000000000E+00  0.99999944188E+02  0.10000000001E+03  0.10566000000E+00 0. -1.
         22   -1    0    0    0    0 -0.00000000000E+00 -0.00000000000E+00 -0.12278286540E+02  0.12278286540E+02  0.00000000000E+00 0.  1.
         13    1    1    2    0    0 -0.66296643312E+01 -0.12558150102E+02  0.59761609707E+01  0.15407311482E+02  0.10566000000E+00 0.  1.
        996    1    1    2    0    0  0.66296643312E+01  0.12558150102E+02  0.81745496678E+02  0.96870975066E+02  0.50000000000E+02 0.  0.
<mgrwt>
<rscale>  0 0.51977491E+02</rscale>
<asrwt>0</asrwt>
<pdfrwt beam="1">  1       13 0.10000000E+01 0.51977491E+02</pdfrwt>
<pdfrwt beam="2">  1       22 0.12278311E+00 0.51977491E+02</pdfrwt>
<totfact> 0.10376495E+00</totfact>
</mgrwt>
</event>
<event>
 4    1  0.2496748E+000  0.5113466E+02  0.7957747E-01  0.1439316E+00
         13   -1    0    0    0    0  0.00000000000E+00  0.00000000000E+00  0.99999944182E+02  0.10000000000E+03  0.10566000000E+00 0. -1.
         22   -1    0    0    0    0 -0.00000000000E+00 -0.00000000000E+00 -0.50524646376E+02  0.50524646376E+02  0.00000000000E+00 0.  1.
         13    1    1    2    0    0  0.87246442506E+01 -0.62156545131E+01 -0.43291936512E+02  0.44597720899E+02  0.10566000000E+00 0.  1.
        996    1    1    2    0    0 -0.87246442506E+01  0.62156545131E+01  0.92767234319E+02  0.10592692548E+03  0.50000000000E+02 0.  0.
<mgrwt>
<rscale>  0 0.51134663E+02</rscale>
<asrwt>0</asrwt>
<pdfrwt beam="1">  1       13 0.10000000E+01 0.51134663E+02</pdfrwt>
<pdfrwt beam="2">  1       22 0.50524660E+00 0.51134663E+02</pdfrwt>
<totfact> 0.71512166E-02</totfact>
</mgrwt>
</event>
<event>
 4    1  0.2496748E+000  0.5325696E+02  0.7957747E-01  0.1428526E+00
         13   -1    0    0    0    0  0.00000000000E+00  0.00000000000E+00  0.99999944179E+02  0.99999999999E+02  0.10566000000E+00 0. -1.
         22   -1    0    0    0    0 -0.00000000000E+00 -0.00000000000E+00 -0.19184635114E+02  0.19184635114E+02  0.00000000000E+00 0. -1.
         13    1    1    2    0    0 -0.97370318623E+01 -0.15540094292E+02 -0.42484186181E+01  0.18824572901E+02  0.10566000000E+00 0.  1.
        996    1    1    2    0    0  0.97370318623E+01  0.15540094292E+02  0.85063727682E+02  0.10036006221E+03  0.50000000000E+02 0.  0.
<mgrwt>
<rscale>  0 0.53256965E+02</rscale>
<asrwt>0</asrwt>
<pdfrwt beam="1">  1       13 0.10000000E+01 0.53256965E+02</pdfrwt>
<pdfrwt beam="2">  1       22 0.19184658E+00 0.53256965E+02</pdfrwt>
<totfact> 0.49049033E-01</totfact>
</mgrwt>
</event>
<event>
 4    1  0.2496748E+000  0.5679330E+02  0.7957747E-01  0.1411804E+00
         13   -1    0    0    0    0  0.00000000000E+00  0.00000000000E+00  0.99999944180E+02  0.10000000000E+03  0.10566000000E+00 0.  1.
         22   -1    0    0    0    0 -0.00000000000E+00 -0.00000000000E+00 -0.20016462163E+02  0.20016462163E+02  0.00000000000E+00 0. -1.
         13    1    1    2    0    0  0.17854638859E+02 -0.20166572915E+02  0.75510658566E+01  0.27973354313E+02  0.10566000000E+00 0. -1.
        996    1    1    2    0    0 -0.17854638859E+02  0.20166572915E+02  0.72432416161E+02  0.92043107851E+02  0.50000000000E+02 0.  0.
<mgrwt>
<rscale>  0 0.56793299E+02</rscale>
<asrwt>0</asrwt>
<pdfrwt beam="1">  1       13 0.10000000E+01 0.56793299E+02</pdfrwt>
<pdfrwt beam="2">  1       22 0.20016484E+00 0.56793299E+02</pdfrwt>
<totfact> 0.45610872E-01</totfact>
</mgrwt>
</event>
<event>
 4    1  0.2496748E+000  0.5128355E+02  0.7957747E-01  0.1438539E+00
         13   -1    0    0    0    0  0.00000000000E+00  0.00000000000E+00  0.99999944176E+02  0.99999999996E+02  0.10566000000E+00 0.  1.
         22   -1    0    0    0    0 -0.00000000000E+00 -0.00000000000E+00 -0.24122262365E+02  0.24122262365E+02  0.00000000000E+00 0. -1.
         13    1    1    2    0    0  0.96500427845E+01  0.60728548252E+01 -0.15556655176E+02  0.19287912686E+02  0.10566000000E+00 0. -1.
        996    1    1    2    0    0 -0.96500427845E+01 -0.60728548252E+01  0.91434336988E+02  0.10483434968E+03  0.50000000000E+02 0.  0.
<mgrwt>
<rscale>  0 0.51283554E+02</rscale>
<asrwt>0</asrwt>
<pdfrwt beam="1">  1       13 0.10000000E+01 0.51283554E+02</pdfrwt>
<pdfrwt beam="2">  1       22 0.24122284E+00 0.51283554E+02</pdfrwt>
<totfact> 0.31586399E-01</totfact>
</mgrwt>
</event>
<event>
 4    1  0.2496748E+000  0.5471991E+02  0.7957747E-01  0.1421428E+00
         13   -1    0    0    0    0  0.00000000000E+00  0.00000000000E+00  0.99999944175E+02  0.99999999996E+02  0.10566000000E+00 0.  1.
         22   -1    0    0    0    0 -0.00000000000E+00 -0.00000000000E+00 -0.17317893064E+02  0.17317893064E+02  0.00000000000E+00 0. -1.
         13    1    1    2    0    0 -0.53568074628E+01 -0.21577136896E+02  0.58454967129E+01  0.22988023375E+02  0.10566000000E+00 0. -1.
        996    1    1    2    0    0  0.53568074628E+01  0.21577136896E+02  0.76836554399E+02  0.94329869685E+02  0.50000000000E+02 0.  0.
<mgrwt>
<rscale>  0 0.54719907E+02</rscale>
<asrwt>0</asrwt>
<pdfrwt beam="1">  1       13 0.10000000E+01 0.54719907E+02</pdfrwt>
<pdfrwt beam="2">  1       22 0.17317916E+00 0.54719907E+02</pdfrwt>
<totfact> 0.59149281E-01</totfact>
</mgrwt>
</event>
<event>
 4    1  0.2496748E+000  0.5398133E+02  0.7957747E-01  0.1424979E+00
         13   -1    0    0    0    0  0.00000000000E+00  0.00000000000E+00  0.99999944180E+02  0.10000000000E+03  0.10566000000E+00 0. -1.
         22   -1    0    0    0    0 -0.00000000000E+00 -0.00000000000E+00 -0.13865682421E+02  0.13865682421E+02  0.00000000000E+00 0. -1.
         13    1    1    2    0    0  0.11873145580E+02  0.16523098668E+02  0.26824504820E+02  0.33668228323E+02  0.10566000000E+00 0.  1.
        996    1    1    2    0    0 -0.11873145580E+02 -0.16523098668E+02  0.59309756940E+02  0.80197454098E+02  0.50000000000E+02 0.  0.
<mgrwt>
<rscale>  0 0.53981334E+02</rscale>
<asrwt>0</asrwt>
<pdfrwt beam="1">  1       13 0.10000000E+01 0.53981334E+02</pdfrwt>
<pdfrwt beam="2">  1       22 0.13865706E+00 0.53981334E+02</pdfrwt>
<totfact> 0.86004602E-01</totfact>
</mgrwt>
</event>
<event>
 4    1  0.2496748E+000  0.5169075E+02  0.7957747E-01  0.1436430E+00
         13   -1    0    0    0    0  0.00000000000E+00  0.00000000000E+00  0.99999944178E+02  0.99999999998E+02  0.10566000000E+00 0. -1.
         22   -1    0    0    0    0 -0.00000000000E+00 -0.00000000000E+00 -0.12161685715E+02  0.12161685715E+02  0.00000000000E+00 0. -1.
         13    1    1    2    0    0 -0.12886961832E+02  0.24207093811E+01  0.40721521023E+01  0.13730520964E+02  0.10566000000E+00 0.  1.
        996    1    1    2    0    0  0.12886961832E+02 -0.24207093811E+01  0.83766106361E+02  0.98431164750E+02  0.50000000000E+02 0.  0.
<mgrwt>
<rscale>  0 0.51690750E+02</rscale>
<asrwt>0</asrwt>
<pdfrwt beam="1">  1       13 0.10000000E+01 0.51690750E+02</pdfrwt>
<pdfrwt beam="2">  1       22 0.12161710E+00 0.51690750E+02</pdfrwt>
<totfact> 0.10523501E+00</totfact>
</mgrwt>
</event>
<event>
 4    1  0.2496748E+000  0.5123198E+02  0.7957747E-01  0.1438808E+00
         13   -1    0    0    0    0  0.00000000000E+00  0.00000000000E+00  0.99999944180E+02  0.10000000000E+03  0.10566000000E+00 0. -1.
         22   -1    0    0    0    0 -0.00000000000E+00 -0.00000000000E+00 -0.12517514793E+02  0.12517514793E+02  0.00000000000E+00 0.  1.
         13    1    1    2    0    0  0.10323004551E+02 -0.42604720484E+01  0.35476364719E-01  0.11168189990E+02  0.10566000000E+00 0.  1.
        996    1    1    2    0    0 -0.10323004551E+02  0.42604720484E+01  0.87446953022E+02  0.10134932480E+03  0.50000000000E+02 0.  0.
<mgrwt>
<rscale>  0 0.51231983E+02</rscale>
<asrwt>0</asrwt>
<pdfrwt beam="1">  1       13 0.10000000E+01 0.51231983E+02</pdfrwt>
<pdfrwt beam="2">  1       22 0.12517539E+00 0.51231983E+02</pdfrwt>
<totfact> 0.10054288E+00</totfact>
</mgrwt>
</event>
<event>
 4    1  0.2496748E+000  0.7454679E+02  0.7957747E-01  0.1345280E+00
         13   -1    0    0    0    0  0.00000000000E+00  0.00000000000E+00  0.99999944180E+02  0.10000000000E+03  0.10566000000E+00 0. -1.
         22   -1    0    0    0    0 -0.00000000000E+00 -0.00000000000E+00 -0.42160643988E+02  0.42160643988E+02  0.00000000000E+00 0.  1.
         13    1    1    2    0    0 -0.69848496389E+01 -0.54849211696E+02  0.23297644642E+02  0.60000129650E+02  0.10566000000E+00 0.  1.
        996    1    1    2    0    0  0.69848496389E+01  0.54849211696E+02  0.34541655550E+02  0.82160514338E+02  0.50000000000E+02 0.  0.
<mgrwt>
<rscale>  0 0.74546792E+02</rscale>
<asrwt>0</asrwt>
<pdfrwt beam="1">  1       13 0.10000000E+01 0.74546792E+02</pdfrwt>
<pdfrwt beam="2">  1       22 0.42160660E+00 0.74546792E+02</pdfrwt>
<totfact> 0.11293185E-01</totfact>
</mgrwt>
</event>
<event>
 4    1  0.2496748E+000  0.5229170E+02  0.7957747E-01  0.1433359E+00
         13   -1    0    0    0    0  0.00000000000E+00  0.00000000000E+00  0.99999944175E+02  0.99999999995E+02  0.10566000000E+00 0.  1.
         22   -1    0    0    0    0 -0.00000000000E+00 -0.00000000000E+00 -0.18969354580E+02  0.18969354580E+02  0.00000000000E+00 0. -1.
         13    1    1    2    0    0  0.15286518644E+02 -0.86266799125E+00 -0.67980195066E+01  0.16752494786E+02  0.10566000000E+00 0. -1.
        996    1    1    2    0    0 -0.15286518644E+02  0.86266799125E+00  0.87828609102E+02  0.10221685979E+03  0.50000000000E+02 0.  0.
<mgrwt>
<rscale>  0 0.52291700E+02</rscale>
<asrwt>0</asrwt>
<pdfrwt beam="1">  1       13 0.10000000E+01 0.52291700E+02</pdfrwt>
<pdfrwt beam="2">  1       22 0.18969377E+00 0.52291700E+02</pdfrwt>
<totfact> 0.49987532E-01</totfact>
</mgrwt>
</event>
<event>
 4    1  0.2496748E+000  0.5522919E+02  0.7957747E-01  0.1419018E+00
         13   -1    0    0    0    0  0.00000000000E+00  0.00000000000E+00  0.99999944181E+02  0.10000000000E+03  0.10566000000E+00 0. -1.
         22   -1    0    0    0    0 -0.00000000000E+00 -0.00000000000E+00 -0.17485979464E+02  0.17485979464E+02  0.00000000000E+00 0.  1.
         13    1    1    2    0    0  0.19442215766E+02  0.13124913375E+02  0.81018613351E+01  0.24817623297E+02  0.10566000000E+00 0.  1.
        996    1    1    2    0    0 -0.19442215766E+02 -0.13124913375E+02  0.74412103382E+02  0.92668356168E+02  0.50000000000E+02 0.  0.
<mgrwt>
<rscale>  0 0.55229187E+02</rscale>
<asrwt>0</asrwt>
<pdfrwt beam="1">  1       13 0.10000000E+01 0.55229187E+02</pdfrwt>
<pdfrwt beam="2">  1       22 0.17486003E+00 0.55229187E+02</pdfrwt>
<totfact> 0.58199358E-01</totfact>
</mgrwt>
</event>
<event>
 4    1  0.2496748E+000  0.5104183E+02  0.7957747E-01  0.1439802E+00
         13   -1    0    0    0    0  0.00000000000E+00  0.00000000000E+00  0.99999944183E+02  0.10000000000E+03  0.10566000000E+00 0.  1.
         22   -1    0    0    0    0 -0.00000000000E+00 -0.00000000000E+00 -0.28183342765E+02  0.28183342765E+02  0.00000000000E+00 0. -1.
         13    1    1    2    0    0  0.83387648935E+01 -0.59777630977E+01 -0.20370724583E+02  0.22808906937E+02  0.10566000000E+00 0. -1.
        996    1    1    2    0    0 -0.83387648935E+01  0.59777630977E+01  0.92187326000E+02  0.10537443583E+03  0.50000000000E+02 0.  0.
<mgrwt>
<rscale>  0 0.51041832E+02</rscale>
<asrwt>0</asrwt>
<pdfrwt beam="1">  1       13 0.10000000E+01 0.51041832E+02</pdfrwt>
<pdfrwt beam="2">  1       22 0.28183363E+00 0.51041832E+02</pdfrwt>
<totfact> 0.23282889E-01</totfact>
</mgrwt>
</event>
<event>
 4    1  0.2496748E+000  0.6041025E+02  0.7957747E-01  0.1396118E+00
         13   -1    0    0    0    0  0.00000000000E+00  0.00000000000E+00  0.99999944178E+02  0.99999999998E+02  0.10566000000E+00 0.  1.
         22   -1    0    0    0    0 -0.00000000000E+00 -0.00000000000E+00 -0.29919291001E+02  0.29919291001E+02  0.00000000000E+00 0. -1.
         13    1    1    2    0    0  0.25391366474E+02  0.22465010563E+02 -0.42140870539E+01  0.34163838847E+02  0.10566000000E+00 0. -1.
        996    1    1    2    0    0 -0.25391366474E+02 -0.22465010563E+02  0.74294740231E+02  0.95755452153E+02  0.50000000000E+02 0.  0.
<mgrwt>
<rscale>  0 0.60410249E+02</rscale>
<asrwt>0</asrwt>
<pdfrwt beam="1">  1       13 0.10000000E+01 0.60410249E+02</pdfrwt>
<pdfrwt beam="2">  1       22 0.29919311E+00 0.60410249E+02</pdfrwt>
<totfact> 0.21022426E-01</totfact>
</mgrwt>
</event>
<event>
 4    1  0.2496748E+000  0.5210702E+02  0.7957747E-01  0.1434297E+00
         13   -1    0    0    0    0  0.00000000000E+00  0.00000000000E+00  0.99999944182E+02  0.10000000000E+03  0.10566000000E+00 0. -1.
         22   -1    0    0    0    0 -0.00000000000E+00 -0.00000000000E+00 -0.12438932344E+02  0.12438932344E+02  0.00000000000E+00 0. -1.
         13    1    1    2    0    0  0.13480811792E+02  0.57801168111E+01  0.64290101248E+01  0.16015160697E+02  0.10566000000E+00 0.  1.
        996    1    1    2    0    0 -0.13480811792E+02 -0.57801168111E+01  0.81132001713E+02  0.96423771649E+02  0.50000000000E+02 0.  0.
<mgrwt>
<rscale>  0 0.52107025E+02</rscale>
<asrwt>0</asrwt>
<pdfrwt beam="1">  1       13 0.10000000E+01 0.52107025E+02</pdfrwt>
<pdfrwt beam="2">  1       22 0.12438957E+00 0.52107025E+02</pdfrwt>
<totfact> 0.10172765E+00</totfact>
</mgrwt>
</event>
<event>
 4    1  0.2496748E+000  0.5638501E+02  0.7957747E-01  0.1413660E+00
         13   -1    0    0    0    0  0.00000000000E+00  0.00000000000E+00  0.99999944183E+02  0.10000000000E+03  0.10566000000E+00 0. -1.
         22   -1    0    0    0    0 -0.00000000000E+00 -0.00000000000E+00 -0.35008349838E+02  0.35008349838E+02  0.00000000000E+00 0.  1.
         13    1    1    2    0    0 -0.21641552281E+02  0.14522826753E+02 -0.20111985225E+02  0.32920698591E+02  0.10566000000E+00 0.  1.
        996    1    1    2    0    0  0.21641552281E+02 -0.14522826753E+02  0.85103579570E+02  0.10208765125E+03  0.50000000000E+02 0.  0.
<mgrwt>
<rscale>  0 0.56385009E+02</rscale>
<asrwt>0</asrwt>
<pdfrwt beam="1">  1       13 0.10000000E+01 0.56385009E+02</pdfrwt>
<pdfrwt beam="2">  1       22 0.35008368E+00 0.56385009E+02</pdfrwt>
<totfact> 0.15776454E-01</totfact>
</mgrwt>
</event>
<event>
 4    1  0.2496748E+000  0.5177363E+02  0.7957747E-01  0.1436003E+00
         13   -1    0    0    0    0  0.00000000000E+00  0.00000000000E+00  0.99999944179E+02  0.10000000000E+03  0.10566000000E+00 0. -1.
         22   -1    0    0    0    0 -0.00000000000E+00 -0.00000000000E+00 -0.14469377146E+02  0.14469377146E+02  0.00000000000E+00 0.  1.
         13    1    1    2    0    0  0.65212919200E+01  0.11746566415E+02 -0.11700954815E+01  0.13486636286E+02  0.10566000000E+00 0.  1.
        996    1    1    2    0    0 -0.65212919200E+01 -0.11746566415E+02  0.86700662515E+02  0.10098274086E+03  0.50000000000E+02 0.  0.
<mgrwt>
<rscale>  0 0.51773633E+02</rscale>
<asrwt>0</asrwt>
<pdfrwt beam="1">  1       13 0.10000000E+01 0.51773633E+02</pdfrwt>
<pdfrwt beam="2">  1       22 0.14469401E+00 0.51773633E+02</pdfrwt>
<totfact> 0.79874086E-01</totfact>
</mgrwt>
</event>
<event>
 4    1  0.2496748E+000  0.5246511E+02  0.7957747E-01  0.1432481E+00
         13   -1    0    0    0    0  0.00000000000E+00  0.00000000000E+00  0.99999944185E+02  0.10000000001E+03  0.10566000000E+00 0. -1.
         22   -1    0    0    0    0 -0.00000000000E+00 -0.00000000000E+00 -0.14153832479E+02  0.14153832479E+02  0.00000000000E+00 0. -1.
         13    1    1    2    0    0 -0.88002794683E+01 -0.13234160394E+02  0.31246996125E+01  0.16197618089E+02  0.10566000000E+00 0.  1.
        996    1    1    2    0    0  0.88002794683E+01  0.13234160394E+02  0.82721412093E+02  0.97956214396E+02  0.50000000000E+02 0.  0.
<mgrwt>
<rscale>  0 0.52465111E+02</rscale>
<asrwt>0</asrwt>
<pdfrwt beam="1">  1       13 0.10000000E+01 0.52465111E+02</pdfrwt>
<pdfrwt beam="2">  1       22 0.14153856E+00 0.52465111E+02</pdfrwt>
<totfact> 0.82924470E-01</totfact>
</mgrwt>
</event>
<event>
 4    1  0.2496748E+000  0.5892099E+02  0.7957747E-01  0.1402416E+00
         13   -1    0    0    0    0  0.00000000000E+00  0.00000000000E+00  0.99999944189E+02  0.10000000001E+03  0.10566000000E+00 0.  1.
         22   -1    0    0    0    0 -0.00000000000E+00 -0.00000000000E+00 -0.25287321434E+02  0.25287321434E+02  0.00000000000E+00 0.  1.
         13    1    1    2    0    0  0.31169108036E+02 -0.41231975209E+00  0.13613020267E+01  0.31201724481E+02  0.10566000000E+00 0. -1.
        996    1    1    2    0    0 -0.31169108036E+02  0.41231975209E+00  0.73351320728E+02  0.94085596963E+02  0.50000000000E+02 0.  0.
<mgrwt>
<rscale>  0 0.58920992E+02</rscale>
<asrwt>0</asrwt>
<pdfrwt beam="1">  1       13 0.10000000E+01 0.58920992E+02</pdfrwt>
<pdfrwt beam="2">  1       22 0.25287342E+00 0.58920992E+02</pdfrwt>
<totfact> 0.29115530E-01</totfact>
</mgrwt>
</event>
<event>
 4    1  0.2496748E+000  0.5464929E+02  0.7957747E-01  0.1421765E+00
         13   -1    0    0    0    0  0.00000000000E+00  0.00000000000E+00  0.99999944178E+02  0.99999999998E+02  0.10566000000E+00 0. -1.
         22   -1    0    0    0    0 -0.00000000000E+00 -0.00000000000E+00 -0.14791753283E+02  0.14791753283E+02  0.00000000000E+00 0.  1.
         13    1    1    2    0    0  0.21056797292E+02 -0.65693666389E+01  0.28467451127E+02  0.36013222960E+02  0.10566000000E+00 0.  1.
        996    1    1    2    0    0 -0.21056797292E+02  0.65693666389E+01  0.56740739767E+02  0.78778530321E+02  0.50000000000E+02 0.  0.
<mgrwt>
<rscale>  0 0.54649294E+02</rscale>
<asrwt>0</asrwt>
<pdfrwt beam="1">  1       13 0.10000000E+01 0.54649294E+02</pdfrwt>
<pdfrwt beam="2">  1       22 0.14791777E+00 0.54649294E+02</pdfrwt>
<totfact> 0.77470188E-01</totfact>
</mgrwt>
</event>
<event>
 4    1  0.2496748E+000  0.5099778E+02  0.7957747E-01  0.1440033E+00
         13   -1    0    0    0    0  0.00000000000E+00  0.00000000000E+00  0.99999944174E+02  0.99999999994E+02  0.10566000000E+00 0.  1.
         22   -1    0    0    0    0 -0.00000000000E+00 -0.00000000000E+00 -0.10290725604E+02  0.10290725604E+02  0.00000000000E+00 0. -1.
         13    1    1    2    0    0 -0.78670065299E+01  0.62356666137E+01  0.45342760234E+01  0.11015632208E+02  0.10566000000E+00 0. -1.
        996    1    1    2    0    0  0.78670065299E+01 -0.62356666137E+01  0.85174942546E+02  0.99275093390E+02  0.50000000000E+02 0.  0.
<mgrwt>
<rscale>  0 0.50997778E+02</rscale>
<asrwt>0</asrwt>
<pdfrwt beam="1">  1       13 0.10000000E+01 0.50997778E+02</pdfrwt>
<pdfrwt beam="2">  1       22 0.10290751E+00 0.50997778E+02</pdfrwt>
<totfact> 0.13489936E+00</totfact>
</mgrwt>
</event>
<event>
 4    1  0.2496748E+000  0.5106170E+02  0.7957747E-01  0.1439698E+00
         13   -1    0    0    0    0  0.00000000000E+00  0.00000000000E+00  0.99999944182E+02  0.10000000000E+03  0.10566000000E+00 0.  1.
         22   -1    0    0    0    0 -0.00000000000E+00 -0.00000000000E+00 -0.13584555424E+02  0.13584555424E+02  0.00000000000E+00 0. -1.
         13    1    1    2    0    0  0.64277131516E+01  0.81229392420E+01 -0.28525478818E+01  0.10744572199E+02  0.10566000000E+00 0. -1.
        996    1    1    2    0    0 -0.64277131516E+01 -0.81229392420E+01  0.89267936639E+02  0.10283998323E+03  0.50000000000E+02 0.  0.
<mgrwt>
<rscale>  0 0.51061704E+02</rscale>
<asrwt>0</asrwt>
<pdfrwt beam="1">  1       13 0.10000000E+01 0.51061704E+02</pdfrwt>
<pdfrwt beam="2">  1       22 0.13584580E+00 0.51061704E+02</pdfrwt>
<totfact> 0.88343011E-01</totfact>
</mgrwt>
</event>
<event>
 4    1  0.2496748E+000  0.5221765E+02  0.7957747E-01  0.1433734E+00
         13   -1    0    0    0    0  0.00000000000E+00  0.00000000000E+00  0.99999944183E+02  0.10000000000E+03  0.10566000000E+00 0.  1.
         22   -1    0    0    0    0 -0.00000000000E+00 -0.00000000000E+00 -0.67912010272E+02  0.67912010272E+02  0.00000000000E+00 0. -1.
         13    1    1    2    0    0  0.14843461537E+02  0.25208029808E+01 -0.60102841274E+02  0.61960031401E+02  0.10566000000E+00 0. -1.
        996    1    1    2    0    0 -0.14843461537E+02 -0.25208029808E+01  0.92190775185E+02  0.10595197887E+03  0.50000000000E+02 0.  0.
<mgrwt>
<rscale>  0 0.52217648E+02</rscale>
<asrwt>0</asrwt>
<pdfrwt beam="1">  1       13 0.10000000E+01 0.52217648E+02</pdfrwt>
<pdfrwt beam="2">  1       22 0.67912019E+00 0.52217648E+02</pdfrwt>
<totfact> 0.83776015E-02</totfact>
</mgrwt>
</event>
<event>
 4    1  0.2496748E+000  0.5130607E+02  0.7957747E-01  0.1438422E+00
         13   -1    0    0    0    0  0.00000000000E+00  0.00000000000E+00  0.99999944175E+02  0.99999999995E+02  0.10566000000E+00 0.  1.
         22   -1    0    0    0    0 -0.00000000000E+00 -0.00000000000E+00 -0.11734152602E+02  0.11734152602E+02  0.00000000000E+00 0. -1.
         13    1    1    2    0    0 -0.70893622105E+01 -0.90583739265E+01  0.24660265760E+01  0.11764592889E+02  0.10566000000E+00 0. -1.
        996    1    1    2    0    0  0.70893622105E+01  0.90583739265E+01  0.85799764997E+02  0.99969559708E+02  0.50000000000E+02 0.  0.
<mgrwt>
<rscale>  0 0.51306074E+02</rscale>
<asrwt>0</asrwt>
<pdfrwt beam="1">  1       13 0.10000000E+01 0.51306074E+02</pdfrwt>
<pdfrwt beam="2">  1       22 0.11734177E+00 0.51306074E+02</pdfrwt>
<totfact> 0.11105549E+00</totfact>
</mgrwt>
</event>
<event>
 4    1  0.2496748E+000  0.5130494E+02  0.7957747E-01  0.1438428E+00
         13   -1    0    0    0    0  0.00000000000E+00  0.00000000000E+00  0.99999944181E+02  0.10000000000E+03  0.10566000000E+00 0. -1.
         22   -1    0    0    0    0 -0.00000000000E+00 -0.00000000000E+00 -0.24376824124E+02  0.24376824124E+02  0.00000000000E+00 0.  1.
         13    1    1    2    0    0  0.82456627920E+01 -0.80128741147E+01 -0.15800507875E+02  0.19541348971E+02  0.10566000000E+00 0.  1.
        996    1    1    2    0    0 -0.82456627920E+01  0.80128741147E+01  0.91423627933E+02  0.10483547515E+03  0.50000000000E+02 0.  0.
<mgrwt>
<rscale>  0 0.51304942E+02</rscale>
<asrwt>0</asrwt>
<pdfrwt beam="1">  1       13 0.10000000E+01 0.51304942E+02</pdfrwt>
<pdfrwt beam="2">  1       22 0.24376845E+00 0.51304942E+02</pdfrwt>
<totfact> 0.30943965E-01</totfact>
</mgrwt>
</event>
<event>
 4    1  0.2496748E+000  0.5214790E+02  0.7957747E-01  0.1434089E+00
         13   -1    0    0    0    0  0.00000000000E+00  0.00000000000E+00  0.99999944182E+02  0.10000000000E+03  0.10566000000E+00 0. -1.
         22   -1    0    0    0    0 -0.00000000000E+00 -0.00000000000E+00 -0.22010575882E+02  0.22010575882E+02  0.00000000000E+00 0.  1.
         13    1    1    2    0    0 -0.14806355786E+02  0.41885048228E+00 -0.11284844444E+02  0.18621559697E+02  0.10566000000E+00 0.  1.
        996    1    1    2    0    0  0.14806355786E+02 -0.41885048228E+00  0.89274212744E+02  0.10338901619E+03  0.50000000000E+02 0.  0.
<mgrwt>
<rscale>  0 0.52147901E+02</rscale>
<asrwt>0</asrwt>
<pdfrwt beam="1">  1       13 0.10000000E+01 0.52147901E+02</pdfrwt>
<pdfrwt beam="2">  1       22 0.22010598E+00 0.52147901E+02</pdfrwt>
<totfact> 0.37795617E-01</totfact>
</mgrwt>
</event>
<event>
 4    1  0.2496748E+000  0.5993700E+02  0.7957747E-01  0.1398096E+00
         13   -1    0    0    0    0  0.00000000000E+00  0.00000000000E+00  0.99999944177E+02  0.99999999997E+02  0.10566000000E+00 0. -1.
         22   -1    0    0    0    0 -0.00000000000E+00 -0.00000000000E+00 -0.29137103183E+02  0.29137103183E+02  0.00000000000E+00 0.  1.
         13    1    1    2    0    0  0.14238918052E+02 -0.29827798414E+02 -0.39368844628E+01  0.33285951524E+02  0.10566000000E+00 0.  1.
        996    1    1    2    0    0 -0.14238918052E+02  0.29827798414E+02  0.74799725456E+02  0.95851151657E+02  0.50000000000E+02 0.  0.
<mgrwt>
<rscale>  0 0.59937003E+02</rscale>
<asrwt>0</asrwt>
<pdfrwt beam="1">  1       13 0.10000000E+01 0.59937003E+02</pdfrwt>
<pdfrwt beam="2">  1       22 0.29137123E+00 0.59937003E+02</pdfrwt>
<totfact> 0.22095194E-01</totfact>
</mgrwt>
</event>
<event>
 4    1  0.2496748E+000  0.5111173E+02  0.7957747E-01  0.1439436E+00
         13   -1    0    0    0    0  0.00000000000E+00  0.00000000000E+00  0.99999944183E+02  0.10000000000E+03  0.10566000000E+00 0.  1.
         22   -1    0    0    0    0 -0.00000000000E+00 -0.00000000000E+00 -0.18732797778E+02  0.18732797778E+02  0.00000000000E+00 0. -1.
         13    1    1    2    0    0  0.69256362742E+01  0.80277094029E+01 -0.97126058668E+01  0.14378957988E+02  0.10566000000E+00 0. -1.
        996    1    1    2    0    0 -0.69256362742E+01 -0.80277094029E+01  0.90979752272E+02  0.10435383979E+03  0.50000000000E+02 0.  0.
<mgrwt>
<rscale>  0 0.51111726E+02</rscale>
<asrwt>0</asrwt>
<pdfrwt beam="1">  1       13 0.10000000E+01 0.51111726E+02</pdfrwt>
<pdfrwt beam="2">  1       22 0.18732820E+00 0.51111726E+02</pdfrwt>
<totfact> 0.51033486E-01</totfact>
</mgrwt>
</event>
<event>
 4    1  0.2496748E+000  0.5308577E+02  0.7957747E-01  0.1429374E+00
         13   -1    0    0    0    0  0.00000000000E+00  0.00000000000E+00  0.99999944178E+02  0.99999999998E+02  0.10566000000E+00 0.  1.
         22   -1    0    0    0    0 -0.00000000000E+00 -0.00000000000E+00 -0.27457569510E+02  0.27457569510E+02  0.00000000000E+00 0. -1.
         13    1    1    2    0    0 -0.16620316655E+02 -0.64702672542E+01 -0.16170264981E+02  0.24074632243E+02  0.10566000000E+00 0. -1.
        996    1    1    2    0    0  0.16620316655E+02  0.64702672542E+01  0.88712639649E+02  0.10338293726E+03  0.50000000000E+02 0.  0.
<mgrwt>
<rscale>  0 0.53085773E+02</rscale>
<asrwt>0</asrwt>
<pdfrwt beam="1">  1       13 0.10000000E+01 0.53085773E+02</pdfrwt>
<pdfrwt beam="2">  1       22 0.27457590E+00 0.53085773E+02</pdfrwt>
<totfact> 0.24563150E-01</totfact>
</mgrwt>
</event>
<event>
 4    1  0.2496748E+000  0.5115654E+02  0.7957747E-01  0.1439201E+00
         13   -1    0    0    0    0  0.00000000000E+00  0.00000000000E+00  0.99999944180E+02  0.10000000000E+03  0.10566000000E+00 0.  1.
         22   -1    0    0    0    0 -0.00000000000E+00 -0.00000000000E+00 -0.10161509021E+02  0.10161509021E+02  0.00000000000E+00 0.  1.
         13    1    1    2    0    0 -0.10347889760E+02  0.31484851023E+01  0.27302246163E+02  0.29366913194E+02  0.10566000000E+00 0. -1.
        996    1    1    2    0    0  0.10347889760E+02 -0.31484851023E+01  0.62536188995E+02  0.80794595828E+02  0.50000000000E+02 0.  0.
<mgrwt>
<rscale>  0 0.51156542E+02</rscale>
<asrwt>0</asrwt>
<pdfrwt beam="1">  1       13 0.10000000E+01 0.51156542E+02</pdfrwt>
<pdfrwt beam="2">  1       22 0.10161534E+00 0.51156542E+02</pdfrwt>
<totfact> 0.13745808E+00</totfact>
</mgrwt>
</event>
<event>
 4    1  0.2496748E+000  0.5455865E+02  0.7957747E-01  0.1422198E+00
         13   -1    0    0    0    0  0.00000000000E+00  0.00000000000E+00  0.99999944182E+02  0.10000000000E+03  0.10566000000E+00 0. -1.
         22   -1    0    0    0    0 -0.00000000000E+00 -0.00000000000E+00 -0.20593705705E+02  0.20593705705E+02  0.00000000000E+00 0.  1.
         13    1    1    2    0    0  0.21456183863E+02 -0.40346681834E+01 -0.27152424763E+01  0.22000683604E+02  0.10566000000E+00 0.  1.
        996    1    1    2    0    0 -0.21456183863E+02  0.40346681834E+01  0.82121480953E+02  0.98593022102E+02  0.50000000000E+02 0.  0.
<mgrwt>
<rscale>  0 0.54558651E+02</rscale>
<asrwt>0</asrwt>
<pdfrwt beam="1">  1       13 0.10000000E+01 0.54558651E+02</pdfrwt>
<pdfrwt beam="2">  1       22 0.20593728E+00 0.54558651E+02</pdfrwt>
<totfact> 0.43079383E-01</totfact>
</mgrwt>
</event>
<event>
 4    1  0.2496748E+000  0.5162270E+02  0.7957747E-01  0.1436781E+00
         13   -1    0    0    0    0  0.00000000000E+00  0.00000000000E+00  0.99999944177E+02  0.99999999997E+02  0.10566000000E+00 0.  1.
         22   -1    0    0    0    0 -0.00000000000E+00 -0.00000000000E+00 -0.13609016289E+02  0.13609016289E+02  0.00000000000E+00 0. -1.
         13    1    1    2    0    0 -0.12579547014E+02 -0.25802486364E+01 -0.14774577786E+00  0.12842728641E+02  0.10566000000E+00 0. -1.
        996    1    1    2    0    0  0.12579547014E+02  0.25802486364E+01  0.86538673666E+02  0.10076628765E+03  0.50000000000E+02 0.  0.
<mgrwt>
<rscale>  0 0.51622695E+02</rscale>
<asrwt>0</asrwt>
<pdfrwt beam="1">  1       13 0.10000000E+01 0.51622695E+02</pdfrwt>
<pdfrwt beam="2">  1       22 0.13609040E+00 0.51622695E+02</pdfrwt>
<totfact> 0.88195457E-01</totfact>
</mgrwt>
</event>
<event>
 4    1  0.2496748E+000  0.6219924E+02  0.7957747E-01  0.1388828E+00
         13   -1    0    0    0    0  0.00000000000E+00  0.00000000000E+00  0.99999944184E+02  0.10000000000E+03  0.10566000000E+00 0.  1.
         22   -1    0    0    0    0 -0.00000000000E+00 -0.00000000000E+00 -0.24672251314E+02  0.24672251314E+02  0.00000000000E+00 0. -1.
         13    1    1    2    0    0  0.24325556247E+02  0.27874939168E+02  0.31395626705E+02  0.48522587117E+02  0.10566000000E+00 0. -1.
        996    1    1    2    0    0 -0.24325556247E+02 -0.27874939168E+02  0.43932066165E+02  0.76149664201E+02  0.50000000000E+02 0.  0.
<mgrwt>
<rscale>  0 0.62199236E+02</rscale>
<asrwt>0</asrwt>
<pdfrwt beam="1">  1       13 0.10000000E+01 0.62199236E+02</pdfrwt>
<pdfrwt beam="2">  1       22 0.24672272E+00 0.62199236E+02</pdfrwt>
<totfact> 0.30701145E-01</totfact>
</mgrwt>
</event>
<event>
 4    1  0.2496748E+000  0.5137193E+02  0.7957747E-01  0.1438079E+00
         13   -1    0    0    0    0  0.00000000000E+00  0.00000000000E+00  0.99999944175E+02  0.99999999995E+02  0.10566000000E+00 0.  1.
         22   -1    0    0    0    0 -0.00000000000E+00 -0.00000000000E+00 -0.15829101426E+02  0.15829101426E+02  0.00000000000E+00 0.  1.
         13    1    1    2    0    0  0.50329628813E+01 -0.10665093669E+02 -0.50867350399E+01  0.12843713471E+02  0.10566000000E+00 0. -1.
        996    1    1    2    0    0 -0.50329628813E+01  0.10665093669E+02  0.89257577789E+02  0.10298538795E+03  0.50000000000E+02 0.  0.
<mgrwt>
<rscale>  0 0.51371928E+02</rscale>
<asrwt>0</asrwt>
<pdfrwt beam="1">  1       13 0.10000000E+01 0.51371928E+02</pdfrwt>
<pdfrwt beam="2">  1       22 0.15829125E+00 0.51371928E+02</pdfrwt>
<totfact> 0.68686307E-01</totfact>
</mgrwt>
</event>
<event>
 4    1  0.2496748E+000  0.5127209E+02  0.7957747E-01  0.1438599E+00
         13   -1    0    0    0    0  0.00000000000E+00  0.00000000000E+00  0.99999944189E+02  0.10000000001E+03  0.10566000000E+00 0. -1.
         22   -1    0    0    0    0 -0.00000000000E+00 -0.00000000000E+00 -0.18878679419E+02  0.18878679419E+02  0.00000000000E+00 0.  1.
         13    1    1    2    0    0  0.77426569579E+01  0.82992928366E+01 -0.94713770329E+01  0.14783272482E+02  0.10566000000E+00 0.  1.
        996    1    1    2    0    0 -0.77426569579E+01 -0.82992928366E+01  0.90592641803E+02  0.10409540695E+03  0.50000000000E+02 0.  0.
<mgrwt>
<rscale>  0 0.51272088E+02</rscale>
<asrwt>0</asrwt>
<pdfrwt beam="1">  1       13 0.10000000E+01 0.51272088E+02</pdfrwt>
<pdfrwt beam="2">  1       22 0.18878702E+00 0.51272088E+02</pdfrwt>
<totfact> 0.50332060E-01</totfact>
</mgrwt>
</event>
<event>
 4    1  0.2496748E+000  0.6347120E+02  0.7957747E-01  0.1383816E+00
         13   -1    0    0    0    0  0.00000000000E+00  0.00000000000E+00  0.99999944179E+02  0.10000000000E+03  0.10566000000E+00 0. -1.
         22   -1    0    0    0    0 -0.00000000000E+00 -0.00000000000E+00 -0.37912444604E+02  0.37912444604E+02  0.00000000000E+00 0.  1.
         13    1    1    2    0    0 -0.35000836463E+02  0.17422249625E+02 -0.11480841795E+02  0.40748180664E+02  0.10566000000E+00 0.  1.
        996    1    1    2    0    0  0.35000836463E+02 -0.17422249625E+02  0.73568341370E+02  0.97164263940E+02  0.50000000000E+02 0.  0.
<mgrwt>
<rscale>  0 0.63471201E+02</rscale>
<asrwt>0</asrwt>
<pdfrwt beam="1">  1       13 0.10000000E+01 0.63471201E+02</pdfrwt>
<pdfrwt beam="2">  1       22 0.37912462E+00 0.63471201E+02</pdfrwt>
<totfact> 0.13776458E-01</totfact>
</mgrwt>
</event>
<event>
 4    1  0.2496748E+000  0.5508156E+02  0.7957747E-01  0.1419714E+00
         13   -1    0    0    0    0  0.00000000000E+00  0.00000000000E+00  0.99999944177E+02  0.99999999997E+02  0.10566000000E+00 0. -1.
         22   -1    0    0    0    0 -0.00000000000E+00 -0.00000000000E+00 -0.17498721575E+02  0.17498721575E+02  0.00000000000E+00 0. -1.
         13    1    1    2    0    0  0.22604605272E+02  0.47968557468E+01  0.72034697921E+01  0.24204940521E+02  0.10566000000E+00 0.  1.
        996    1    1    2    0    0 -0.22604605272E+02 -0.47968557468E+01  0.75297752810E+02  0.93293781051E+02  0.50000000000E+02 0.  0.
<mgrwt>
<rscale>  0 0.55081558E+02</rscale>
<asrwt>0</asrwt>
<pdfrwt beam="1">  1       13 0.10000000E+01 0.55081558E+02</pdfrwt>
<pdfrwt beam="2">  1       22 0.17498745E+00 0.55081558E+02</pdfrwt>
<totfact> 0.58108756E-01</totfact>
</mgrwt>
</event>
<event>
 4    1  0.2496748E+000  0.5116014E+02  0.7957747E-01  0.1439183E+00
         13   -1    0    0    0    0  0.00000000000E+00  0.00000000000E+00  0.99999944187E+02  0.10000000001E+03  0.10566000000E+00 0. -1.
         22   -1    0    0    0    0 -0.00000000000E+00 -0.00000000000E+00 -0.10372861518E+02  0.10372861518E+02  0.00000000000E+00 0.  1.
         13    1    1    2    0    0  0.10826788559E+02  0.37486065012E+00  0.61272601709E+01  0.12446459426E+02  0.10566000000E+00 0.  1.
        996    1    1    2    0    0 -0.10826788559E+02 -0.37486065012E+00  0.83499822497E+02  0.97926402099E+02  0.50000000000E+02 0.  0.
<mgrwt>
<rscale>  0 0.51160139E+02</rscale>
<asrwt>0</asrwt>
<pdfrwt beam="1">  1       13 0.10000000E+01 0.51160139E+02</pdfrwt>
<pdfrwt beam="2">  1       22 0.10372887E+00 0.51160139E+02</pdfrwt>
<totfact> 0.13339415E+00</totfact>
</mgrwt>
</event>
<event>
 4    1  0.2496748E+000  0.5209203E+02  0.7957747E-01  0.1434374E+00
         13   -1    0    0    0    0  0.00000000000E+00  0.00000000000E+00  0.99999944173E+02  0.99999999994E+02  0.10566000000E+00 0.  1.
         22   -1    0    0    0    0 -0.00000000000E+00 -0.00000000000E+00 -0.11605521455E+02  0.11605521455E+02  0.00000000000E+00 0. -1.
         13    1    1    2    0    0 -0.12601633962E+02 -0.74012215919E+01  0.10907449394E+02  0.18236306531E+02  0.10566000000E+00 0. -1.
        996    1    1    2    0    0  0.12601633962E+02  0.74012215919E+01  0.77486973324E+02  0.93369214918E+02  0.50000000000E+02 0.  0.
<mgrwt>
<rscale>  0 0.52092027E+02</rscale>
<asrwt>0</asrwt>
<pdfrwt beam="1">  1       13 0.10000000E+01 0.52092027E+02</pdfrwt>
<pdfrwt beam="2">  1       22 0.11605546E+00 0.52092027E+02</pdfrwt>
<totfact> 0.11312796E+00</totfact>
</mgrwt>
</event>
<event>
 4    1  0.2496748E+000  0.5173425E+02  0.7957747E-01  0.1436206E+00
         13   -1    0    0    0    0  0.00000000000E+00  0.00000000000E+00  0.99999944181E+02  0.10000000000E+03  0.10566000000E+00 0.  1.
         22   -1    0    0    0    0 -0.00000000000E+00 -0.00000000000E+00 -0.10568275926E+02  0.10568275926E+02  0.00000000000E+00 0.  1.
         13    1    1    2    0    0  0.62365719949E+01  0.11727648521E+02  0.18118095185E+02  0.22465731843E+02  0.10566000000E+00 0. -1.
        996    1    1    2    0    0 -0.62365719949E+01 -0.11727648521E+02  0.71313573070E+02  0.88102544084E+02  0.50000000000E+02 0.  0.
<mgrwt>
<rscale>  0 0.51734249E+02</rscale>
<asrwt>0</asrwt>
<pdfrwt beam="1">  1       13 0.10000000E+01 0.51734249E+02</pdfrwt>
<pdfrwt beam="2">  1       22 0.10568301E+00 0.51734249E+02</pdfrwt>
<totfact> 0.12997025E+00</totfact>
</mgrwt>
</event>
<event>
 4    1  0.2496748E+000  0.5113621E+02  0.7957747E-01  0.1439308E+00
         13   -1    0    0    0    0  0.00000000000E+00  0.00000000000E+00  0.99999944189E+02  0.10000000001E+03  0.10566000000E+00 0.  1.
         22   -1    0    0    0    0 -0.00000000000E+00 -0.00000000000E+00 -0.67480177793E+02  0.67480177793E+02  0.00000000000E+00 0. -1.
         13    1    1    2    0    0 -0.39184065924E+01  0.99778790420E+01 -0.60440265521E+02  0.61383620297E+02  0.10566000000E+00 0. -1.
        996    1    1    2    0    0  0.39184065924E+01 -0.99778790420E+01  0.92960031917E+02  0.10609655751E+03  0.50000000000E+02 0.  0.
<mgrwt>
<rscale>  0 0.51136210E+02</rscale>
<asrwt>0</asrwt>
<pdfrwt beam="1">  1       13 0.10000000E+01 0.51136210E+02</pdfrwt>
<pdfrwt beam="2">  1       22 0.67480187E+00 0.51136210E+02</pdfrwt>
<totfact> 0.85110570E-02</totfact>
</mgrwt>
</event>
<event>
 4    1  0.2496748E+000  0.5270327E+02  0.7957747E-01  0.1431283E+00
         13   -1    0    0    0    0  0.00000000000E+00  0.00000000000E+00  0.99999944167E+02  0.99999999987E+02  0.10566000000E+00 0.  1.
         22   -1    0    0    0    0 -0.00000000000E+00 -0.00000000000E+00 -0.19349091212E+02  0.19349091212E+02  0.00000000000E+00 0. -1.
         13    1    1    2    0    0  0.14294690149E+02  0.85613211181E+01 -0.61828999816E+01  0.17772838883E+02  0.10566000000E+00 0. -1.
        996    1    1    2    0    0 -0.14294690149E+02 -0.85613211181E+01  0.86833752936E+02  0.10157625232E+03  0.50000000000E+02 0.  0.
<mgrwt>
<rscale>  0 0.52703267E+02</rscale>
<asrwt>0</asrwt>
<pdfrwt beam="1">  1       13 0.10000000E+01 0.52703267E+02</pdfrwt>
<pdfrwt beam="2">  1       22 0.19349114E+00 0.52703267E+02</pdfrwt>
<totfact> 0.48236296E-01</totfact>
</mgrwt>
</event>
<event>
 4    1  0.2496748E+000  0.5156268E+02  0.7957747E-01  0.1437091E+00
         13   -1    0    0    0    0  0.00000000000E+00  0.00000000000E+00  0.99999944178E+02  0.99999999998E+02  0.10566000000E+00 0.  1.
         22   -1    0    0    0    0 -0.00000000000E+00 -0.00000000000E+00 -0.10797516811E+02  0.10797516811E+02  0.00000000000E+00 0.  1.
         13    1    1    2    0    0  0.42396880347E+01 -0.11863165018E+02  0.91279110254E+01  0.15557620725E+02  0.10566000000E+00 0. -1.
        996    1    1    2    0    0 -0.42396880347E+01  0.11863165018E+02  0.80074516341E+02  0.95239896085E+02  0.50000000000E+02 0.  0.
<mgrwt>
<rscale>  0 0.51562677E+02</rscale>
<asrwt>0</asrwt>
<pdfrwt beam="1">  1       13 0.10000000E+01 0.51562677E+02</pdfrwt>
<pdfrwt beam="2">  1       22 0.10797542E+00 0.51562677E+02</pdfrwt>
<totfact> 0.12586999E+00</totfact>
</mgrwt>
</event>
<event>
 4    1  0.2496748E+000  0.5544775E+02  0.7957747E-01  0.1417993E+00
         13   -1    0    0    0    0  0.00000000000E+00  0.00000000000E+00  0.99999944189E+02  0.10000000001E+03  0.10566000000E+00 0. -1.
         22   -1    0    0    0    0 -0.00000000000E+00 -0.00000000000E+00 -0.20368730388E+02  0.20368730388E+02  0.00000000000E+00 0. -1.
         13    1    1    2    0    0  0.10059587166E+02  0.21754481137E+02  0.78863713137E+00  0.23980947772E+02  0.10566000000E+00 0.  1.
        996    1    1    2    0    0 -0.10059587166E+02 -0.21754481137E+02  0.78842576669E+02  0.96387782625E+02  0.50000000000E+02 0.  0.
<mgrwt>
<rscale>  0 0.55447748E+02</rscale>
<asrwt>0</asrwt>
<pdfrwt beam="1">  1       13 0.10000000E+01 0.55447748E+02</pdfrwt>
<pdfrwt beam="2">  1       22 0.20368753E+00 0.55447748E+02</pdfrwt>
<totfact> 0.44045253E-01</totfact>
</mgrwt>
</event>
<event>
 4    1  0.2496748E+000  0.5278947E+02  0.7957747E-01  0.1430851E+00
         13   -1    0    0    0    0  0.00000000000E+00  0.00000000000E+00  0.99999944177E+02  0.99999999997E+02  0.10566000000E+00 0. -1.
         22   -1    0    0    0    0 -0.00000000000E+00 -0.00000000000E+00 -0.15824531445E+02  0.15824531445E+02  0.00000000000E+00 0.  1.
         13    1    1    2    0    0 -0.61725560566E+01 -0.15767936319E+02  0.56396425974E+00  0.16942770840E+02  0.10566000000E+00 0.  1.
        996    1    1    2    0    0  0.61725560566E+01  0.15767936319E+02  0.83611448472E+02  0.98881760602E+02  0.50000000000E+02 0.  0.
<mgrwt>
<rscale>  0 0.52789471E+02</rscale>
<asrwt>0</asrwt>
<pdfrwt beam="1">  1       13 0.10000000E+01 0.52789471E+02</pdfrwt>
<pdfrwt beam="2">  1       22 0.15824555E+00 0.52789471E+02</pdfrwt>
<totfact> 0.68914694E-01</totfact>
</mgrwt>
</event>
<event>
 4    1  0.2496748E+000  0.6173398E+02  0.7957747E-01  0.1390696E+00
         13   -1    0    0    0    0  0.00000000000E+00  0.00000000000E+00  0.99999944173E+02  0.99999999993E+02  0.10566000000E+00 0.  1.
         22   -1    0    0    0    0 -0.00000000000E+00 -0.00000000000E+00 -0.76607940557E+02  0.76607940557E+02  0.00000000000E+00 0. -1.
         13    1    1    2    0    0  0.18176574209E+02  0.31316075785E+02 -0.61664478635E+02  0.71509464702E+02  0.10566000000E+00 0. -1.
        996    1    1    2    0    0 -0.18176574209E+02 -0.31316075785E+02  0.85056482251E+02  0.10509847585E+03  0.50000000000E+02 0.  0.
<mgrwt>
<rscale>  0 0.61733981E+02</rscale>
<asrwt>0</asrwt>
<pdfrwt beam="1">  1       13 0.10000000E+01 0.61733981E+02</pdfrwt>
<pdfrwt beam="2">  1       22 0.76607947E+00 0.61733981E+02</pdfrwt>
<totfact> 0.42223198E-02</totfact>
</mgrwt>
</event>
<event>
 4    1  0.2496748E+000  0.5256635E+02  0.7957747E-01  0.1431971E+00
         13   -1    0    0    0    0  0.00000000000E+00  0.00000000000E+00  0.99999944178E+02  0.99999999998E+02  0.10566000000E+00 0. -1.
         22   -1    0    0    0    0 -0.00000000000E+00 -0.00000000000E+00 -0.15649322837E+02  0.15649322837E+02  0.00000000000E+00 0. -1.
         13    1    1    2    0    0 -0.95281635778E+01 -0.13131473402E+02 -0.41759155115E-01  0.16224500077E+02  0.10566000000E+00 0.  1.
        996    1    1    2    0    0  0.95281635778E+01  0.13131473402E+02  0.84392380495E+02  0.99424822758E+02  0.50000000000E+02 0.  0.
<mgrwt>
<rscale>  0 0.52566353E+02</rscale>
<asrwt>0</asrwt>
<pdfrwt beam="1">  1       13 0.10000000E+01 0.52566353E+02</pdfrwt>
<pdfrwt beam="2">  1       22 0.15649346E+00 0.52566353E+02</pdfrwt>
<totfact> 0.70199481E-01</totfact>
</mgrwt>
</event>
<event>
 4    1  0.2496748E+000  0.5181566E+02  0.7957747E-01  0.1435787E+00
         13   -1    0    0    0    0  0.00000000000E+00  0.00000000000E+00  0.99999944174E+02  0.99999999994E+02  0.10566000000E+00 0.  1.
         22   -1    0    0    0    0 -0.00000000000E+00 -0.00000000000E+00 -0.18620678734E+02  0.18620678734E+02  0.00000000000E+00 0.  1.
         13    1    1    2    0    0  0.13566979633E+02  0.89420335627E+00 -0.76569808191E+01  0.15604584433E+02  0.10566000000E+00 0. -1.
        996    1    1    2    0    0 -0.13566979633E+02 -0.89420335627E+00  0.89036246259E+02  0.10301609430E+03  0.50000000000E+02 0.  0.
<mgrwt>
<rscale>  0 0.51815659E+02</rscale>
<asrwt>0</asrwt>
<pdfrwt beam="1">  1       13 0.10000000E+01 0.51815659E+02</pdfrwt>
<pdfrwt beam="2">  1       22 0.18620701E+00 0.51815659E+02</pdfrwt>
<totfact> 0.51661817E-01</totfact>
</mgrwt>
</event>
<event>
 4    1  0.2496748E+000  0.5208287E+02  0.7957747E-01  0.1434420E+00
         13   -1    0    0    0    0  0.00000000000E+00  0.00000000000E+00  0.99999944181E+02  0.10000000000E+03  0.10566000000E+00 0.  1.
         22   -1    0    0    0    0 -0.00000000000E+00 -0.00000000000E+00 -0.12032796062E+02  0.12032796062E+02  0.00000000000E+00 0.  1.
         13    1    1    2    0    0  0.13780556488E+01 -0.14516413511E+02  0.80905994099E+01  0.16676158473E+02  0.10566000000E+00 0. -1.
        996    1    1    2    0    0 -0.13780556488E+01  0.14516413511E+02  0.79876548710E+02  0.95356637589E+02  0.50000000000E+02 0.  0.
<mgrwt>
<rscale>  0 0.52082870E+02</rscale>
<asrwt>0</asrwt>
<pdfrwt beam="1">  1       13 0.10000000E+01 0.52082870E+02</pdfrwt>
<pdfrwt beam="2">  1       22 0.12032821E+00 0.52082870E+02</pdfrwt>
<totfact> 0.10706506E+00</totfact>
</mgrwt>
</event>
<event>
 4    1  0.2496748E+000  0.5660690E+02  0.7957747E-01  0.1412649E+00
         13   -1    0    0    0    0  0.00000000000E+00  0.00000000000E+00  0.99999944182E+02  0.10000000000E+03  0.10566000000E+00 0.  1.
         22   -1    0    0    0    0 -0.00000000000E+00 -0.00000000000E+00 -0.28312162349E+02  0.28312162349E+02  0.00000000000E+00 0. -1.
         13    1    1    2    0    0 -0.26015402803E+02 -0.52478290511E+01 -0.10479241851E+02  0.28533604164E+02  0.10566000000E+00 0. -1.
        996    1    1    2    0    0  0.26015402803E+02  0.52478290511E+01  0.82167023684E+02  0.99778558187E+02  0.50000000000E+02 0.  0.
<mgrwt>
<rscale>  0 0.56606898E+02</rscale>
<asrwt>0</asrwt>
<pdfrwt beam="1">  1       13 0.10000000E+01 0.56606898E+02</pdfrwt>
<pdfrwt beam="2">  1       22 0.28312182E+00 0.56606898E+02</pdfrwt>
<totfact> 0.23254263E-01</totfact>
</mgrwt>
</event>
<event>
 4    1  0.2496748E+000  0.5180421E+02  0.7957747E-01  0.1435846E+00
         13   -1    0    0    0    0  0.00000000000E+00  0.00000000000E+00  0.99999944178E+02  0.99999999999E+02  0.10566000000E+00 0.  1.
         22   -1    0    0    0    0 -0.00000000000E+00 -0.00000000000E+00 -0.13107160505E+02  0.13107160505E+02  0.00000000000E+00 0.  1.
         13    1    1    2    0    0  0.10610302890E+02 -0.84319330579E+01  0.20617181301E+01  0.13709043300E+02  0.10566000000E+00 0. -1.
        996    1    1    2    0    0 -0.10610302890E+02  0.84319330579E+01  0.84831065543E+02  0.99398117204E+02  0.50000000000E+02 0.  0.
<mgrwt>
<rscale>  0 0.51804209E+02</rscale>
<asrwt>0</asrwt>
<pdfrwt beam="1">  1       13 0.10000000E+01 0.51804209E+02</pdfrwt>
<pdfrwt beam="2">  1       22 0.13107185E+00 0.51804209E+02</pdfrwt>
<totfact> 0.93665107E-01</totfact>
</mgrwt>
</event>
<event>
 4    1  0.2496748E+000  0.5839989E+02  0.7957747E-01  0.1404672E+00
         13   -1    0    0    0    0  0.00000000000E+00  0.00000000000E+00  0.99999944184E+02  0.10000000000E+03  0.10566000000E+00 0.  1.
         22   -1    0    0    0    0 -0.00000000000E+00 -0.00000000000E+00 -0.50415798475E+02  0.50415798475E+02  0.00000000000E+00 0. -1.
         13    1    1    2    0    0 -0.97322967198E-01  0.30175117015E+02 -0.35893831023E+02  0.46892701226E+02  0.10566000000E+00 0. -1.
        996    1    1    2    0    0  0.97322967198E-01 -0.30175117015E+02  0.85477976732E+02  0.10352309725E+03  0.50000000000E+02 0.  0.
<mgrwt>
<rscale>  0 0.58399890E+02</rscale>
<asrwt>0</asrwt>
<pdfrwt beam="1">  1       13 0.10000000E+01 0.58399890E+02</pdfrwt>
<pdfrwt beam="2">  1       22 0.50415812E+00 0.58399890E+02</pdfrwt>
<totfact> 0.72149798E-02</totfact>
</mgrwt>
</event>
<event>
 4    1  0.2496748E+000  0.5778469E+02  0.7957747E-01  0.1407371E+00
         13   -1    0    0    0    0  0.00000000000E+00  0.00000000000E+00  0.99999944182E+02  0.10000000000E+03  0.10566000000E+00 0.  1.
         22   -1    0    0    0    0 -0.00000000000E+00 -0.00000000000E+00 -0.19482689401E+02  0.19482689401E+02  0.00000000000E+00 0.  1.
         13    1    1    2    0    0 -0.28369760318E+02 -0.58503590581E+01  0.16886791727E+02  0.33529761414E+02  0.10566000000E+00 0. -1.
        996    1    1    2    0    0  0.28369760318E+02  0.58503590581E+01  0.63630463054E+02  0.85952927990E+02  0.50000000000E+02 0.  0.
<mgrwt>
<rscale>  0 0.57784687E+02</rscale>
<asrwt>0</asrwt>
<pdfrwt beam="1">  1       13 0.10000000E+01 0.57784687E+02</pdfrwt>
<pdfrwt beam="2">  1       22 0.19482712E+00 0.57784687E+02</pdfrwt>
<totfact> 0.48041813E-01</totfact>
</mgrwt>
</event>
<event>
 4    1  0.2496748E+000  0.5139213E+02  0.7957747E-01  0.1437974E+00
         13   -1    0    0    0    0  0.00000000000E+00  0.00000000000E+00  0.99999944175E+02  0.99999999995E+02  0.10566000000E+00 0.  1.
         22   -1    0    0    0    0 -0.00000000000E+00 -0.00000000000E+00 -0.13353309215E+02  0.13353309215E+02  0.00000000000E+00 0. -1.
         13    1    1    2    0    0 -0.11493924199E+02 -0.30067489632E+01 -0.81628649191E+00  0.11909169598E+02  0.10566000000E+00 0. -1.
        996    1    1    2    0    0  0.11493924199E+02  0.30067489632E+01  0.87462921452E+02  0.10144413961E+03  0.50000000000E+02 0.  0.
<mgrwt>
<rscale>  0 0.51392128E+02</rscale>
<asrwt>0</asrwt>
<pdfrwt beam="1">  1       13 0.10000000E+01 0.51392128E+02</pdfrwt>
<pdfrwt beam="2">  1       22 0.13353333E+00 0.51392128E+02</pdfrwt>
<totfact> 0.90861628E-01</totfact>
</mgrwt>
</event>
<event>
 4    1  0.2496748E+000  0.5183191E+02  0.7957747E-01  0.1435704E+00
         13   -1    0    0    0    0  0.00000000000E+00  0.00000000000E+00  0.99999944185E+02  0.10000000001E+03  0.10566000000E+00 0. -1.
         22   -1    0    0    0    0 -0.00000000000E+00 -0.00000000000E+00 -0.29949681588E+02  0.29949681588E+02  0.00000000000E+00 0. -1.
         13    1    1    2    0    0  0.96737353360E+01  0.96418498513E+01 -0.21075444784E+02  0.25114377571E+02  0.10566000000E+00 0.  1.
        996    1    1    2    0    0 -0.96737353360E+01 -0.96418498513E+01  0.91125707380E+02  0.10483530402E+03  0.50000000000E+02 0.  0.
<mgrwt>
<rscale>  0 0.51831905E+02</rscale>
<asrwt>0</asrwt>
<pdfrwt beam="1">  1       13 0.10000000E+01 0.51831905E+02</pdfrwt>
<pdfrwt beam="2">  1       22 0.29949701E+00 0.51831905E+02</pdfrwt>
<totfact> 0.20763610E-01</totfact>
</mgrwt>
</event>
<event>
 4    1  0.2496748E+000  0.5264958E+02  0.7957747E-01  0.1431553E+00
         13   -1    0    0    0    0  0.00000000000E+00  0.00000000000E+00  0.99999944178E+02  0.99999999998E+02  0.10566000000E+00 0. -1.
         22   -1    0    0    0    0 -0.00000000000E+00 -0.00000000000E+00 -0.12191636463E+02  0.12191636463E+02  0.00000000000E+00 0.  1.
         13    1    1    2    0    0  0.14647273816E+02 -0.75786427276E+01  0.14660385084E+02  0.22066184778E+02  0.10566000000E+00 0.  1.
        996    1    1    2    0    0 -0.14647273816E+02  0.75786427276E+01  0.73147922631E+02  0.90125451683E+02  0.50000000000E+02 0.  0.
<mgrwt>
<rscale>  0 0.52649582E+02</rscale>
<asrwt>0</asrwt>
<pdfrwt beam="1">  1       13 0.10000000E+01 0.52649582E+02</pdfrwt>
<pdfrwt beam="2">  1       22 0.12191661E+00 0.52649582E+02</pdfrwt>
<totfact> 0.10506010E+00</totfact>
</mgrwt>
</event>
<event>
 4    1  0.2496748E+000  0.5115965E+02  0.7957747E-01  0.1439185E+00
         13   -1    0    0    0    0  0.00000000000E+00  0.00000000000E+00  0.99999944173E+02  0.99999999993E+02  0.10566000000E+00 0.  1.
         22   -1    0    0    0    0 -0.00000000000E+00 -0.00000000000E+00 -0.13805128028E+02  0.13805128028E+02  0.00000000000E+00 0. -1.
         13    1    1    2    0    0 -0.10361014068E+02  0.31558462809E+01 -0.27693589216E+01  0.11179914630E+02  0.10566000000E+00 0. -1.
        996    1    1    2    0    0  0.10361014068E+02 -0.31558462809E+01  0.88964175066E+02  0.10262521339E+03  0.50000000000E+02 0.  0.
<mgrwt>
<rscale>  0 0.51159652E+02</rscale>
<asrwt>0</asrwt>
<pdfrwt beam="1">  1       13 0.10000000E+01 0.51159652E+02</pdfrwt>
<pdfrwt beam="2">  1       22 0.13805152E+00 0.51159652E+02</pdfrwt>
<totfact> 0.86105453E-01</totfact>
</mgrwt>
</event>
<event>
 4    1  0.2496748E+000  0.5206671E+02  0.7957747E-01  0.1434503E+00
         13   -1    0    0    0    0  0.00000000000E+00  0.00000000000E+00  0.99999944180E+02  0.10000000000E+03  0.10566000000E+00 0. -1.
         22   -1    0    0    0    0 -0.00000000000E+00 -0.00000000000E+00 -0.16593333267E+02  0.16593333267E+02  0.00000000000E+00 0.  1.
         13    1    1    2    0    0 -0.13109882136E+02 -0.62508283042E+01 -0.38115523858E+01  0.15016023433E+02  0.10566000000E+00 0.  1.
        996    1    1    2    0    0  0.13109882136E+02  0.62508283042E+01  0.87218163298E+02  0.10157730983E+03  0.50000000000E+02 0.  0.
<mgrwt>
<rscale>  0 0.52066706E+02</rscale>
<asrwt>0</asrwt>
<pdfrwt beam="1">  1       13 0.10000000E+01 0.52066706E+02</pdfrwt>
<pdfrwt beam="2">  1       22 0.16593357E+00 0.52066706E+02</pdfrwt>
<totfact> 0.63428433E-01</totfact>
</mgrwt>
</event>
<event>
 4    1  0.2496748E+000  0.5294081E+02  0.7957747E-01  0.1430096E+00
         13   -1    0    0    0    0  0.00000000000E+00  0.00000000000E+00  0.99999944182E+02  0.10000000000E+03  0.10566000000E+00 0. -1.
         22   -1    0    0    0    0 -0.00000000000E+00 -0.00000000000E+00 -0.17975819992E+02  0.17975819992E+02  0.00000000000E+00 0.  1.
         13    1    1    2    0    0 -0.17367315922E+02 -0.10516237466E+01 -0.31569469482E+01  0.17683524901E+02  0.10566000000E+00 0.  1.
        996    1    1    2    0    0  0.17367315922E+02  0.10516237466E+01  0.85181071138E+02  0.10029229509E+03  0.50000000000E+02 0.  0.
<mgrwt>
<rscale>  0 0.52940812E+02</rscale>
<asrwt>0</asrwt>
<pdfrwt beam="1">  1       13 0.10000000E+01 0.52940812E+02</pdfrwt>
<pdfrwt beam="2">  1       22 0.17975843E+00 0.52940812E+02</pdfrwt>
<totfact> 0.55170006E-01</totfact>
</mgrwt>
</event>
<event>
 4    1  0.2496748E+000  0.5144505E+02  0.7957747E-01  0.1437700E+00
         13   -1    0    0    0    0  0.00000000000E+00  0.00000000000E+00  0.99999944181E+02  0.10000000000E+03  0.10566000000E+00 0. -1.
         22   -1    0    0    0    0 -0.00000000000E+00 -0.00000000000E+00 -0.10168697955E+02  0.10168697955E+02  0.00000000000E+00 0. -1.
         13    1    1    2    0    0  0.95150952903E+01 -0.74870769353E+01  0.20938281267E+02  0.24187107017E+02  0.10566000000E+00 0.  1.
        996    1    1    2    0    0 -0.95150952903E+01  0.74870769353E+01  0.68892964960E+02  0.85981590939E+02  0.50000000000E+02 0.  0.
<mgrwt>
<rscale>  0 0.51445052E+02</rscale>
<asrwt>0</asrwt>
<pdfrwt beam="1">  1       13 0.10000000E+01 0.51445052E+02</pdfrwt>
<pdfrwt beam="2">  1       22 0.10168723E+00 0.51445052E+02</pdfrwt>
<totfact> 0.13741247E+00</totfact>
</mgrwt>
</event>
<event>
 4    1  0.2496748E+000  0.5571400E+02  0.7957747E-01  0.1416752E+00
         13   -1    0    0    0    0  0.00000000000E+00  0.00000000000E+00  0.99999944176E+02  0.99999999996E+02  0.10566000000E+00 0. -1.
         22   -1    0    0    0    0 -0.00000000000E+00 -0.00000000000E+00 -0.17892073414E+02  0.17892073414E+02  0.00000000000E+00 0.  1.
         13    1    1    2    0    0 -0.20729172677E+02  0.13204231148E+02  0.94491690379E+01  0.26331507356E+02  0.10566000000E+00 0.  1.
        996    1    1    2    0    0  0.20729172677E+02 -0.13204231148E+02  0.72658701724E+02  0.91560566055E+02  0.50000000000E+02 0.  0.
<mgrwt>
<rscale>  0 0.55714005E+02</rscale>
<asrwt>0</asrwt>
<pdfrwt beam="1">  1       13 0.10000000E+01 0.55714005E+02</pdfrwt>
<pdfrwt beam="2">  1       22 0.17892096E+00 0.55714005E+02</pdfrwt>
<totfact> 0.55912739E-01</totfact>
</mgrwt>
</event>
<event>
 4    1  0.2496748E+000  0.5300104E+02  0.7957747E-01  0.1429796E+00
         13   -1    0    0    0    0  0.00000000000E+00  0.00000000000E+00  0.99999944178E+02  0.99999999998E+02  0.10566000000E+00 0. -1.
         22   -1    0    0    0    0 -0.00000000000E+00 -0.00000000000E+00 -0.16444163561E+02  0.16444163561E+02  0.00000000000E+00 0.  1.
         13    1    1    2    0    0 -0.85366030719E+01  0.15369997987E+02  0.10167545111E+00  0.17582148107E+02  0.10566000000E+00 0.  1.
        996    1    1    2    0    0  0.85366030719E+01 -0.15369997987E+02  0.83454105166E+02  0.98862015451E+02  0.50000000000E+02 0.  0.
<mgrwt>
<rscale>  0 0.53001042E+02</rscale>
<asrwt>0</asrwt>
<pdfrwt beam="1">  1       13 0.10000000E+01 0.53001042E+02</pdfrwt>
<pdfrwt beam="2">  1       22 0.16444187E+00 0.53001042E+02</pdfrwt>
<totfact> 0.64545441E-01</totfact>
</mgrwt>
</event>
<event>
 4    1  0.2496748E+000  0.5696673E+02  0.7957747E-01  0.1411021E+00
         13   -1    0    0    0    0  0.00000000000E+00  0.00000000000E+00  0.99999944185E+02  0.10000000001E+03  0.10566000000E+00 0.  1.
         22   -1    0    0    0    0 -0.00000000000E+00 -0.00000000000E+00 -0.17753626906E+02  0.17753626906E+02  0.00000000000E+00 0.  1.
         13    1    1    2    0    0 -0.15816180557E+02  0.22249865850E+02  0.26062468243E+02  0.37742171542E+02  0.10566000000E+00 0. -1.
        996    1    1    2    0    0  0.15816180557E+02 -0.22249865850E+02  0.56183849037E+02  0.80011455370E+02  0.50000000000E+02 0.  0.
<mgrwt>
<rscale>  0 0.56966728E+02</rscale>
<asrwt>0</asrwt>
<pdfrwt beam="1">  1       13 0.10000000E+01 0.56966728E+02</pdfrwt>
<pdfrwt beam="2">  1       22 0.17753650E+00 0.56966728E+02</pdfrwt>
<totfact> 0.56818941E-01</totfact>
</mgrwt>
</event>
<event>
 4    1  0.2496748E+000  0.5199594E+02  0.7957747E-01  0.1434864E+00
         13   -1    0    0    0    0  0.00000000000E+00  0.00000000000E+00  0.99999944179E+02  0.99999999999E+02  0.10566000000E+00 0.  1.
         22   -1    0    0    0    0 -0.00000000000E+00 -0.00000000000E+00 -0.10998865816E+02  0.10998865816E+02  0.00000000000E+00 0.  1.
         13    1    1    2    0    0  0.61197151459E+01  0.12889030521E+02  0.17197386609E+02  0.22345900999E+02  0.10566000000E+00 0. -1.
        996    1    1    2    0    0 -0.61197151459E+01 -0.12889030521E+02  0.71803691754E+02  0.88652964816E+02  0.50000000000E+02 0.  0.
<mgrwt>
<rscale>  0 0.51995942E+02</rscale>
<asrwt>0</asrwt>
<pdfrwt beam="1">  1       13 0.10000000E+01 0.51995942E+02</pdfrwt>
<pdfrwt beam="2">  1       22 0.10998891E+00 0.51995942E+02</pdfrwt>
<totfact> 0.12259011E+00</totfact>
</mgrwt>
</event>
<event>
 4    1  0.2496748E+000  0.5182980E+02  0.7957747E-01  0.1435715E+00
         13   -1    0    0    0    0  0.00000000000E+00  0.00000000000E+00  0.99999944172E+02  0.99999999992E+02  0.10566000000E+00 0. -1.
         22   -1    0    0    0    0 -0.00000000000E+00 -0.00000000000E+00 -0.20362557212E+02  0.20362557212E+02  0.00000000000E+00 0.  1.
         13    1    1    2    0    0 -0.40578635998E+01 -0.13033124817E+02 -0.99297717365E+01  0.16880169734E+02  0.10566000000E+00 0.  1.
        996    1    1    2    0    0  0.40578635998E+01  0.13033124817E+02  0.89567158696E+02  0.10348238747E+03  0.50000000000E+02 0.  0.
<mgrwt>
<rscale>  0 0.51829804E+02</rscale>
<asrwt>0</asrwt>
<pdfrwt beam="1">  1       13 0.10000000E+01 0.51829804E+02</pdfrwt>
<pdfrwt beam="2">  1       22 0.20362579E+00 0.51829804E+02</pdfrwt>
<totfact> 0.43796717E-01</totfact>
</mgrwt>
</event>
<event>
 4    1  0.2496748E+000  0.5118808E+02  0.7957747E-01  0.1439037E+00
         13   -1    0    0    0    0  0.00000000000E+00  0.00000000000E+00  0.99999944182E+02  0.10000000000E+03  0.10566000000E+00 0.  1.
         22   -1    0    0    0    0 -0.00000000000E+00 -0.00000000000E+00 -0.10074494101E+02  0.10074494101E+02  0.00000000000E+00 0.  1.
         13    1    1    2    0    0 -0.10798158473E+02  0.19023717603E+01  0.25731850271E+02  0.27970672625E+02  0.10566000000E+00 0. -1.
        996    1    1    2    0    0  0.10798158473E+02 -0.19023717603E+01  0.64193599810E+02  0.82103821478E+02  0.50000000000E+02 0.  0.
<mgrwt>
<rscale>  0 0.51188077E+02</rscale>
<asrwt>0</asrwt>
<pdfrwt beam="1">  1       13 0.10000000E+01 0.51188077E+02</pdfrwt>
<pdfrwt beam="2">  1       22 0.10074519E+00 0.51188077E+02</pdfrwt>
<totfact> 0.13919655E+00</totfact>
</mgrwt>
</event>
<event>
 4    1  0.2496748E+000  0.6057361E+02  0.7957747E-01  0.1395440E+00
         13   -1    0    0    0    0  0.00000000000E+00  0.00000000000E+00  0.99999944179E+02  0.99999999999E+02  0.10566000000E+00 0. -1.
         22   -1    0    0    0    0 -0.00000000000E+00 -0.00000000000E+00 -0.51410580524E+02  0.51410580524E+02  0.00000000000E+00 0.  1.
         13    1    1    2    0    0  0.12160850523E+02 -0.31957415690E+02 -0.34507613824E+02  0.48579309164E+02  0.10566000000E+00 0.  1.
        996    1    1    2    0    0 -0.12160850523E+02  0.31957415690E+02  0.83096977479E+02  0.10283127136E+03  0.50000000000E+02 0.  0.
<mgrwt>
<rscale>  0 0.60573614E+02</rscale>
<asrwt>0</asrwt>
<pdfrwt beam="1">  1       13 0.10000000E+01 0.60573614E+02</pdfrwt>
<pdfrwt beam="2">  1       22 0.51410594E+00 0.60573614E+02</pdfrwt>
<totfact> 0.68510826E-02</totfact>
</mgrwt>
</event>
<event>
 4    1  0.2496748E+000  0.6262173E+02  0.7957747E-01  0.1387148E+00
         13   -1    0    0    0    0  0.00000000000E+00  0.00000000000E+00  0.99999944175E+02  0.99999999995E+02  0.10566000000E+00 0.  1.
         22   -1    0    0    0    0 -0.00000000000E+00 -0.00000000000E+00 -0.61691949432E+02  0.61691949432E+02  0.00000000000E+00 0. -1.
         13    1    1    2    0    0 -0.37628658324E+02 -0.23590103365E+01 -0.44209589663E+02  0.58103182695E+02  0.10566000000E+00 0. -1.
        996    1    1    2    0    0  0.37628658324E+02  0.23590103365E+01  0.82517584406E+02  0.10358876673E+03  0.50000000000E+02 0.  0.
<mgrwt>
<rscale>  0 0.62621728E+02</rscale>
<asrwt>0</asrwt>
<pdfrwt beam="1">  1       13 0.10000000E+01 0.62621728E+02</pdfrwt>
<pdfrwt beam="2">  1       22 0.61691960E+00 0.62621728E+02</pdfrwt>
<totfact> 0.71166620E-02</totfact>
</mgrwt>
</event>
<event>
 4    1  0.2496748E+000  0.5753472E+02  0.7957747E-01  0.1408479E+00
         13   -1    0    0    0    0  0.00000000000E+00  0.00000000000E+00  0.99999944180E+02  0.10000000000E+03  0.10566000000E+00 0.  1.
         22   -1    0    0    0    0 -0.00000000000E+00 -0.00000000000E+00 -0.20364696532E+02  0.20364696532E+02  0.00000000000E+00 0.  1.
         13    1    1    2    0    0 -0.30103024753E+01 -0.28305150005E+02  0.10310075210E+02  0.30274613997E+02  0.10566000000E+00 0. -1.
        996    1    1    2    0    0  0.30103024753E+01  0.28305150005E+02  0.69325172438E+02  0.90090082536E+02  0.50000000000E+02 0.  0.
<mgrwt>
<rscale>  0 0.57534715E+02</rscale>
<asrwt>0</asrwt>
<pdfrwt beam="1">  1       13 0.10000000E+01 0.57534715E+02</pdfrwt>
<pdfrwt beam="2">  1       22 0.20364719E+00 0.57534715E+02</pdfrwt>
<totfact> 0.44211460E-01</totfact>
</mgrwt>
</event>
<event>
 4    1  0.2496748E+000  0.5255384E+02  0.7957747E-01  0.1432034E+00
         13   -1    0    0    0    0  0.00000000000E+00  0.00000000000E+00  0.99999944174E+02  0.99999999994E+02  0.10566000000E+00 0. -1.
         22   -1    0    0    0    0 -0.00000000000E+00 -0.00000000000E+00 -0.54098014389E+02  0.54098014389E+02  0.00000000000E+00 0.  1.
         13    1    1    2    0    0 -0.78915442417E+00  0.16164269017E+02 -0.45705580308E+02  0.48486261898E+02  0.10566000000E+00 0.  1.
        996    1    1    2    0    0  0.78915442417E+00 -0.16164269017E+02  0.91607510093E+02  0.10561175248E+03  0.50000000000E+02 0.  0.
<mgrwt>
<rscale>  0 0.52553842E+02</rscale>
<asrwt>0</asrwt>
<pdfrwt beam="1">  1       13 0.10000000E+01 0.52553842E+02</pdfrwt>
<pdfrwt beam="2">  1       22 0.54098027E+00 0.52553842E+02</pdfrwt>
<totfact> 0.60419773E-02</totfact>
</mgrwt>
</event>
<event>
 4    1  0.2496748E+000  0.5751004E+02  0.7957747E-01  0.1408588E+00
         13   -1    0    0    0    0  0.00000000000E+00  0.00000000000E+00  0.99999944182E+02  0.10000000000E+03  0.10566000000E+00 0. -1.
         22   -1    0    0    0    0 -0.00000000000E+00 -0.00000000000E+00 -0.24544089403E+02  0.24544089403E+02  0.00000000000E+00 0.  1.
         13    1    1    2    0    0 -0.19902336430E+02  0.20280578451E+02 -0.15217840795E+01  0.28455787610E+02  0.10566000000E+00 0.  1.
        996    1    1    2    0    0  0.19902336430E+02 -0.20280578451E+02  0.76977638859E+02  0.96088301796E+02  0.50000000000E+02 0.  0.
<mgrwt>
<rscale>  0 0.57510041E+02</rscale>
<asrwt>0</asrwt>
<pdfrwt beam="1">  1       13 0.10000000E+01 0.57510041E+02</pdfrwt>
<pdfrwt beam="2">  1       22 0.24544110E+00 0.57510041E+02</pdfrwt>
<totfact> 0.30820260E-01</totfact>
</mgrwt>
</event>
<event>
 4    1  0.2496748E+000  0.5152978E+02  0.7957747E-01  0.1437261E+00
         13   -1    0    0    0    0  0.00000000000E+00  0.00000000000E+00  0.99999944186E+02  0.10000000001E+03  0.10566000000E+00 0.  1.
         22   -1    0    0    0    0 -0.00000000000E+00 -0.00000000000E+00 -0.71481737579E+02  0.71481737579E+02  0.00000000000E+00 0. -1.
         13    1    1    2    0    0 -0.11340352424E+02 -0.51686626922E+01 -0.64204213744E+02  0.65402682618E+02  0.10566000000E+00 0. -1.
        996    1    1    2    0    0  0.11340352424E+02  0.51686626922E+01  0.92722420350E+02  0.10607905497E+03  0.50000000000E+02 0.  0.
<mgrwt>
<rscale>  0 0.51529784E+02</rscale>
<asrwt>0</asrwt>
<pdfrwt beam="1">  1       13 0.10000000E+01 0.51529784E+02</pdfrwt>
<pdfrwt beam="2">  1       22 0.71481746E+00 0.51529784E+02</pdfrwt>
<totfact> 0.66835615E-02</totfact>
</mgrwt>
</event>
<event>
 4    1  0.2496748E+000  0.5112636E+02  0.7957747E-01  0.1439359E+00
         13   -1    0    0    0    0  0.00000000000E+00  0.00000000000E+00  0.99999944188E+02  0.10000000001E+03  0.10566000000E+00 0.  1.
         22   -1    0    0    0    0 -0.00000000000E+00 -0.00000000000E+00 -0.10804847317E+02  0.10804847317E+02  0.00000000000E+00 0.  1.
         13    1    1    2    0    0 -0.38703272662E+01 -0.99461402595E+01  0.33695669796E+02  0.35345642818E+02  0.10566000000E+00 0. -1.
        996    1    1    2    0    0  0.38703272662E+01  0.99461402595E+01  0.55499427076E+02  0.75459204508E+02  0.50000000000E+02 0.  0.
<mgrwt>
<rscale>  0 0.51126364E+02</rscale>
<asrwt>0</asrwt>
<pdfrwt beam="1">  1       13 0.10000000E+01 0.51126364E+02</pdfrwt>
<pdfrwt beam="2">  1       22 0.10804872E+00 0.51126364E+02</pdfrwt>
<totfact> 0.12561437E+00</totfact>
</mgrwt>
</event>
<event>
 4    1  0.2496748E+000  0.5829482E+02  0.7957747E-01  0.1405130E+00
         13   -1    0    0    0    0  0.00000000000E+00  0.00000000000E+00  0.99999944179E+02  0.99999999999E+02  0.10566000000E+00 0.  1.
         22   -1    0    0    0    0 -0.00000000000E+00 -0.00000000000E+00 -0.43283583457E+02  0.43283583457E+02  0.00000000000E+00 0.  1.
         13    1    1    2    0    0  0.19304108572E+02 -0.22926791129E+02 -0.27622339077E+02  0.40758939380E+02  0.10566000000E+00 0. -1.
        996    1    1    2    0    0 -0.19304108572E+02  0.22926791129E+02  0.84338699799E+02  0.10252464408E+03  0.50000000000E+02 0.  0.
<mgrwt>
<rscale>  0 0.58294823E+02</rscale>
<asrwt>0</asrwt>
<pdfrwt beam="1">  1       13 0.10000000E+01 0.58294823E+02</pdfrwt>
<pdfrwt beam="2">  1       22 0.43283599E+00 0.58294823E+02</pdfrwt>
<totfact> 0.10586755E-01</totfact>
</mgrwt>
</event>
<event>
 4    1  0.2496748E+000  0.5172249E+02  0.7957747E-01  0.1436266E+00
         13   -1    0    0    0    0  0.00000000000E+00  0.00000000000E+00  0.99999944181E+02  0.10000000000E+03  0.10566000000E+00 0.  1.
         22   -1    0    0    0    0 -0.00000000000E+00 -0.00000000000E+00 -0.10897776604E+02  0.10897776604E+02  0.00000000000E+00 0.  1.
         13    1    1    2    0    0 -0.10105773674E+02  0.85492558854E+01  0.10945507327E+02  0.17176487779E+02  0.10566000000E+00 0. -1.
        996    1    1    2    0    0  0.10105773674E+02 -0.85492558854E+01  0.78156660249E+02  0.93721288825E+02  0.50000000000E+02 0.  0.
<mgrwt>
<rscale>  0 0.51722495E+02</rscale>
<asrwt>0</asrwt>
<pdfrwt beam="1">  1       13 0.10000000E+01 0.51722495E+02</pdfrwt>
<pdfrwt beam="2">  1       22 0.10897801E+00 0.51722495E+02</pdfrwt>
<totfact> 0.12420458E+00</totfact>
</mgrwt>
</event>
<event>
 4    1  0.2496748E+000  0.5171787E+02  0.7957747E-01  0.1436290E+00
         13   -1    0    0    0    0  0.00000000000E+00  0.00000000000E+00  0.99999944171E+02  0.99999999991E+02  0.10566000000E+00 0.  1.
         22   -1    0    0    0    0 -0.00000000000E+00 -0.00000000000E+00 -0.17721035756E+02  0.17721035756E+02  0.00000000000E+00 0. -1.
         13    1    1    2    0    0  0.45848775299E+01  0.12398259608E+02 -0.66874224012E+01  0.14814544397E+02  0.10566000000E+00 0. -1.
        996    1    1    2    0    0 -0.45848775299E+01 -0.12398259608E+02  0.88966330816E+02  0.10290649135E+03  0.50000000000E+02 0.  0.
<mgrwt>
<rscale>  0 0.51717869E+02</rscale>
<asrwt>0</asrwt>
<pdfrwt beam="1">  1       13 0.10000000E+01 0.51717869E+02</pdfrwt>
<pdfrwt beam="2">  1       22 0.17721059E+00 0.51717869E+02</pdfrwt>
<totfact> 0.56465359E-01</totfact>
</mgrwt>
</event>
<event>
 4    1  0.2496748E+000  0.5137326E+02  0.7957747E-01  0.1438072E+00
         13   -1    0    0    0    0  0.00000000000E+00  0.00000000000E+00  0.99999944177E+02  0.99999999997E+02  0.10566000000E+00 0.  1.
         22   -1    0    0    0    0 -0.00000000000E+00 -0.00000000000E+00 -0.11407034332E+02  0.11407034332E+02  0.00000000000E+00 0.  1.
         13    1    1    2    0    0  0.11773514465E+02 -0.77224985647E+00  0.40420754289E+01  0.12472431620E+02  0.10566000000E+00 0. -1.
        996    1    1    2    0    0 -0.11773514465E+02  0.77224985647E+00  0.84550834416E+02  0.98934602709E+02  0.50000000000E+02 0.  0.
<mgrwt>
<rscale>  0 0.51373262E+02</rscale>
<asrwt>0</asrwt>
<pdfrwt beam="1">  1       13 0.10000000E+01 0.51373262E+02</pdfrwt>
<pdfrwt beam="2">  1       22 0.11407059E+00 0.51373262E+02</pdfrwt>
<totfact> 0.11592004E+00</totfact>
</mgrwt>
</event>
<event>
 4    1  0.2496748E+000  0.5185478E+02  0.7957747E-01  0.1435587E+00
         13   -1    0    0    0    0  0.00000000000E+00  0.00000000000E+00  0.99999944177E+02  0.99999999998E+02  0.10566000000E+00 0.  1.
         22   -1    0    0    0    0 -0.00000000000E+00 -0.00000000000E+00 -0.11361163256E+02  0.11361163256E+02  0.00000000000E+00 0.  1.
         13    1    1    2    0    0  0.13100220172E+02  0.41595667927E+01  0.93589392492E+01  0.16628850603E+02  0.10566000000E+00 0. -1.
        996    1    1    2    0    0 -0.13100220172E+02 -0.41595667927E+01  0.79279841673E+02  0.94732312650E+02  0.50000000000E+02 0.  0.
<mgrwt>
<rscale>  0 0.51854776E+02</rscale>
<asrwt>0</asrwt>
<pdfrwt beam="1">  1       13 0.10000000E+01 0.51854776E+02</pdfrwt>
<pdfrwt beam="2">  1       22 0.11361188E+00 0.51854776E+02</pdfrwt>
<totfact> 0.11675348E+00</totfact>
</mgrwt>
</event>
<event>
 4    1  0.2496748E+000  0.5433900E+02  0.7957747E-01  0.1423251E+00
         13   -1    0    0    0    0  0.00000000000E+00  0.00000000000E+00  0.99999944179E+02  0.99999999999E+02  0.10566000000E+00 0.  1.
         22   -1    0    0    0    0 -0.00000000000E+00 -0.00000000000E+00 -0.16458900264E+02  0.16458900264E+02  0.00000000000E+00 0.  1.
         13    1    1    2    0    0  0.16849840312E+02  0.12992701362E+02  0.66261796860E+01  0.22285529576E+02  0.10566000000E+00 0. -1.
        996    1    1    2    0    0 -0.16849840312E+02 -0.12992701362E+02  0.76914864229E+02  0.94173370687E+02  0.50000000000E+02 0.  0.
<mgrwt>
<rscale>  0 0.54339004E+02</rscale>
<asrwt>0</asrwt>
<pdfrwt beam="1">  1       13 0.10000000E+01 0.54339004E+02</pdfrwt>
<pdfrwt beam="2">  1       22 0.16458924E+00 0.54339004E+02</pdfrwt>
<totfact> 0.64609433E-01</totfact>
</mgrwt>
</event>
<event>
 4    1  0.2496748E+000  0.5175830E+02  0.7957747E-01  0.1436082E+00
         13   -1    0    0    0    0  0.00000000000E+00  0.00000000000E+00  0.99999944176E+02  0.99999999996E+02  0.10566000000E+00 0.  1.
         22   -1    0    0    0    0 -0.00000000000E+00 -0.00000000000E+00 -0.10997242168E+02  0.10997242168E+02  0.00000000000E+00 0.  1.
         13    1    1    2    0    0 -0.11448069887E+02 -0.69183037627E+01  0.10677064968E+02  0.17115259608E+02  0.10566000000E+00 0. -1.
        996    1    1    2    0    0  0.11448069887E+02  0.69183037627E+01  0.78325637039E+02  0.93881982556E+02  0.50000000000E+02 0.  0.
<mgrwt>
<rscale>  0 0.51758296E+02</rscale>
<asrwt>0</asrwt>
<pdfrwt beam="1">  1       13 0.10000000E+01 0.51758296E+02</pdfrwt>
<pdfrwt beam="2">  1       22 0.10997267E+00 0.51758296E+02</pdfrwt>
<totfact> 0.12254952E+00</totfact>
</mgrwt>
</event>
<event>
 4    1  0.2496748E+000  0.5183394E+02  0.7957747E-01  0.1435694E+00
         13   -1    0    0    0    0  0.00000000000E+00  0.00000000000E+00  0.99999944187E+02  0.10000000001E+03  0.10566000000E+00 0. -1.
         22   -1    0    0    0    0 -0.00000000000E+00 -0.00000000000E+00 -0.48368079784E+02  0.48368079784E+02  0.00000000000E+00 0.  1.
         13    1    1    2    0    0  0.66869150349E+01 -0.11918176670E+02 -0.40451831383E+02  0.42698004568E+02  0.10566000000E+00 0.  1.
        996    1    1    2    0    0 -0.66869150349E+01  0.11918176670E+02  0.92083695786E+02  0.10567007522E+03  0.50000000000E+02 0.  0.
<mgrwt>
<rscale>  0 0.51833944E+02</rscale>
<asrwt>0</asrwt>
<pdfrwt beam="1">  1       13 0.10000000E+01 0.51833944E+02</pdfrwt>
<pdfrwt beam="2">  1       22 0.48368094E+00 0.51833944E+02</pdfrwt>
<totfact> 0.80596098E-02</totfact>
</mgrwt>
</event>
<event>
 4    1  0.2496748E+000  0.5948770E+02  0.7957747E-01  0.1399994E+00
         13   -1    0    0    0    0  0.00000000000E+00  0.00000000000E+00  0.99999944175E+02  0.99999999995E+02  0.10566000000E+00 0.  1.
         22   -1    0    0    0    0 -0.00000000000E+00 -0.00000000000E+00 -0.24774474789E+02  0.24774474789E+02  0.00000000000E+00 0.  1.
         13    1    1    2    0    0 -0.24907690902E+02 -0.20454666528E+02  0.47981585218E+01  0.32585578683E+02  0.10566000000E+00 0. -1.
        996    1    1    2    0    0  0.24907690902E+02  0.20454666528E+02  0.70427310864E+02  0.92188896101E+02  0.50000000000E+02 0.  0.
<mgrwt>
<rscale>  0 0.59487700E+02</rscale>
<asrwt>0</asrwt>
<pdfrwt beam="1">  1       13 0.10000000E+01 0.59487700E+02</pdfrwt>
<pdfrwt beam="2">  1       22 0.24774496E+00 0.59487700E+02</pdfrwt>
<totfact> 0.30341330E-01</totfact>
</mgrwt>
</event>
<event>
 4    1  0.2496748E+000  0.5358299E+02  0.7957747E-01  0.1426921E+00
         13   -1    0    0    0    0  0.00000000000E+00  0.00000000000E+00  0.99999944178E+02  0.99999999998E+02  0.10566000000E+00 0. -1.
         22   -1    0    0    0    0 -0.00000000000E+00 -0.00000000000E+00 -0.40071569241E+02  0.40071569241E+02  0.00000000000E+00 0.  1.
         13    1    1    2    0    0 -0.12981306820E+02 -0.14234562342E+02 -0.29845114000E+02  0.35522937456E+02  0.10566000000E+00 0.  1.
        996    1    1    2    0    0  0.12981306820E+02  0.14234562342E+02  0.89773488937E+02  0.10454863178E+03  0.50000000000E+02 0.  0.
<mgrwt>
<rscale>  0 0.53582993E+02</rscale>
<asrwt>0</asrwt>
<pdfrwt beam="1">  1       13 0.10000000E+01 0.53582993E+02</pdfrwt>
<pdfrwt beam="2">  1       22 0.40071586E+00 0.53582993E+02</pdfrwt>
<totfact> 0.12340792E-01</totfact>
</mgrwt>
</event>
<event>
 4    1  0.2496748E+000  0.5108391E+02  0.7957747E-01  0.1439581E+00
         13   -1    0    0    0    0  0.00000000000E+00  0.00000000000E+00  0.99999944176E+02  0.99999999996E+02  0.10566000000E+00 0. -1.
         22   -1    0    0    0    0 -0.00000000000E+00 -0.00000000000E+00 -0.14597972653E+02  0.14597972653E+02  0.00000000000E+00 0.  1.
         13    1    1    2    0    0 -0.90893921504E+01  0.51912733994E+01 -0.43426419543E+01  0.11332963970E+02  0.10566000000E+00 0.  1.
        996    1    1    2    0    0  0.90893921504E+01 -0.51912733994E+01  0.89744613477E+02  0.10326500868E+03  0.50000000000E+02 0.  0.
<mgrwt>
<rscale>  0 0.51083915E+02</rscale>
<asrwt>0</asrwt>
<pdfrwt beam="1">  1       13 0.10000000E+01 0.51083915E+02</pdfrwt>
<pdfrwt beam="2">  1       22 0.14597996E+00 0.51083915E+02</pdfrwt>
<totfact> 0.78607084E-01</totfact>
</mgrwt>
</event>
<event>
 4    1  0.2496748E+000  0.5352056E+02  0.7957747E-01  0.1427228E+00
         13   -1    0    0    0    0  0.00000000000E+00  0.00000000000E+00  0.99999944177E+02  0.99999999997E+02  0.10566000000E+00 0. -1.
         22   -1    0    0    0    0 -0.00000000000E+00 -0.00000000000E+00 -0.13876615844E+02  0.13876615844E+02  0.00000000000E+00 0. -1.
         13    1    1    2    0    0  0.18356661406E+02  0.52424480702E+01  0.34971919698E+02  0.39843401099E+02  0.10566000000E+00 0.  1.
        996    1    1    2    0    0 -0.18356661406E+02 -0.52424480702E+01  0.51151408634E+02  0.74033214742E+02  0.50000000000E+02 0.  0.
<mgrwt>
<rscale>  0 0.53520559E+02</rscale>
<asrwt>0</asrwt>
<pdfrwt beam="1">  1       13 0.10000000E+01 0.53520559E+02</pdfrwt>
<pdfrwt beam="2">  1       22 0.13876640E+00 0.53520559E+02</pdfrwt>
<totfact> 0.85814598E-01</totfact>
</mgrwt>
</event>
<event>
 4    1  0.2496748E+000  0.5099728E+02  0.7957747E-01  0.1440036E+00
         13   -1    0    0    0    0  0.00000000000E+00  0.00000000000E+00  0.99999944180E+02  0.10000000000E+03  0.10566000000E+00 0.  1.
         22   -1    0    0    0    0 -0.00000000000E+00 -0.00000000000E+00 -0.10437858059E+02  0.10437858059E+02  0.00000000000E+00 0.  1.
         13    1    1    2    0    0 -0.86989663602E+01  0.50050587501E+01  0.39463896183E+01  0.10784608657E+02  0.10566000000E+00 0. -1.
        996    1    1    2    0    0  0.86989663602E+01 -0.50050587501E+01  0.85615696502E+02  0.99653249402E+02  0.50000000000E+02 0.  0.
<mgrwt>
<rscale>  0 0.50997281E+02</rscale>
<asrwt>0</asrwt>
<pdfrwt beam="1">  1       13 0.10000000E+01 0.50997281E+02</pdfrwt>
<pdfrwt beam="2">  1       22 0.10437883E+00 0.50997281E+02</pdfrwt>
<totfact> 0.13212842E+00</totfact>
</mgrwt>
</event>
<event>
 4    1  0.2496748E+000  0.5168295E+02  0.7957747E-01  0.1436470E+00
         13   -1    0    0    0    0  0.00000000000E+00  0.00000000000E+00  0.99999944176E+02  0.99999999997E+02  0.10566000000E+00 0.  1.
         22   -1    0    0    0    0 -0.00000000000E+00 -0.00000000000E+00 -0.12636771994E+02  0.12636771994E+02  0.00000000000E+00 0. -1.
         13    1    1    2    0    0  0.95148660147E+01 -0.89774426406E+01  0.25667930904E+01  0.13331419371E+02  0.10566000000E+00 0. -1.
        996    1    1    2    0    0 -0.95148660147E+01  0.89774426406E+01  0.84796379092E+02  0.99305352619E+02  0.50000000000E+02 0.  0.
<mgrwt>
<rscale>  0 0.51682948E+02</rscale>
<asrwt>0</asrwt>
<pdfrwt beam="1">  1       13 0.10000000E+01 0.51682948E+02</pdfrwt>
<pdfrwt beam="2">  1       22 0.12636796E+00 0.51682948E+02</pdfrwt>
<totfact> 0.99169019E-01</totfact>
</mgrwt>
</event>
<event>
 4    1  0.2496748E+000  0.5548018E+02  0.7957747E-01  0.1417842E+00
         13   -1    0    0    0    0  0.00000000000E+00  0.00000000000E+00  0.99999944186E+02  0.10000000001E+03  0.10566000000E+00 0. -1.
         22   -1    0    0    0    0 -0.00000000000E+00 -0.00000000000E+00 -0.26011576783E+02  0.26011576783E+02  0.00000000000E+00 0.  1.
         13    1    1    2    0    0  0.48620717169E+01 -0.23545933550E+02 -0.94319063144E+01  0.25826783557E+02  0.10566000000E+00 0.  1.
        996    1    1    2    0    0 -0.48620717169E+01  0.23545933550E+02  0.83420273717E+02  0.10018479323E+03  0.50000000000E+02 0.  0.
<mgrwt>
<rscale>  0 0.55480183E+02</rscale>
<asrwt>0</asrwt>
<pdfrwt beam="1">  1       13 0.10000000E+01 0.55480183E+02</pdfrwt>
<pdfrwt beam="2">  1       22 0.26011597E+00 0.55480183E+02</pdfrwt>
<totfact> 0.27405893E-01</totfact>
</mgrwt>
</event>
<event>
 4    1  0.2496748E+000  0.5797404E+02  0.7957747E-01  0.1406536E+00
         13   -1    0    0    0    0  0.00000000000E+00  0.00000000000E+00  0.99999944178E+02  0.99999999998E+02  0.10566000000E+00 0.  1.
         22   -1    0    0    0    0 -0.00000000000E+00 -0.00000000000E+00 -0.56249628304E+02  0.56249628304E+02  0.00000000000E+00 0. -1.
         13    1    1    2    0    0 -0.51508172330E+01  0.28886997044E+02 -0.42911322078E+02  0.51984442316E+02  0.10566000000E+00 0. -1.
        996    1    1    2    0    0  0.51508172330E+01 -0.28886997044E+02  0.86661637952E+02  0.10426518599E+03  0.50000000000E+02 0.  0.
<mgrwt>
<rscale>  0 0.57974042E+02</rscale>
<asrwt>0</asrwt>
<pdfrwt beam="1">  1       13 0.10000000E+01 0.57974042E+02</pdfrwt>
<pdfrwt beam="2">  1       22 0.56249641E+00 0.57974042E+02</pdfrwt>
<totfact> 0.58327368E-02</totfact>
</mgrwt>
</event>
<event>
 4    1  0.2496748E+000  0.5274583E+02  0.7957747E-01  0.1431070E+00
         13   -1    0    0    0    0  0.00000000000E+00  0.00000000000E+00  0.99999944173E+02  0.99999999993E+02  0.10566000000E+00 0. -1.
         22   -1    0    0    0    0 -0.00000000000E+00 -0.00000000000E+00 -0.24391295359E+02  0.24391295359E+02  0.00000000000E+00 0.  1.
         13    1    1    2    0    0 -0.16522106472E+02 -0.30236020955E+01 -0.13021727179E+02  0.21253204809E+02  0.10566000000E+00 0.  1.
        996    1    1    2    0    0  0.16522106472E+02  0.30236020955E+01  0.88630375994E+02  0.10313809054E+03  0.50000000000E+02 0.  0.
<mgrwt>
<rscale>  0 0.52745826E+02</rscale>
<asrwt>0</asrwt>
<pdfrwt beam="1">  1       13 0.10000000E+01 0.52745826E+02</pdfrwt>
<pdfrwt beam="2">  1       22 0.24391316E+00 0.52745826E+02</pdfrwt>
<totfact> 0.30979175E-01</totfact>
</mgrwt>
</event>
<event>
 4    1  0.2496748E+000  0.5431035E+02  0.7957747E-01  0.1423389E+00
         13   -1    0    0    0    0  0.00000000000E+00  0.00000000000E+00  0.99999944188E+02  0.10000000001E+03  0.10566000000E+00 0. -1.
         22   -1    0    0    0    0 -0.00000000000E+00 -0.00000000000E+00 -0.27718097081E+02  0.27718097081E+02  0.00000000000E+00 0.  1.
         13    1    1    2    0    0  0.20845173810E+02 -0.38848857804E+01 -0.14254900344E+02  0.25550478598E+02  0.10566000000E+00 0.  1.
        996    1    1    2    0    0 -0.20845173810E+02  0.38848857804E+01  0.86536747452E+02  0.10216761849E+03  0.50000000000E+02 0.  0.
<mgrwt>
<rscale>  0 0.54310345E+02</rscale>
<asrwt>0</asrwt>
<pdfrwt beam="1">  1       13 0.10000000E+01 0.54310345E+02</pdfrwt>
<pdfrwt beam="2">  1       22 0.27718117E+00 0.54310345E+02</pdfrwt>
<totfact> 0.24156924E-01</totfact>
</mgrwt>
</event>
<event>
 4    1  0.2496748E+000  0.5207726E+02  0.7957747E-01  0.1434449E+00
         13   -1    0    0    0    0  0.00000000000E+00  0.00000000000E+00  0.99999944179E+02  0.10000000000E+03  0.10566000000E+00 0. -1.
         22   -1    0    0    0    0 -0.00000000000E+00 -0.00000000000E+00 -0.11932427512E+02  0.11932427512E+02  0.00000000000E+00 0. -1.
         13    1    1    2    0    0 -0.77241969190E+01 -0.12344156613E+02  0.85716222598E+01  0.16897493682E+02  0.10566000000E+00 0.  1.
        996    1    1    2    0    0  0.77241969190E+01  0.12344156613E+02  0.79495894407E+02  0.95034933830E+02  0.50000000000E+02 0.  0.
<mgrwt>
<rscale>  0 0.52077264E+02</rscale>
<asrwt>0</asrwt>
<pdfrwt beam="1">  1       13 0.10000000E+01 0.52077264E+02</pdfrwt>
<pdfrwt beam="2">  1       22 0.11932452E+00 0.52077264E+02</pdfrwt>
<totfact> 0.10844568E+00</totfact>
</mgrwt>
</event>
<event>
 4    1  0.2496748E+000  0.5240771E+02  0.7957747E-01  0.1432771E+00
         13   -1    0    0    0    0  0.00000000000E+00  0.00000000000E+00  0.99999944176E+02  0.99999999997E+02  0.10566000000E+00 0.  1.
         22   -1    0    0    0    0 -0.00000000000E+00 -0.00000000000E+00 -0.11615210143E+02  0.11615210143E+02  0.00000000000E+00 0.  1.
         13    1    1    2    0    0 -0.13886036748E+02 -0.73311697859E+01  0.18581777363E+02  0.24328207517E+02  0.10566000000E+00 0. -1.
        996    1    1    2    0    0  0.13886036748E+02  0.73311697859E+01  0.69802956670E+02  0.87287002623E+02  0.50000000000E+02 0.  0.
<mgrwt>
<rscale>  0 0.52407710E+02</rscale>
<asrwt>0</asrwt>
<pdfrwt beam="1">  1       13 0.10000000E+01 0.52407710E+02</pdfrwt>
<pdfrwt beam="2">  1       22 0.11615235E+00 0.52407710E+02</pdfrwt>
<totfact> 0.11306556E+00</totfact>
</mgrwt>
</event>
<event>
 4    1  0.2496748E+000  0.5726286E+02  0.7957747E-01  0.1409691E+00
         13   -1    0    0    0    0  0.00000000000E+00  0.00000000000E+00  0.99999944182E+02  0.10000000000E+03  0.10566000000E+00 0. -1.
         22   -1    0    0    0    0 -0.00000000000E+00 -0.00000000000E+00 -0.30264501220E+02  0.30264501220E+02  0.00000000000E+00 0.  1.
         13    1    1    2    0    0  0.25428170428E+02  0.11508411673E+02 -0.12069488863E+02  0.30409194596E+02  0.10566000000E+00 0.  1.
        996    1    1    2    0    0 -0.25428170428E+02 -0.11508411673E+02  0.81804931824E+02  0.99855306626E+02  0.50000000000E+02 0.  0.
<mgrwt>
<rscale>  0 0.57262862E+02</rscale>
<asrwt>0</asrwt>
<pdfrwt beam="1">  1       13 0.10000000E+01 0.57262862E+02</pdfrwt>
<pdfrwt beam="2">  1       22 0.30264521E+00 0.57262862E+02</pdfrwt>
<totfact> 0.20500285E-01</totfact>
</mgrwt>
</event>
<event>
 4    1  0.2496748E+000  0.5182447E+02  0.7957747E-01  0.1435742E+00
         13   -1    0    0    0    0  0.00000000000E+00  0.00000000000E+00  0.99999944182E+02  0.10000000000E+03  0.10566000000E+00 0.  1.
         22   -1    0    0    0    0 -0.00000000000E+00 -0.00000000000E+00 -0.11560170886E+02  0.11560170886E+02  0.00000000000E+00 0.  1.
         13    1    1    2    0    0 -0.48417186640E+01 -0.12741006250E+02  0.78031847500E+01  0.15705933151E+02  0.10566000000E+00 0. -1.
        996    1    1    2    0    0  0.48417186640E+01  0.12741006250E+02  0.80636588546E+02  0.95854237737E+02  0.50000000000E+02 0.  0.
<mgrwt>
<rscale>  0 0.51824468E+02</rscale>
<asrwt>0</asrwt>
<pdfrwt beam="1">  1       13 0.10000000E+01 0.51824468E+02</pdfrwt>
<pdfrwt beam="2">  1       22 0.11560196E+00 0.51824468E+02</pdfrwt>
<totfact> 0.11373056E+00</totfact>
</mgrwt>
</event>
<event>
 4    1  0.2496748E+000  0.6912280E+02  0.7957747E-01  0.1363102E+00
         13   -1    0    0    0    0  0.00000000000E+00  0.00000000000E+00  0.99999944181E+02  0.10000000000E+03  0.10566000000E+00 0. -1.
         22   -1    0    0    0    0 -0.00000000000E+00 -0.00000000000E+00 -0.35442892079E+02  0.35442892079E+02  0.00000000000E+00 0. -1.
         13    1    1    2    0    0 -0.27260191454E+02  0.39177072483E+02  0.13790732683E+02  0.49680544667E+02  0.10566000000E+00 0.  1.
        996    1    1    2    0    0  0.27260191454E+02 -0.39177072483E+02  0.50766319419E+02  0.85762347413E+02  0.50000000000E+02 0.  0.
<mgrwt>
<rscale>  0 0.69122797E+02</rscale>
<asrwt>0</asrwt>
<pdfrwt beam="1">  1       13 0.10000000E+01 0.69122797E+02</pdfrwt>
<pdfrwt beam="2">  1       22 0.35442910E+00 0.69122797E+02</pdfrwt>
<totfact> 0.15604580E-01</totfact>
</mgrwt>
</event>
<event>
 4    1  0.2496748E+000  0.5159540E+02  0.7957747E-01  0.1436922E+00
         13   -1    0    0    0    0  0.00000000000E+00  0.00000000000E+00  0.99999944173E+02  0.99999999993E+02  0.10566000000E+00 0. -1.
         22   -1    0    0    0    0 -0.00000000000E+00 -0.00000000000E+00 -0.11522358879E+02  0.11522358879E+02  0.00000000000E+00 0. -1.
         13    1    1    2    0    0  0.38899823343E+01 -0.12122449101E+02  0.56274618271E+01  0.13919957809E+02  0.10566000000E+00 0.  1.
        996    1    1    2    0    0 -0.38899823343E+01  0.12122449101E+02  0.82850123467E+02  0.97602401063E+02  0.50000000000E+02 0.  0.
<mgrwt>
<rscale>  0 0.51595404E+02</rscale>
<asrwt>0</asrwt>
<pdfrwt beam="1">  1       13 0.10000000E+01 0.51595404E+02</pdfrwt>
<pdfrwt beam="2">  1       22 0.11522384E+00 0.51595404E+02</pdfrwt>
<totfact> 0.11423486E+00</totfact>
</mgrwt>
</event>
<event>
 4    1  0.2496748E+000  0.5860597E+02  0.7957747E-01  0.1403777E+00
         13   -1    0    0    0    0  0.00000000000E+00  0.00000000000E+00  0.99999944174E+02  0.99999999994E+02  0.10566000000E+00 0.  1.
         22   -1    0    0    0    0 -0.00000000000E+00 -0.00000000000E+00 -0.22454797397E+02  0.22454797397E+02  0.00000000000E+00 0. -1.
         13    1    1    2    0    0  0.26775738837E+02 -0.14755306668E+02  0.81829515255E+01  0.31648556442E+02  0.10566000000E+00 0. -1.
        996    1    1    2    0    0 -0.26775738837E+02  0.14755306668E+02  0.69362195252E+02  0.90806240949E+02  0.50000000000E+02 0.  0.
<mgrwt>
<rscale>  0 0.58605966E+02</rscale>
<asrwt>0</asrwt>
<pdfrwt beam="1">  1       13 0.10000000E+01 0.58605966E+02</pdfrwt>
<pdfrwt beam="2">  1       22 0.22454819E+00 0.58605966E+02</pdfrwt>
<totfact> 0.36739495E-01</totfact>
</mgrwt>
</event>
<event>
 4    1  0.2496748E+000  0.5965126E+02  0.7957747E-01  0.1399301E+00
         13   -1    0    0    0    0  0.00000000000E+00  0.00000000000E+00  0.99999944172E+02  0.99999999992E+02  0.10566000000E+00 0. -1.
         22   -1    0    0    0    0 -0.00000000000E+00 -0.00000000000E+00 -0.23332929304E+02  0.23332929304E+02  0.00000000000E+00 0.  1.
         13    1    1    2    0    0 -0.13477270430E+02 -0.29608032512E+02  0.10356257126E+02  0.34139941904E+02  0.10566000000E+00 0.  1.
        996    1    1    2    0    0  0.13477270430E+02  0.29608032512E+02  0.66310757743E+02  0.89192987392E+02  0.50000000000E+02 0.  0.
<mgrwt>
<rscale>  0 0.59651257E+02</rscale>
<asrwt>0</asrwt>
<pdfrwt beam="1">  1       13 0.10000000E+01 0.59651257E+02</pdfrwt>
<pdfrwt beam="2">  1       22 0.23332951E+00 0.59651257E+02</pdfrwt>
<totfact> 0.34145346E-01</totfact>
</mgrwt>
</event>
<event>
 4    1  0.2496748E+000  0.5207957E+02  0.7957747E-01  0.1434437E+00
         13   -1    0    0    0    0  0.00000000000E+00  0.00000000000E+00  0.99999944172E+02  0.99999999992E+02  0.10566000000E+00 0.  1.
         22   -1    0    0    0    0 -0.00000000000E+00 -0.00000000000E+00 -0.12207845268E+02  0.12207845268E+02  0.00000000000E+00 0.  1.
         13    1    1    2    0    0 -0.14273578888E+02 -0.29233995661E+01  0.71983312319E+01  0.16251413965E+02  0.10566000000E+00 0. -1.
        996    1    1    2    0    0  0.14273578888E+02  0.29233995661E+01  0.80593767672E+02  0.95956431295E+02  0.50000000000E+02 0.  0.
<mgrwt>
<rscale>  0 0.52079567E+02</rscale>
<asrwt>0</asrwt>
<pdfrwt beam="1">  1       13 0.10000000E+01 0.52079567E+02</pdfrwt>
<pdfrwt beam="2">  1       22 0.12207870E+00 0.52079567E+02</pdfrwt>
<totfact> 0.10471359E+00</totfact>
</mgrwt>
</event>
<event>
 4    1  0.2496748E+000  0.6236010E+02  0.7957747E-01  0.1388186E+00
         13   -1    0    0    0    0  0.00000000000E+00  0.00000000000E+00  0.99999944185E+02  0.10000000001E+03  0.10566000000E+00 0. -1.
         22   -1    0    0    0    0 -0.00000000000E+00 -0.00000000000E+00 -0.25717485492E+02  0.25717485492E+02  0.00000000000E+00 0.  1.
         13    1    1    2    0    0  0.36490469270E+02 -0.75649292494E+01  0.16697229318E+02  0.40836149831E+02  0.10566000000E+00 0.  1.
        996    1    1    2    0    0 -0.36490469270E+02  0.75649292494E+01  0.57585229376E+02  0.84881335666E+02  0.50000000000E+02 0.  0.
<mgrwt>
<rscale>  0 0.62360103E+02</rscale>
<asrwt>0</asrwt>
<pdfrwt beam="1">  1       13 0.10000000E+01 0.62360103E+02</pdfrwt>
<pdfrwt beam="2">  1       22 0.25717506E+00 0.62360103E+02</pdfrwt>
<totfact> 0.28287637E-01</totfact>
</mgrwt>
</event>
<event>
 4    1  0.2496748E+000  0.5140297E+02  0.7957747E-01  0.1437918E+00
         13   -1    0    0    0    0  0.00000000000E+00  0.00000000000E+00  0.99999944179E+02  0.99999999999E+02  0.10566000000E+00 0.  1.
         22   -1    0    0    0    0 -0.00000000000E+00 -0.00000000000E+00 -0.10741494957E+02  0.10741494957E+02  0.00000000000E+00 0. -1.
         13    1    1    2    0    0  0.11723062258E+02  0.21988581388E+01  0.72609848509E+01  0.13964176698E+02  0.10566000000E+00 0. -1.
        996    1    1    2    0    0 -0.11723062258E+02 -0.21988581388E+01  0.81997464371E+02  0.96777318258E+02  0.50000000000E+02 0.  0.
<mgrwt>
<rscale>  0 0.51402968E+02</rscale>
<asrwt>0</asrwt>
<pdfrwt beam="1">  1       13 0.10000000E+01 0.51402968E+02</pdfrwt>
<pdfrwt beam="2">  1       22 0.10741520E+00 0.51402968E+02</pdfrwt>
<totfact> 0.12679398E+00</totfact>
</mgrwt>
</event>
<event>
 4    1  0.2496748E+000  0.5441415E+02  0.7957747E-01  0.1422890E+00
         13   -1    0    0    0    0  0.00000000000E+00  0.00000000000E+00  0.99999944184E+02  0.10000000000E+03  0.10566000000E+00 0. -1.
         22   -1    0    0    0    0 -0.00000000000E+00 -0.00000000000E+00 -0.16462602089E+02  0.16462602089E+02  0.00000000000E+00 0. -1.
         13    1    1    2    0    0 -0.17623233470E+01 -0.21396129901E+02  0.70544332695E+01  0.22598149285E+02  0.10566000000E+00 0.  1.
        996    1    1    2    0    0  0.17623233470E+01  0.21396129901E+02  0.76482908825E+02  0.93864452807E+02  0.50000000000E+02 0.  0.
<mgrwt>
<rscale>  0 0.54414154E+02</rscale>
<asrwt>0</asrwt>
<pdfrwt beam="1">  1       13 0.10000000E+01 0.54414154E+02</pdfrwt>
<pdfrwt beam="2">  1       22 0.16462625E+00 0.54414154E+02</pdfrwt>
<totfact> 0.64593365E-01</totfact>
</mgrwt>
</event>
<event>
 4    1  0.2496748E+000  0.5100642E+02  0.7957747E-01  0.1439988E+00
         13   -1    0    0    0    0  0.00000000000E+00  0.00000000000E+00  0.99999944178E+02  0.99999999999E+02  0.10566000000E+00 0.  1.
         22   -1    0    0    0    0 -0.00000000000E+00 -0.00000000000E+00 -0.52591893172E+02  0.52591893172E+02  0.00000000000E+00 0. -1.
         13    1    1    2    0    0 -0.68266392607E+01 -0.74196663344E+01 -0.45499776514E+02  0.46603597275E+02  0.10566000000E+00 0. -1.
        996    1    1    2    0    0  0.68266392607E+01  0.74196663344E+01  0.92907827521E+02  0.10598829590E+03  0.50000000000E+02 0.  0.
<mgrwt>
<rscale>  0 0.51006416E+02</rscale>
<asrwt>0</asrwt>
<pdfrwt beam="1">  1       13 0.10000000E+01 0.51006416E+02</pdfrwt>
<pdfrwt beam="2">  1       22 0.52591906E+00 0.51006416E+02</pdfrwt>
<totfact> 0.64360499E-02</totfact>
</mgrwt>
</event>
<event>
 4    1  0.2496748E+000  0.5255514E+02  0.7957747E-01  0.1432028E+00
         13   -1    0    0    0    0  0.00000000000E+00  0.00000000000E+00  0.99999944180E+02  0.10000000000E+03  0.10566000000E+00 0. -1.
         22   -1    0    0    0    0 -0.00000000000E+00 -0.00000000000E+00 -0.11919719932E+02  0.11919719932E+02  0.00000000000E+00 0. -1.
         13    1    1    2    0    0 -0.38970611792E+01 -0.15711642537E+02  0.16469355776E+02  0.23093151382E+02  0.10566000000E+00 0.  1.
        996    1    1    2    0    0  0.38970611792E+01  0.15711642537E+02  0.71610868472E+02  0.88826568550E+02  0.50000000000E+02 0.  0.
<mgrwt>
<rscale>  0 0.52555141E+02</rscale>
<asrwt>0</asrwt>
<pdfrwt beam="1">  1       13 0.10000000E+01 0.52555141E+02</pdfrwt>
<pdfrwt beam="2">  1       22 0.11919745E+00 0.52555141E+02</pdfrwt>
<totfact> 0.10873811E+00</totfact>
</mgrwt>
</event>
<event>
 4    1  0.2496748E+000  0.5122558E+02  0.7957747E-01  0.1438841E+00
         13   -1    0    0    0    0  0.00000000000E+00  0.00000000000E+00  0.99999944174E+02  0.99999999994E+02  0.10566000000E+00 0. -1.
         22   -1    0    0    0    0 -0.00000000000E+00 -0.00000000000E+00 -0.12333920551E+02  0.12333920551E+02  0.00000000000E+00 0.  1.
         13    1    1    2    0    0 -0.81830351652E+01  0.75563497707E+01  0.40244539941E+00  0.11146013310E+02  0.10566000000E+00 0.  1.
        996    1    1    2    0    0  0.81830351652E+01 -0.75563497707E+01  0.87263578223E+02  0.10118790724E+03  0.50000000000E+02 0.  0.
<mgrwt>
<rscale>  0 0.51225584E+02</rscale>
<asrwt>0</asrwt>
<pdfrwt beam="1">  1       13 0.10000000E+01 0.51225584E+02</pdfrwt>
<pdfrwt beam="2">  1       22 0.12333945E+00 0.51225584E+02</pdfrwt>
<totfact> 0.10287012E+00</totfact>
</mgrwt>
</event>
<event>
 4    1  0.2496748E+000  0.5113013E+02  0.7957747E-01  0.1439340E+00
         13   -1    0    0    0    0  0.00000000000E+00  0.00000000000E+00  0.99999944178E+02  0.99999999998E+02  0.10566000000E+00 0. -1.
         22   -1    0    0    0    0 -0.00000000000E+00 -0.00000000000E+00 -0.10293675724E+02  0.10293675724E+02  0.00000000000E+00 0. -1.
         13    1    1    2    0    0  0.10120548689E+02  0.34444768188E+01  0.29092516774E+02  0.30994767665E+02  0.10566000000E+00 0.  1.
        996    1    1    2    0    0 -0.10120548689E+02 -0.34444768188E+01  0.60613751680E+02  0.79298908057E+02  0.50000000000E+02 0.  0.
<mgrwt>
<rscale>  0 0.51130127E+02</rscale>
<asrwt>0</asrwt>
<pdfrwt beam="1">  1       13 0.10000000E+01 0.51130127E+02</pdfrwt>
<pdfrwt beam="2">  1       22 0.10293701E+00 0.51130127E+02</pdfrwt>
<totfact> 0.13488608E+00</totfact>
</mgrwt>
</event>
<event>
 4    1  0.2496748E+000  0.5359660E+02  0.7957747E-01  0.1426855E+00
         13   -1    0    0    0    0  0.00000000000E+00  0.00000000000E+00  0.99999944176E+02  0.99999999997E+02  0.10566000000E+00 0.  1.
         22   -1    0    0    0    0 -0.00000000000E+00 -0.00000000000E+00 -0.16701773974E+02  0.16701773974E+02  0.00000000000E+00 0. -1.
         13    1    1    2    0    0  0.15419121568E+02  0.11612332805E+02  0.21098761143E+01  0.19417989709E+02  0.10566000000E+00 0. -1.
        996    1    1    2    0    0 -0.15419121568E+02 -0.11612332805E+02  0.81188294089E+02  0.97283784261E+02  0.50000000000E+02 0.  0.
<mgrwt>
<rscale>  0 0.53596600E+02</rscale>
<asrwt>0</asrwt>
<pdfrwt beam="1">  1       13 0.10000000E+01 0.53596600E+02</pdfrwt>
<pdfrwt beam="2">  1       22 0.16701797E+00 0.53596600E+02</pdfrwt>
<totfact> 0.62899104E-01</totfact>
</mgrwt>
</event>
<event>
 4    1  0.2496748E+000  0.7213556E+02  0.7957747E-01  0.1352978E+00
         13   -1    0    0    0    0  0.00000000000E+00  0.00000000000E+00  0.99999944184E+02  0.10000000000E+03  0.10566000000E+00 0. -1.
         22   -1    0    0    0    0 -0.00000000000E+00 -0.00000000000E+00 -0.43980627211E+02  0.43980627211E+02  0.00000000000E+00 0.  1.
         13    1    1    2    0    0 -0.44501941120E+02 -0.26890809015E+02 -0.10401312982E+01  0.52006070897E+02  0.10566000000E+00 0.  1.
        996    1    1    2    0    0  0.44501941120E+02  0.26890809015E+02  0.57059448271E+02  0.91974556318E+02  0.50000000000E+02 0.  0.
<mgrwt>
<rscale>  0 0.72135556E+02</rscale>
<asrwt>0</asrwt>
<pdfrwt beam="1">  1       13 0.10000000E+01 0.72135556E+02</pdfrwt>
<pdfrwt beam="2">  1       22 0.43980643E+00 0.72135556E+02</pdfrwt>
<totfact> 0.10290612E-01</totfact>
</mgrwt>
</event>
<event>
 4    1  0.2496748E+000  0.5529673E+02  0.7957747E-01  0.1418701E+00
         13   -1    0    0    0    0  0.00000000000E+00  0.00000000000E+00  0.99999944177E+02  0.99999999997E+02  0.10566000000E+00 0. -1.
         22   -1    0    0    0    0 -0.00000000000E+00 -0.00000000000E+00 -0.15692082795E+02  0.15692082795E+02  0.00000000000E+00 0. -1.
         13    1    1    2    0    0  0.23595629803E+02  0.98706147703E+00  0.20654026994E+02  0.31374002475E+02  0.10566000000E+00 0.  1.
        996    1    1    2    0    0 -0.23595629803E+02 -0.98706147703E+00  0.63653834387E+02  0.84318080317E+02  0.50000000000E+02 0.  0.
<mgrwt>
<rscale>  0 0.55296727E+02</rscale>
<asrwt>0</asrwt>
<pdfrwt beam="1">  1       13 0.10000000E+01 0.55296727E+02</pdfrwt>
<pdfrwt beam="2">  1       22 0.15692106E+00 0.55296727E+02</pdfrwt>
<totfact> 0.70244179E-01</totfact>
</mgrwt>
</event>
<event>
 4    1  0.2496748E+000  0.5294953E+02  0.7957747E-01  0.1430052E+00
         13   -1    0    0    0    0  0.00000000000E+00  0.00000000000E+00  0.99999944174E+02  0.99999999995E+02  0.10566000000E+00 0.  1.
         22   -1    0    0    0    0 -0.00000000000E+00 -0.00000000000E+00 -0.12552126507E+02  0.12552126507E+02  0.00000000000E+00 0. -1.
         13    1    1    2    0    0  0.66166471016E+01 -0.16120579830E+02  0.16279927764E+02  0.23847438541E+02  0.10566000000E+00 0. -1.
        996    1    1    2    0    0 -0.66166471016E+01  0.16120579830E+02  0.71167889903E+02  0.88704687961E+02  0.50000000000E+02 0.  0.
<mgrwt>
<rscale>  0 0.52949534E+02</rscale>
<asrwt>0</asrwt>
<pdfrwt beam="1">  1       13 0.10000000E+01 0.52949534E+02</pdfrwt>
<pdfrwt beam="2">  1       22 0.12552151E+00 0.52949534E+02</pdfrwt>
<totfact> 0.10048983E+00</totfact>
</mgrwt>
</event>
<event>
 4    1  0.2496748E+000  0.5199544E+02  0.7957747E-01  0.1434867E+00
         13   -1    0    0    0    0  0.00000000000E+00  0.00000000000E+00  0.99999944185E+02  0.10000000001E+03  0.10566000000E+00 0.  1.
         22   -1    0    0    0    0 -0.00000000000E+00 -0.00000000000E+00 -0.12877098098E+02  0.12877098098E+02  0.00000000000E+00 0.  1.
         13    1    1    2    0    0 -0.14120082974E+02 -0.20369628005E+01  0.39745201588E+01  0.14809926913E+02  0.10566000000E+00 0. -1.
        996    1    1    2    0    0  0.14120082974E+02  0.20369628005E+01  0.83148325929E+02  0.98067171191E+02  0.50000000000E+02 0.  0.
<mgrwt>
<rscale>  0 0.51995442E+02</rscale>
<asrwt>0</asrwt>
<pdfrwt beam="1">  1       13 0.10000000E+01 0.51995442E+02</pdfrwt>
<pdfrwt beam="2">  1       22 0.12877122E+00 0.51995442E+02</pdfrwt>
<totfact> 0.96354334E-01</totfact>
</mgrwt>
</event>
<event>
 4    1  0.2496748E+000  0.5954279E+02  0.7957747E-01  0.1399761E+00
         13   -1    0    0    0    0  0.00000000000E+00  0.00000000000E+00  0.99999944185E+02  0.10000000000E+03  0.10566000000E+00 0.  1.
         22   -1    0    0    0    0 -0.00000000000E+00 -0.00000000000E+00 -0.44377807443E+02  0.44377807443E+02  0.00000000000E+00 0. -1.
         13    1    1    2    0    0  0.28299005402E+02  0.15636802091E+02 -0.27283822127E+02  0.42305571740E+02  0.10566000000E+00 0. -1.
        996    1    1    2    0    0 -0.28299005402E+02 -0.15636802091E+02  0.82905958869E+02  0.10207223571E+03  0.50000000000E+02 0.  0.
<mgrwt>
<rscale>  0 0.59542785E+02</rscale>
<asrwt>0</asrwt>
<pdfrwt beam="1">  1       13 0.10000000E+01 0.59542785E+02</pdfrwt>
<pdfrwt beam="2">  1       22 0.44377823E+00 0.59542785E+02</pdfrwt>
<totfact> 0.10020535E-01</totfact>
</mgrwt>
</event>
<event>
 4    1  0.2496748E+000  0.5160364E+02  0.7957747E-01  0.1436879E+00
         13   -1    0    0    0    0  0.00000000000E+00  0.00000000000E+00  0.99999944176E+02  0.99999999996E+02  0.10566000000E+00 0.  1.
         22   -1    0    0    0    0 -0.00000000000E+00 -0.00000000000E+00 -0.15137691617E+02  0.15137691617E+02  0.00000000000E+00 0. -1.
         13    1    1    2    0    0  0.11639005007E+02 -0.52411262469E+01 -0.31179821314E+01  0.13140350775E+02  0.10566000000E+00 0. -1.
        996    1    1    2    0    0 -0.11639005007E+02  0.52411262469E+01  0.87980234690E+02  0.10199734084E+03  0.50000000000E+02 0.  0.
<mgrwt>
<rscale>  0 0.51603642E+02</rscale>
<asrwt>0</asrwt>
<pdfrwt beam="1">  1       13 0.10000000E+01 0.51603642E+02</pdfrwt>
<pdfrwt beam="2">  1       22 0.15137715E+00 0.51603642E+02</pdfrwt>
<totfact> 0.74093443E-01</totfact>
</mgrwt>
</event>
<event>
 4    1  0.2496748E+000  0.5823052E+02  0.7957747E-01  0.1405411E+00
         13   -1    0    0    0    0  0.00000000000E+00  0.00000000000E+00  0.99999944188E+02  0.10000000001E+03  0.10566000000E+00 0. -1.
         22   -1    0    0    0    0 -0.00000000000E+00 -0.00000000000E+00 -0.19411587797E+02  0.19411587797E+02  0.00000000000E+00 0.  1.
         13    1    1    2    0    0 -0.66011739498E+01  0.29107001589E+02  0.25610098646E+02  0.39327869961E+02  0.10566000000E+00 0.  1.
        996    1    1    2    0    0  0.66011739498E+01 -0.29107001589E+02  0.54978257745E+02  0.80083717843E+02  0.50000000000E+02 0.  0.
<mgrwt>
<rscale>  0 0.58230516E+02</rscale>
<asrwt>0</asrwt>
<pdfrwt beam="1">  1       13 0.10000000E+01 0.58230516E+02</pdfrwt>
<pdfrwt beam="2">  1       22 0.19411610E+00 0.58230516E+02</pdfrwt>
<totfact> 0.48403033E-01</totfact>
</mgrwt>
</event>
<event>
 4    1  0.2496748E+000  0.5111632E+02  0.7957747E-01  0.1439412E+00
         13   -1    0    0    0    0  0.00000000000E+00  0.00000000000E+00  0.99999944185E+02  0.10000000001E+03  0.10566000000E+00 0.  1.
         22   -1    0    0    0    0 -0.00000000000E+00 -0.00000000000E+00 -0.95319626106E+01  0.95319626106E+01  0.00000000000E+00 0.  1.
         13    1    1    2    0    0 -0.19761910357E+01 -0.10439016527E+02  0.16177604747E+02  0.19354701146E+02  0.10566000000E+00 0. -1.
        996    1    1    2    0    0  0.19761910357E+01  0.10439016527E+02  0.74290376828E+02  0.90177261470E+02  0.50000000000E+02 0.  0.
<mgrwt>
<rscale>  0 0.51116322E+02</rscale>
<asrwt>0</asrwt>
<pdfrwt beam="1">  1       13 0.10000000E+01 0.51116322E+02</pdfrwt>
<pdfrwt beam="2">  1       22 0.95319879E-01 0.51116322E+02</pdfrwt>
<totfact> 0.15072260E+00</totfact>
</mgrwt>
</event>
<event>
 4    1  0.2496748E+000  0.5174906E+02  0.7957747E-01  0.1436130E+00
         13   -1    0    0    0    0  0.00000000000E+00  0.00000000000E+00  0.99999944185E+02  0.10000000001E+03  0.10566000000E+00 0. -1.
         22   -1    0    0    0    0 -0.00000000000E+00 -0.00000000000E+00 -0.18901839014E+02  0.18901839014E+02  0.00000000000E+00 0.  1.
         13    1    1    2    0    0 -0.98816548722E+00 -0.13303695011E+02 -0.82240213102E+01  0.15671964220E+02  0.10566000000E+00 0.  1.
        996    1    1    2    0    0  0.98816548722E+00  0.13303695011E+02  0.89322126481E+02  0.10322987480E+03  0.50000000000E+02 0.  0.
<mgrwt>
<rscale>  0 0.51749056E+02</rscale>
<asrwt>0</asrwt>
<pdfrwt beam="1">  1       13 0.10000000E+01 0.51749056E+02</pdfrwt>
<pdfrwt beam="2">  1       22 0.18901862E+00 0.51749056E+02</pdfrwt>
<totfact> 0.50264159E-01</totfact>
</mgrwt>
</event>
<event>
 4    1  0.2496748E+000  0.5158138E+02  0.7957747E-01  0.1436994E+00
         13   -1    0    0    0    0  0.00000000000E+00  0.00000000000E+00  0.99999944175E+02  0.99999999995E+02  0.10566000000E+00 0. -1.
         22   -1    0    0    0    0 -0.00000000000E+00 -0.00000000000E+00 -0.15167261496E+02  0.15167261496E+02  0.00000000000E+00 0. -1.
         13    1    1    2    0    0  0.10586085516E+02  0.69694633914E+01 -0.32571782358E+01  0.13086596219E+02  0.10566000000E+00 0.  1.
        996    1    1    2    0    0 -0.10586085516E+02 -0.69694633914E+01  0.88089860914E+02  0.10208066527E+03  0.50000000000E+02 0.  0.
<mgrwt>
<rscale>  0 0.51581379E+02</rscale>
<asrwt>0</asrwt>
<pdfrwt beam="1">  1       13 0.10000000E+01 0.51581379E+02</pdfrwt>
<pdfrwt beam="2">  1       22 0.15167285E+00 0.51581379E+02</pdfrwt>
<totfact> 0.73848782E-01</totfact>
</mgrwt>
</event>
<event>
 4    1  0.2496748E+000  0.5334795E+02  0.7957747E-01  0.1428077E+00
         13   -1    0    0    0    0  0.00000000000E+00  0.00000000000E+00  0.99999944176E+02  0.99999999997E+02  0.10566000000E+00 0. -1.
         22   -1    0    0    0    0 -0.00000000000E+00 -0.00000000000E+00 -0.15623438719E+02  0.15623438719E+02  0.00000000000E+00 0. -1.
         13    1    1    2    0    0  0.35703415939E+01 -0.18255309667E+02  0.37976676515E+01  0.18985181425E+02  0.10566000000E+00 0.  1.
        996    1    1    2    0    0 -0.35703415939E+01  0.18255309667E+02  0.80578837806E+02  0.96638257291E+02  0.50000000000E+02 0.  0.
<mgrwt>
<rscale>  0 0.53347949E+02</rscale>
<asrwt>0</asrwt>
<pdfrwt beam="1">  1       13 0.10000000E+01 0.53347949E+02</pdfrwt>
<pdfrwt beam="2">  1       22 0.15623462E+00 0.53347949E+02</pdfrwt>
<totfact> 0.70505111E-01</totfact>
</mgrwt>
</event>
<event>
 4    1  0.2496748E+000  0.5268061E+02  0.7957747E-01  0.1431397E+00
         13   -1    0    0    0    0  0.00000000000E+00  0.00000000000E+00  0.99999944172E+02  0.99999999992E+02  0.10566000000E+00 0. -1.
         22   -1    0    0    0    0 -0.00000000000E+00 -0.00000000000E+00 -0.26991217134E+02  0.26991217134E+02  0.00000000000E+00 0.  1.
         13    1    1    2    0    0 -0.15754865929E+02 -0.51991242263E+01 -0.16328465917E+02  0.23278244272E+02  0.10566000000E+00 0.  1.
        996    1    1    2    0    0  0.15754865929E+02  0.51991242263E+01  0.89337192955E+02  0.10371297285E+03  0.50000000000E+02 0.  0.
<mgrwt>
<rscale>  0 0.52680610E+02</rscale>
<asrwt>0</asrwt>
<pdfrwt beam="1">  1       13 0.10000000E+01 0.52680610E+02</pdfrwt>
<pdfrwt beam="2">  1       22 0.26991238E+00 0.52680610E+02</pdfrwt>
<totfact> 0.25383868E-01</totfact>
</mgrwt>
</event>
<event>
 4    1  0.2496748E+000  0.5326438E+02  0.7957747E-01  0.1428490E+00
         13   -1    0    0    0    0  0.00000000000E+00  0.00000000000E+00  0.99999944174E+02  0.99999999995E+02  0.10566000000E+00 0.  1.
         22   -1    0    0    0    0 -0.00000000000E+00 -0.00000000000E+00 -0.23895110828E+02  0.23895110828E+02  0.00000000000E+00 0. -1.
         13    1    1    2    0    0 -0.13987702041E+02  0.11892807506E+02 -0.11285655808E+02  0.21551609449E+02  0.10566000000E+00 0. -1.
        996    1    1    2    0    0  0.13987702041E+02 -0.11892807506E+02  0.87390489155E+02  0.10234350137E+03  0.50000000000E+02 0.  0.
<mgrwt>
<rscale>  0 0.53264385E+02</rscale>
<asrwt>0</asrwt>
<pdfrwt beam="1">  1       13 0.10000000E+01 0.53264385E+02</pdfrwt>
<pdfrwt beam="2">  1       22 0.23895132E+00 0.53264385E+02</pdfrwt>
<totfact> 0.32279957E-01</totfact>
</mgrwt>
</event>
<event>
 4    1  0.2496748E+000  0.5339795E+02  0.7957747E-01  0.1427831E+00
         13   -1    0    0    0    0  0.00000000000E+00  0.00000000000E+00  0.99999944179E+02  0.99999999999E+02  0.10566000000E+00 0.  1.
         22   -1    0    0    0    0 -0.00000000000E+00 -0.00000000000E+00 -0.13104220873E+02  0.13104220873E+02  0.00000000000E+00 0.  1.
         13    1    1    2    0    0 -0.15908476257E+02 -0.99126811768E+01  0.18543804883E+02  0.26367114528E+02  0.10566000000E+00 0. -1.
        996    1    1    2    0    0  0.15908476257E+02  0.99126811768E+01  0.68351918423E+02  0.86737106344E+02  0.50000000000E+02 0.  0.
<mgrwt>
<rscale>  0 0.53397948E+02</rscale>
<asrwt>0</asrwt>
<pdfrwt beam="1">  1       13 0.10000000E+01 0.53397948E+02</pdfrwt>
<pdfrwt beam="2">  1       22 0.13104245E+00 0.53397948E+02</pdfrwt>
<totfact> 0.94017294E-01</totfact>
</mgrwt>
</event>
<event>
 4    1  0.2496748E+000  0.5239565E+02  0.7957747E-01  0.1432832E+00
         13   -1    0    0    0    0  0.00000000000E+00  0.00000000000E+00  0.99999944181E+02  0.10000000000E+03  0.10566000000E+00 0. -1.
         22   -1    0    0    0    0 -0.00000000000E+00 -0.00000000000E+00 -0.16163726790E+02  0.16163726790E+02  0.00000000000E+00 0.  1.
         13    1    1    2    0    0  0.70347961201E+01  0.13993425974E+02 -0.18046811343E+01  0.15766177881E+02  0.10566000000E+00 0.  1.
        996    1    1    2    0    0 -0.70347961201E+01 -0.13993425974E+02  0.85640898525E+02  0.10039754891E+03  0.50000000000E+02 0.  0.
<mgrwt>
<rscale>  0 0.52395652E+02</rscale>
<asrwt>0</asrwt>
<pdfrwt beam="1">  1       13 0.10000000E+01 0.52395652E+02</pdfrwt>
<pdfrwt beam="2">  1       22 0.16163750E+00 0.52395652E+02</pdfrwt>
<totfact> 0.66409080E-01</totfact>
</mgrwt>
</event>
<event>
 4    1  0.2496748E+000  0.5466050E+02  0.7957747E-01  0.1421711E+00
         13   -1    0    0    0    0  0.00000000000E+00  0.00000000000E+00  0.99999944187E+02  0.10000000001E+03  0.10566000000E+00 0.  1.
         22   -1    0    0    0    0 -0.00000000000E+00 -0.00000000000E+00 -0.20623076593E+02  0.20623076593E+02  0.00000000000E+00 0. -1.
         13    1    1    2    0    0 -0.16684152164E+02  0.14470980680E+02 -0.24473741133E+01  0.22220959011E+02  0.10566000000E+00 0. -1.
        996    1    1    2    0    0  0.16684152164E+02 -0.14470980680E+02  0.81824241707E+02  0.98402117590E+02  0.50000000000E+02 0.  0.
<mgrwt>
<rscale>  0 0.54660500E+02</rscale>
<asrwt>0</asrwt>
<pdfrwt beam="1">  1       13 0.10000000E+01 0.54660500E+02</pdfrwt>
<pdfrwt beam="2">  1       22 0.20623099E+00 0.54660500E+02</pdfrwt>
<totfact> 0.42971020E-01</totfact>
</mgrwt>
</event>
<event>
 4    1  0.2496748E+000  0.5468545E+02  0.7957747E-01  0.1421592E+00
         13   -1    0    0    0    0  0.00000000000E+00  0.00000000000E+00  0.99999944180E+02  0.10000000000E+03  0.10566000000E+00 0. -1.
         22   -1    0    0    0    0 -0.00000000000E+00 -0.00000000000E+00 -0.15093715605E+02  0.15093715605E+02  0.00000000000E+00 0. -1.
         13    1    1    2    0    0  0.17168797401E+02 -0.13990384520E+02  0.17083063276E+02  0.27970353558E+02  0.10566000000E+00 0.  1.
        996    1    1    2    0    0 -0.17168797401E+02  0.13990384520E+02  0.67823165299E+02  0.87123362047E+02  0.50000000000E+02 0.  0.
<mgrwt>
<rscale>  0 0.54685450E+02</rscale>
<asrwt>0</asrwt>
<pdfrwt beam="1">  1       13 0.10000000E+01 0.54685450E+02</pdfrwt>
<pdfrwt beam="2">  1       22 0.15093739E+00 0.54685450E+02</pdfrwt>
<totfact> 0.74912581E-01</totfact>
</mgrwt>
</event>
<event>
 4    1  0.2496748E+000  0.6006045E+02  0.7957747E-01  0.1397578E+00
         13   -1    0    0    0    0  0.00000000000E+00  0.00000000000E+00  0.99999944184E+02  0.10000000000E+03  0.10566000000E+00 0.  1.
         22   -1    0    0    0    0 -0.00000000000E+00 -0.00000000000E+00 -0.24312332284E+02  0.24312332284E+02  0.00000000000E+00 0. -1.
         13    1    1    2    0    0  0.33120439184E+02  0.32085124391E+01  0.88057893516E+01  0.34421085601E+02  0.10566000000E+00 0. -1.
        996    1    1    2    0    0 -0.33120439184E+02 -0.32085124391E+01  0.66881822548E+02  0.89891246688E+02  0.50000000000E+02 0.  0.
<mgrwt>
<rscale>  0 0.60060453E+02</rscale>
<asrwt>0</asrwt>
<pdfrwt beam="1">  1       13 0.10000000E+01 0.60060453E+02</pdfrwt>
<pdfrwt beam="2">  1       22 0.24312353E+00 0.60060453E+02</pdfrwt>
<totfact> 0.31514012E-01</totfact>
</mgrwt>
</event>
<event>
 4    1  0.2496748E+000  0.5574268E+02  0.7957747E-01  0.1416619E+00
         13   -1    0    0    0    0  0.00000000000E+00  0.00000000000E+00  0.99999944178E+02  0.99999999998E+02  0.10566000000E+00 0. -1.
         22   -1    0    0    0    0 -0.00000000000E+00 -0.00000000000E+00 -0.18384156388E+02  0.18384156388E+02  0.00000000000E+00 0.  1.
         13    1    1    2    0    0 -0.68469360933E+00 -0.24632865831E+02  0.77240141866E+01  0.25824764153E+02  0.10566000000E+00 0.  1.
        996    1    1    2    0    0  0.68469360933E+00  0.24632865831E+02  0.73891773603E+02  0.92559392233E+02  0.50000000000E+02 0.  0.
<mgrwt>
<rscale>  0 0.55742685E+02</rscale>
<asrwt>0</asrwt>
<pdfrwt beam="1">  1       13 0.10000000E+01 0.55742685E+02</pdfrwt>
<pdfrwt beam="2">  1       22 0.18384179E+00 0.55742685E+02</pdfrwt>
<totfact> 0.53248528E-01</totfact>
</mgrwt>
</event>
<event>
 4    1  0.2496748E+000  0.5138697E+02  0.7957747E-01  0.1438001E+00
         13   -1    0    0    0    0  0.00000000000E+00  0.00000000000E+00  0.99999944178E+02  0.99999999998E+02  0.10566000000E+00 0.  1.
         22   -1    0    0    0    0 -0.00000000000E+00 -0.00000000000E+00 -0.12776181153E+02  0.12776181153E+02  0.00000000000E+00 0.  1.
         13    1    1    2    0    0 -0.32669741781E+01 -0.11399466659E+02  0.37628834358E+00  0.11864810042E+02  0.10566000000E+00 0. -1.
        996    1    1    2    0    0  0.32669741781E+01  0.11399466659E+02  0.86847474682E+02  0.10091137111E+03  0.50000000000E+02 0.  0.
<mgrwt>
<rscale>  0 0.51386973E+02</rscale>
<asrwt>0</asrwt>
<pdfrwt beam="1">  1       13 0.10000000E+01 0.51386973E+02</pdfrwt>
<pdfrwt beam="2">  1       22 0.12776206E+00 0.51386973E+02</pdfrwt>
<totfact> 0.97420155E-01</totfact>
</mgrwt>
</event>
<event>
 4    1  0.2496748E+000  0.5246910E+02  0.7957747E-01  0.1432461E+00
         13   -1    0    0    0    0  0.00000000000E+00  0.00000000000E+00  0.99999944177E+02  0.99999999998E+02  0.10566000000E+00 0. -1.
         22   -1    0    0    0    0 -0.00000000000E+00 -0.00000000000E+00 -0.13881386811E+02  0.13881386811E+02  0.00000000000E+00 0.  1.
         13    1    1    2    0    0 -0.10616113028E+02  0.11845027184E+02  0.39503152435E+01  0.16389712608E+02  0.10566000000E+00 0.  1.
        996    1    1    2    0    0  0.10616113028E+02 -0.11845027184E+02  0.82168242123E+02  0.97491674201E+02  0.50000000000E+02 0.  0.
<mgrwt>
<rscale>  0 0.52469101E+02</rscale>
<asrwt>0</asrwt>
<pdfrwt beam="1">  1       13 0.10000000E+01 0.52469101E+02</pdfrwt>
<pdfrwt beam="2">  1       22 0.13881411E+00 0.52469101E+02</pdfrwt>
<totfact> 0.85580757E-01</totfact>
</mgrwt>
</event>
<event>
 4    1  0.2496748E+000  0.5283262E+02  0.7957747E-01  0.1430636E+00
         13   -1    0    0    0    0  0.00000000000E+00  0.00000000000E+00  0.99999944180E+02  0.10000000000E+03  0.10566000000E+00 0.  1.
         22   -1    0    0    0    0 -0.00000000000E+00 -0.00000000000E+00 -0.47575691833E+02  0.47575691833E+02  0.00000000000E+00 0. -1.
         13    1    1    2    0    0  0.40493119819E+01 -0.16579756915E+02 -0.38670156898E+02  0.42269107696E+02  0.10566000000E+00 0. -1.
        996    1    1    2    0    0 -0.40493119819E+01  0.16579756915E+02  0.91094409245E+02  0.10530658414E+03  0.50000000000E+02 0.  0.
<mgrwt>
<rscale>  0 0.52832616E+02</rscale>
<asrwt>0</asrwt>
<pdfrwt beam="1">  1       13 0.10000000E+01 0.52832616E+02</pdfrwt>
<pdfrwt beam="2">  1       22 0.47575706E+00 0.52832616E+02</pdfrwt>
<totfact> 0.84230146E-02</totfact>
</mgrwt>
</event>
<event>
 4    1  0.2496748E+000  0.5230716E+02  0.7957747E-01  0.1433280E+00
         13   -1    0    0    0    0  0.00000000000E+00  0.00000000000E+00  0.99999944183E+02  0.10000000000E+03  0.10566000000E+00 0.  1.
         22   -1    0    0    0    0 -0.00000000000E+00 -0.00000000000E+00 -0.12397261868E+02  0.12397261868E+02  0.00000000000E+00 0.  1.
         13    1    1    2    0    0  0.15351577136E+02 -0.60707111608E+00  0.84831705583E+01  0.17550350500E+02  0.10566000000E+00 0. -1.
        996    1    1    2    0    0 -0.15351577136E+02  0.60707111608E+00  0.79119511757E+02  0.94846911371E+02  0.50000000000E+02 0.  0.
<mgrwt>
<rscale>  0 0.52307164E+02</rscale>
<asrwt>0</asrwt>
<pdfrwt beam="1">  1       13 0.10000000E+01 0.52307164E+02</pdfrwt>
<pdfrwt beam="2">  1       22 0.12397286E+00 0.52307164E+02</pdfrwt>
<totfact> 0.10230316E+00</totfact>
</mgrwt>
</event>
<event>
 4    1  0.2496748E+000  0.5983713E+02  0.7957747E-01  0.1398517E+00
         13   -1    0    0    0    0  0.00000000000E+00  0.00000000000E+00  0.99999944181E+02  0.10000000000E+03  0.10566000000E+00 0. -1.
         22   -1    0    0    0    0 -0.00000000000E+00 -0.00000000000E+00 -0.33964508193E+02  0.33964508193E+02  0.00000000000E+00 0.  1.
         13    1    1    2    0    0  0.21233895067E+02  0.25091906217E+02 -0.12555298190E+02  0.35187053499E+02  0.10566000000E+00 0.  1.
        996    1    1    2    0    0 -0.21233895067E+02 -0.25091906217E+02  0.78590734179E+02  0.98777454695E+02  0.50000000000E+02 0.  0.
<mgrwt>
<rscale>  0 0.59837129E+02</rscale>
<asrwt>0</asrwt>
<pdfrwt beam="1">  1       13 0.10000000E+01 0.59837129E+02</pdfrwt>
<pdfrwt beam="2">  1       22 0.33964527E+00 0.59837129E+02</pdfrwt>
<totfact> 0.16692377E-01</totfact>
</mgrwt>
</event>
<event>
 4    1  0.2496748E+000  0.5147233E+02  0.7957747E-01  0.1437558E+00
         13   -1    0    0    0    0  0.00000000000E+00  0.00000000000E+00  0.99999944184E+02  0.10000000000E+03  0.10566000000E+00 0. -1.
         22   -1    0    0    0    0 -0.00000000000E+00 -0.00000000000E+00 -0.10934310432E+02  0.10934310432E+02  0.00000000000E+00 0. -1.
         13    1    1    2    0    0  0.11585960254E+02  0.38943688867E+01  0.70674109176E+01  0.14119491674E+02  0.10566000000E+00 0.  1.
        996    1    1    2    0    0 -0.11585960254E+02 -0.38943688867E+01  0.81998222834E+02  0.96814818762E+02  0.50000000000E+02 0.  0.
<mgrwt>
<rscale>  0 0.51472328E+02</rscale>
<asrwt>0</asrwt>
<pdfrwt beam="1">  1       13 0.10000000E+01 0.51472328E+02</pdfrwt>
<pdfrwt beam="2">  1       22 0.10934335E+00 0.51472328E+02</pdfrwt>
<totfact> 0.12351693E+00</totfact>
</mgrwt>
</event>
<event>
 4    1  0.2496748E+000  0.5104751E+02  0.7957747E-01  0.1439772E+00
         13   -1    0    0    0    0  0.00000000000E+00  0.00000000000E+00  0.99999944179E+02  0.99999999999E+02  0.10566000000E+00 0. -1.
         22   -1    0    0    0    0 -0.00000000000E+00 -0.00000000000E+00 -0.27075171507E+02  0.27075171507E+02  0.00000000000E+00 0.  1.
         13    1    1    2    0    0 -0.19972872956E+01  0.10092539637E+02 -0.19182739276E+02  0.21767801061E+02  0.10566000000E+00 0.  1.
        996    1    1    2    0    0  0.19972872956E+01 -0.10092539637E+02  0.92107511947E+02  0.10530737044E+03  0.50000000000E+02 0.  0.
<mgrwt>
<rscale>  0 0.51047512E+02</rscale>
<asrwt>0</asrwt>
<pdfrwt beam="1">  1       13 0.10000000E+01 0.51047512E+02</pdfrwt>
<pdfrwt beam="2">  1       22 0.27075192E+00 0.51047512E+02</pdfrwt>
<totfact> 0.25169489E-01</totfact>
</mgrwt>
</event>
<event>
 4    1  0.2496748E+000  0.5726078E+02  0.7957747E-01  0.1409700E+00
         13   -1    0    0    0    0  0.00000000000E+00  0.00000000000E+00  0.99999944180E+02  0.10000000000E+03  0.10566000000E+00 0.  1.
         22   -1    0    0    0    0 -0.00000000000E+00 -0.00000000000E+00 -0.19167299593E+02  0.19167299593E+02  0.00000000000E+00 0.  1.
         13    1    1    2    0    0  0.24090635350E+02 -0.14086793353E+02  0.14203168359E+02  0.31313537232E+02  0.10566000000E+00 0. -1.
        996    1    1    2    0    0 -0.24090635350E+02  0.14086793353E+02  0.66629476228E+02  0.87853762361E+02  0.50000000000E+02 0.  0.
<mgrwt>
<rscale>  0 0.57260776E+02</rscale>
<asrwt>0</asrwt>
<pdfrwt beam="1">  1       13 0.10000000E+01 0.57260776E+02</pdfrwt>
<pdfrwt beam="2">  1       22 0.19167322E+00 0.57260776E+02</pdfrwt>
<totfact> 0.49469611E-01</totfact>
</mgrwt>
</event>
<event>
 4    1  0.2496748E+000  0.5154910E+02  0.7957747E-01  0.1437161E+00
         13   -1    0    0    0    0  0.00000000000E+00  0.00000000000E+00  0.99999944189E+02  0.10000000001E+03  0.10566000000E+00 0.  1.
         22   -1    0    0    0    0 -0.00000000000E+00 -0.00000000000E+00 -0.19522426072E+02  0.19522426072E+02  0.00000000000E+00 0. -1.
         13    1    1    2    0    0 -0.71297619021E+01  0.10318737362E+02 -0.95611723331E+01  0.15771398985E+02  0.10566000000E+00 0. -1.
        996    1    1    2    0    0  0.71297619021E+01 -0.10318737362E+02  0.90038690450E+02  0.10375102710E+03  0.50000000000E+02 0.  0.
<mgrwt>
<rscale>  0 0.51549101E+02</rscale>
<asrwt>0</asrwt>
<pdfrwt beam="1">  1       13 0.10000000E+01 0.51549101E+02</pdfrwt>
<pdfrwt beam="2">  1       22 0.19522449E+00 0.51549101E+02</pdfrwt>
<totfact> 0.47349100E-01</totfact>
</mgrwt>
</event>
<event>
 4    1  0.2496748E+000  0.5177746E+02  0.7957747E-01  0.1435984E+00
         13   -1    0    0    0    0  0.00000000000E+00  0.00000000000E+00  0.99999944181E+02  0.10000000000E+03  0.10566000000E+00 0. -1.
         22   -1    0    0    0    0 -0.00000000000E+00 -0.00000000000E+00 -0.22369070353E+02  0.22369070353E+02  0.00000000000E+00 0.  1.
         13    1    1    2    0    0 -0.13247410121E+02  0.23262320980E+01 -0.12540284493E+02  0.18389538600E+02  0.10566000000E+00 0.  1.
        996    1    1    2    0    0  0.13247410121E+02 -0.23262320980E+01  0.90171158321E+02  0.10397953175E+03  0.50000000000E+02 0.  0.
<mgrwt>
<rscale>  0 0.51777459E+02</rscale>
<asrwt>0</asrwt>
<pdfrwt beam="1">  1       13 0.10000000E+01 0.51777459E+02</pdfrwt>
<pdfrwt beam="2">  1       22 0.22369092E+00 0.51777459E+02</pdfrwt>
<totfact> 0.36614051E-01</totfact>
</mgrwt>
</event>
<event>
 4    1  0.2496748E+000  0.5170652E+02  0.7957747E-01  0.1436349E+00
         13   -1    0    0    0    0  0.00000000000E+00  0.00000000000E+00  0.99999944175E+02  0.99999999995E+02  0.10566000000E+00 0.  1.
         22   -1    0    0    0    0 -0.00000000000E+00 -0.00000000000E+00 -0.14864899826E+02  0.14864899826E+02  0.00000000000E+00 0. -1.
         13    1    1    2    0    0  0.78798919313E+01  0.10558012812E+02 -0.22136079750E+01  0.13359474380E+02  0.10566000000E+00 0. -1.
        996    1    1    2    0    0 -0.78798919313E+01 -0.10558012812E+02  0.87348652323E+02  0.10150542544E+03  0.50000000000E+02 0.  0.
<mgrwt>
<rscale>  0 0.51706521E+02</rscale>
<asrwt>0</asrwt>
<pdfrwt beam="1">  1       13 0.10000000E+01 0.51706521E+02</pdfrwt>
<pdfrwt beam="2">  1       22 0.14864924E+00 0.51706521E+02</pdfrwt>
<totfact> 0.76387068E-01</totfact>
</mgrwt>
</event>
<event>
 4    1  0.2496748E+000  0.5178781E+02  0.7957747E-01  0.1435930E+00
         13   -1    0    0    0    0  0.00000000000E+00  0.00000000000E+00  0.99999944175E+02  0.99999999995E+02  0.10566000000E+00 0.  1.
         22   -1    0    0    0    0 -0.00000000000E+00 -0.00000000000E+00 -0.20306689225E+02  0.20306689225E+02  0.00000000000E+00 0. -1.
         13    1    1    2    0    0  0.34726430048E+01  0.13035265387E+02 -0.99614104825E+01  0.16769563381E+02  0.10566000000E+00 0. -1.
        996    1    1    2    0    0 -0.34726430048E+01 -0.13035265387E+02  0.89654665432E+02  0.10353712584E+03  0.50000000000E+02 0.  0.
<mgrwt>
<rscale>  0 0.51787811E+02</rscale>
<asrwt>0</asrwt>
<pdfrwt beam="1">  1       13 0.10000000E+01 0.51787811E+02</pdfrwt>
<pdfrwt beam="2">  1       22 0.20306711E+00 0.51787811E+02</pdfrwt>
<totfact> 0.44019734E-01</totfact>
</mgrwt>
</event>
<event>
 4    1  0.2496748E+000  0.5252502E+02  0.7957747E-01  0.1432179E+00
         13   -1    0    0    0    0  0.00000000000E+00  0.00000000000E+00  0.99999944175E+02  0.99999999995E+02  0.10566000000E+00 0.  1.
         22   -1    0    0    0    0 -0.00000000000E+00 -0.00000000000E+00 -0.15630092942E+02  0.15630092942E+02  0.00000000000E+00 0. -1.
         13    1    1    2    0    0 -0.15770287362E+02 -0.31899456628E+01 -0.18274168372E+00  0.16091061971E+02  0.10566000000E+00 0. -1.
        996    1    1    2    0    0  0.15770287362E+02  0.31899456628E+01  0.84552592917E+02  0.99539030966E+02  0.50000000000E+02 0.  0.
<mgrwt>
<rscale>  0 0.52525020E+02</rscale>
<asrwt>0</asrwt>
<pdfrwt beam="1">  1       13 0.10000000E+01 0.52525020E+02</pdfrwt>
<pdfrwt beam="2">  1       22 0.15630116E+00 0.52525020E+02</pdfrwt>
<totfact> 0.70340098E-01</totfact>
</mgrwt>
</event>
<event>
 4    1  0.2496748E+000  0.5138318E+02  0.7957747E-01  0.1438021E+00
         13   -1    0    0    0    0  0.00000000000E+00  0.00000000000E+00  0.99999944176E+02  0.99999999996E+02  0.10566000000E+00 0.  1.
         22   -1    0    0    0    0 -0.00000000000E+00 -0.00000000000E+00 -0.14377120362E+02  0.14377120362E+02  0.00000000000E+00 0. -1.
         13    1    1    2    0    0 -0.11251787515E+02  0.36916081821E+01 -0.27449219514E+01  0.12156333897E+02  0.10566000000E+00 0. -1.
        996    1    1    2    0    0  0.11251787515E+02 -0.36916081821E+01  0.88367745765E+02  0.10222078646E+03  0.50000000000E+02 0.  0.
<mgrwt>
<rscale>  0 0.51383175E+02</rscale>
<asrwt>0</asrwt>
<pdfrwt beam="1">  1       13 0.10000000E+01 0.51383175E+02</pdfrwt>
<pdfrwt beam="2">  1       22 0.14377144E+00 0.51383175E+02</pdfrwt>
<totfact> 0.80649970E-01</totfact>
</mgrwt>
</event>
<event>
 4    1  0.2496748E+000  0.5362614E+02  0.7957747E-01  0.1426710E+00
         13   -1    0    0    0    0  0.00000000000E+00  0.00000000000E+00  0.99999944182E+02  0.10000000000E+03  0.10566000000E+00 0. -1.
         22   -1    0    0    0    0 -0.00000000000E+00 -0.00000000000E+00 -0.76901390162E+02  0.76901390162E+02  0.00000000000E+00 0.  1.
         13    1    1    2    0    0 -0.25686075295E+01  0.19213661559E+02 -0.68264164689E+02  0.70963158610E+02  0.10566000000E+00 0.  1.
        996    1    1    2    0    0  0.25686075295E+01 -0.19213661559E+02  0.91362718709E+02  0.10593823156E+03  0.50000000000E+02 0.  0.
<mgrwt>
<rscale>  0 0.53626137E+02</rscale>
<asrwt>0</asrwt>
<pdfrwt beam="1">  1       13 0.10000000E+01 0.53626137E+02</pdfrwt>
<pdfrwt beam="2">  1       22 0.76901397E+00 0.53626137E+02</pdfrwt>
<totfact> 0.41096339E-02</totfact>
</mgrwt>
</event>
<event>
 4    1  0.2496748E+000  0.5106908E+02  0.7957747E-01  0.1439659E+00
         13   -1    0    0    0    0  0.00000000000E+00  0.00000000000E+00  0.99999944179E+02  0.99999999999E+02  0.10566000000E+00 0. -1.
         22   -1    0    0    0    0 -0.00000000000E+00 -0.00000000000E+00 -0.97926178889E+01  0.97926178889E+01  0.00000000000E+00 0. -1.
         13    1    1    2    0    0 -0.80603428336E+01  0.65636504883E+01  0.84520459502E+01  0.13397719176E+02  0.10566000000E+00 0.  1.
        996    1    1    2    0    0  0.80603428336E+01 -0.65636504883E+01  0.81755280340E+02  0.96394898713E+02  0.50000000000E+02 0.  0.
<mgrwt>
<rscale>  0 0.51069077E+02</rscale>
<asrwt>0</asrwt>
<pdfrwt beam="1">  1       13 0.10000000E+01 0.51069077E+02</pdfrwt>
<pdfrwt beam="2">  1       22 0.97926431E-01 0.51069077E+02</pdfrwt>
<totfact> 0.14498251E+00</totfact>
</mgrwt>
</event>
<event>
 4    1  0.2496748E+000  0.5481594E+02  0.7957747E-01  0.1420971E+00
         13   -1    0    0    0    0  0.00000000000E+00  0.00000000000E+00  0.99999944178E+02  0.99999999999E+02  0.10566000000E+00 0. -1.
         22   -1    0    0    0    0 -0.00000000000E+00 -0.00000000000E+00 -0.32593081129E+02  0.32593081129E+02  0.00000000000E+00 0.  1.
         13    1    1    2    0    0  0.16862744654E+02 -0.14847044200E+02 -0.19562046878E+02  0.29790463589E+02  0.10566000000E+00 0.  1.
        996    1    1    2    0    0 -0.16862744654E+02  0.14847044200E+02  0.86968909928E+02  0.10280261754E+03  0.50000000000E+02 0.  0.
<mgrwt>
<rscale>  0 0.54815936E+02</rscale>
<asrwt>0</asrwt>
<pdfrwt beam="1">  1       13 0.10000000E+01 0.54815936E+02</pdfrwt>
<pdfrwt beam="2">  1       22 0.32593100E+00 0.54815936E+02</pdfrwt>
<totfact> 0.17862745E-01</totfact>
</mgrwt>
</event>
<event>
 4    1  0.2496748E+000  0.5778981E+02  0.7957747E-01  0.1407348E+00
         13   -1    0    0    0    0  0.00000000000E+00  0.00000000000E+00  0.99999944174E+02  0.99999999994E+02  0.10566000000E+00 0.  1.
         22   -1    0    0    0    0 -0.00000000000E+00 -0.00000000000E+00 -0.22552770293E+02  0.22552770293E+02  0.00000000000E+00 0. -1.
         13    1    1    2    0    0  0.26786208218E+02 -0.11052636357E+02  0.42416757783E+01  0.29285912972E+02  0.10566000000E+00 0. -1.
        996    1    1    2    0    0 -0.26786208218E+02  0.11052636357E+02  0.73205498102E+02  0.93266857315E+02  0.50000000000E+02 0.  0.
<mgrwt>
<rscale>  0 0.57789806E+02</rscale>
<asrwt>0</asrwt>
<pdfrwt beam="1">  1       13 0.10000000E+01 0.57789806E+02</pdfrwt>
<pdfrwt beam="2">  1       22 0.22552792E+00 0.57789806E+02</pdfrwt>
<totfact> 0.36386258E-01</totfact>
</mgrwt>
</event>
<event>
 4    1  0.2496748E+000  0.5340280E+02  0.7957747E-01  0.1427807E+00
         13   -1    0    0    0    0  0.00000000000E+00  0.00000000000E+00  0.99999944181E+02  0.10000000000E+03  0.10566000000E+00 0. -1.
         22   -1    0    0    0    0 -0.00000000000E+00 -0.00000000000E+00 -0.25113252859E+02  0.25113252859E+02  0.00000000000E+00 0.  1.
         13    1    1    2    0    0  0.16942313909E+02 -0.80508997653E+01 -0.12613049703E+02  0.22604406085E+02  0.10566000000E+00 0.  1.
        996    1    1    2    0    0 -0.16942313909E+02  0.80508997653E+01  0.87499741025E+02  0.10250884677E+03  0.50000000000E+02 0.  0.
<mgrwt>
<rscale>  0 0.53402799E+02</rscale>
<asrwt>0</asrwt>
<pdfrwt beam="1">  1       13 0.10000000E+01 0.53402799E+02</pdfrwt>
<pdfrwt beam="2">  1       22 0.25113274E+00 0.53402799E+02</pdfrwt>
<totfact> 0.29281643E-01</totfact>
</mgrwt>
</event>
<event>
 4    1  0.2496748E+000  0.5179938E+02  0.7957747E-01  0.1435871E+00
         13   -1    0    0    0    0  0.00000000000E+00  0.00000000000E+00  0.99999944179E+02  0.99999999999E+02  0.10566000000E+00 0.  1.
         22   -1    0    0    0    0 -0.00000000000E+00 -0.00000000000E+00 -0.16077308390E+02  0.16077308390E+02  0.00000000000E+00 0.  1.
         13    1    1    2    0    0 -0.65866999086E+01 -0.11823325444E+02 -0.39274200907E+01  0.14092956853E+02  0.10566000000E+00 0. -1.
        996    1    1    2    0    0  0.65866999086E+01  0.11823325444E+02  0.87850055880E+02  0.10198435154E+03  0.50000000000E+02 0.  0.
<mgrwt>
<rscale>  0 0.51799379E+02</rscale>
<asrwt>0</asrwt>
<pdfrwt beam="1">  1       13 0.10000000E+01 0.51799379E+02</pdfrwt>
<pdfrwt beam="2">  1       22 0.16077332E+00 0.51799379E+02</pdfrwt>
<totfact> 0.66943337E-01</totfact>
</mgrwt>
</event>
<event>
 4    1  0.2496748E+000  0.5399524E+02  0.7957747E-01  0.1424911E+00
         13   -1    0    0    0    0  0.00000000000E+00  0.00000000000E+00  0.99999944180E+02  0.10000000000E+03  0.10566000000E+00 0.  1.
         22   -1    0    0    0    0 -0.00000000000E+00 -0.00000000000E+00 -0.25810031385E+02  0.25810031385E+02  0.00000000000E+00 0.  1.
         13    1    1    2    0    0  0.83765044814E+01 -0.18582783809E+02 -0.12330770266E+02  0.23823197535E+02  0.10566000000E+00 0. -1.
        996    1    1    2    0    0 -0.83765044814E+01  0.18582783809E+02  0.86520683061E+02  0.10198683385E+03  0.50000000000E+02 0.  0.
<mgrwt>
<rscale>  0 0.53995238E+02</rscale>
<asrwt>0</asrwt>
<pdfrwt beam="1">  1       13 0.10000000E+01 0.53995238E+02</pdfrwt>
<pdfrwt beam="2">  1       22 0.25810052E+00 0.53995238E+02</pdfrwt>
<totfact> 0.27769461E-01</totfact>
</mgrwt>
</event>
<event>
 4    1  0.2496748E+000  0.5260791E+02  0.7957747E-01  0.1431762E+00
         13   -1    0    0    0    0  0.00000000000E+00  0.00000000000E+00  0.99999944184E+02  0.10000000000E+03  0.10566000000E+00 0. -1.
         22   -1    0    0    0    0 -0.00000000000E+00 -0.00000000000E+00 -0.19776314847E+02  0.19776314847E+02  0.00000000000E+00 0.  1.
         13    1    1    2    0    0  0.16348038947E+02 -0.57737557156E+00 -0.70978442102E+01  0.17832058110E+02  0.10566000000E+00 0.  1.
        996    1    1    2    0    0 -0.16348038947E+02  0.57737557156E+00  0.87321473547E+02  0.10194425674E+03  0.50000000000E+02 0.  0.
<mgrwt>
<rscale>  0 0.52607906E+02</rscale>
<asrwt>0</asrwt>
<pdfrwt beam="1">  1       13 0.10000000E+01 0.52607906E+02</pdfrwt>
<pdfrwt beam="2">  1       22 0.19776337E+00 0.52607906E+02</pdfrwt>
<totfact> 0.46317101E-01</totfact>
</mgrwt>
</event>
<event>
 4    1  0.2496748E+000  0.5409723E+02  0.7957747E-01  0.1424417E+00
         13   -1    0    0    0    0  0.00000000000E+00  0.00000000000E+00  0.99999944178E+02  0.99999999998E+02  0.10566000000E+00 0. -1.
         22   -1    0    0    0    0 -0.00000000000E+00 -0.00000000000E+00 -0.66019756892E+02  0.66019756892E+02  0.00000000000E+00 0.  1.
         13    1    1    2    0    0  0.19904309475E+02  0.55071724551E+01 -0.56747203024E+02  0.60388464952E+02  0.10566000000E+00 0.  1.
        996    1    1    2    0    0 -0.19904309475E+02 -0.55071724551E+01  0.90727390310E+02  0.10563129194E+03  0.50000000000E+02 0.  0.
<mgrwt>
<rscale>  0 0.54097232E+02</rscale>
<asrwt>0</asrwt>
<pdfrwt beam="1">  1       13 0.10000000E+01 0.54097232E+02</pdfrwt>
<pdfrwt beam="2">  1       22 0.66019766E+00 0.54097232E+02</pdfrwt>
<totfact> 0.87264758E-02</totfact>
</mgrwt>
</event>
<event>
 4    1  0.2496748E+000  0.5387241E+02  0.7957747E-01  0.1425508E+00
         13   -1    0    0    0    0  0.00000000000E+00  0.00000000000E+00  0.99999944181E+02  0.10000000000E+03  0.10566000000E+00 0.  1.
         22   -1    0    0    0    0 -0.00000000000E+00 -0.00000000000E+00 -0.23122712770E+02  0.23122712770E+02  0.00000000000E+00 0. -1.
         13    1    1    2    0    0 -0.19813537580E+02 -0.31081228551E+01 -0.88112880634E+01  0.21906315539E+02  0.10566000000E+00 0. -1.
        996    1    1    2    0    0  0.19813537580E+02  0.31081228551E+01  0.85688519474E+02  0.10121639723E+03  0.50000000000E+02 0.  0.
<mgrwt>
<rscale>  0 0.53872411E+02</rscale>
<asrwt>0</asrwt>
<pdfrwt beam="1">  1       13 0.10000000E+01 0.53872411E+02</pdfrwt>
<pdfrwt beam="2">  1       22 0.23122734E+00 0.53872411E+02</pdfrwt>
<totfact> 0.34453455E-01</totfact>
</mgrwt>
</event>
<event>
 4    1  0.2496748E+000  0.5170787E+02  0.7957747E-01  0.1436342E+00
         13   -1    0    0    0    0  0.00000000000E+00  0.00000000000E+00  0.99999944173E+02  0.99999999994E+02  0.10566000000E+00 0. -1.
         22   -1    0    0    0    0 -0.00000000000E+00 -0.00000000000E+00 -0.16734955355E+02  0.16734955355E+02  0.00000000000E+00 0. -1.
         13    1    1    2    0    0 -0.13121972810E+02 -0.12319534406E+01 -0.52793461057E+01  0.14198117447E+02  0.10566000000E+00 0.  1.
        996    1    1    2    0    0  0.13121972810E+02  0.12319534406E+01  0.88544334924E+02  0.10253683790E+03  0.50000000000E+02 0.  0.
<mgrwt>
<rscale>  0 0.51707871E+02</rscale>
<asrwt>0</asrwt>
<pdfrwt beam="1">  1       13 0.10000000E+01 0.51707871E+02</pdfrwt>
<pdfrwt beam="2">  1       22 0.16734979E+00 0.51707871E+02</pdfrwt>
<totfact> 0.62454521E-01</totfact>
</mgrwt>
</event>
<event>
 4    1  0.2496748E+000  0.5122150E+02  0.7957747E-01  0.1438862E+00
         13   -1    0    0    0    0  0.00000000000E+00  0.00000000000E+00  0.99999944182E+02  0.10000000000E+03  0.10566000000E+00 0.  1.
         22   -1    0    0    0    0 -0.00000000000E+00 -0.00000000000E+00 -0.14137067862E+02  0.14137067862E+02  0.00000000000E+00 0.  1.
         13    1    1    2    0    0 -0.10683689198E+02 -0.30823555726E+01 -0.30454156052E+01  0.11529434114E+02  0.10566000000E+00 0. -1.
        996    1    1    2    0    0  0.10683689198E+02  0.30823555726E+01  0.88908291925E+02  0.10260763375E+03  0.50000000000E+02 0.  0.
<mgrwt>
<rscale>  0 0.51221501E+02</rscale>
<asrwt>0</asrwt>
<pdfrwt beam="1">  1       13 0.10000000E+01 0.51221501E+02</pdfrwt>
<pdfrwt beam="2">  1       22 0.14137092E+00 0.51221501E+02</pdfrwt>
<totfact> 0.82867808E-01</totfact>
</mgrwt>
</event>
<event>
 4    1  0.2496748E+000  0.5430083E+02  0.7957747E-01  0.1423435E+00
         13   -1    0    0    0    0  0.00000000000E+00  0.00000000000E+00  0.99999944183E+02  0.10000000000E+03  0.10566000000E+00 0.  1.
         22   -1    0    0    0    0 -0.00000000000E+00 -0.00000000000E+00 -0.24090157466E+02  0.24090157466E+02  0.00000000000E+00 0. -1.
         13    1    1    2    0    0  0.18346864934E+01  0.21100095976E+02 -0.92335342685E+01  0.23105182186E+02  0.10566000000E+00 0. -1.
        996    1    1    2    0    0 -0.18346864934E+01 -0.21100095976E+02  0.85143320985E+02  0.10098497528E+03  0.50000000000E+02 0.  0.
<mgrwt>
<rscale>  0 0.54300830E+02</rscale>
<asrwt>0</asrwt>
<pdfrwt beam="1">  1       13 0.10000000E+01 0.54300830E+02</pdfrwt>
<pdfrwt beam="2">  1       22 0.24090179E+00 0.54300830E+02</pdfrwt>
<totfact> 0.31820890E-01</totfact>
</mgrwt>
</event>
<event>
 4    1  0.2496748E+000  0.5106415E+02  0.7957747E-01  0.1439685E+00
         13   -1    0    0    0    0  0.00000000000E+00  0.00000000000E+00  0.99999944182E+02  0.10000000000E+03  0.10566000000E+00 0.  1.
         22   -1    0    0    0    0 -0.00000000000E+00 -0.00000000000E+00 -0.21781563609E+02  0.21781563609E+02  0.00000000000E+00 0. -1.
         13    1    1    2    0    0  0.10353817367E+02  0.58771761797E+00 -0.13369403288E+02  0.16920373943E+02  0.10566000000E+00 0. -1.
        996    1    1    2    0    0 -0.10353817367E+02 -0.58771761797E+00  0.91587783861E+02  0.10486118967E+03  0.50000000000E+02 0.  0.
<mgrwt>
<rscale>  0 0.51064145E+02</rscale>
<asrwt>0</asrwt>
<pdfrwt beam="1">  1       13 0.10000000E+01 0.51064145E+02</pdfrwt>
<pdfrwt beam="2">  1       22 0.21781585E+00 0.51064145E+02</pdfrwt>
<totfact> 0.38490148E-01</totfact>
</mgrwt>
</event>
<event>
 4    1  0.2496748E+000  0.5138728E+02  0.7957747E-01  0.1437999E+00
         13   -1    0    0    0    0  0.00000000000E+00  0.00000000000E+00  0.99999944177E+02  0.99999999997E+02  0.10566000000E+00 0.  1.
         22   -1    0    0    0    0 -0.00000000000E+00 -0.00000000000E+00 -0.10345235911E+02  0.10345235911E+02  0.00000000000E+00 0.  1.
         13    1    1    2    0    0 -0.43983055564E+01 -0.11013945754E+02  0.98002886203E+01  0.15385347377E+02  0.10566000000E+00 0. -1.
        996    1    1    2    0    0  0.43983055564E+01  0.11013945754E+02  0.79854419646E+02  0.94959888531E+02  0.50000000000E+02 0.  0.
<mgrwt>
<rscale>  0 0.51387276E+02</rscale>
<asrwt>0</asrwt>
<pdfrwt beam="1">  1       13 0.10000000E+01 0.51387276E+02</pdfrwt>
<pdfrwt beam="2">  1       22 0.10345261E+00 0.51387276E+02</pdfrwt>
<totfact> 0.13398823E+00</totfact>
</mgrwt>
</event>
<event>
 4    1  0.2496748E+000  0.5270526E+02  0.7957747E-01  0.1431273E+00
         13   -1    0    0    0    0  0.00000000000E+00  0.00000000000E+00  0.99999944176E+02  0.99999999996E+02  0.10566000000E+00 0.  1.
         22   -1    0    0    0    0 -0.00000000000E+00 -0.00000000000E+00 -0.17427397975E+02  0.17427397975E+02  0.00000000000E+00 0.  1.
         13    1    1    2    0    0  0.16344502353E+02 -0.32713447823E+01 -0.29896100094E+01  0.16934975226E+02  0.10566000000E+00 0. -1.
        996    1    1    2    0    0 -0.16344502353E+02  0.32713447823E+01  0.85562156210E+02  0.10049242275E+03  0.50000000000E+02 0.  0.
<mgrwt>
<rscale>  0 0.52705260E+02</rscale>
<asrwt>0</asrwt>
<pdfrwt beam="1">  1       13 0.10000000E+01 0.52705260E+02</pdfrwt>
<pdfrwt beam="2">  1       22 0.17427421E+00 0.52705260E+02</pdfrwt>
<totfact> 0.58275404E-01</totfact>
</mgrwt>
</event>
<event>
 4    1  0.2496748E+000  0.5102403E+02  0.7957747E-01  0.1439895E+00
         13   -1    0    0    0    0  0.00000000000E+00  0.00000000000E+00  0.99999944179E+02  0.10000000000E+03  0.10566000000E+00 0.  1.
         22   -1    0    0    0    0 -0.00000000000E+00 -0.00000000000E+00 -0.13742555308E+02  0.13742555308E+02  0.00000000000E+00 0.  1.
         13    1    1    2    0    0 -0.10140707348E+02 -0.78595110882E+00 -0.32798453316E+01  0.10687385746E+02  0.10566000000E+00 0. -1.
        996    1    1    2    0    0  0.10140707348E+02  0.78595110882E+00  0.89537234203E+02  0.10305516956E+03  0.50000000000E+02 0.  0.
<mgrwt>
<rscale>  0 0.51024030E+02</rscale>
<asrwt>0</asrwt>
<pdfrwt beam="1">  1       13 0.10000000E+01 0.51024030E+02</pdfrwt>
<pdfrwt beam="2">  1       22 0.13742579E+00 0.51024030E+02</pdfrwt>
<totfact> 0.86712082E-01</totfact>
</mgrwt>
</event>
<event>
 4    1  0.2496748E+000  0.5425128E+02  0.7957747E-01  0.1423673E+00
         13   -1    0    0    0    0  0.00000000000E+00  0.00000000000E+00  0.99999944180E+02  0.10000000000E+03  0.10566000000E+00 0.  1.
         22   -1    0    0    0    0 -0.00000000000E+00 -0.00000000000E+00 -0.29743447567E+02  0.29743447567E+02  0.00000000000E+00 0.  1.
         13    1    1    2    0    0  0.16401738311E+02  0.13197890590E+02 -0.16957519345E+02  0.27032757203E+02  0.10566000000E+00 0. -1.
        996    1    1    2    0    0 -0.16401738311E+02 -0.13197890590E+02  0.87214015958E+02  0.10271069036E+03  0.50000000000E+02 0.  0.
<mgrwt>
<rscale>  0 0.54251280E+02</rscale>
<asrwt>0</asrwt>
<pdfrwt beam="1">  1       13 0.10000000E+01 0.54251280E+02</pdfrwt>
<pdfrwt beam="2">  1       22 0.29743467E+00 0.54251280E+02</pdfrwt>
<totfact> 0.21101001E-01</totfact>
</mgrwt>
</event>
<event>
 4    1  0.2496748E+000  0.5212176E+02  0.7957747E-01  0.1434222E+00
         13   -1    0    0    0    0  0.00000000000E+00  0.00000000000E+00  0.99999944186E+02  0.10000000001E+03  0.10566000000E+00 0. -1.
         22   -1    0    0    0    0 -0.00000000000E+00 -0.00000000000E+00 -0.17244226858E+02  0.17244226858E+02  0.00000000000E+00 0.  1.
         13    1    1    2    0    0  0.12838800697E+02  0.72002242453E+01 -0.46847031785E+01  0.15447836108E+02  0.10566000000E+00 0.  1.
        996    1    1    2    0    0 -0.12838800697E+02 -0.72002242453E+01  0.87440420506E+02  0.10179639076E+03  0.50000000000E+02 0.  0.
<mgrwt>
<rscale>  0 0.52121762E+02</rscale>
<asrwt>0</asrwt>
<pdfrwt beam="1">  1       13 0.10000000E+01 0.52121762E+02</pdfrwt>
<pdfrwt beam="2">  1       22 0.17244250E+00 0.52121762E+02</pdfrwt>
<totfact> 0.59307339E-01</totfact>
</mgrwt>
</event>
<event>
 4    1  0.2496748E+000  0.7324331E+02  0.7957747E-01  0.1349399E+00
         13   -1    0    0    0    0  0.00000000000E+00  0.00000000000E+00  0.99999944176E+02  0.99999999996E+02  0.10566000000E+00 0. -1.
         22   -1    0    0    0    0 -0.00000000000E+00 -0.00000000000E+00 -0.47127909816E+02  0.47127909816E+02  0.00000000000E+00 0.  1.
         13    1    1    2    0    0  0.36485859765E+02 -0.39158199431E+02 -0.50357053705E+01  0.53758274136E+02  0.10566000000E+00 0.  1.
        996    1    1    2    0    0 -0.36485859765E+02  0.39158199431E+02  0.57907739731E+02  0.93369635676E+02  0.50000000000E+02 0.  0.
<mgrwt>
<rscale>  0 0.73243311E+02</rscale>
<asrwt>0</asrwt>
<pdfrwt beam="1">  1       13 0.10000000E+01 0.73243311E+02</pdfrwt>
<pdfrwt beam="2">  1       22 0.47127925E+00 0.73243311E+02</pdfrwt>
<totfact> 0.87089830E-02</totfact>
</mgrwt>
</event>
<event>
 4    1  0.2496748E+000  0.5128201E+02  0.7957747E-01  0.1438547E+00
         13   -1    0    0    0    0  0.00000000000E+00  0.00000000000E+00  0.99999944181E+02  0.10000000000E+03  0.10566000000E+00 0. -1.
         22   -1    0    0    0    0 -0.00000000000E+00 -0.00000000000E+00 -0.12156580358E+02  0.12156580358E+02  0.00000000000E+00 0.  1.
         13    1    1    2    0    0 -0.30750171457E+01  0.10972168659E+02  0.11789836014E+01  0.11456237685E+02  0.10566000000E+00 0.  1.
        996    1    1    2    0    0  0.30750171457E+01 -0.10972168659E+02  0.86664380222E+02  0.10070034267E+03  0.50000000000E+02 0.  0.
<mgrwt>
<rscale>  0 0.51282007E+02</rscale>
<asrwt>0</asrwt>
<pdfrwt beam="1">  1       13 0.10000000E+01 0.51282007E+02</pdfrwt>
<pdfrwt beam="2">  1       22 0.12156605E+00 0.51282007E+02</pdfrwt>
<totfact> 0.10520638E+00</totfact>
</mgrwt>
</event>
<event>
 4    1  0.2496748E+000  0.9217550E+02  0.7957747E-01  0.1297667E+00
         13   -1    0    0    0    0  0.00000000000E+00  0.00000000000E+00  0.99999944178E+02  0.99999999999E+02  0.10566000000E+00 0. -1.
         22   -1    0    0    0    0 -0.00000000000E+00 -0.00000000000E+00 -0.75272089757E+02  0.75272089757E+02  0.00000000000E+00 0.  1.
         13    1    1    2    0    0 -0.37163316578E+02 -0.67935341627E+02 -0.70891230658E+01  0.77759819771E+02  0.10566000000E+00 0.  1.
        996    1    1    2    0    0  0.37163316578E+02  0.67935341627E+02  0.31816977487E+02  0.97512269984E+02  0.50000000000E+02 0.  0.
<mgrwt>
<rscale>  0 0.92175500E+02</rscale>
<asrwt>0</asrwt>
<pdfrwt beam="1">  1       13 0.10000000E+01 0.92175500E+02</pdfrwt>
<pdfrwt beam="2">  1       22 0.75272097E+00 0.92175500E+02</pdfrwt>
<totfact> 0.47771703E-02</totfact>
</mgrwt>
</event>
<event>
 4    1  0.2496748E+000  0.5528237E+02  0.7957747E-01  0.1418768E+00
         13   -1    0    0    0    0  0.00000000000E+00  0.00000000000E+00  0.99999944173E+02  0.99999999993E+02  0.10566000000E+00 0.  1.
         22   -1    0    0    0    0 -0.00000000000E+00 -0.00000000000E+00 -0.68967395255E+02  0.68967395255E+02  0.00000000000E+00 0. -1.
         13    1    1    2    0    0  0.23066978770E+02 -0.49045670345E+01 -0.58875562397E+02  0.63423050219E+02  0.10566000000E+00 0. -1.
        996    1    1    2    0    0 -0.23066978770E+02  0.49045670345E+01  0.89908111315E+02  0.10554434503E+03  0.50000000000E+02 0.  0.
<mgrwt>
<rscale>  0 0.55282369E+02</rscale>
<asrwt>0</asrwt>
<pdfrwt beam="1">  1       13 0.10000000E+01 0.55282369E+02</pdfrwt>
<pdfrwt beam="2">  1       22 0.68967404E+00 0.55282369E+02</pdfrwt>
<totfact> 0.79599529E-02</totfact>
</mgrwt>
</event>
<event>
 4    1  0.2496748E+000  0.5222794E+02  0.7957747E-01  0.1433682E+00
         13   -1    0    0    0    0  0.00000000000E+00  0.00000000000E+00  0.99999944177E+02  0.99999999997E+02  0.10566000000E+00 0. -1.
         22   -1    0    0    0    0 -0.00000000000E+00 -0.00000000000E+00 -0.14430517754E+02  0.14430517754E+02  0.00000000000E+00 0. -1.
         13    1    1    2    0    0 -0.15088351241E+02  0.31469022598E+00  0.11171859861E+01  0.15133295797E+02  0.10566000000E+00 0.  1.
        996    1    1    2    0    0  0.15088351241E+02 -0.31469022598E+00  0.84452240436E+02  0.99297221954E+02  0.50000000000E+02 0.  0.
<mgrwt>
<rscale>  0 0.52227937E+02</rscale>
<asrwt>0</asrwt>
<pdfrwt beam="1">  1       13 0.10000000E+01 0.52227937E+02</pdfrwt>
<pdfrwt beam="2">  1       22 0.14430542E+00 0.52227937E+02</pdfrwt>
<totfact> 0.80302985E-01</totfact>
</mgrwt>
</event>
<event>
 4    1  0.2496748E+000  0.5213391E+02  0.7957747E-01  0.1434160E+00
         13   -1    0    0    0    0  0.00000000000E+00  0.00000000000E+00  0.99999944183E+02  0.10000000000E+03  0.10566000000E+00 0. -1.
         22   -1    0    0    0    0 -0.00000000000E+00 -0.00000000000E+00 -0.27380226378E+02  0.27380226378E+02  0.00000000000E+00 0.  1.
         13    1    1    2    0    0 -0.13397442887E+02  0.62010277880E+01 -0.17727743738E+02  0.23070073334E+02  0.10566000000E+00 0.  1.
        996    1    1    2    0    0  0.13397442887E+02 -0.62010277880E+01  0.90347461543E+02  0.10431015305E+03  0.50000000000E+02 0.  0.
<mgrwt>
<rscale>  0 0.52133907E+02</rscale>
<asrwt>0</asrwt>
<pdfrwt beam="1">  1       13 0.10000000E+01 0.52133907E+02</pdfrwt>
<pdfrwt beam="2">  1       22 0.27380247E+00 0.52133907E+02</pdfrwt>
<totfact> 0.24664813E-01</totfact>
</mgrwt>
</event>
<event>
 4    1  0.2496748E+000  0.7167207E+02  0.7957747E-01  0.1354498E+00
         13   -1    0    0    0    0  0.00000000000E+00  0.00000000000E+00  0.99999944183E+02  0.10000000000E+03  0.10566000000E+00 0.  1.
         22   -1    0    0    0    0 -0.00000000000E+00 -0.00000000000E+00 -0.48637861563E+02  0.48637861563E+02  0.00000000000E+00 0. -1.
         13    1    1    2    0    0 -0.51222897834E+02 -0.36194237480E+01 -0.12268120098E+02  0.52795865610E+02  0.10566000000E+00 0. -1.
        996    1    1    2    0    0  0.51222897834E+02  0.36194237480E+01  0.63630202718E+02  0.95841995955E+02  0.50000000000E+02 0.  0.
<mgrwt>
<rscale>  0 0.71672069E+02</rscale>
<asrwt>0</asrwt>
<pdfrwt beam="1">  1       13 0.10000000E+01 0.71672069E+02</pdfrwt>
<pdfrwt beam="2">  1       22 0.48637876E+00 0.71672069E+02</pdfrwt>
<totfact> 0.80050800E-02</totfact>
</mgrwt>
</event>
<event>
 4    1  0.2496748E+000  0.5153383E+02  0.7957747E-01  0.1437240E+00
         13   -1    0    0    0    0  0.00000000000E+00  0.00000000000E+00  0.99999944183E+02  0.10000000000E+03  0.10566000000E+00 0.  1.
         22   -1    0    0    0    0 -0.00000000000E+00 -0.00000000000E+00 -0.12302462332E+02  0.12302462332E+02  0.00000000000E+00 0. -1.
         13    1    1    2    0    0 -0.11936475614E+02  0.36409114264E+01  0.24941587749E+01  0.12726652275E+02  0.10566000000E+00 0. -1.
        996    1    1    2    0    0  0.11936475614E+02 -0.36409114264E+01  0.85203323076E+02  0.99575810061E+02  0.50000000000E+02 0.  0.
<mgrwt>
<rscale>  0 0.51533831E+02</rscale>
<asrwt>0</asrwt>
<pdfrwt beam="1">  1       13 0.10000000E+01 0.51533831E+02</pdfrwt>
<pdfrwt beam="2">  1       22 0.12302487E+00 0.51533831E+02</pdfrwt>
<totfact> 0.10334816E+00</totfact>
</mgrwt>
</event>
<event>
 4    1  0.2496748E+000  0.5475812E+02  0.7957747E-01  0.1421246E+00
         13   -1    0    0    0    0  0.00000000000E+00  0.00000000000E+00  0.99999944180E+02  0.10000000000E+03  0.10566000000E+00 0. -1.
         22   -1    0    0    0    0 -0.00000000000E+00 -0.00000000000E+00 -0.15334313574E+02  0.15334313574E+02  0.00000000000E+00 0. -1.
         13    1    1    2    0    0  0.21103348048E+02  0.72870273202E+01  0.15798542576E+02  0.27350633952E+02  0.10566000000E+00 0.  1.
        996    1    1    2    0    0 -0.21103348048E+02 -0.72870273202E+01  0.68867088030E+02  0.87983679622E+02  0.50000000000E+02 0.  0.
<mgrwt>
<rscale>  0 0.54758123E+02</rscale>
<asrwt>0</asrwt>
<pdfrwt beam="1">  1       13 0.10000000E+01 0.54758123E+02</pdfrwt>
<pdfrwt beam="2">  1       22 0.15334337E+00 0.54758123E+02</pdfrwt>
<totfact> 0.72962408E-01</totfact>
</mgrwt>
</event>
<event>
 4    1  0.2496748E+000  0.5125135E+02  0.7957747E-01  0.1438707E+00
         13   -1    0    0    0    0  0.00000000000E+00  0.00000000000E+00  0.99999944180E+02  0.10000000000E+03  0.10566000000E+00 0. -1.
         22   -1    0    0    0    0 -0.00000000000E+00 -0.00000000000E+00 -0.17188655878E+02  0.17188655878E+02  0.00000000000E+00 0.  1.
         13    1    1    2    0    0  0.10663364942E+01 -0.11205530740E+02 -0.73746492626E+01  0.13457251148E+02  0.10566000000E+00 0.  1.
        996    1    1    2    0    0 -0.10663364942E+01  0.11205530740E+02  0.90185937565E+02  0.10373140473E+03  0.50000000000E+02 0.  0.
<mgrwt>
<rscale>  0 0.51251351E+02</rscale>
<asrwt>0</asrwt>
<pdfrwt beam="1">  1       13 0.10000000E+01 0.51251351E+02</pdfrwt>
<pdfrwt beam="2">  1       22 0.17188679E+00 0.51251351E+02</pdfrwt>
<totfact> 0.59544812E-01</totfact>
</mgrwt>
</event>
<event>
 4    1  0.2496748E+000  0.5117503E+02  0.7957747E-01  0.1439105E+00
         13   -1    0    0    0    0  0.00000000000E+00  0.00000000000E+00  0.99999944176E+02  0.99999999997E+02  0.10566000000E+00 0. -1.
         22   -1    0    0    0    0 -0.00000000000E+00 -0.00000000000E+00 -0.98403225481E+01  0.98403225481E+01  0.00000000000E+00 0. -1.
         13    1    1    2    0    0  0.10898794849E+02 -0.31651734230E+00  0.10356823236E+02  0.15038579188E+02  0.10566000000E+00 0.  1.
        996    1    1    2    0    0 -0.10898794849E+02  0.31651734230E+00  0.79802798392E+02  0.94801743357E+02  0.50000000000E+02 0.  0.
<mgrwt>
<rscale>  0 0.51175032E+02</rscale>
<asrwt>0</asrwt>
<pdfrwt beam="1">  1       13 0.10000000E+01 0.51175032E+02</pdfrwt>
<pdfrwt beam="2">  1       22 0.98403477E-01 0.51175032E+02</pdfrwt>
<totfact> 0.14400831E+00</totfact>
</mgrwt>
</event>
<event>
 4    1  0.2496748E+000  0.5101282E+02  0.7957747E-01  0.1439954E+00
         13   -1    0    0    0    0  0.00000000000E+00  0.00000000000E+00  0.99999944183E+02  0.10000000000E+03  0.10566000000E+00 0.  1.
         22   -1    0    0    0    0 -0.00000000000E+00 -0.00000000000E+00 -0.93435857677E+01  0.93435857677E+01  0.00000000000E+00 0.  1.
         13    1    1    2    0    0 -0.95650910045E+01 -0.32889605464E+01  0.14414862326E+02  0.17609873575E+02  0.10566000000E+00 0. -1.
        996    1    1    2    0    0  0.95650910045E+01  0.32889605464E+01  0.76241496089E+02  0.91733712196E+02  0.50000000000E+02 0.  0.
<mgrwt>
<rscale>  0 0.51012824E+02</rscale>
<asrwt>0</asrwt>
<pdfrwt beam="1">  1       13 0.10000000E+01 0.51012824E+02</pdfrwt>
<pdfrwt beam="2">  1       22 0.93436111E-01 0.51012824E+02</pdfrwt>
<totfact> 0.15503516E+00</totfact>
</mgrwt>
</event>
<event>
 4    1  0.2496748E+000  0.5572826E+02  0.7957747E-01  0.1416686E+00
         13   -1    0    0    0    0  0.00000000000E+00  0.00000000000E+00  0.99999944177E+02  0.99999999997E+02  0.10566000000E+00 0. -1.
         22   -1    0    0    0    0 -0.00000000000E+00 -0.00000000000E+00 -0.16616200253E+02  0.16616200253E+02  0.00000000000E+00 0. -1.
         13    1    1    2    0    0  0.31635231087E+01 -0.24405548273E+02  0.35176146618E+02  0.42930305378E+02  0.10566000000E+00 0.  1.
        996    1    1    2    0    0 -0.31635231087E+01  0.24405548273E+02  0.48207597307E+02  0.73685894872E+02  0.50000000000E+02 0.  0.
<mgrwt>
<rscale>  0 0.55728257E+02</rscale>
<asrwt>0</asrwt>
<pdfrwt beam="1">  1       13 0.10000000E+01 0.55728257E+02</pdfrwt>
<pdfrwt beam="2">  1       22 0.16616224E+00 0.55728257E+02</pdfrwt>
<totfact> 0.63714782E-01</totfact>
</mgrwt>
</event>
<event>
 4    1  0.2496748E+000  0.5099853E+02  0.7957747E-01  0.1440029E+00
         13   -1    0    0    0    0  0.00000000000E+00  0.00000000000E+00  0.99999944175E+02  0.99999999995E+02  0.10566000000E+00 0.  1.
         22   -1    0    0    0    0 -0.00000000000E+00 -0.00000000000E+00 -0.93191898398E+01  0.93191898398E+01  0.00000000000E+00 0.  1.
         13    1    1    2    0    0  0.10041989855E+02  0.93687268583E-01  0.15777591836E+02  0.18702778022E+02  0.10566000000E+00 0. -1.
        996    1    1    2    0    0 -0.10041989855E+02 -0.93687268583E-01  0.74903162499E+02  0.90616411813E+02  0.50000000000E+02 0.  0.
<mgrwt>
<rscale>  0 0.50998533E+02</rscale>
<asrwt>0</asrwt>
<pdfrwt beam="1">  1       13 0.10000000E+01 0.50998533E+02</pdfrwt>
<pdfrwt beam="2">  1       22 0.93192152E-01 0.50998533E+02</pdfrwt>
<totfact> 0.15560709E+00</totfact>
</mgrwt>
</event>
<event>
 4    1  0.2496748E+000  0.5248980E+02  0.7957747E-01  0.1432357E+00
         13   -1    0    0    0    0  0.00000000000E+00  0.00000000000E+00  0.99999944171E+02  0.99999999991E+02  0.10566000000E+00 0. -1.
         22   -1    0    0    0    0 -0.00000000000E+00 -0.00000000000E+00 -0.17106922547E+02  0.17106922547E+02  0.00000000000E+00 0.  1.
         13    1    1    2    0    0 -0.21648063955E+01 -0.15826963923E+02 -0.31832497387E+01  0.16288751232E+02  0.10566000000E+00 0.  1.
        996    1    1    2    0    0  0.21648063955E+01  0.15826963923E+02  0.86076271363E+02  0.10081817131E+03  0.50000000000E+02 0.  0.
<mgrwt>
<rscale>  0 0.52489801E+02</rscale>
<asrwt>0</asrwt>
<pdfrwt beam="1">  1       13 0.10000000E+01 0.52489801E+02</pdfrwt>
<pdfrwt beam="2">  1       22 0.17106946E+00 0.52489801E+02</pdfrwt>
<totfact> 0.60190013E-01</totfact>
</mgrwt>
</event>
<event>
 4    1  0.2496748E+000  0.5668231E+02  0.7957747E-01  0.1412307E+00
         13   -1    0    0    0    0  0.00000000000E+00  0.00000000000E+00  0.99999944172E+02  0.99999999992E+02  0.10566000000E+00 0. -1.
         22   -1    0    0    0    0 -0.00000000000E+00 -0.00000000000E+00 -0.20402068370E+02  0.20402068370E+02  0.00000000000E+00 0.  1.
         13    1    1    2    0    0  0.26244786194E+02  0.49086951777E+01  0.57562164894E+01  0.27313536626E+02  0.10566000000E+00 0.  1.
        996    1    1    2    0    0 -0.26244786194E+02 -0.49086951777E+01  0.73841659312E+02  0.93088531736E+02  0.50000000000E+02 0.  0.
<mgrwt>
<rscale>  0 0.56682308E+02</rscale>
<asrwt>0</asrwt>
<pdfrwt beam="1">  1       13 0.10000000E+01 0.56682308E+02</pdfrwt>
<pdfrwt beam="2">  1       22 0.20402091E+00 0.56682308E+02</pdfrwt>
<totfact> 0.43998874E-01</totfact>
</mgrwt>
</event>
<event>
 4    1  0.2496748E+000  0.5485704E+02  0.7957747E-01  0.1420776E+00
         13   -1    0    0    0    0  0.00000000000E+00  0.00000000000E+00  0.99999944182E+02  0.10000000000E+03  0.10566000000E+00 0.  1.
         22   -1    0    0    0    0 -0.00000000000E+00 -0.00000000000E+00 -0.15295697920E+02  0.15295697920E+02  0.00000000000E+00 0.  1.
         13    1    1    2    0    0  0.30881468238E+01 -0.22355284102E+02  0.17581336587E+02  0.28607864973E+02  0.10566000000E+00 0. -1.
        996    1    1    2    0    0 -0.30881468238E+01  0.22355284102E+02  0.67122909676E+02  0.86687832949E+02  0.50000000000E+02 0.  0.
<mgrwt>
<rscale>  0 0.54857045E+02</rscale>
<asrwt>0</asrwt>
<pdfrwt beam="1">  1       13 0.10000000E+01 0.54857045E+02</pdfrwt>
<pdfrwt beam="2">  1       22 0.15295722E+00 0.54857045E+02</pdfrwt>
<totfact> 0.73286236E-01</totfact>
</mgrwt>
</event>
<event>
 4    1  0.2496748E+000  0.5834524E+02  0.7957747E-01  0.1404910E+00
         13   -1    0    0    0    0  0.00000000000E+00  0.00000000000E+00  0.99999944178E+02  0.99999999998E+02  0.10566000000E+00 0.  1.
         22   -1    0    0    0    0 -0.00000000000E+00 -0.00000000000E+00 -0.23207561651E+02  0.23207561651E+02  0.00000000000E+00 0.  1.
         13    1    1    2    0    0 -0.20931143475E+02 -0.21588291333E+02  0.46539083755E+01  0.30427571659E+02  0.10566000000E+00 0. -1.
        996    1    1    2    0    0  0.20931143475E+02  0.21588291333E+02  0.72138474151E+02  0.92779989990E+02  0.50000000000E+02 0.  0.
<mgrwt>
<rscale>  0 0.58345241E+02</rscale>
<asrwt>0</asrwt>
<pdfrwt beam="1">  1       13 0.10000000E+01 0.58345241E+02</pdfrwt>
<pdfrwt beam="2">  1       22 0.23207583E+00 0.58345241E+02</pdfrwt>
<totfact> 0.34442178E-01</totfact>
</mgrwt>
</event>
<event>
 4    1  0.2496748E+000  0.5123955E+02  0.7957747E-01  0.1438768E+00
         13   -1    0    0    0    0  0.00000000000E+00  0.00000000000E+00  0.99999944175E+02  0.99999999996E+02  0.10566000000E+00 0. -1.
         22   -1    0    0    0    0 -0.00000000000E+00 -0.00000000000E+00 -0.10467930988E+02  0.10467930988E+02  0.00000000000E+00 0. -1.
         13    1    1    2    0    0  0.11199209463E+02  0.26251100825E+00  0.66552807911E+01  0.13030546078E+02  0.10566000000E+00 0.  1.
        996    1    1    2    0    0 -0.11199209463E+02 -0.26251100825E+00  0.82876732396E+02  0.97437384906E+02  0.50000000000E+02 0.  0.
<mgrwt>
<rscale>  0 0.51239547E+02</rscale>
<asrwt>0</asrwt>
<pdfrwt beam="1">  1       13 0.10000000E+01 0.51239547E+02</pdfrwt>
<pdfrwt beam="2">  1       22 0.10467956E+00 0.51239547E+02</pdfrwt>
<totfact> 0.13164903E+00</totfact>
</mgrwt>
</event>
<event>
 4    1  0.2496748E+000  0.5147152E+02  0.7957747E-01  0.1437562E+00
         13   -1    0    0    0    0  0.00000000000E+00  0.00000000000E+00  0.99999944182E+02  0.10000000000E+03  0.10566000000E+00 0.  1.
         22   -1    0    0    0    0 -0.00000000000E+00 -0.00000000000E+00 -0.10607740833E+02  0.10607740833E+02  0.00000000000E+00 0.  1.
         13    1    1    2    0    0  0.74159234327E+01  0.97119095938E+01  0.91086273646E+01  0.15241238953E+02  0.10566000000E+00 0. -1.
        996    1    1    2    0    0 -0.74159234327E+01 -0.97119095938E+01  0.80283575985E+02  0.95366501882E+02  0.50000000000E+02 0.  0.
<mgrwt>
<rscale>  0 0.51471517E+02</rscale>
<asrwt>0</asrwt>
<pdfrwt beam="1">  1       13 0.10000000E+01 0.51471517E+02</pdfrwt>
<pdfrwt beam="2">  1       22 0.10607766E+00 0.51471517E+02</pdfrwt>
<totfact> 0.12917928E+00</totfact>
</mgrwt>
</event>
<event>
 4    1  0.2496748E+000  0.5429637E+02  0.7957747E-01  0.1423456E+00
         13   -1    0    0    0    0  0.00000000000E+00  0.00000000000E+00  0.99999944177E+02  0.99999999997E+02  0.10566000000E+00 0.  1.
         22   -1    0    0    0    0 -0.00000000000E+00 -0.00000000000E+00 -0.18179072609E+02  0.18179072609E+02  0.00000000000E+00 0. -1.
         13    1    1    2    0    0  0.52270418065E+01 -0.20512765160E+02  0.14917543877E+01  0.21221027208E+02  0.10566000000E+00 0. -1.
        996    1    1    2    0    0 -0.52270418065E+01  0.20512765160E+02  0.80329117180E+02  0.96958045399E+02  0.50000000000E+02 0.  0.
<mgrwt>
<rscale>  0 0.54296367E+02</rscale>
<asrwt>0</asrwt>
<pdfrwt beam="1">  1       13 0.10000000E+01 0.54296367E+02</pdfrwt>
<pdfrwt beam="2">  1       22 0.18179095E+00 0.54296367E+02</pdfrwt>
<totfact> 0.54200148E-01</totfact>
</mgrwt>
</event>
<event>
 4    1  0.2496748E+000  0.5105974E+02  0.7957747E-01  0.1439708E+00
         13   -1    0    0    0    0  0.00000000000E+00  0.00000000000E+00  0.99999944180E+02  0.10000000000E+03  0.10566000000E+00 0.  1.
         22   -1    0    0    0    0 -0.00000000000E+00 -0.00000000000E+00 -0.21051394426E+02  0.21051394426E+02  0.00000000000E+00 0. -1.
         13    1    1    2    0    0  0.86640287805E+01 -0.56596320383E+01 -0.12552085276E+02  0.16268461462E+02  0.10566000000E+00 0. -1.
        996    1    1    2    0    0 -0.86640287805E+01  0.56596320383E+01  0.91500635031E+02  0.10478293296E+03  0.50000000000E+02 0.  0.
<mgrwt>
<rscale>  0 0.51059738E+02</rscale>
<asrwt>0</asrwt>
<pdfrwt beam="1">  1       13 0.10000000E+01 0.51059738E+02</pdfrwt>
<pdfrwt beam="2">  1       22 0.21051416E+00 0.51059738E+02</pdfrwt>
<totfact> 0.41075302E-01</totfact>
</mgrwt>
</event>
<event>
 4    1  0.2496748E+000  0.5364221E+02  0.7957747E-01  0.1426631E+00
         13   -1    0    0    0    0  0.00000000000E+00  0.00000000000E+00  0.99999944175E+02  0.99999999995E+02  0.10566000000E+00 0. -1.
         22   -1    0    0    0    0 -0.00000000000E+00 -0.00000000000E+00 -0.13357272392E+02  0.13357272392E+02  0.00000000000E+00 0. -1.
         13    1    1    2    0    0 -0.18653701991E+02  0.54337696333E+01  0.21773866377E+02  0.29182167011E+02  0.10566000000E+00 0.  1.
        996    1    1    2    0    0  0.18653701991E+02 -0.54337696333E+01  0.64868805406E+02  0.84175105376E+02  0.50000000000E+02 0.  0.
<mgrwt>
<rscale>  0 0.53642208E+02</rscale>
<asrwt>0</asrwt>
<pdfrwt beam="1">  1       13 0.10000000E+01 0.53642208E+02</pdfrwt>
<pdfrwt beam="2">  1       22 0.13357297E+00 0.53642208E+02</pdfrwt>
<totfact> 0.91252950E-01</totfact>
</mgrwt>
</event>
<event>
 4    1  0.2496748E+000  0.5191526E+02  0.7957747E-01  0.1435277E+00
         13   -1    0    0    0    0  0.00000000000E+00  0.00000000000E+00  0.99999944183E+02  0.10000000000E+03  0.10566000000E+00 0.  1.
         22   -1    0    0    0    0 -0.00000000000E+00 -0.00000000000E+00 -0.66976005742E+02  0.66976005742E+02  0.00000000000E+00 0. -1.
         13    1    1    2    0    0 -0.12670565711E+02 -0.58865163979E+01 -0.59372078623E+02  0.60993845549E+02  0.10566000000E+00 0. -1.
        996    1    1    2    0    0  0.12670565711E+02  0.58865163979E+01  0.92396017064E+02  0.10598216020E+03  0.50000000000E+02 0.  0.
<mgrwt>
<rscale>  0 0.51915261E+02</rscale>
<asrwt>0</asrwt>
<pdfrwt beam="1">  1       13 0.10000000E+01 0.51915261E+02</pdfrwt>
<pdfrwt beam="2">  1       22 0.66976015E+00 0.51915261E+02</pdfrwt>
<totfact> 0.86322220E-02</totfact>
</mgrwt>
</event>
<event>
 4    1  0.2496748E+000  0.5724400E+02  0.7957747E-01  0.1409775E+00
         13   -1    0    0    0    0  0.00000000000E+00  0.00000000000E+00  0.99999944175E+02  0.99999999995E+02  0.10566000000E+00 0.  1.
         22   -1    0    0    0    0 -0.00000000000E+00 -0.00000000000E+00 -0.38696358121E+02  0.38696358121E+02  0.00000000000E+00 0. -1.
         13    1    1    2    0    0  0.26351812918E+02  0.90806042184E+01 -0.23447878980E+02  0.36423750627E+02  0.10566000000E+00 0. -1.
        996    1    1    2    0    0 -0.26351812918E+02 -0.90806042184E+01  0.84751465034E+02  0.10227260749E+03  0.50000000000E+02 0.  0.
<mgrwt>
<rscale>  0 0.57243999E+02</rscale>
<asrwt>0</asrwt>
<pdfrwt beam="1">  1       13 0.10000000E+01 0.57243999E+02</pdfrwt>
<pdfrwt beam="2">  1       22 0.38696375E+00 0.57243999E+02</pdfrwt>
<totfact> 0.13209974E-01</totfact>
</mgrwt>
</event>
<event>
 4    1  0.2496748E+000  0.6158313E+02  0.7957747E-01  0.1391306E+00
         13   -1    0    0    0    0  0.00000000000E+00  0.00000000000E+00  0.99999944172E+02  0.99999999992E+02  0.10566000000E+00 0.  1.
         22   -1    0    0    0    0 -0.00000000000E+00 -0.00000000000E+00 -0.56413904275E+02  0.56413904275E+02  0.00000000000E+00 0. -1.
         13    1    1    2    0    0  0.21159536151E+02  0.29064695664E+02 -0.39229096883E+02  0.53211048763E+02  0.10566000000E+00 0. -1.
        996    1    1    2    0    0 -0.21159536151E+02 -0.29064695664E+02  0.82815136780E+02  0.10320285550E+03  0.50000000000E+02 0.  0.
<mgrwt>
<rscale>  0 0.61583135E+02</rscale>
<asrwt>0</asrwt>
<pdfrwt beam="1">  1       13 0.10000000E+01 0.61583135E+02</pdfrwt>
<pdfrwt beam="2">  1       22 0.56413916E+00 0.61583135E+02</pdfrwt>
<totfact> 0.58243387E-02</totfact>
</mgrwt>
</event>
<event>
 4    1  0.2496748E+000  0.5200206E+02  0.7957747E-01  0.1434833E+00
         13   -1    0    0    0    0  0.00000000000E+00  0.00000000000E+00  0.99999944180E+02  0.10000000000E+03  0.10566000000E+00 0.  1.
         22   -1    0    0    0    0 -0.00000000000E+00 -0.00000000000E+00 -0.11501345640E+02  0.11501345640E+02  0.00000000000E+00 0.  1.
         13    1    1    2    0    0  0.45803927850E+01 -0.13536422625E+02  0.10402577840E+02  0.17675958965E+02  0.10566000000E+00 0. -1.
        996    1    1    2    0    0 -0.45803927850E+01  0.13536422625E+02  0.78096020700E+02  0.93825386675E+02  0.50000000000E+02 0.  0.
<mgrwt>
<rscale>  0 0.52002065E+02</rscale>
<asrwt>0</asrwt>
<pdfrwt beam="1">  1       13 0.10000000E+01 0.52002065E+02</pdfrwt>
<pdfrwt beam="2">  1       22 0.11501370E+00 0.52002065E+02</pdfrwt>
<totfact> 0.11465618E+00</totfact>
</mgrwt>
</event>
<event>
 4    1  0.2496748E+000  0.5307683E+02  0.7957747E-01  0.1429419E+00
         13   -1    0    0    0    0  0.00000000000E+00  0.00000000000E+00  0.99999944183E+02  0.10000000000E+03  0.10566000000E+00 0.  1.
         22   -1    0    0    0    0 -0.00000000000E+00 -0.00000000000E+00 -0.12790658310E+02  0.12790658310E+02  0.00000000000E+00 0.  1.
         13    1    1    2    0    0 -0.17069030954E+02 -0.50791383437E+01  0.15737549630E+02  0.23766175469E+02  0.10566000000E+00 0. -1.
        996    1    1    2    0    0  0.17069030954E+02  0.50791383437E+01  0.71471736243E+02  0.89024482844E+02  0.50000000000E+02 0.  0.
<mgrwt>
<rscale>  0 0.53076826E+02</rscale>
<asrwt>0</asrwt>
<pdfrwt beam="1">  1       13 0.10000000E+01 0.53076826E+02</pdfrwt>
<pdfrwt beam="2">  1       22 0.12790683E+00 0.53076826E+02</pdfrwt>
<totfact> 0.97604728E-01</totfact>
</mgrwt>
</event>
<event>
 4    1  0.2496748E+000  0.5118294E+02  0.7957747E-01  0.1439064E+00
         13   -1    0    0    0    0  0.00000000000E+00  0.00000000000E+00  0.99999944182E+02  0.10000000000E+03  0.10566000000E+00 0.  1.
         22   -1    0    0    0    0 -0.00000000000E+00 -0.00000000000E+00 -0.10182687802E+02  0.10182687802E+02  0.00000000000E+00 0.  1.
         13    1    1    2    0    0  0.48501143558E+01  0.98065998156E+01  0.75500635889E+01  0.13293142346E+02  0.10566000000E+00 0. -1.
        996    1    1    2    0    0 -0.48501143558E+01 -0.98065998156E+01  0.82267192791E+02  0.96889545458E+02  0.50000000000E+02 0.  0.
<mgrwt>
<rscale>  0 0.51182937E+02</rscale>
<asrwt>0</asrwt>
<pdfrwt beam="1">  1       13 0.10000000E+01 0.51182937E+02</pdfrwt>
<pdfrwt beam="2">  1       22 0.10182713E+00 0.51182937E+02</pdfrwt>
<totfact> 0.13705118E+00</totfact>
</mgrwt>
</event>
<event>
 4    1  0.2496748E+000  0.5190649E+02  0.7957747E-01  0.1435322E+00
         13   -1    0    0    0    0  0.00000000000E+00  0.00000000000E+00  0.99999944180E+02  0.10000000000E+03  0.10566000000E+00 0.  1.
         22   -1    0    0    0    0 -0.00000000000E+00 -0.00000000000E+00 -0.14319592896E+02  0.14319592896E+02  0.00000000000E+00 0. -1.
         13    1    1    2    0    0 -0.13937682740E+02 -0.15644243140E+00 -0.23581324589E+00  0.13940955718E+02  0.10566000000E+00 0. -1.
        996    1    1    2    0    0  0.13937682740E+02  0.15644243140E+00  0.85916164530E+02  0.10037863718E+03  0.50000000000E+02 0.  0.
<mgrwt>
<rscale>  0 0.51906488E+02</rscale>
<asrwt>0</asrwt>
<pdfrwt beam="1">  1       13 0.10000000E+01 0.51906488E+02</pdfrwt>
<pdfrwt beam="2">  1       22 0.14319617E+00 0.51906488E+02</pdfrwt>
<totfact> 0.81269749E-01</totfact>
</mgrwt>
</event>
<event>
 4    1  0.2496748E+000  0.5377116E+02  0.7957747E-01  0.1426001E+00
         13   -1    0    0    0    0  0.00000000000E+00  0.00000000000E+00  0.99999944178E+02  0.99999999998E+02  0.10566000000E+00 0.  1.
         22   -1    0    0    0    0 -0.00000000000E+00 -0.00000000000E+00 -0.16251750848E+02  0.16251750848E+02  0.00000000000E+00 0.  1.
         13    1    1    2    0    0  0.14012552889E+02 -0.13963745610E+02  0.41817566968E+01  0.20219695424E+02  0.10566000000E+00 0. -1.
        996    1    1    2    0    0 -0.14012552889E+02  0.13963745610E+02  0.79566436633E+02  0.96032055421E+02  0.50000000000E+02 0.  0.
<mgrwt>
<rscale>  0 0.53771162E+02</rscale>
<asrwt>0</asrwt>
<pdfrwt beam="1">  1       13 0.10000000E+01 0.53771162E+02</pdfrwt>
<pdfrwt beam="2">  1       22 0.16251774E+00 0.53771162E+02</pdfrwt>
<totfact> 0.65967125E-01</totfact>
</mgrwt>
</event>
<event>
 4    1  0.2496748E+000  0.5191529E+02  0.7957747E-01  0.1435277E+00
         13   -1    0    0    0    0  0.00000000000E+00  0.00000000000E+00  0.99999944175E+02  0.99999999995E+02  0.10566000000E+00 0.  1.
         22   -1    0    0    0    0 -0.00000000000E+00 -0.00000000000E+00 -0.12261659454E+02  0.12261659454E+02  0.00000000000E+00 0.  1.
         13    1    1    2    0    0  0.31940593355E+01 -0.13601293343E+02  0.55158116238E+01  0.15021069787E+02  0.10566000000E+00 0. -1.
        996    1    1    2    0    0 -0.31940593355E+01  0.13601293343E+02  0.82222473097E+02  0.97240589662E+02  0.50000000000E+02 0.  0.
<mgrwt>
<rscale>  0 0.51915289E+02</rscale>
<asrwt>0</asrwt>
<pdfrwt beam="1">  1       13 0.10000000E+01 0.51915289E+02</pdfrwt>
<pdfrwt beam="2">  1       22 0.12261684E+00 0.51915289E+02</pdfrwt>
<totfact> 0.10396786E+00</totfact>
</mgrwt>
</event>
<event>
 4    1  0.2496748E+000  0.5200144E+02  0.7957747E-01  0.1434836E+00
         13   -1    0    0    0    0  0.00000000000E+00  0.00000000000E+00  0.99999944176E+02  0.99999999996E+02  0.10566000000E+00 0.  1.
         22   -1    0    0    0    0 -0.00000000000E+00 -0.00000000000E+00 -0.11015407935E+02  0.11015407935E+02  0.00000000000E+00 0.  1.
         13    1    1    2    0    0  0.79516820488E+01 -0.11870981665E+02  0.21614002909E+02  0.25909954436E+02  0.10566000000E+00 0. -1.
        996    1    1    2    0    0 -0.79516820488E+01  0.11870981665E+02  0.67370533332E+02  0.85105453495E+02  0.50000000000E+02 0.  0.
<mgrwt>
<rscale>  0 0.52001437E+02</rscale>
<asrwt>0</asrwt>
<pdfrwt beam="1">  1       13 0.10000000E+01 0.52001437E+02</pdfrwt>
<pdfrwt beam="2">  1       22 0.11015433E+00 0.52001437E+02</pdfrwt>
<totfact> 0.12231778E+00</totfact>
</mgrwt>
</event>
<event>
 4    1  0.2496748E+000  0.5129443E+02  0.7957747E-01  0.1438482E+00
         13   -1    0    0    0    0  0.00000000000E+00  0.00000000000E+00  0.99999944179E+02  0.99999999999E+02  0.10566000000E+00 0.  1.
         22   -1    0    0    0    0 -0.00000000000E+00 -0.00000000000E+00 -0.16602709838E+02  0.16602709838E+02  0.00000000000E+00 0.  1.
         13    1    1    2    0    0 -0.16773798459E-01  0.11450671743E+02 -0.64511377378E+01  0.13143306543E+02  0.10566000000E+00 0. -1.
        996    1    1    2    0    0  0.16773798459E-01 -0.11450671743E+02  0.89848372079E+02  0.10345940329E+03  0.50000000000E+02 0.  0.
<mgrwt>
<rscale>  0 0.51294426E+02</rscale>
<asrwt>0</asrwt>
<pdfrwt beam="1">  1       13 0.10000000E+01 0.51294426E+02</pdfrwt>
<pdfrwt beam="2">  1       22 0.16602733E+00 0.51294426E+02</pdfrwt>
<totfact> 0.63269942E-01</totfact>
</mgrwt>
</event>
<event>
 4    1  0.2496748E+000  0.5133934E+02  0.7957747E-01  0.1438249E+00
         13   -1    0    0    0    0  0.00000000000E+00  0.00000000000E+00  0.99999944182E+02  0.10000000000E+03  0.10566000000E+00 0. -1.
         22   -1    0    0    0    0 -0.00000000000E+00 -0.00000000000E+00 -0.32517938756E+02  0.32517938756E+02  0.00000000000E+00 0.  1.
         13    1    1    2    0    0 -0.90900761654E+01  0.72868533800E+01 -0.24527747864E+02  0.27154176404E+02  0.10566000000E+00 0.  1.
        996    1    1    2    0    0  0.90900761654E+01 -0.72868533800E+01  0.92009753290E+02  0.10536376235E+03  0.50000000000E+02 0.  0.
<mgrwt>
<rscale>  0 0.51339339E+02</rscale>
<asrwt>0</asrwt>
<pdfrwt beam="1">  1       13 0.10000000E+01 0.51339339E+02</pdfrwt>
<pdfrwt beam="2">  1       22 0.32517958E+00 0.51339339E+02</pdfrwt>
<totfact> 0.17864567E-01</totfact>
</mgrwt>
</event>
<event>
 4    1  0.2496748E+000  0.5141394E+02  0.7957747E-01  0.1437861E+00
         13   -1    0    0    0    0  0.00000000000E+00  0.00000000000E+00  0.99999944178E+02  0.99999999998E+02  0.10566000000E+00 0.  1.
         22   -1    0    0    0    0 -0.00000000000E+00 -0.00000000000E+00 -0.64109048888E+02  0.64109048888E+02  0.00000000000E+00 0. -1.
         13    1    1    2    0    0 -0.20652345600E+01  0.11795233428E+02 -0.56835162373E+02  0.58083040307E+02  0.10566000000E+00 0. -1.
        996    1    1    2    0    0  0.20652345600E+01 -0.11795233428E+02  0.92726057662E+02  0.10602600858E+03  0.50000000000E+02 0.  0.
<mgrwt>
<rscale>  0 0.51413935E+02</rscale>
<asrwt>0</asrwt>
<pdfrwt beam="1">  1       13 0.10000000E+01 0.51413935E+02</pdfrwt>
<pdfrwt beam="2">  1       22 0.64109059E+00 0.51413935E+02</pdfrwt>
<totfact> 0.83766694E-02</totfact>
</mgrwt>
</event>
<event>
 4    1  0.2496748E+000  0.5195669E+02  0.7957747E-01  0.1435065E+00
         13   -1    0    0    0    0  0.00000000000E+00  0.00000000000E+00  0.99999944184E+02  0.10000000000E+03  0.10566000000E+00 0.  1.
         22   -1    0    0    0    0 -0.00000000000E+00 -0.00000000000E+00 -0.15014984792E+02  0.15014984792E+02  0.00000000000E+00 0.  1.
         13    1    1    2    0    0  0.37655113588E+01  0.13613158571E+02 -0.14156750695E+01  0.14195508515E+02  0.10566000000E+00 0. -1.
        996    1    1    2    0    0 -0.37655113588E+01 -0.13613158571E+02  0.86400634462E+02  0.10081947628E+03  0.50000000000E+02 0.  0.
<mgrwt>
<rscale>  0 0.51956685E+02</rscale>
<asrwt>0</asrwt>
<pdfrwt beam="1">  1       13 0.10000000E+01 0.51956685E+02</pdfrwt>
<pdfrwt beam="2">  1       22 0.15015009E+00 0.51956685E+02</pdfrwt>
<totfact> 0.75160685E-01</totfact>
</mgrwt>
</event>
<event>
 4    1  0.2496748E+000  0.5370649E+02  0.7957747E-01  0.1426317E+00
         13   -1    0    0    0    0  0.00000000000E+00  0.00000000000E+00  0.99999944181E+02  0.10000000000E+03  0.10566000000E+00 0. -1.
         22   -1    0    0    0    0 -0.00000000000E+00 -0.00000000000E+00 -0.17681872067E+02  0.17681872067E+02  0.00000000000E+00 0. -1.
         13    1    1    2    0    0  0.96665321063E+01  0.17057106316E+02  0.25621522553E+00  0.19607741561E+02  0.10566000000E+00 0.  1.
        996    1    1    2    0    0 -0.96665321063E+01 -0.17057106316E+02  0.82061856888E+02  0.98074130507E+02  0.50000000000E+02 0.  0.
<mgrwt>
<rscale>  0 0.53706487E+02</rscale>
<asrwt>0</asrwt>
<pdfrwt beam="1">  1       13 0.10000000E+01 0.53706487E+02</pdfrwt>
<pdfrwt beam="2">  1       22 0.17681895E+00 0.53706487E+02</pdfrwt>
<totfact> 0.56900231E-01</totfact>
</mgrwt>
</event>
<event>
 4    1  0.2496748E+000  0.5101900E+02  0.7957747E-01  0.1439922E+00
         13   -1    0    0    0    0  0.00000000000E+00  0.00000000000E+00  0.99999944177E+02  0.99999999998E+02  0.10566000000E+00 0. -1.
         22   -1    0    0    0    0 -0.00000000000E+00 -0.00000000000E+00 -0.15255833235E+02  0.15255833235E+02  0.00000000000E+00 0.  1.
         13    1    1    2    0    0 -0.10145395309E+02 -0.96265322448E-01 -0.55349976520E+01  0.11557926979E+02  0.10566000000E+00 0.  1.
        996    1    1    2    0    0  0.10145395309E+02  0.96265322448E-01  0.90279108594E+02  0.10369790625E+03  0.50000000000E+02 0.  0.
<mgrwt>
<rscale>  0 0.51019000E+02</rscale>
<asrwt>0</asrwt>
<pdfrwt beam="1">  1       13 0.10000000E+01 0.51019000E+02</pdfrwt>
<pdfrwt beam="2">  1       22 0.15255857E+00 0.51019000E+02</pdfrwt>
<totfact> 0.73047838E-01</totfact>
</mgrwt>
</event>
<event>
 4    1  0.2496748E+000  0.5112539E+02  0.7957747E-01  0.1439364E+00
         13   -1    0    0    0    0  0.00000000000E+00  0.00000000000E+00  0.99999944183E+02  0.10000000000E+03  0.10566000000E+00 0. -1.
         22   -1    0    0    0    0 -0.00000000000E+00 -0.00000000000E+00 -0.11872298864E+02  0.11872298864E+02  0.00000000000E+00 0.  1.
         13    1    1    2    0    0  0.50174209712E+01 -0.94143875390E+01  0.82367415373E+00  0.10700224721E+02  0.10566000000E+00 0.  1.
        996    1    1    2    0    0 -0.50174209712E+01  0.94143875390E+01  0.87303971164E+02  0.10117207415E+03  0.50000000000E+02 0.  0.
<mgrwt>
<rscale>  0 0.51125387E+02</rscale>
<asrwt>0</asrwt>
<pdfrwt beam="1">  1       13 0.10000000E+01 0.51125387E+02</pdfrwt>
<pdfrwt beam="2">  1       22 0.11872323E+00 0.51125387E+02</pdfrwt>
<totfact> 0.10905075E+00</totfact>
</mgrwt>
</event>
<event>
 4    1  0.2496748E+000  0.5195004E+02  0.7957747E-01  0.1435099E+00
         13   -1    0    0    0    0  0.00000000000E+00  0.00000000000E+00  0.99999944176E+02  0.99999999996E+02  0.10566000000E+00 0.  1.
         22   -1    0    0    0    0 -0.00000000000E+00 -0.00000000000E+00 -0.11472915550E+02  0.11472915550E+02  0.00000000000E+00 0.  1.
         13    1    1    2    0    0  0.40688249805E+01  0.13500043638E+02  0.30420798064E+02  0.33529727614E+02  0.10566000000E+00 0. -1.
        996    1    1    2    0    0 -0.40688249805E+01 -0.13500043638E+02  0.58106230562E+02  0.77943187932E+02  0.50000000000E+02 0.  0.
<mgrwt>
<rscale>  0 0.51950039E+02</rscale>
<asrwt>0</asrwt>
<pdfrwt beam="1">  1       13 0.10000000E+01 0.51950039E+02</pdfrwt>
<pdfrwt beam="2">  1       22 0.11472940E+00 0.51950039E+02</pdfrwt>
<totfact> 0.11507126E+00</totfact>
</mgrwt>
</event>
<event>
 4    1  0.2496748E+000  0.5680508E+02  0.7957747E-01  0.1411750E+00
         13   -1    0    0    0    0  0.00000000000E+00  0.00000000000E+00  0.99999944179E+02  0.99999999999E+02  0.10566000000E+00 0. -1.
         22   -1    0    0    0    0 -0.00000000000E+00 -0.00000000000E+00 -0.17558679239E+02  0.17558679239E+02  0.00000000000E+00 0. -1.
         13    1    1    2    0    0 -0.26145945626E+02  0.65732106843E+01  0.24822759938E+02  0.36646939113E+02  0.10566000000E+00 0.  1.
        996    1    1    2    0    0  0.26145945626E+02 -0.65732106843E+01  0.57618505001E+02  0.80911740124E+02  0.50000000000E+02 0.  0.
<mgrwt>
<rscale>  0 0.56805084E+02</rscale>
<asrwt>0</asrwt>
<pdfrwt beam="1">  1       13 0.10000000E+01 0.56805084E+02</pdfrwt>
<pdfrwt beam="2">  1       22 0.17558702E+00 0.56805084E+02</pdfrwt>
<totfact> 0.57932530E-01</totfact>
</mgrwt>
</event>
<event>
 4    1  0.2496748E+000  0.5260848E+02  0.7957747E-01  0.1431759E+00
         13   -1    0    0    0    0  0.00000000000E+00  0.00000000000E+00  0.99999944180E+02  0.10000000000E+03  0.10566000000E+00 0.  1.
         22   -1    0    0    0    0 -0.00000000000E+00 -0.00000000000E+00 -0.12453699680E+02  0.12453699680E+02  0.00000000000E+00 0.  1.
         13    1    1    2    0    0  0.28798273984E+01  0.16104621189E+02  0.11557014147E+02  0.20030675713E+02  0.10566000000E+00 0. -1.
        996    1    1    2    0    0 -0.28798273984E+01 -0.16104621189E+02  0.75989230353E+02  0.92423023967E+02  0.50000000000E+02 0.  0.
<mgrwt>
<rscale>  0 0.52608481E+02</rscale>
<asrwt>0</asrwt>
<pdfrwt beam="1">  1       13 0.10000000E+01 0.52608481E+02</pdfrwt>
<pdfrwt beam="2">  1       22 0.12453724E+00 0.52608481E+02</pdfrwt>
<totfact> 0.10165199E+00</totfact>
</mgrwt>
</event>
<event>
 4    1  0.2496748E+000  0.5528216E+02  0.7957747E-01  0.1418769E+00
         13   -1    0    0    0    0  0.00000000000E+00  0.00000000000E+00  0.99999944175E+02  0.99999999995E+02  0.10566000000E+00 0. -1.
         22   -1    0    0    0    0 -0.00000000000E+00 -0.00000000000E+00 -0.55273285932E+02  0.55273285932E+02  0.00000000000E+00 0.  1.
         13    1    1    2    0    0  0.22567225338E+02 -0.68437784063E+01 -0.44469123829E+02  0.50335187499E+02  0.10566000000E+00 0.  1.
        996    1    1    2    0    0 -0.22567225338E+02  0.68437784063E+01  0.89195782072E+02  0.10493809843E+03  0.50000000000E+02 0.  0.
<mgrwt>
<rscale>  0 0.55282158E+02</rscale>
<asrwt>0</asrwt>
<pdfrwt beam="1">  1       13 0.10000000E+01 0.55282158E+02</pdfrwt>
<pdfrwt beam="2">  1       22 0.55273298E+00 0.55282158E+02</pdfrwt>
<totfact> 0.59025695E-02</totfact>
</mgrwt>
</event>
<event>
 4    1  0.2496748E+000  0.5274755E+02  0.7957747E-01  0.1431061E+00
         13   -1    0    0    0    0  0.00000000000E+00  0.00000000000E+00  0.99999944176E+02  0.99999999996E+02  0.10566000000E+00 0.  1.
         22   -1    0    0    0    0 -0.00000000000E+00 -0.00000000000E+00 -0.12526173037E+02  0.12526173037E+02  0.00000000000E+00 0.  1.
         13    1    1    2    0    0 -0.85990877510E+01  0.14434684804E+02  0.12900075652E+02  0.21183190303E+02  0.10566000000E+00 0. -1.
        996    1    1    2    0    0  0.85990877510E+01 -0.14434684804E+02  0.74573695487E+02  0.91342982730E+02  0.50000000000E+02 0.  0.
<mgrwt>
<rscale>  0 0.52747554E+02</rscale>
<asrwt>0</asrwt>
<pdfrwt beam="1">  1       13 0.10000000E+01 0.52747554E+02</pdfrwt>
<pdfrwt beam="2">  1       22 0.12526197E+00 0.52747554E+02</pdfrwt>
<totfact> 0.10077005E+00</totfact>
</mgrwt>
</event>
<event>
 4    1  0.2496748E+000  0.5190109E+02  0.7957747E-01  0.1435349E+00
         13   -1    0    0    0    0  0.00000000000E+00  0.00000000000E+00  0.99999944176E+02  0.99999999996E+02  0.10566000000E+00 0.  1.
         22   -1    0    0    0    0 -0.00000000000E+00 -0.00000000000E+00 -0.28960133150E+02  0.28960133150E+02  0.00000000000E+00 0. -1.
         13    1    1    2    0    0  0.92637816802E+01  0.10387768898E+02 -0.19880709337E+02  0.24268851672E+02  0.10566000000E+00 0. -1.
        996    1    1    2    0    0 -0.92637816802E+01 -0.10387768898E+02  0.90920520363E+02  0.10469128147E+03  0.50000000000E+02 0.  0.
<mgrwt>
<rscale>  0 0.51901092E+02</rscale>
<asrwt>0</asrwt>
<pdfrwt beam="1">  1       13 0.10000000E+01 0.51901092E+02</pdfrwt>
<pdfrwt beam="2">  1       22 0.28960153E+00 0.51901092E+02</pdfrwt>
<totfact> 0.22126712E-01</totfact>
</mgrwt>
</event>
<event>
 4    1  0.2496748E+000  0.5169568E+02  0.7957747E-01  0.1436404E+00
         13   -1    0    0    0    0  0.00000000000E+00  0.00000000000E+00  0.99999944191E+02  0.10000000001E+03  0.10566000000E+00 0.  1.
         22   -1    0    0    0    0 -0.00000000000E+00 -0.00000000000E+00 -0.21495082426E+02  0.21495082426E+02  0.00000000000E+00 0. -1.
         13    1    1    2    0    0 -0.51664626250E+01 -0.12072755377E+02 -0.11660057825E+02  0.17561659118E+02  0.10566000000E+00 0. -1.
        996    1    1    2    0    0  0.51664626250E+01  0.12072755377E+02  0.90164919589E+02  0.10393342332E+03  0.50000000000E+02 0.  0.
<mgrwt>
<rscale>  0 0.51695684E+02</rscale>
<asrwt>0</asrwt>
<pdfrwt beam="1">  1       13 0.10000000E+01 0.51695684E+02</pdfrwt>
<pdfrwt beam="2">  1       22 0.21495104E+00 0.51695684E+02</pdfrwt>
<totfact> 0.39520921E-01</totfact>
</mgrwt>
</event>
<event>
 4    1  0.2496748E+000  0.5136905E+02  0.7957747E-01  0.1438094E+00
         13   -1    0    0    0    0  0.00000000000E+00  0.00000000000E+00  0.99999944174E+02  0.99999999994E+02  0.10566000000E+00 0. -1.
         22   -1    0    0    0    0 -0.00000000000E+00 -0.00000000000E+00 -0.21402195715E+02  0.21402195715E+02  0.00000000000E+00 0.  1.
         13    1    1    2    0    0  0.93218388356E+01 -0.72029872306E+01 -0.12275959205E+02  0.17014406917E+02  0.10566000000E+00 0.  1.
        996    1    1    2    0    0 -0.93218388356E+01  0.72029872306E+01  0.90873707664E+02  0.10438778879E+03  0.50000000000E+02 0.  0.
<mgrwt>
<rscale>  0 0.51369054E+02</rscale>
<asrwt>0</asrwt>
<pdfrwt beam="1">  1       13 0.10000000E+01 0.51369054E+02</pdfrwt>
<pdfrwt beam="2">  1       22 0.21402218E+00 0.51369054E+02</pdfrwt>
<totfact> 0.39826137E-01</totfact>
</mgrwt>
</event>
<event>
 4    1  0.2496748E+000  0.5437898E+02  0.7957747E-01  0.1423059E+00
         13   -1    0    0    0    0  0.00000000000E+00  0.00000000000E+00  0.99999944182E+02  0.10000000000E+03  0.10566000000E+00 0.  1.
         22   -1    0    0    0    0 -0.00000000000E+00 -0.00000000000E+00 -0.20157365693E+02  0.20157365693E+02  0.00000000000E+00 0.  1.
         13    1    1    2    0    0 -0.19503810637E+02  0.87564407906E+01 -0.24515626169E+01  0.21519647023E+02  0.10566000000E+00 0. -1.
        996    1    1    2    0    0  0.19503810637E+02 -0.87564407906E+01  0.82294141106E+02  0.98637718673E+02  0.50000000000E+02 0.  0.
<mgrwt>
<rscale>  0 0.54378984E+02</rscale>
<asrwt>0</asrwt>
<pdfrwt beam="1">  1       13 0.10000000E+01 0.54378984E+02</pdfrwt>
<pdfrwt beam="2">  1       22 0.20157388E+00 0.54378984E+02</pdfrwt>
<totfact> 0.44835239E-01</totfact>
</mgrwt>
</event>
<event>
 4    1  0.2496748E+000  0.5355473E+02  0.7957747E-01  0.1427060E+00
         13   -1    0    0    0    0  0.00000000000E+00  0.00000000000E+00  0.99999944173E+02  0.99999999993E+02  0.10566000000E+00 0.  1.
         22   -1    0    0    0    0 -0.00000000000E+00 -0.00000000000E+00 -0.13304164342E+02  0.13304164342E+02  0.00000000000E+00 0.  1.
         13    1    1    2    0    0 -0.18117279659E+02  0.63145163868E+01  0.19207569814E+02  0.27148680292E+02  0.10566000000E+00 0. -1.
        996    1    1    2    0    0  0.18117279659E+02 -0.63145163868E+01  0.67488210017E+02  0.86155484043E+02  0.50000000000E+02 0.  0.
<mgrwt>
<rscale>  0 0.53554728E+02</rscale>
<asrwt>0</asrwt>
<pdfrwt beam="1">  1       13 0.10000000E+01 0.53554728E+02</pdfrwt>
<pdfrwt beam="2">  1       22 0.13304189E+00 0.53554728E+02</pdfrwt>
<totfact> 0.91816674E-01</totfact>
</mgrwt>
</event>
<event>
 4    1  0.2496748E+000  0.5337943E+02  0.7957747E-01  0.1427922E+00
         13   -1    0    0    0    0  0.00000000000E+00  0.00000000000E+00  0.99999944172E+02  0.99999999992E+02  0.10566000000E+00 0. -1.
         22   -1    0    0    0    0 -0.00000000000E+00 -0.00000000000E+00 -0.51957680239E+02  0.51957680239E+02  0.00000000000E+00 0.  1.
         13    1    1    2    0    0 -0.16959427505E+02  0.78575846337E+01 -0.42737971116E+02  0.46646641430E+02  0.10566000000E+00 0.  1.
        996    1    1    2    0    0  0.16959427505E+02 -0.78575846337E+01  0.90780235050E+02  0.10531103880E+03  0.50000000000E+02 0.  0.
<mgrwt>
<rscale>  0 0.53379433E+02</rscale>
<asrwt>0</asrwt>
<pdfrwt beam="1">  1       13 0.10000000E+01 0.53379433E+02</pdfrwt>
<pdfrwt beam="2">  1       22 0.51957694E+00 0.53379433E+02</pdfrwt>
<totfact> 0.66469008E-02</totfact>
</mgrwt>
</event>
<event>
 4    1  0.2496748E+000  0.6361207E+02  0.7957747E-01  0.1383270E+00
         13   -1    0    0    0    0  0.00000000000E+00  0.00000000000E+00  0.99999944182E+02  0.10000000000E+03  0.10566000000E+00 0.  1.
         22   -1    0    0    0    0 -0.00000000000E+00 -0.00000000000E+00 -0.26558777439E+02  0.26558777439E+02  0.00000000000E+00 0.  1.
         13    1    1    2    0    0  0.15799114474E+02 -0.36012272936E+02  0.24959289727E+02  0.46577603287E+02  0.10566000000E+00 0. -1.
        996    1    1    2    0    0 -0.15799114474E+02  0.36012272936E+02  0.48481877016E+02  0.79981174155E+02  0.50000000000E+02 0.  0.
<mgrwt>
<rscale>  0 0.63612073E+02</rscale>
<asrwt>0</asrwt>
<pdfrwt beam="1">  1       13 0.10000000E+01 0.63612073E+02</pdfrwt>
<pdfrwt beam="2">  1       22 0.26558798E+00 0.63612073E+02</pdfrwt>
<totfact> 0.26584032E-01</totfact>
</mgrwt>
</event>
<event>
 4    1  0.2496748E+000  0.5716159E+02  0.7957747E-01  0.1410145E+00
         13   -1    0    0    0    0  0.00000000000E+00  0.00000000000E+00  0.99999944182E+02  0.10000000000E+03  0.10566000000E+00 0. -1.
         22   -1    0    0    0    0 -0.00000000000E+00 -0.00000000000E+00 -0.19136498639E+02  0.19136498639E+02  0.00000000000E+00 0. -1.
         13    1    1    2    0    0  0.90723871561E+00  0.27687978867E+02  0.13587731539E+02  0.30855872508E+02  0.10566000000E+00 0.  1.
        996    1    1    2    0    0 -0.90723871561E+00 -0.27687978867E+02  0.67275714004E+02  0.88280626134E+02  0.50000000000E+02 0.  0.
<mgrwt>
<rscale>  0 0.57161589E+02</rscale>
<asrwt>0</asrwt>
<pdfrwt beam="1">  1       13 0.10000000E+01 0.57161589E+02</pdfrwt>
<pdfrwt beam="2">  1       22 0.19136521E+00 0.57161589E+02</pdfrwt>
<totfact> 0.49608135E-01</totfact>
</mgrwt>
</event>
<event>
 4    1  0.2496748E+000  0.5155169E+02  0.7957747E-01  0.1437147E+00
         13   -1    0    0    0    0  0.00000000000E+00  0.00000000000E+00  0.99999944179E+02  0.10000000000E+03  0.10566000000E+00 0. -1.
         22   -1    0    0    0    0 -0.00000000000E+00 -0.00000000000E+00 -0.21872447780E+02  0.21872447780E+02  0.00000000000E+00 0.  1.
         13    1    1    2    0    0  0.11260987881E+02  0.55468079203E+01 -0.12432180309E+02  0.17667687948E+02  0.10566000000E+00 0.  1.
        996    1    1    2    0    0 -0.11260987881E+02 -0.55468079203E+01  0.90559676708E+02  0.10420475983E+03  0.50000000000E+02 0.  0.
<mgrwt>
<rscale>  0 0.51551692E+02</rscale>
<asrwt>0</asrwt>
<pdfrwt beam="1">  1       13 0.10000000E+01 0.51551692E+02</pdfrwt>
<pdfrwt beam="2">  1       22 0.21872470E+00 0.51551692E+02</pdfrwt>
<totfact> 0.38216393E-01</totfact>
</mgrwt>
</event>
<event>
 4    1  0.2496748E+000  0.7374897E+02  0.7957747E-01  0.1347789E+00
         13   -1    0    0    0    0  0.00000000000E+00  0.00000000000E+00  0.99999944175E+02  0.99999999995E+02  0.10566000000E+00 0. -1.
         22   -1    0    0    0    0 -0.00000000000E+00 -0.00000000000E+00 -0.42163513812E+02  0.42163513812E+02  0.00000000000E+00 0.  1.
         13    1    1    2    0    0  0.45805587755E+02  0.28995849989E+02  0.12635903342E+02  0.55664965674E+02  0.10566000000E+00 0.  1.
        996    1    1    2    0    0 -0.45805587755E+02 -0.28995849989E+02  0.45200527021E+02  0.86498548133E+02  0.50000000000E+02 0.  0.
<mgrwt>
<rscale>  0 0.73748974E+02</rscale>
<asrwt>0</asrwt>
<pdfrwt beam="1">  1       13 0.10000000E+01 0.73748974E+02</pdfrwt>
<pdfrwt beam="2">  1       22 0.42163530E+00 0.73748974E+02</pdfrwt>
<totfact> 0.11287227E-01</totfact>
</mgrwt>
</event>
<event>
 4    1  0.2496748E+000  0.5589713E+02  0.7957747E-01  0.1415903E+00
         13   -1    0    0    0    0  0.00000000000E+00  0.00000000000E+00  0.99999944173E+02  0.99999999993E+02  0.10566000000E+00 0.  1.
         22   -1    0    0    0    0 -0.00000000000E+00 -0.00000000000E+00 -0.17088105533E+02  0.17088105533E+02  0.00000000000E+00 0. -1.
         13    1    1    2    0    0  0.20749243172E+02 -0.13926895271E+02  0.15060443684E+02  0.29177347928E+02  0.10566000000E+00 0. -1.
        996    1    1    2    0    0 -0.20749243172E+02  0.13926895271E+02  0.67851394956E+02  0.87910757599E+02  0.50000000000E+02 0.  0.
<mgrwt>
<rscale>  0 0.55897133E+02</rscale>
<asrwt>0</asrwt>
<pdfrwt beam="1">  1       13 0.10000000E+01 0.55897133E+02</pdfrwt>
<pdfrwt beam="2">  1       22 0.17088129E+00 0.55897133E+02</pdfrwt>
<totfact> 0.60687605E-01</totfact>
</mgrwt>
</event>
<event>
 4    1  0.2496748E+000  0.5342754E+02  0.7957747E-01  0.1427685E+00
         13   -1    0    0    0    0  0.00000000000E+00  0.00000000000E+00  0.99999944184E+02  0.10000000000E+03  0.10566000000E+00 0.  1.
         22   -1    0    0    0    0 -0.00000000000E+00 -0.00000000000E+00 -0.14329323047E+02  0.14329323047E+02  0.00000000000E+00 0.  1.
         13    1    1    2    0    0  0.39518127150E+01 -0.18408824896E+02  0.39330879131E+02  0.43605399609E+02  0.10566000000E+00 0. -1.
        996    1    1    2    0    0 -0.39518127150E+01  0.18408824896E+02  0.46339742006E+02  0.70723923441E+02  0.50000000000E+02 0.  0.
<mgrwt>
<rscale>  0 0.53427537E+02</rscale>
<asrwt>0</asrwt>
<pdfrwt beam="1">  1       13 0.10000000E+01 0.53427537E+02</pdfrwt>
<pdfrwt beam="2">  1       22 0.14329347E+00 0.53427537E+02</pdfrwt>
<totfact> 0.81433602E-01</totfact>
</mgrwt>
</event>
<event>
 4    1  0.2496748E+000  0.5103529E+02  0.7957747E-01  0.1439836E+00
         13   -1    0    0    0    0  0.00000000000E+00  0.00000000000E+00  0.99999944182E+02  0.10000000000E+03  0.10566000000E+00 0.  1.
         22   -1    0    0    0    0 -0.00000000000E+00 -0.00000000000E+00 -0.94793549906E+01  0.94793549906E+01  0.00000000000E+00 0.  1.
         13    1    1    2    0    0  0.76097372975E+01  0.68332288039E+01  0.19553059769E+02  0.22066590765E+02  0.10566000000E+00 0. -1.
        996    1    1    2    0    0 -0.76097372975E+01 -0.68332288039E+01  0.70967529422E+02  0.87412764228E+02  0.50000000000E+02 0.  0.
<mgrwt>
<rscale>  0 0.51035293E+02</rscale>
<asrwt>0</asrwt>
<pdfrwt beam="1">  1       13 0.10000000E+01 0.51035293E+02</pdfrwt>
<pdfrwt beam="2">  1       22 0.94793803E-01 0.51035293E+02</pdfrwt>
<totfact> 0.15188862E+00</totfact>
</mgrwt>
</event>
<event>
 4    1  0.2496748E+000  0.5099616E+02  0.7957747E-01  0.1440041E+00
         13   -1    0    0    0    0  0.00000000000E+00  0.00000000000E+00  0.99999944179E+02  0.10000000000E+03  0.10566000000E+00 0.  1.
         22   -1    0    0    0    0 -0.00000000000E+00 -0.00000000000E+00 -0.18267012026E+02  0.18267012026E+02  0.00000000000E+00 0. -1.
         13    1    1    2    0    0  0.18334973235E+01  0.98613934778E+01 -0.94571894030E+01  0.13786166588E+02  0.10566000000E+00 0. -1.
        996    1    1    2    0    0 -0.18334973235E+01 -0.98613934778E+01  0.91190121557E+02  0.10448084544E+03  0.50000000000E+02 0.  0.
<mgrwt>
<rscale>  0 0.50996165E+02</rscale>
<asrwt>0</asrwt>
<pdfrwt beam="1">  1       13 0.10000000E+01 0.50996165E+02</pdfrwt>
<pdfrwt beam="2">  1       22 0.18267035E+00 0.50996165E+02</pdfrwt>
<totfact> 0.53403146E-01</totfact>
</mgrwt>
</event>
<event>
 4    1  0.2496748E+000  0.7502166E+02  0.7957747E-01  0.1343804E+00
         13   -1    0    0    0    0  0.00000000000E+00  0.00000000000E+00  0.99999944176E+02  0.99999999996E+02  0.10566000000E+00 0.  1.
         22   -1    0    0    0    0 -0.00000000000E+00 -0.00000000000E+00 -0.65211598002E+02  0.65211598002E+02  0.00000000000E+00 0. -1.
         13    1    1    2    0    0  0.54000320951E+02 -0.14567570627E+02 -0.32283417724E+02  0.64579245898E+02  0.10566000000E+00 0. -1.
        996    1    1    2    0    0 -0.54000320951E+02  0.14567570627E+02  0.67071763897E+02  0.10063235210E+03  0.50000000000E+02 0.  0.
<mgrwt>
<rscale>  0 0.75021655E+02</rscale>
<asrwt>0</asrwt>
<pdfrwt beam="1">  1       13 0.10000000E+01 0.75021655E+02</pdfrwt>
<pdfrwt beam="2">  1       22 0.65211608E+00 0.75021655E+02</pdfrwt>
<totfact> 0.86772473E-02</totfact>
</mgrwt>
</event>
<event>
 4    1  0.2496748E+000  0.5111659E+02  0.7957747E-01  0.1439410E+00
         13   -1    0    0    0    0  0.00000000000E+00  0.00000000000E+00  0.99999944179E+02  0.99999999999E+02  0.10566000000E+00 0.  1.
         22   -1    0    0    0    0 -0.00000000000E+00 -0.00000000000E+00 -0.11187817865E+02  0.11187817865E+02  0.00000000000E+00 0.  1.
         13    1    1    2    0    0 -0.98897901860E+01  0.38855971443E+01  0.25660339438E+01  0.10931674589E+02  0.10566000000E+00 0. -1.
        996    1    1    2    0    0  0.98897901860E+01 -0.38855971443E+01  0.86246092370E+02  0.10025614327E+03  0.50000000000E+02 0.  0.
<mgrwt>
<rscale>  0 0.51116590E+02</rscale>
<asrwt>0</asrwt>
<pdfrwt beam="1">  1       13 0.10000000E+01 0.51116590E+02</pdfrwt>
<pdfrwt beam="2">  1       22 0.11187843E+00 0.51116590E+02</pdfrwt>
<totfact> 0.11927121E+00</totfact>
</mgrwt>
</event>
<event>
 4    1  0.2496748E+000  0.5220855E+02  0.7957747E-01  0.1433781E+00
         13   -1    0    0    0    0  0.00000000000E+00  0.00000000000E+00  0.99999944177E+02  0.99999999997E+02  0.10566000000E+00 0.  1.
         22   -1    0    0    0    0 -0.00000000000E+00 -0.00000000000E+00 -0.20715815621E+02  0.20715815621E+02  0.00000000000E+00 0. -1.
         13    1    1    2    0    0  0.14414326830E+02 -0.42378650820E+01 -0.94589747356E+01  0.17754314560E+02  0.10566000000E+00 0. -1.
        996    1    1    2    0    0 -0.14414326830E+02  0.42378650820E+01  0.88743103291E+02  0.10296150106E+03  0.50000000000E+02 0.  0.
<mgrwt>
<rscale>  0 0.52208546E+02</rscale>
<asrwt>0</asrwt>
<pdfrwt beam="1">  1       13 0.10000000E+01 0.52208546E+02</pdfrwt>
<pdfrwt beam="2">  1       22 0.20715838E+00 0.52208546E+02</pdfrwt>
<totfact> 0.42429783E-01</totfact>
</mgrwt>
</event>
<event>
 4    1  0.2496748E+000  0.5224347E+02  0.7957747E-01  0.1433603E+00
         13   -1    0    0    0    0  0.00000000000E+00  0.00000000000E+00  0.99999944180E+02  0.10000000000E+03  0.10566000000E+00 0.  1.
         22   -1    0    0    0    0 -0.00000000000E+00 -0.00000000000E+00 -0.15518143399E+02  0.15518143399E+02  0.00000000000E+00 0.  1.
         13    1    1    2    0    0  0.24013402097E+01 -0.14953725680E+02 -0.11698097571E+01  0.15190785544E+02  0.10566000000E+00 0. -1.
        996    1    1    2    0    0 -0.24013402097E+01  0.14953725680E+02  0.85651610538E+02  0.10032735786E+03  0.50000000000E+02 0.  0.
<mgrwt>
<rscale>  0 0.52243472E+02</rscale>
<asrwt>0</asrwt>
<pdfrwt beam="1">  1       13 0.10000000E+01 0.52243472E+02</pdfrwt>
<pdfrwt beam="2">  1       22 0.15518167E+00 0.52243472E+02</pdfrwt>
<totfact> 0.71160436E-01</totfact>
</mgrwt>
</event>
<event>
 4    1  0.2496748E+000  0.5395048E+02  0.7957747E-01  0.1425128E+00
         13   -1    0    0    0    0  0.00000000000E+00  0.00000000000E+00  0.99999944185E+02  0.10000000000E+03  0.10566000000E+00 0.  1.
         22   -1    0    0    0    0 -0.00000000000E+00 -0.00000000000E+00 -0.20737074674E+02  0.20737074674E+02  0.00000000000E+00 0. -1.
         13    1    1    2    0    0 -0.15870579246E+02  0.12600758375E+02 -0.48237158887E+01  0.20831077655E+02  0.10566000000E+00 0. -1.
        996    1    1    2    0    0  0.15870579246E+02 -0.12600758375E+02  0.84086585399E+02  0.99905997024E+02  0.50000000000E+02 0.  0.
<mgrwt>
<rscale>  0 0.53950481E+02</rscale>
<asrwt>0</asrwt>
<pdfrwt beam="1">  1       13 0.10000000E+01 0.53950481E+02</pdfrwt>
<pdfrwt beam="2">  1       22 0.20737097E+00 0.53950481E+02</pdfrwt>
<totfact> 0.42475072E-01</totfact>
</mgrwt>
</event>
<event>
 4    1  0.2496748E+000  0.5339996E+02  0.7957747E-01  0.1427821E+00
         13   -1    0    0    0    0  0.00000000000E+00  0.00000000000E+00  0.99999944177E+02  0.99999999997E+02  0.10566000000E+00 0.  1.
         22   -1    0    0    0    0 -0.00000000000E+00 -0.00000000000E+00 -0.14302257127E+02  0.14302257127E+02  0.00000000000E+00 0.  1.
         13    1    1    2    0    0 -0.17124484758E+02 -0.76359196659E+01  0.88779417952E+01  0.20745704662E+02  0.10566000000E+00 0. -1.
        996    1    1    2    0    0  0.17124484758E+02  0.76359196659E+01  0.76819745255E+02  0.93556552461E+02  0.50000000000E+02 0.  0.
<mgrwt>
<rscale>  0 0.53399955E+02</rscale>
<asrwt>0</asrwt>
<pdfrwt beam="1">  1       13 0.10000000E+01 0.53399955E+02</pdfrwt>
<pdfrwt beam="2">  1       22 0.14302281E+00 0.53399955E+02</pdfrwt>
<totfact> 0.81681296E-01</totfact>
</mgrwt>
</event>
<event>
 4    1  0.2496748E+000  0.5135774E+02  0.7957747E-01  0.1438153E+00
         13   -1    0    0    0    0  0.00000000000E+00  0.00000000000E+00  0.99999944182E+02  0.10000000000E+03  0.10566000000E+00 0. -1.
         22   -1    0    0    0    0 -0.00000000000E+00 -0.00000000000E+00 -0.23082582137E+02  0.23082582137E+02  0.00000000000E+00 0. -1.
         13    1    1    2    0    0  0.96907719766E+01  0.66110821492E+01 -0.14241960116E+02  0.18451614040E+02  0.10566000000E+00 0.  1.
        996    1    1    2    0    0 -0.96907719766E+01 -0.66110821492E+01  0.91159322161E+02  0.10463096810E+03  0.50000000000E+02 0.  0.
<mgrwt>
<rscale>  0 0.51357740E+02</rscale>
<asrwt>0</asrwt>
<pdfrwt beam="1">  1       13 0.10000000E+01 0.51357740E+02</pdfrwt>
<pdfrwt beam="2">  1       22 0.23082604E+00 0.51357740E+02</pdfrwt>
<totfact> 0.34428178E-01</totfact>
</mgrwt>
</event>
<event>
 4    1  0.2496748E+000  0.5273295E+02  0.7957747E-01  0.1431134E+00
         13   -1    0    0    0    0  0.00000000000E+00  0.00000000000E+00  0.99999944174E+02  0.99999999994E+02  0.10566000000E+00 0. -1.
         22   -1    0    0    0    0 -0.00000000000E+00 -0.00000000000E+00 -0.17682170454E+02  0.17682170454E+02  0.00000000000E+00 0. -1.
         13    1    1    2    0    0 -0.11845900503E+02  0.11850703553E+02 -0.33474579916E+01  0.17087456583E+02  0.10566000000E+00 0.  1.
        996    1    1    2    0    0  0.11845900503E+02 -0.11850703553E+02  0.85665231712E+02  0.10059471387E+03  0.50000000000E+02 0.  0.
<mgrwt>
<rscale>  0 0.52732955E+02</rscale>
<asrwt>0</asrwt>
<pdfrwt beam="1">  1       13 0.10000000E+01 0.52732955E+02</pdfrwt>
<pdfrwt beam="2">  1       22 0.17682193E+00 0.52732955E+02</pdfrwt>
<totfact> 0.56795748E-01</totfact>
</mgrwt>
</event>
<event>
 4    1  0.2496748E+000  0.5142780E+02  0.7957747E-01  0.1437789E+00
         13   -1    0    0    0    0  0.00000000000E+00  0.00000000000E+00  0.99999944174E+02  0.99999999994E+02  0.10566000000E+00 0.  1.
         22   -1    0    0    0    0 -0.00000000000E+00 -0.00000000000E+00 -0.19483910803E+02  0.19483910803E+02  0.00000000000E+00 0. -1.
         13    1    1    2    0    0  0.97342715045E+01  0.70755214282E+01 -0.98214440409E+01  0.15533543456E+02  0.10566000000E+00 0. -1.
        996    1    1    2    0    0 -0.97342715045E+01 -0.70755214282E+01  0.90337477412E+02  0.10395036734E+03  0.50000000000E+02 0.  0.
<mgrwt>
<rscale>  0 0.51427804E+02</rscale>
<asrwt>0</asrwt>
<pdfrwt beam="1">  1       13 0.10000000E+01 0.51427804E+02</pdfrwt>
<pdfrwt beam="2">  1       22 0.19483933E+00 0.51427804E+02</pdfrwt>
<totfact> 0.47511645E-01</totfact>
</mgrwt>
</event>
<event>
 4    1  0.2496748E+000  0.5247005E+02  0.7957747E-01  0.1432457E+00
         13   -1    0    0    0    0  0.00000000000E+00  0.00000000000E+00  0.99999944178E+02  0.99999999999E+02  0.10566000000E+00 0.  1.
         22   -1    0    0    0    0 -0.00000000000E+00 -0.00000000000E+00 -0.11819945728E+02  0.11819945728E+02  0.00000000000E+00 0.  1.
         13    1    1    2    0    0 -0.48515085019E+01 -0.15151542162E+02  0.15801250605E+02  0.22423136474E+02  0.10566000000E+00 0. -1.
        996    1    1    2    0    0  0.48515085019E+01  0.15151542162E+02  0.72378747846E+02  0.89396809252E+02  0.50000000000E+02 0.  0.
<mgrwt>
<rscale>  0 0.52470052E+02</rscale>
<asrwt>0</asrwt>
<pdfrwt beam="1">  1       13 0.10000000E+01 0.52470052E+02</pdfrwt>
<pdfrwt beam="2">  1       22 0.11819970E+00 0.52470052E+02</pdfrwt>
<totfact> 0.11012135E+00</totfact>
</mgrwt>
</event>
<event>
 4    1  0.2496748E+000  0.5107084E+02  0.7957747E-01  0.1439650E+00
         13   -1    0    0    0    0  0.00000000000E+00  0.00000000000E+00  0.99999944175E+02  0.99999999996E+02  0.10566000000E+00 0.  1.
         22   -1    0    0    0    0 -0.00000000000E+00 -0.00000000000E+00 -0.13659058522E+02  0.13659058522E+02  0.00000000000E+00 0. -1.
         13    1    1    2    0    0 -0.88411363123E+01  0.54831777541E+01 -0.29329182074E+01  0.10809445075E+02  0.10566000000E+00 0. -1.
        996    1    1    2    0    0  0.88411363123E+01 -0.54831777541E+01  0.89273803861E+02  0.10284961344E+03  0.50000000000E+02 0.  0.
<mgrwt>
<rscale>  0 0.51070842E+02</rscale>
<asrwt>0</asrwt>
<pdfrwt beam="1">  1       13 0.10000000E+01 0.51070842E+02</pdfrwt>
<pdfrwt beam="2">  1       22 0.13659083E+00 0.51070842E+02</pdfrwt>
<totfact> 0.87573972E-01</totfact>
</mgrwt>
</event>
<event>
 4    1  0.2496748E+000  0.5255982E+02  0.7957747E-01  0.1432004E+00
         13   -1    0    0    0    0  0.00000000000E+00  0.00000000000E+00  0.99999944171E+02  0.99999999991E+02  0.10566000000E+00 0. -1.
         22   -1    0    0    0    0 -0.00000000000E+00 -0.00000000000E+00 -0.26970613246E+02  0.26970613246E+02  0.00000000000E+00 0.  1.
         13    1    1    2    0    0  0.15253132655E+02 -0.54659581220E+01 -0.16517536388E+02  0.23138170333E+02  0.10566000000E+00 0.  1.
        996    1    1    2    0    0 -0.15253132655E+02  0.54659581220E+01  0.89546867312E+02  0.10383244290E+03  0.50000000000E+02 0.  0.
<mgrwt>
<rscale>  0 0.52559821E+02</rscale>
<asrwt>0</asrwt>
<pdfrwt beam="1">  1       13 0.10000000E+01 0.52559821E+02</pdfrwt>
<pdfrwt beam="2">  1       22 0.26970634E+00 0.52559821E+02</pdfrwt>
<totfact> 0.25417342E-01</totfact>
</mgrwt>
</event>
<event>
 4    1  0.2496748E+000  0.5474809E+02  0.7957747E-01  0.1421294E+00
         13   -1    0    0    0    0  0.00000000000E+00  0.00000000000E+00  0.99999944175E+02  0.99999999995E+02  0.10566000000E+00 0.  1.
         22   -1    0    0    0    0 -0.00000000000E+00 -0.00000000000E+00 -0.16990251196E+02  0.16990251196E+02  0.00000000000E+00 0.  1.
         13    1    1    2    0    0  0.95700283388E+01 -0.20143671615E+02  0.45359817425E+02  0.50545792599E+02  0.10566000000E+00 0. -1.
        996    1    1    2    0    0 -0.95700283388E+01  0.20143671615E+02  0.37649875554E+02  0.66444458593E+02  0.50000000000E+02 0.  0.
<mgrwt>
<rscale>  0 0.54748086E+02</rscale>
<asrwt>0</asrwt>
<pdfrwt beam="1">  1       13 0.10000000E+01 0.54748086E+02</pdfrwt>
<pdfrwt beam="2">  1       22 0.16990274E+00 0.54748086E+02</pdfrwt>
<totfact> 0.61175604E-01</totfact>
</mgrwt>
</event>
<event>
 4    1  0.2496748E+000  0.5496895E+02  0.7957747E-01  0.1420246E+00
         13   -1    0    0    0    0  0.00000000000E+00  0.00000000000E+00  0.99999944174E+02  0.99999999994E+02  0.10566000000E+00 0.  1.
         22   -1    0    0    0    0 -0.00000000000E+00 -0.00000000000E+00 -0.20741702423E+02  0.20741702423E+02  0.00000000000E+00 0. -1.
         13    1    1    2    0    0 -0.50606163069E+01 -0.22270511327E+02 -0.16821303698E+01  0.22900354556E+02  0.10566000000E+00 0. -1.
        996    1    1    2    0    0  0.50606163069E+01  0.22270511327E+02  0.80940372121E+02  0.97841347861E+02  0.50000000000E+02 0.  0.
<mgrwt>
<rscale>  0 0.54968950E+02</rscale>
<asrwt>0</asrwt>
<pdfrwt beam="1">  1       13 0.10000000E+01 0.54968950E+02</pdfrwt>
<pdfrwt beam="2">  1       22 0.20741725E+00 0.54968950E+02</pdfrwt>
<totfact> 0.42529712E-01</totfact>
</mgrwt>
</event>
<event>
 4    1  0.2496748E+000  0.6638632E+02  0.7957747E-01  0.1372831E+00
         13   -1    0    0    0    0  0.00000000000E+00  0.00000000000E+00  0.99999944180E+02  0.10000000000E+03  0.10566000000E+00 0. -1.
         22   -1    0    0    0    0 -0.00000000000E+00 -0.00000000000E+00 -0.30316760190E+02  0.30316760190E+02  0.00000000000E+00 0. -1.
         13    1    1    2    0    0 -0.33818113586E+02  0.27631109540E+02  0.25484452776E+02  0.50562946100E+02  0.10566000000E+00 0.  1.
        996    1    1    2    0    0  0.33818113586E+02 -0.27631109540E+02  0.44198731214E+02  0.79753814090E+02  0.50000000000E+02 0.  0.
<mgrwt>
<rscale>  0 0.66386317E+02</rscale>
<asrwt>0</asrwt>
<pdfrwt beam="1">  1       13 0.10000000E+01 0.66386317E+02</pdfrwt>
<pdfrwt beam="2">  1       22 0.30316780E+00 0.66386317E+02</pdfrwt>
<totfact> 0.20637768E-01</totfact>
</mgrwt>
</event>
<event>
 4    1  0.2496748E+000  0.6192742E+02  0.7957747E-01  0.1389917E+00
         13   -1    0    0    0    0  0.00000000000E+00  0.00000000000E+00  0.99999944183E+02  0.10000000000E+03  0.10566000000E+00 0. -1.
         22   -1    0    0    0    0 -0.00000000000E+00 -0.00000000000E+00 -0.33874211722E+02  0.33874211722E+02  0.00000000000E+00 0.  1.
         13    1    1    2    0    0  0.35395500023E+02 -0.90644510032E+01 -0.78782728879E+01  0.37377587423E+02  0.10566000000E+00 0.  1.
        996    1    1    2    0    0 -0.35395500023E+02  0.90644510032E+01  0.74004005349E+02  0.96496624302E+02  0.50000000000E+02 0.  0.
<mgrwt>
<rscale>  0 0.61927423E+02</rscale>
<asrwt>0</asrwt>
<pdfrwt beam="1">  1       13 0.10000000E+01 0.61927423E+02</pdfrwt>
<pdfrwt beam="2">  1       22 0.33874230E+00 0.61927423E+02</pdfrwt>
<totfact> 0.16803644E-01</totfact>
</mgrwt>
</event>
<event>
 4    1  0.2496748E+000  0.5325630E+02  0.7957747E-01  0.1428530E+00
         13   -1    0    0    0    0  0.00000000000E+00  0.00000000000E+00  0.99999944179E+02  0.10000000000E+03  0.10566000000E+00 0.  1.
         22   -1    0    0    0    0 -0.00000000000E+00 -0.00000000000E+00 -0.16936004086E+02  0.16936004086E+02  0.00000000000E+00 0.  1.
         13    1    1    2    0    0 -0.17499676631E+02  0.54767084046E+01  0.85032089255E-01  0.18337159312E+02  0.10566000000E+00 0. -1.
        996    1    1    2    0    0  0.17499676631E+02 -0.54767084046E+01  0.82978908004E+02  0.98598844774E+02  0.50000000000E+02 0.  0.
<mgrwt>
<rscale>  0 0.53256296E+02</rscale>
<asrwt>0</asrwt>
<pdfrwt beam="1">  1       13 0.10000000E+01 0.53256296E+02</pdfrwt>
<pdfrwt beam="2">  1       22 0.16936027E+00 0.53256296E+02</pdfrwt>
<totfact> 0.61348785E-01</totfact>
</mgrwt>
</event>
<event>
 4    1  0.2496748E+000  0.5790122E+02  0.7957747E-01  0.1406857E+00
         13   -1    0    0    0    0  0.00000000000E+00  0.00000000000E+00  0.99999944175E+02  0.99999999995E+02  0.10566000000E+00 0.  1.
         22   -1    0    0    0    0 -0.00000000000E+00 -0.00000000000E+00 -0.23086982015E+02  0.23086982015E+02  0.00000000000E+00 0. -1.
         13    1    1    2    0    0 -0.17363999244E+02  0.23474288843E+02  0.32309962385E+01  0.29376882189E+02  0.10566000000E+00 0. -1.
        996    1    1    2    0    0  0.17363999244E+02 -0.23474288843E+02  0.73681965921E+02  0.93710099821E+02  0.50000000000E+02 0.  0.
<mgrwt>
<rscale>  0 0.57901215E+02</rscale>
<asrwt>0</asrwt>
<pdfrwt beam="1">  1       13 0.10000000E+01 0.57901215E+02</pdfrwt>
<pdfrwt beam="2">  1       22 0.23087003E+00 0.57901215E+02</pdfrwt>
<totfact> 0.34771612E-01</totfact>
</mgrwt>
</event>
<event>
 4    1  0.2496748E+000  0.5266502E+02  0.7957747E-01  0.1431475E+00
         13   -1    0    0    0    0  0.00000000000E+00  0.00000000000E+00  0.99999944184E+02  0.10000000000E+03  0.10566000000E+00 0.  1.
         22   -1    0    0    0    0 -0.00000000000E+00 -0.00000000000E+00 -0.29332733672E+02  0.29332733672E+02  0.00000000000E+00 0. -1.
         13    1    1    2    0    0 -0.12888402586E+02 -0.10367912201E+02 -0.19093772335E+02  0.25262379750E+02  0.10566000000E+00 0. -1.
        996    1    1    2    0    0  0.12888402586E+02  0.10367912201E+02  0.89760982847E+02  0.10407035393E+03  0.50000000000E+02 0.  0.
<mgrwt>
<rscale>  0 0.52665022E+02</rscale>
<asrwt>0</asrwt>
<pdfrwt beam="1">  1       13 0.10000000E+01 0.52665022E+02</pdfrwt>
<pdfrwt beam="2">  1       22 0.29332753E+00 0.52665022E+02</pdfrwt>
<totfact> 0.21617901E-01</totfact>
</mgrwt>
</event>
<event>
 4    1  0.2496748E+000  0.5382963E+02  0.7957747E-01  0.1425716E+00
         13   -1    0    0    0    0  0.00000000000E+00  0.00000000000E+00  0.99999944177E+02  0.99999999997E+02  0.10566000000E+00 0.  1.
         22   -1    0    0    0    0 -0.00000000000E+00 -0.00000000000E+00 -0.15743513609E+02  0.15743513609E+02  0.00000000000E+00 0. -1.
         13    1    1    2    0    0  0.18822185397E+02  0.65843988030E+01  0.61184553921E+01  0.20858466654E+02  0.10566000000E+00 0. -1.
        996    1    1    2    0    0 -0.18822185397E+02 -0.65843988030E+01  0.78137975175E+02  0.94885046953E+02  0.50000000000E+02 0.  0.
<mgrwt>
<rscale>  0 0.53829629E+02</rscale>
<asrwt>0</asrwt>
<pdfrwt beam="1">  1       13 0.10000000E+01 0.53829629E+02</pdfrwt>
<pdfrwt beam="2">  1       22 0.15743537E+00 0.53829629E+02</pdfrwt>
<totfact> 0.69660072E-01</totfact>
</mgrwt>
</event>
<event>
 4    1  0.2496748E+000  0.5154743E+02  0.7957747E-01  0.1437169E+00
         13   -1    0    0    0    0  0.00000000000E+00  0.00000000000E+00  0.99999944180E+02  0.10000000000E+03  0.10566000000E+00 0. -1.
         22   -1    0    0    0    0 -0.00000000000E+00 -0.00000000000E+00 -0.26175785926E+02  0.26175785926E+02  0.00000000000E+00 0.  1.
         13    1    1    2    0    0  0.10451385391E+02  0.69214354717E+01 -0.17370059399E+02  0.21421201020E+02  0.10566000000E+00 0.  1.
        996    1    1    2    0    0 -0.10451385391E+02 -0.69214354717E+01  0.91194217653E+02  0.10475458491E+03  0.50000000000E+02 0.  0.
<mgrwt>
<rscale>  0 0.51547432E+02</rscale>
<asrwt>0</asrwt>
<pdfrwt beam="1">  1       13 0.10000000E+01 0.51547432E+02</pdfrwt>
<pdfrwt beam="2">  1       22 0.26175807E+00 0.51547432E+02</pdfrwt>
<totfact> 0.26912208E-01</totfact>
</mgrwt>
</event>
<event>
 4    1  0.2496748E+000  0.5875265E+02  0.7957747E-01  0.1403142E+00
         13   -1    0    0    0    0  0.00000000000E+00  0.00000000000E+00  0.99999944184E+02  0.10000000000E+03  0.10566000000E+00 0. -1.
         22   -1    0    0    0    0 -0.00000000000E+00 -0.00000000000E+00 -0.20848843373E+02  0.20848843373E+02  0.00000000000E+00 0.  1.
         13    1    1    2    0    0  0.18749860360E+02  0.24501362229E+02  0.16611055266E+02  0.35040153192E+02  0.10566000000E+00 0.  1.
        996    1    1    2    0    0 -0.18749860360E+02 -0.24501362229E+02  0.62540045545E+02  0.85808690185E+02  0.50000000000E+02 0.  0.
<mgrwt>
<rscale>  0 0.58752651E+02</rscale>
<asrwt>0</asrwt>
<pdfrwt beam="1">  1       13 0.10000000E+01 0.58752651E+02</pdfrwt>
<pdfrwt beam="2">  1       22 0.20848865E+00 0.58752651E+02</pdfrwt>
<totfact> 0.42371986E-01</totfact>
</mgrwt>
</event>
<event>
 4    1  0.2496748E+000  0.5124461E+02  0.7957747E-01  0.1438742E+00
         13   -1    0    0    0    0  0.00000000000E+00  0.00000000000E+00  0.99999944181E+02  0.10000000000E+03  0.10566000000E+00 0.  1.
         22   -1    0    0    0    0 -0.00000000000E+00 -0.00000000000E+00 -0.98948729533E+01  0.98948729533E+01  0.00000000000E+00 0.  1.
         13    1    1    2    0    0  0.44997424922E+01  0.10284085572E+02  0.11580050677E+02  0.16128200032E+02  0.10566000000E+00 0. -1.
        996    1    1    2    0    0 -0.44997424922E+01 -0.10284085572E+02  0.78525020551E+02  0.93766672923E+02  0.50000000000E+02 0.  0.
<mgrwt>
<rscale>  0 0.51244610E+02</rscale>
<asrwt>0</asrwt>
<pdfrwt beam="1">  1       13 0.10000000E+01 0.51244610E+02</pdfrwt>
<pdfrwt beam="2">  1       22 0.98948981E-01 0.51244610E+02</pdfrwt>
<totfact> 0.14288845E+00</totfact>
</mgrwt>
</event>
<event>
 4    1  0.2496748E+000  0.5268273E+02  0.7957747E-01  0.1431386E+00
         13   -1    0    0    0    0  0.00000000000E+00  0.00000000000E+00  0.99999944180E+02  0.10000000000E+03  0.10566000000E+00 0. -1.
         22   -1    0    0    0    0 -0.00000000000E+00 -0.00000000000E+00 -0.12589209053E+02  0.12589209053E+02  0.00000000000E+00 0. -1.
         13    1    1    2    0    0 -0.15957743337E+02 -0.45629141527E+01  0.11515683165E+02  0.20201284137E+02  0.10566000000E+00 0.  1.
        996    1    1    2    0    0  0.15957743337E+02  0.45629141527E+01  0.75895051962E+02  0.92387924916E+02  0.50000000000E+02 0.  0.
<mgrwt>
<rscale>  0 0.52682727E+02</rscale>
<asrwt>0</asrwt>
<pdfrwt beam="1">  1       13 0.10000000E+01 0.52682727E+02</pdfrwt>
<pdfrwt beam="2">  1       22 0.12589233E+00 0.52682727E+02</pdfrwt>
<totfact> 0.99971652E-01</totfact>
</mgrwt>
</event>
<event>
 4    1  0.2496748E+000  0.5916759E+02  0.7957747E-01  0.1401359E+00
         13   -1    0    0    0    0  0.00000000000E+00  0.00000000000E+00  0.99999944179E+02  0.99999999999E+02  0.10566000000E+00 0.  1.
         22   -1    0    0    0    0 -0.00000000000E+00 -0.00000000000E+00 -0.26260274311E+02  0.26260274311E+02  0.00000000000E+00 0. -1.
         13    1    1    2    0    0 -0.16378361048E+02 -0.27065714228E+02 -0.10463899221E+00  0.31635829539E+02  0.10566000000E+00 0. -1.
        996    1    1    2    0    0  0.16378361048E+02  0.27065714228E+02  0.73844308860E+02  0.94624444771E+02  0.50000000000E+02 0.  0.
<mgrwt>
<rscale>  0 0.59167589E+02</rscale>
<asrwt>0</asrwt>
<pdfrwt beam="1">  1       13 0.10000000E+01 0.59167589E+02</pdfrwt>
<pdfrwt beam="2">  1       22 0.26260295E+00 0.59167589E+02</pdfrwt>
<totfact> 0.27032271E-01</totfact>
</mgrwt>
</event>
<event>
 4    1  0.2496748E+000  0.5220297E+02  0.7957747E-01  0.1433809E+00
         13   -1    0    0    0    0  0.00000000000E+00  0.00000000000E+00  0.99999944180E+02  0.10000000000E+03  0.10566000000E+00 0. -1.
         22   -1    0    0    0    0 -0.00000000000E+00 -0.00000000000E+00 -0.11554537711E+02  0.11554537711E+02  0.00000000000E+00 0. -1.
         13    1    1    2    0    0  0.14983045999E+02  0.81154654242E+00  0.13269834426E+02  0.20031224250E+02  0.10566000000E+00 0.  1.
        996    1    1    2    0    0 -0.14983045999E+02 -0.81154654242E+00  0.75175572043E+02  0.91523313462E+02  0.50000000000E+02 0.  0.
<mgrwt>
<rscale>  0 0.52202972E+02</rscale>
<asrwt>0</asrwt>
<pdfrwt beam="1">  1       13 0.10000000E+01 0.52202972E+02</pdfrwt>
<pdfrwt beam="2">  1       22 0.11554562E+00 0.52202972E+02</pdfrwt>
<totfact> 0.11391209E+00</totfact>
</mgrwt>
</event>
<event>
 4    1  0.2496748E+000  0.5422411E+02  0.7957747E-01  0.1423804E+00
         13   -1    0    0    0    0  0.00000000000E+00  0.00000000000E+00  0.99999944180E+02  0.10000000000E+03  0.10566000000E+00 0.  1.
         22   -1    0    0    0    0 -0.00000000000E+00 -0.00000000000E+00 -0.15097140942E+02  0.15097140942E+02  0.00000000000E+00 0. -1.
         13    1    1    2    0    0  0.13862523165E+01 -0.20936377247E+02  0.11780047818E+02  0.24063131100E+02  0.10566000000E+00 0. -1.
        996    1    1    2    0    0 -0.13862523165E+01  0.20936377247E+02  0.73122755420E+02  0.91034009842E+02  0.50000000000E+02 0.  0.
<mgrwt>
<rscale>  0 0.54224105E+02</rscale>
<asrwt>0</asrwt>
<pdfrwt beam="1">  1       13 0.10000000E+01 0.54224105E+02</pdfrwt>
<pdfrwt beam="2">  1       22 0.15097165E+00 0.54224105E+02</pdfrwt>
<totfact> 0.74817260E-01</totfact>
</mgrwt>
</event>
<event>
 4    1  0.2496748E+000  0.5388140E+02  0.7957747E-01  0.1425464E+00
         13   -1    0    0    0    0  0.00000000000E+00  0.00000000000E+00  0.99999944179E+02  0.99999999999E+02  0.10566000000E+00 0. -1.
         22   -1    0    0    0    0 -0.00000000000E+00 -0.00000000000E+00 -0.13925963985E+02  0.13925963985E+02  0.00000000000E+00 0. -1.
         13    1    1    2    0    0  0.15825917105E+02 -0.12359035776E+02  0.30528994392E+02  0.36540882312E+02  0.10566000000E+00 0.  1.
        996    1    1    2    0    0 -0.15825917105E+02  0.12359035776E+02  0.55544985802E+02  0.77385081671E+02  0.50000000000E+02 0.  0.
<mgrwt>
<rscale>  0 0.53881401E+02</rscale>
<asrwt>0</asrwt>
<pdfrwt beam="1">  1       13 0.10000000E+01 0.53881401E+02</pdfrwt>
<pdfrwt beam="2">  1       22 0.13925988E+00 0.53881401E+02</pdfrwt>
<totfact> 0.85385907E-01</totfact>
</mgrwt>
</event>
<event>
 4    1  0.2496748E+000  0.5274547E+02  0.7957747E-01  0.1431072E+00
         13   -1    0    0    0    0  0.00000000000E+00  0.00000000000E+00  0.99999944181E+02  0.10000000000E+03  0.10566000000E+00 0. -1.
         22   -1    0    0    0    0 -0.00000000000E+00 -0.00000000000E+00 -0.12164244079E+02  0.12164244079E+02  0.00000000000E+00 0.  1.
         13    1    1    2    0    0 -0.16477428404E+02 -0.32525740210E+01  0.17596176385E+02  0.24325325732E+02  0.10566000000E+00 0.  1.
        996    1    1    2    0    0  0.16477428404E+02  0.32525740210E+01  0.70239523717E+02  0.87838918348E+02  0.50000000000E+02 0.  0.
<mgrwt>
<rscale>  0 0.52745473E+02</rscale>
<asrwt>0</asrwt>
<pdfrwt beam="1">  1       13 0.10000000E+01 0.52745473E+02</pdfrwt>
<pdfrwt beam="2">  1       22 0.12164269E+00 0.52745473E+02</pdfrwt>
<totfact> 0.10544684E+00</totfact>
</mgrwt>
</event>
<event>
 4    1  0.2496748E+000  0.5164814E+02  0.7957747E-01  0.1436649E+00
         13   -1    0    0    0    0  0.00000000000E+00  0.00000000000E+00  0.99999944176E+02  0.99999999996E+02  0.10566000000E+00 0.  1.
         22   -1    0    0    0    0 -0.00000000000E+00 -0.00000000000E+00 -0.18671303590E+02  0.18671303590E+02  0.00000000000E+00 0.  1.
         13    1    1    2    0    0 -0.12897044832E+02 -0.10939538987E+01 -0.81932649439E+01  0.15318983485E+02  0.10566000000E+00 0. -1.
        996    1    1    2    0    0  0.12897044832E+02  0.10939538987E+01  0.89521905530E+02  0.10335232010E+03  0.50000000000E+02 0.  0.
<mgrwt>
<rscale>  0 0.51648141E+02</rscale>
<asrwt>0</asrwt>
<pdfrwt beam="1">  1       13 0.10000000E+01 0.51648141E+02</pdfrwt>
<pdfrwt beam="2">  1       22 0.18671326E+00 0.51648141E+02</pdfrwt>
<totfact> 0.51391436E-01</totfact>
</mgrwt>
</event>
<event>
 4    1  0.2496748E+000  0.5430389E+02  0.7957747E-01  0.1423420E+00
         13   -1    0    0    0    0  0.00000000000E+00  0.00000000000E+00  0.99999944175E+02  0.99999999995E+02  0.10566000000E+00 0. -1.
         22   -1    0    0    0    0 -0.00000000000E+00 -0.00000000000E+00 -0.24484547043E+02  0.24484547043E+02  0.00000000000E+00 0.  1.
         13    1    1    2    0    0  0.17701525398E+02  0.11643390243E+02 -0.98066052934E+01  0.23347231296E+02  0.10566000000E+00 0.  1.
        996    1    1    2    0    0 -0.17701525398E+02 -0.11643390243E+02  0.85322002425E+02  0.10113731574E+03  0.50000000000E+02 0.  0.
<mgrwt>
<rscale>  0 0.54303891E+02</rscale>
<asrwt>0</asrwt>
<pdfrwt beam="1">  1       13 0.10000000E+01 0.54303891E+02</pdfrwt>
<pdfrwt beam="2">  1       22 0.24484568E+00 0.54303891E+02</pdfrwt>
<totfact> 0.30821991E-01</totfact>
</mgrwt>
</event>
<event>
 4    1  0.2496748E+000  0.5114576E+02  0.7957747E-01  0.1439258E+00
         13   -1    0    0    0    0  0.00000000000E+00  0.00000000000E+00  0.99999944178E+02  0.99999999998E+02  0.10566000000E+00 0. -1.
         22   -1    0    0    0    0 -0.00000000000E+00 -0.00000000000E+00 -0.11474549815E+02  0.11474549815E+02  0.00000000000E+00 0.  1.
         13    1    1    2    0    0  0.70938048093E+01 -0.80973008579E+01  0.19803670861E+01  0.10946294610E+02  0.10566000000E+00 0.  1.
        996    1    1    2    0    0 -0.70938048093E+01  0.80973008579E+01  0.86545027277E+02  0.10052825520E+03  0.50000000000E+02 0.  0.
<mgrwt>
<rscale>  0 0.51145756E+02</rscale>
<asrwt>0</asrwt>
<pdfrwt beam="1">  1       13 0.10000000E+01 0.51145756E+02</pdfrwt>
<pdfrwt beam="2">  1       22 0.11474575E+00 0.51145756E+02</pdfrwt>
<totfact> 0.11483443E+00</totfact>
</mgrwt>
</event>
<event>
 4    1  0.2496748E+000  0.5248118E+02  0.7957747E-01  0.1432400E+00
         13   -1    0    0    0    0  0.00000000000E+00  0.00000000000E+00  0.99999944177E+02  0.99999999997E+02  0.10566000000E+00 0.  1.
         22   -1    0    0    0    0 -0.00000000000E+00 -0.00000000000E+00 -0.16364522549E+02  0.16364522549E+02  0.00000000000E+00 0. -1.
         13    1    1    2    0    0  0.15236840161E+02 -0.47024120211E+01 -0.18516232636E+01  0.16053462232E+02  0.10566000000E+00 0. -1.
        996    1    1    2    0    0 -0.15236840161E+02  0.47024120211E+01  0.85487044892E+02  0.10031106031E+03  0.50000000000E+02 0.  0.
<mgrwt>
<rscale>  0 0.52481177E+02</rscale>
<asrwt>0</asrwt>
<pdfrwt beam="1">  1       13 0.10000000E+01 0.52481177E+02</pdfrwt>
<pdfrwt beam="2">  1       22 0.16364546E+00 0.52481177E+02</pdfrwt>
<totfact> 0.65023534E-01</totfact>
</mgrwt>
</event>
<event>
 4    1  0.2496748E+000  0.5102609E+02  0.7957747E-01  0.1439884E+00
         13   -1    0    0    0    0  0.00000000000E+00  0.00000000000E+00  0.99999944179E+02  0.99999999999E+02  0.10566000000E+00 0.  1.
         22   -1    0    0    0    0 -0.00000000000E+00 -0.00000000000E+00 -0.25536726487E+02  0.25536726487E+02  0.00000000000E+00 0. -1.
         13    1    1    2    0    0  0.10053320995E+02  0.16102650622E+01 -0.17568631922E+02  0.20305915598E+02  0.10566000000E+00 0. -1.
        996    1    1    2    0    0 -0.10053320995E+02 -0.16102650622E+01  0.92031849614E+02  0.10523081089E+03  0.50000000000E+02 0.  0.
<mgrwt>
<rscale>  0 0.51026093E+02</rscale>
<asrwt>0</asrwt>
<pdfrwt beam="1">  1       13 0.10000000E+01 0.51026093E+02</pdfrwt>
<pdfrwt beam="2">  1       22 0.25536747E+00 0.51026093E+02</pdfrwt>
<totfact> 0.28229555E-01</totfact>
</mgrwt>
</event>
<event>
 4    1  0.2496748E+000  0.5250263E+02  0.7957747E-01  0.1432292E+00
         13   -1    0    0    0    0  0.00000000000E+00  0.00000000000E+00  0.99999944176E+02  0.99999999996E+02  0.10566000000E+00 0.  1.
         22   -1    0    0    0    0 -0.00000000000E+00 -0.00000000000E+00 -0.19661740090E+02  0.19661740090E+02  0.00000000000E+00 0. -1.
         13    1    1    2    0    0  0.15779803994E+02 -0.27429465732E+01 -0.72199500771E+01  0.17568859187E+02  0.10566000000E+00 0. -1.
        996    1    1    2    0    0 -0.15779803994E+02  0.27429465732E+01  0.87558154162E+02  0.10209288090E+03  0.50000000000E+02 0.  0.
<mgrwt>
<rscale>  0 0.52502628E+02</rscale>
<asrwt>0</asrwt>
<pdfrwt beam="1">  1       13 0.10000000E+01 0.52502628E+02</pdfrwt>
<pdfrwt beam="2">  1       22 0.19661763E+00 0.52502628E+02</pdfrwt>
<totfact> 0.46810619E-01</totfact>
</mgrwt>
</event>
<event>
 4    1  0.2496748E+000  0.5585438E+02  0.7957747E-01  0.1416101E+00
         13   -1    0    0    0    0  0.00000000000E+00  0.00000000000E+00  0.99999944178E+02  0.99999999998E+02  0.10566000000E+00 0. -1.
         22   -1    0    0    0    0 -0.00000000000E+00 -0.00000000000E+00 -0.18988090421E+02  0.18988090421E+02  0.00000000000E+00 0.  1.
         13    1    1    2    0    0 -0.23130646415E+02  0.92024482820E+01  0.62517936552E+01  0.25667254351E+02  0.10566000000E+00 0.  1.
        996    1    1    2    0    0  0.23130646415E+02 -0.92024482820E+01  0.74760060102E+02  0.93320836068E+02  0.50000000000E+02 0.  0.
<mgrwt>
<rscale>  0 0.55854381E+02</rscale>
<asrwt>0</asrwt>
<pdfrwt beam="1">  1       13 0.10000000E+01 0.55854381E+02</pdfrwt>
<pdfrwt beam="2">  1       22 0.18988113E+00 0.55854381E+02</pdfrwt>
<totfact> 0.50212304E-01</totfact>
</mgrwt>
</event>
<event>
 4    1  0.2496748E+000  0.5278356E+02  0.7957747E-01  0.1430881E+00
         13   -1    0    0    0    0  0.00000000000E+00  0.00000000000E+00  0.99999944176E+02  0.99999999996E+02  0.10566000000E+00 0.  1.
         22   -1    0    0    0    0 -0.00000000000E+00 -0.00000000000E+00 -0.12273225811E+02  0.12273225811E+02  0.00000000000E+00 0. -1.
         13    1    1    2    0    0 -0.16515822644E+02 -0.36512985027E+01  0.16591430623E+02  0.23693693518E+02  0.10566000000E+00 0. -1.
        996    1    1    2    0    0  0.16515822644E+02  0.36512985027E+01  0.71135287742E+02  0.88579532289E+02  0.50000000000E+02 0.  0.
<mgrwt>
<rscale>  0 0.52783562E+02</rscale>
<asrwt>0</asrwt>
<pdfrwt beam="1">  1       13 0.10000000E+01 0.52783562E+02</pdfrwt>
<pdfrwt beam="2">  1       22 0.12273250E+00 0.52783562E+02</pdfrwt>
<totfact> 0.10401516E+00</totfact>
</mgrwt>
</event>
<event>
 4    1  0.2496748E+000  0.5236768E+02  0.7957747E-01  0.1432974E+00
         13   -1    0    0    0    0  0.00000000000E+00  0.00000000000E+00  0.99999944189E+02  0.10000000001E+03  0.10566000000E+00 0. -1.
         22   -1    0    0    0    0 -0.00000000000E+00 -0.00000000000E+00 -0.19572887628E+02  0.19572887628E+02  0.00000000000E+00 0.  1.
         13    1    1    2    0    0 -0.33051380141E+01 -0.15213475276E+02 -0.74624765488E+01  0.17264804880E+02  0.10566000000E+00 0.  1.
        996    1    1    2    0    0  0.33051380141E+01  0.15213475276E+02  0.87889533110E+02  0.10230808276E+03  0.50000000000E+02 0.  0.
<mgrwt>
<rscale>  0 0.52367679E+02</rscale>
<asrwt>0</asrwt>
<pdfrwt beam="1">  1       13 0.10000000E+01 0.52367679E+02</pdfrwt>
<pdfrwt beam="2">  1       22 0.19572910E+00 0.52367679E+02</pdfrwt>
<totfact> 0.47193683E-01</totfact>
</mgrwt>
</event>
<event>
 4    1  0.2496748E+000  0.5138090E+02  0.7957747E-01  0.1438033E+00
         13   -1    0    0    0    0  0.00000000000E+00  0.00000000000E+00  0.99999944175E+02  0.99999999995E+02  0.10566000000E+00 0. -1.
         22   -1    0    0    0    0 -0.00000000000E+00 -0.00000000000E+00 -0.15751743235E+02  0.15751743235E+02  0.00000000000E+00 0.  1.
         13    1    1    2    0    0  0.10975313635E+02  0.44203635198E+01 -0.49397434126E+01  0.12822221027E+02  0.10566000000E+00 0.  1.
        996    1    1    2    0    0 -0.10975313635E+02 -0.44203635198E+01  0.89187944353E+02  0.10292952220E+03  0.50000000000E+02 0.  0.
<mgrwt>
<rscale>  0 0.51380902E+02</rscale>
<asrwt>0</asrwt>
<pdfrwt beam="1">  1       13 0.10000000E+01 0.51380902E+02</pdfrwt>
<pdfrwt beam="2">  1       22 0.15751767E+00 0.51380902E+02</pdfrwt>
<totfact> 0.69261968E-01</totfact>
</mgrwt>
</event>
<event>
 4    1  0.2496748E+000  0.5197566E+02  0.7957747E-01  0.1434968E+00
         13   -1    0    0    0    0  0.00000000000E+00  0.00000000000E+00  0.99999944178E+02  0.99999999998E+02  0.10566000000E+00 0.  1.
         22   -1    0    0    0    0 -0.00000000000E+00 -0.00000000000E+00 -0.14035578345E+02  0.14035578345E+02  0.00000000000E+00 0. -1.
         13    1    1    2    0    0 -0.13336586567E+02 -0.48584174201E+01  0.74150996538E+00  0.14213717394E+02  0.10566000000E+00 0. -1.
        996    1    1    2    0    0  0.13336586567E+02  0.48584174201E+01  0.85222855868E+02  0.99821860949E+02  0.50000000000E+02 0.  0.
<mgrwt>
<rscale>  0 0.51975655E+02</rscale>
<asrwt>0</asrwt>
<pdfrwt beam="1">  1       13 0.10000000E+01 0.51975655E+02</pdfrwt>
<pdfrwt beam="2">  1       22 0.14035602E+00 0.51975655E+02</pdfrwt>
<totfact> 0.83976955E-01</totfact>
</mgrwt>
</event>
<event>
 4    1  0.2496748E+000  0.5135969E+02  0.7957747E-01  0.1438143E+00
         13   -1    0    0    0    0  0.00000000000E+00  0.00000000000E+00  0.99999944188E+02  0.10000000001E+03  0.10566000000E+00 0.  1.
         22   -1    0    0    0    0 -0.00000000000E+00 -0.00000000000E+00 -0.10045577048E+02  0.10045577048E+02  0.00000000000E+00 0.  1.
         13    1    1    2    0    0  0.11316386312E+02  0.31237003350E+01  0.12891581423E+02  0.17436230630E+02  0.10566000000E+00 0. -1.
        996    1    1    2    0    0 -0.11316386312E+02 -0.31237003350E+01  0.77062785717E+02  0.92609346426E+02  0.50000000000E+02 0.  0.
<mgrwt>
<rscale>  0 0.51359693E+02</rscale>
<asrwt>0</asrwt>
<pdfrwt beam="1">  1       13 0.10000000E+01 0.51359693E+02</pdfrwt>
<pdfrwt beam="2">  1       22 0.10045602E+00 0.51359693E+02</pdfrwt>
<totfact> 0.13983627E+00</totfact>
</mgrwt>
</event>
<event>
 4    1  0.2496748E+000  0.7188504E+02  0.7957747E-01  0.1353798E+00
         13   -1    0    0    0    0  0.00000000000E+00  0.00000000000E+00  0.99999944180E+02  0.10000000000E+03  0.10566000000E+00 0.  1.
         22   -1    0    0    0    0 -0.00000000000E+00 -0.00000000000E+00 -0.61504676141E+02  0.61504676141E+02  0.00000000000E+00 0. -1.
         13    1    1    2    0    0 -0.50815861247E+02 -0.92307889701E+01  0.66635875311E+02  0.84307830371E+02  0.10566000000E+00 0. -1.
        996    1    1    2    0    0  0.50815861247E+02  0.92307889701E+01 -0.28140607271E+02  0.77196845771E+02  0.50000000000E+02 0.  0.
<mgrwt>
<rscale>  0 0.71885042E+02</rscale>
<asrwt>0</asrwt>
<pdfrwt beam="1">  1       13 0.10000000E+01 0.71885042E+02</pdfrwt>
<pdfrwt beam="2">  1       22 0.61504687E+00 0.71885042E+02</pdfrwt>
<totfact> 0.70142778E-02</totfact>
</mgrwt>
</event>
<event>
 4    1  0.2496748E+000  0.5203318E+02  0.7957747E-01  0.1434674E+00
         13   -1    0    0    0    0  0.00000000000E+00  0.00000000000E+00  0.99999944182E+02  0.10000000000E+03  0.10566000000E+00 0. -1.
         22   -1    0    0    0    0 -0.00000000000E+00 -0.00000000000E+00 -0.12816788751E+02  0.12816788751E+02  0.00000000000E+00 0.  1.
         13    1    1    2    0    0  0.13516660013E+02  0.49751109861E+01  0.44391830498E+01  0.15072137786E+02  0.10566000000E+00 0.  1.
        996    1    1    2    0    0 -0.13516660013E+02 -0.49751109861E+01  0.82743972382E+02  0.97744650967E+02  0.50000000000E+02 0.  0.
<mgrwt>
<rscale>  0 0.52033180E+02</rscale>
<asrwt>0</asrwt>
<pdfrwt beam="1">  1       13 0.10000000E+01 0.52033180E+02</pdfrwt>
<pdfrwt beam="2">  1       22 0.12816813E+00 0.52033180E+02</pdfrwt>
<totfact> 0.97074533E-01</totfact>
</mgrwt>
</event>
<event>
 4    1  0.2496748E+000  0.5211038E+02  0.7957747E-01  0.1434280E+00
         13   -1    0    0    0    0  0.00000000000E+00  0.00000000000E+00  0.99999944186E+02  0.10000000001E+03  0.10566000000E+00 0. -1.
         22   -1    0    0    0    0 -0.00000000000E+00 -0.00000000000E+00 -0.22197723341E+02  0.22197723341E+02  0.00000000000E+00 0.  1.
         13    1    1    2    0    0  0.14529620088E+02 -0.20933003428E+01 -0.11604774580E+02  0.18712929308E+02  0.10566000000E+00 0.  1.
        996    1    1    2    0    0 -0.14529620088E+02  0.20933003428E+01  0.89406995425E+02  0.10348479404E+03  0.50000000000E+02 0.  0.
<mgrwt>
<rscale>  0 0.52110381E+02</rscale>
<asrwt>0</asrwt>
<pdfrwt beam="1">  1       13 0.10000000E+01 0.52110381E+02</pdfrwt>
<pdfrwt beam="2">  1       22 0.22197745E+00 0.52110381E+02</pdfrwt>
<totfact> 0.37182197E-01</totfact>
</mgrwt>
</event>
<event>
 4    1  0.2496748E+000  0.5268901E+02  0.7957747E-01  0.1431355E+00
         13   -1    0    0    0    0  0.00000000000E+00  0.00000000000E+00  0.99999944183E+02  0.10000000000E+03  0.10566000000E+00 0. -1.
         22   -1    0    0    0    0 -0.00000000000E+00 -0.00000000000E+00 -0.63869477149E+02  0.63869477149E+02  0.00000000000E+00 0.  1.
         13    1    1    2    0    0  0.16262996404E+02  0.34127809894E+01 -0.55629365568E+02  0.58058329322E+02  0.10566000000E+00 0.  1.
        996    1    1    2    0    0 -0.16262996404E+02 -0.34127809894E+01  0.91759832602E+02  0.10581114783E+03  0.50000000000E+02 0.  0.
<mgrwt>
<rscale>  0 0.52689013E+02</rscale>
<asrwt>0</asrwt>
<pdfrwt beam="1">  1       13 0.10000000E+01 0.52689013E+02</pdfrwt>
<pdfrwt beam="2">  1       22 0.63869487E+00 0.52689013E+02</pdfrwt>
<totfact> 0.82842142E-02</totfact>
</mgrwt>
</event>
<event>
 4    1  0.2496748E+000  0.5474410E+02  0.7957747E-01  0.1421313E+00
         13   -1    0    0    0    0  0.00000000000E+00  0.00000000000E+00  0.99999944183E+02  0.10000000000E+03  0.10566000000E+00 0. -1.
         22   -1    0    0    0    0 -0.00000000000E+00 -0.00000000000E+00 -0.24938928163E+02  0.24938928163E+02  0.00000000000E+00 0.  1.
         13    1    1    2    0    0 -0.58667437489E+01 -0.21505761598E+02 -0.94776367474E+01  0.24222989627E+02  0.10566000000E+00 0.  1.
        996    1    1    2    0    0  0.58667437489E+01  0.21505761598E+02  0.84538652767E+02  0.10071593854E+03  0.50000000000E+02 0.  0.
<mgrwt>
<rscale>  0 0.54744100E+02</rscale>
<asrwt>0</asrwt>
<pdfrwt beam="1">  1       13 0.10000000E+01 0.54744100E+02</pdfrwt>
<pdfrwt beam="2">  1       22 0.24938949E+00 0.54744100E+02</pdfrwt>
<totfact> 0.29746127E-01</totfact>
</mgrwt>
</event>
<event>
 4    1  0.2496748E+000  0.6089212E+02  0.7957747E-01  0.1394126E+00
         13   -1    0    0    0    0  0.00000000000E+00  0.00000000000E+00  0.99999944172E+02  0.99999999992E+02  0.10566000000E+00 0.  1.
         22   -1    0    0    0    0 -0.00000000000E+00 -0.00000000000E+00 -0.30891232233E+02  0.30891232233E+02  0.00000000000E+00 0.  1.
         13    1    1    2    0    0 -0.24258501971E+02  0.24887258094E+02 -0.48495799095E+01  0.35091026241E+02  0.10566000000E+00 0. -1.
        996    1    1    2    0    0  0.24258501971E+02 -0.24887258094E+02  0.73958291849E+02  0.95800205984E+02  0.50000000000E+02 0.  0.
<mgrwt>
<rscale>  0 0.60892122E+02</rscale>
<asrwt>0</asrwt>
<pdfrwt beam="1">  1       13 0.10000000E+01 0.60892122E+02</pdfrwt>
<pdfrwt beam="2">  1       22 0.30891252E+00 0.60892122E+02</pdfrwt>
<totfact> 0.19816305E-01</totfact>
</mgrwt>
</event>
<event>
 4    1  0.2496748E+000  0.5205656E+02  0.7957747E-01  0.1434554E+00
         13   -1    0    0    0    0  0.00000000000E+00  0.00000000000E+00  0.99999944183E+02  0.10000000000E+03  0.10566000000E+00 0. -1.
         22   -1    0    0    0    0 -0.00000000000E+00 -0.00000000000E+00 -0.15462001225E+02  0.15462001225E+02  0.00000000000E+00 0.  1.
         13    1    1    2    0    0  0.56305870770E+01  0.13348468770E+02 -0.18463928339E+01  0.14604980652E+02  0.10566000000E+00 0.  1.
        996    1    1    2    0    0 -0.56305870770E+01 -0.13348468770E+02  0.86384335791E+02  0.10085702058E+03  0.50000000000E+02 0.  0.
<mgrwt>
<rscale>  0 0.52056557E+02</rscale>
<asrwt>0</asrwt>
<pdfrwt beam="1">  1       13 0.10000000E+01 0.52056557E+02</pdfrwt>
<pdfrwt beam="2">  1       22 0.15462025E+00 0.52056557E+02</pdfrwt>
<totfact> 0.71569941E-01</totfact>
</mgrwt>
</event>
<event>
 4    1  0.2496748E+000  0.5178568E+02  0.7957747E-01  0.1435941E+00
         13   -1    0    0    0    0  0.00000000000E+00  0.00000000000E+00  0.99999944174E+02  0.99999999994E+02  0.10566000000E+00 0. -1.
         22   -1    0    0    0    0 -0.00000000000E+00 -0.00000000000E+00 -0.49737885218E+02  0.49737885218E+02  0.00000000000E+00 0.  1.
         13    1    1    2    0    0 -0.72508326403E+01  0.11365844146E+02 -0.41904116174E+02  0.44019576366E+02  0.10566000000E+00 0.  1.
        996    1    1    2    0    0  0.72508326403E+01 -0.11365844146E+02  0.92166175130E+02  0.10571830885E+03  0.50000000000E+02 0.  0.
<mgrwt>
<rscale>  0 0.51785683E+02</rscale>
<asrwt>0</asrwt>
<pdfrwt beam="1">  1       13 0.10000000E+01 0.51785683E+02</pdfrwt>
<pdfrwt beam="2">  1       22 0.49737899E+00 0.51785683E+02</pdfrwt>
<totfact> 0.74678723E-02</totfact>
</mgrwt>
</event>
<event>
 4    1  0.2496748E+000  0.5707092E+02  0.7957747E-01  0.1410552E+00
         13   -1    0    0    0    0  0.00000000000E+00  0.00000000000E+00  0.99999944182E+02  0.10000000000E+03  0.10566000000E+00 0. -1.
         22   -1    0    0    0    0 -0.00000000000E+00 -0.00000000000E+00 -0.56470742993E+02  0.56470742993E+02  0.00000000000E+00 0.  1.
         13    1    1    2    0    0 -0.12678939546E+02 -0.24419953466E+02 -0.44049982967E+02  0.51937479711E+02  0.10566000000E+00 0.  1.
        996    1    1    2    0    0  0.12678939546E+02  0.24419953466E+02  0.87579184157E+02  0.10453326328E+03  0.50000000000E+02 0.  0.
<mgrwt>
<rscale>  0 0.57070918E+02</rscale>
<asrwt>0</asrwt>
<pdfrwt beam="1">  1       13 0.10000000E+01 0.57070918E+02</pdfrwt>
<pdfrwt beam="2">  1       22 0.56470755E+00 0.57070918E+02</pdfrwt>
<totfact> 0.58143164E-02</totfact>
</mgrwt>
</event>
<event>
 4    1  0.2496748E+000  0.5139433E+02  0.7957747E-01  0.1437963E+00
         13   -1    0    0    0    0  0.00000000000E+00  0.00000000000E+00  0.99999944172E+02  0.99999999993E+02  0.10566000000E+00 0. -1.
         22   -1    0    0    0    0 -0.00000000000E+00 -0.00000000000E+00 -0.12424893131E+02  0.12424893131E+02  0.00000000000E+00 0. -1.
         13    1    1    2    0    0 -0.80396937908E+01  0.87601714640E+01  0.12462770798E+01  0.11955820797E+02  0.10566000000E+00 0.  1.
        996    1    1    2    0    0  0.80396937908E+01 -0.87601714640E+01  0.86328773962E+02  0.10046907233E+03  0.50000000000E+02 0.  0.
<mgrwt>
<rscale>  0 0.51394331E+02</rscale>
<asrwt>0</asrwt>
<pdfrwt beam="1">  1       13 0.10000000E+01 0.51394331E+02</pdfrwt>
<pdfrwt beam="2">  1       22 0.12424918E+00 0.51394331E+02</pdfrwt>
<totfact> 0.10174515E+00</totfact>
</mgrwt>
</event>
<event>
 4    1  0.2496748E+000  0.5265192E+02  0.7957747E-01  0.1431541E+00
         13   -1    0    0    0    0  0.00000000000E+00  0.00000000000E+00  0.99999944182E+02  0.10000000000E+03  0.10566000000E+00 0. -1.
         22   -1    0    0    0    0 -0.00000000000E+00 -0.00000000000E+00 -0.12070969607E+02  0.12070969607E+02  0.00000000000E+00 0.  1.
         13    1    1    2    0    0  0.10688043956E+02 -0.12569420276E+02  0.16506461807E+02  0.23338788639E+02  0.10566000000E+00 0.  1.
        996    1    1    2    0    0 -0.10688043956E+02  0.12569420276E+02  0.71422512767E+02  0.88732180970E+02  0.50000000000E+02 0.  0.
<mgrwt>
<rscale>  0 0.52651919E+02</rscale>
<asrwt>0</asrwt>
<pdfrwt beam="1">  1       13 0.10000000E+01 0.52651919E+02</pdfrwt>
<pdfrwt beam="2">  1       22 0.12070994E+00 0.52651919E+02</pdfrwt>
<totfact> 0.10668034E+00</totfact>
</mgrwt>
</event>
<event>
 4    1  0.2496748E+000  0.5469733E+02  0.7957747E-01  0.1421536E+00
         13   -1    0    0    0    0  0.00000000000E+00  0.00000000000E+00  0.99999944184E+02  0.10000000000E+03  0.10566000000E+00 0. -1.
         22   -1    0    0    0    0 -0.00000000000E+00 -0.00000000000E+00 -0.21948774267E+02  0.21948774267E+02  0.00000000000E+00 0.  1.
         13    1    1    2    0    0  0.29727405890E+01  0.21976357710E+02 -0.47813852056E+01  0.22686345967E+02  0.10566000000E+00 0.  1.
        996    1    1    2    0    0 -0.29727405890E+01 -0.21976357710E+02  0.82832555123E+02  0.99262428305E+02  0.50000000000E+02 0.  0.
<mgrwt>
<rscale>  0 0.54697326E+02</rscale>
<asrwt>0</asrwt>
<pdfrwt beam="1">  1       13 0.10000000E+01 0.54697326E+02</pdfrwt>
<pdfrwt beam="2">  1       22 0.21948796E+00 0.54697326E+02</pdfrwt>
<totfact> 0.38161602E-01</totfact>
</mgrwt>
</event>
<event>
 4    1  0.2496748E+000  0.5231707E+02  0.7957747E-01  0.1433230E+00
         13   -1    0    0    0    0  0.00000000000E+00  0.00000000000E+00  0.99999944182E+02  0.10000000000E+03  0.10566000000E+00 0. -1.
         22   -1    0    0    0    0 -0.00000000000E+00 -0.00000000000E+00 -0.30743517103E+02  0.30743517103E+02  0.00000000000E+00 0.  1.
         13    1    1    2    0    0  0.38555292812E+01  0.14906728919E+02 -0.21227302923E+02  0.26223753098E+02  0.10566000000E+00 0.  1.
        996    1    1    2    0    0 -0.38555292812E+01 -0.14906728919E+02  0.90483730002E+02  0.10451976401E+03  0.50000000000E+02 0.  0.
<mgrwt>
<rscale>  0 0.52317069E+02</rscale>
<asrwt>0</asrwt>
<pdfrwt beam="1">  1       13 0.10000000E+01 0.52317069E+02</pdfrwt>
<pdfrwt beam="2">  1       22 0.30743536E+00 0.52317069E+02</pdfrwt>
<totfact> 0.19793061E-01</totfact>
</mgrwt>
</event>
<event>
 4    1  0.2496748E+000  0.5164396E+02  0.7957747E-01  0.1436671E+00
         13   -1    0    0    0    0  0.00000000000E+00  0.00000000000E+00  0.99999944180E+02  0.10000000000E+03  0.10566000000E+00 0. -1.
         22   -1    0    0    0    0 -0.00000000000E+00 -0.00000000000E+00 -0.12442402745E+02  0.12442402745E+02  0.00000000000E+00 0.  1.
         13    1    1    2    0    0  0.47845569037E+01 -0.12008596175E+02  0.28567741147E+01  0.13238983693E+02  0.10566000000E+00 0.  1.
        996    1    1    2    0    0 -0.47845569037E+01  0.12008596175E+02  0.84700767320E+02  0.99203419051E+02  0.50000000000E+02 0.  0.
<mgrwt>
<rscale>  0 0.51643958E+02</rscale>
<asrwt>0</asrwt>
<pdfrwt beam="1">  1       13 0.10000000E+01 0.51643958E+02</pdfrwt>
<pdfrwt beam="2">  1       22 0.12442427E+00 0.51643958E+02</pdfrwt>
<totfact> 0.10157967E+00</totfact>
</mgrwt>
</event>
<event>
 4    1  0.2496748E+000  0.5356113E+02  0.7957747E-01  0.1427029E+00
         13   -1    0    0    0    0  0.00000000000E+00  0.00000000000E+00  0.99999944175E+02  0.99999999995E+02  0.10566000000E+00 0.  1.
         22   -1    0    0    0    0 -0.00000000000E+00 -0.00000000000E+00 -0.27733717983E+02  0.27733717983E+02  0.00000000000E+00 0. -1.
         13    1    1    2    0    0 -0.15227814133E+02 -0.11700787781E+02 -0.15658956163E+02  0.24779201563E+02  0.10566000000E+00 0. -1.
        996    1    1    2    0    0  0.15227814133E+02  0.11700787781E+02  0.87925182355E+02  0.10295451641E+03  0.50000000000E+02 0.  0.
<mgrwt>
<rscale>  0 0.53561131E+02</rscale>
<asrwt>0</asrwt>
<pdfrwt beam="1">  1       13 0.10000000E+01 0.53561131E+02</pdfrwt>
<pdfrwt beam="2">  1       22 0.27733738E+00 0.53561131E+02</pdfrwt>
<totfact> 0.24105478E-01</totfact>
</mgrwt>
</event>
<event>
 4    1  0.2496748E+000  0.5255137E+02  0.7957747E-01  0.1432047E+00
         13   -1    0    0    0    0  0.00000000000E+00  0.00000000000E+00  0.99999944185E+02  0.10000000000E+03  0.10566000000E+00 0. -1.
         22   -1    0    0    0    0 -0.00000000000E+00 -0.00000000000E+00 -0.12575828044E+02  0.12575828044E+02  0.00000000000E+00 0. -1.
         13    1    1    2    0    0 -0.89500060300E+00  0.16150717347E+02  0.10052338800E+02  0.19044877954E+02  0.10566000000E+00 0.  1.
        996    1    1    2    0    0  0.89500060300E+00 -0.16150717347E+02  0.77371777340E+02  0.93530950095E+02  0.50000000000E+02 0.  0.
<mgrwt>
<rscale>  0 0.52551372E+02</rscale>
<asrwt>0</asrwt>
<pdfrwt beam="1">  1       13 0.10000000E+01 0.52551372E+02</pdfrwt>
<pdfrwt beam="2">  1       22 0.12575852E+00 0.52551372E+02</pdfrwt>
<totfact> 0.10010891E+00</totfact>
</mgrwt>
</event>
<event>
 4    1  0.2496748E+000  0.5513629E+02  0.7957747E-01  0.1419455E+00
         13   -1    0    0    0    0  0.00000000000E+00  0.00000000000E+00  0.99999944183E+02  0.10000000000E+03  0.10566000000E+00 0.  1.
         22   -1    0    0    0    0 -0.00000000000E+00 -0.00000000000E+00 -0.22055257394E+02  0.22055257394E+02  0.00000000000E+00 0. -1.
         13    1    1    2    0    0 -0.91905649324E+01 -0.21343474867E+02 -0.37059129956E+01  0.23532007104E+02  0.10566000000E+00 0. -1.
        996    1    1    2    0    0  0.91905649324E+01  0.21343474867E+02  0.81650599784E+02  0.98523250293E+02  0.50000000000E+02 0.  0.
<mgrwt>
<rscale>  0 0.55136289E+02</rscale>
<asrwt>0</asrwt>
<pdfrwt beam="1">  1       13 0.10000000E+01 0.55136289E+02</pdfrwt>
<pdfrwt beam="2">  1       22 0.22055279E+00 0.55136289E+02</pdfrwt>
<totfact> 0.37834355E-01</totfact>
</mgrwt>
</event>
<event>
 4    1  0.2496748E+000  0.5153198E+02  0.7957747E-01  0.1437249E+00
         13   -1    0    0    0    0  0.00000000000E+00  0.00000000000E+00  0.99999944175E+02  0.99999999995E+02  0.10566000000E+00 0.  1.
         22   -1    0    0    0    0 -0.00000000000E+00 -0.00000000000E+00 -0.12705783720E+02  0.12705783720E+02  0.00000000000E+00 0.  1.
         13    1    1    2    0    0  0.11033563300E+02 -0.58142750362E+01  0.14152881328E+01  0.12552271421E+02  0.10566000000E+00 0. -1.
        996    1    1    2    0    0 -0.11033563300E+02  0.58142750362E+01  0.85878872323E+02  0.10015351229E+03  0.50000000000E+02 0.  0.
<mgrwt>
<rscale>  0 0.51531983E+02</rscale>
<asrwt>0</asrwt>
<pdfrwt beam="1">  1       13 0.10000000E+01 0.51531983E+02</pdfrwt>
<pdfrwt beam="2">  1       22 0.12705808E+00 0.51531983E+02</pdfrwt>
<totfact> 0.98296919E-01</totfact>
</mgrwt>
</event>
<event>
 4    1  0.2496748E+000  0.5115269E+02  0.7957747E-01  0.1439222E+00
         13   -1    0    0    0    0  0.00000000000E+00  0.00000000000E+00  0.99999944173E+02  0.99999999993E+02  0.10566000000E+00 0.  1.
         22   -1    0    0    0    0 -0.00000000000E+00 -0.00000000000E+00 -0.35918010597E+02  0.35918010597E+02  0.00000000000E+00 0. -1.
         13    1    1    2    0    0  0.97508051653E+01  0.46389188600E+01 -0.28316238404E+02  0.30305416858E+02  0.10566000000E+00 0. -1.
        996    1    1    2    0    0 -0.97508051653E+01 -0.46389188600E+01  0.92398171980E+02  0.10561259373E+03  0.50000000000E+02 0.  0.
<mgrwt>
<rscale>  0 0.51152691E+02</rscale>
<asrwt>0</asrwt>
<pdfrwt beam="1">  1       13 0.10000000E+01 0.51152691E+02</pdfrwt>
<pdfrwt beam="2">  1       22 0.35918028E+00 0.51152691E+02</pdfrwt>
<totfact> 0.15007545E-01</totfact>
</mgrwt>
</event>
<event>
 4    1  0.2496748E+000  0.5147061E+02  0.7957747E-01  0.1437567E+00
         13   -1    0    0    0    0  0.00000000000E+00  0.00000000000E+00  0.99999944181E+02  0.10000000000E+03  0.10566000000E+00 0. -1.
         22   -1    0    0    0    0 -0.00000000000E+00 -0.00000000000E+00 -0.15898553950E+02  0.15898553950E+02  0.00000000000E+00 0.  1.
         13    1    1    2    0    0  0.11026058329E+02  0.52583354592E+01 -0.48380909822E+01  0.13139343304E+02  0.10566000000E+00 0.  1.
        996    1    1    2    0    0 -0.11026058329E+02 -0.52583354592E+01  0.88939481213E+02  0.10275921065E+03  0.50000000000E+02 0.  0.
<mgrwt>
<rscale>  0 0.51470614E+02</rscale>
<asrwt>0</asrwt>
<pdfrwt beam="1">  1       13 0.10000000E+01 0.51470614E+02</pdfrwt>
<pdfrwt beam="2">  1       22 0.15898577E+00 0.51470614E+02</pdfrwt>
<totfact> 0.68189642E-01</totfact>
</mgrwt>
</event>
<event>
 4    1  0.2496748E+000  0.5720634E+02  0.7957747E-01  0.1409944E+00
         13   -1    0    0    0    0  0.00000000000E+00  0.00000000000E+00  0.99999944173E+02  0.99999999993E+02  0.10566000000E+00 0.  1.
         22   -1    0    0    0    0 -0.00000000000E+00 -0.00000000000E+00 -0.21692115091E+02  0.21692115091E+02  0.00000000000E+00 0. -1.
         13    1    1    2    0    0 -0.12018438131E+02 -0.25062382484E+02  0.42589448475E+01  0.28119666537E+02  0.10566000000E+00 0. -1.
        996    1    1    2    0    0  0.12018438131E+02  0.25062382484E+02  0.74048884234E+02  0.93572448548E+02  0.50000000000E+02 0.  0.
<mgrwt>
<rscale>  0 0.57206345E+02</rscale>
<asrwt>0</asrwt>
<pdfrwt beam="1">  1       13 0.10000000E+01 0.57206345E+02</pdfrwt>
<pdfrwt beam="2">  1       22 0.21692137E+00 0.57206345E+02</pdfrwt>
<totfact> 0.39189496E-01</totfact>
</mgrwt>
</event>
<event>
 4    1  0.2496748E+000  0.5135526E+02  0.7957747E-01  0.1438166E+00
         13   -1    0    0    0    0  0.00000000000E+00  0.00000000000E+00  0.99999944175E+02  0.99999999995E+02  0.10566000000E+00 0.  1.
         22   -1    0    0    0    0 -0.00000000000E+00 -0.00000000000E+00 -0.27063245822E+02  0.27063245822E+02  0.00000000000E+00 0. -1.
         13    1    1    2    0    0  0.33022533746E+01  0.11245339945E+02 -0.18669639950E+02  0.22043801118E+02  0.10566000000E+00 0. -1.
        996    1    1    2    0    0 -0.33022533746E+01 -0.11245339945E+02  0.91606338303E+02  0.10501944470E+03  0.50000000000E+02 0.  0.
<mgrwt>
<rscale>  0 0.51355258E+02</rscale>
<asrwt>0</asrwt>
<pdfrwt beam="1">  1       13 0.10000000E+01 0.51355258E+02</pdfrwt>
<pdfrwt beam="2">  1       22 0.27063266E+00 0.51355258E+02</pdfrwt>
<totfact> 0.25202742E-01</totfact>
</mgrwt>
</event>
<event>
 4    1  0.2496748E+000  0.7125664E+02  0.7957747E-01  0.1355871E+00
         13   -1    0    0    0    0  0.00000000000E+00  0.00000000000E+00  0.99999944167E+02  0.99999999987E+02  0.10566000000E+00 0.  1.
         22   -1    0    0    0    0 -0.00000000000E+00 -0.00000000000E+00 -0.72575667300E+02  0.72575667300E+02  0.00000000000E+00 0. -1.
         13    1    1    2    0    0  0.45609892850E+02 -0.22299008690E+02 -0.47252763425E+02  0.69356635801E+02  0.10566000000E+00 0. -1.
        996    1    1    2    0    0 -0.45609892850E+02  0.22299008690E+02  0.74677040291E+02  0.10321903149E+03  0.50000000000E+02 0.  0.
<mgrwt>
<rscale>  0 0.71256636E+02</rscale>
<asrwt>0</asrwt>
<pdfrwt beam="1">  1       13 0.10000000E+01 0.71256636E+02</pdfrwt>
<pdfrwt beam="2">  1       22 0.72575675E+00 0.71256636E+02</pdfrwt>
<totfact> 0.60959175E-02</totfact>
</mgrwt>
</event>
<event>
 4    1  0.2496748E+000  0.5387167E+02  0.7957747E-01  0.1425511E+00
         13   -1    0    0    0    0  0.00000000000E+00  0.00000000000E+00  0.99999944178E+02  0.99999999998E+02  0.10566000000E+00 0. -1.
         22   -1    0    0    0    0 -0.00000000000E+00 -0.00000000000E+00 -0.22097120635E+02  0.22097120635E+02  0.00000000000E+00 0.  1.
         13    1    1    2    0    0 -0.69889322388E+01  0.18796590633E+02 -0.72582803739E+01  0.21327231214E+02  0.10566000000E+00 0.  1.
        996    1    1    2    0    0  0.69889322388E+01 -0.18796590633E+02  0.85161103916E+02  0.10076988942E+03  0.50000000000E+02 0.  0.
<mgrwt>
<rscale>  0 0.53871672E+02</rscale>
<asrwt>0</asrwt>
<pdfrwt beam="1">  1       13 0.10000000E+01 0.53871672E+02</pdfrwt>
<pdfrwt beam="2">  1       22 0.22097142E+00 0.53871672E+02</pdfrwt>
<totfact> 0.37619296E-01</totfact>
</mgrwt>
</event>
<event>
 4    1  0.2496748E+000  0.6672868E+02  0.7957747E-01  0.1371584E+00
         13   -1    0    0    0    0  0.00000000000E+00  0.00000000000E+00  0.99999944189E+02  0.10000000001E+03  0.10566000000E+00 0. -1.
         22   -1    0    0    0    0 -0.00000000000E+00 -0.00000000000E+00 -0.89115477564E+02  0.89115477564E+02  0.00000000000E+00 0.  1.
         13    1    1    2    0    0  0.40369675999E+02 -0.17972377662E+02 -0.70911666094E+02  0.83553531651E+02  0.10566000000E+00 0.  1.
        996    1    1    2    0    0 -0.40369675999E+02  0.17972377662E+02  0.81796132719E+02  0.10556194592E+03  0.50000000000E+02 0.  0.
<mgrwt>
<rscale>  0 0.66728683E+02</rscale>
<asrwt>0</asrwt>
<pdfrwt beam="1">  1       13 0.10000000E+01 0.66728683E+02</pdfrwt>
<pdfrwt beam="2">  1       22 0.89115481E+00 0.66728683E+02</pdfrwt>
<totfact> 0.11716698E-02</totfact>
</mgrwt>
</event>
<event>
 4    1  0.2496748E+000  0.5119666E+02  0.7957747E-01  0.1438992E+00
         13   -1    0    0    0    0  0.00000000000E+00  0.00000000000E+00  0.99999944180E+02  0.10000000000E+03  0.10566000000E+00 0.  1.
         22   -1    0    0    0    0 -0.00000000000E+00 -0.00000000000E+00 -0.13937885458E+02  0.13937885458E+02  0.00000000000E+00 0.  1.
         13    1    1    2    0    0 -0.77222385232E+01 -0.78399402740E+01 -0.28243714798E+01  0.11361596261E+02  0.10566000000E+00 0. -1.
        996    1    1    2    0    0  0.77222385232E+01  0.78399402740E+01  0.88886430202E+02  0.10257628920E+03  0.50000000000E+02 0.  0.
<mgrwt>
<rscale>  0 0.51196656E+02</rscale>
<asrwt>0</asrwt>
<pdfrwt beam="1">  1       13 0.10000000E+01 0.51196656E+02</pdfrwt>
<pdfrwt beam="2">  1       22 0.13937909E+00 0.51196656E+02</pdfrwt>
<totfact> 0.84792197E-01</totfact>
</mgrwt>
</event>
<event>
 4    1  0.2496748E+000  0.6113879E+02  0.7957747E-01  0.1393114E+00
         13   -1    0    0    0    0  0.00000000000E+00  0.00000000000E+00  0.99999944181E+02  0.10000000000E+03  0.10566000000E+00 0. -1.
         22   -1    0    0    0    0 -0.00000000000E+00 -0.00000000000E+00 -0.52031992001E+02  0.52031992001E+02  0.00000000000E+00 0.  1.
         13    1    1    2    0    0  0.25582096695E+02  0.24155904951E+02 -0.34563754563E+02  0.49321554202E+02  0.10566000000E+00 0.  1.
        996    1    1    2    0    0 -0.25582096695E+02 -0.24155904951E+02  0.82531706743E+02  0.10271043780E+03  0.50000000000E+02 0.  0.
<mgrwt>
<rscale>  0 0.61138788E+02</rscale>
<asrwt>0</asrwt>
<pdfrwt beam="1">  1       13 0.10000000E+01 0.61138788E+02</pdfrwt>
<pdfrwt beam="2">  1       22 0.52032005E+00 0.61138788E+02</pdfrwt>
<totfact> 0.66410807E-02</totfact>
</mgrwt>
</event>
<event>
 4    1  0.2496748E+000  0.5408056E+02  0.7957747E-01  0.1424498E+00
         13   -1    0    0    0    0  0.00000000000E+00  0.00000000000E+00  0.99999944177E+02  0.99999999997E+02  0.10566000000E+00 0.  1.
         22   -1    0    0    0    0 -0.00000000000E+00 -0.00000000000E+00 -0.22398697216E+02  0.22398697216E+02  0.00000000000E+00 0. -1.
         13    1    1    2    0    0 -0.20070892793E+02 -0.46761564595E+01 -0.71917791593E+01  0.21827506231E+02  0.10566000000E+00 0. -1.
        996    1    1    2    0    0  0.20070892793E+02  0.46761564595E+01  0.84793026120E+02  0.10057119098E+03  0.50000000000E+02 0.  0.
<mgrwt>
<rscale>  0 0.54080562E+02</rscale>
<asrwt>0</asrwt>
<pdfrwt beam="1">  1       13 0.10000000E+01 0.54080562E+02</pdfrwt>
<pdfrwt beam="2">  1       22 0.22398719E+00 0.54080562E+02</pdfrwt>
<totfact> 0.36660225E-01</totfact>
</mgrwt>
</event>
<event>
 4    1  0.2496748E+000  0.5212943E+02  0.7957747E-01  0.1434183E+00
         13   -1    0    0    0    0  0.00000000000E+00  0.00000000000E+00  0.99999944173E+02  0.99999999993E+02  0.10566000000E+00 0. -1.
         22   -1    0    0    0    0 -0.00000000000E+00 -0.00000000000E+00 -0.17178229173E+02  0.17178229173E+02  0.00000000000E+00 0. -1.
         13    1    1    2    0    0  0.14050829804E+02  0.44778535143E+01 -0.45530299197E+01  0.15434320061E+02  0.10566000000E+00 0.  1.
        996    1    1    2    0    0 -0.14050829804E+02 -0.44778535143E+01  0.87374744920E+02  0.10174390911E+03  0.50000000000E+02 0.  0.
<mgrwt>
<rscale>  0 0.52129425E+02</rscale>
<asrwt>0</asrwt>
<pdfrwt beam="1">  1       13 0.10000000E+01 0.52129425E+02</pdfrwt>
<pdfrwt beam="2">  1       22 0.17178252E+00 0.52129425E+02</pdfrwt>
<totfact> 0.59710073E-01</totfact>
</mgrwt>
</event>
<event>
 4    1  0.2496748E+000  0.5704635E+02  0.7957747E-01  0.1410662E+00
         13   -1    0    0    0    0  0.00000000000E+00  0.00000000000E+00  0.99999944177E+02  0.99999999998E+02  0.10566000000E+00 0. -1.
         22   -1    0    0    0    0 -0.00000000000E+00 -0.00000000000E+00 -0.55484505670E+02  0.55484505670E+02  0.00000000000E+00 0.  1.
         13    1    1    2    0    0 -0.15646471543E+02  0.22571519083E+02 -0.42997353029E+02  0.51020281036E+02  0.10566000000E+00 0.  1.
        996    1    1    2    0    0  0.15646471543E+02 -0.22571519083E+02  0.87512791536E+02  0.10446422463E+03  0.50000000000E+02 0.  0.
<mgrwt>
<rscale>  0 0.57046346E+02</rscale>
<asrwt>0</asrwt>
<pdfrwt beam="1">  1       13 0.10000000E+01 0.57046346E+02</pdfrwt>
<pdfrwt beam="2">  1       22 0.55484518E+00 0.57046346E+02</pdfrwt>
<totfact> 0.58891147E-02</totfact>
</mgrwt>
</event>
<event>
 4    1  0.2496748E+000  0.6008653E+02  0.7957747E-01  0.1397469E+00
         13   -1    0    0    0    0  0.00000000000E+00  0.00000000000E+00  0.99999944174E+02  0.99999999994E+02  0.10566000000E+00 0. -1.
         22   -1    0    0    0    0 -0.00000000000E+00 -0.00000000000E+00 -0.25696079819E+02  0.25696079819E+02  0.00000000000E+00 0.  1.
         13    1    1    2    0    0 -0.12476016954E+02  0.30898867701E+02  0.45515654418E+01  0.33632111683E+02  0.10566000000E+00 0.  1.
        996    1    1    2    0    0  0.12476016954E+02 -0.30898867701E+02  0.69752298913E+02  0.92063968130E+02  0.50000000000E+02 0.  0.
<mgrwt>
<rscale>  0 0.60086529E+02</rscale>
<asrwt>0</asrwt>
<pdfrwt beam="1">  1       13 0.10000000E+01 0.60086529E+02</pdfrwt>
<pdfrwt beam="2">  1       22 0.25696101E+00 0.60086529E+02</pdfrwt>
<totfact> 0.28251333E-01</totfact>
</mgrwt>
</event>
<event>
 4    1  0.2496748E+000  0.5138505E+02  0.7957747E-01  0.1438011E+00
         13   -1    0    0    0    0  0.00000000000E+00  0.00000000000E+00  0.99999944175E+02  0.99999999995E+02  0.10566000000E+00 0.  1.
         22   -1    0    0    0    0 -0.00000000000E+00 -0.00000000000E+00 -0.13059244048E+02  0.13059244048E+02  0.00000000000E+00 0. -1.
         13    1    1    2    0    0  0.11634527186E+02 -0.22497860799E+01 -0.25016405167E+00  0.11853164402E+02  0.10566000000E+00 0. -1.
        996    1    1    2    0    0 -0.11634527186E+02  0.22497860799E+01  0.87190864178E+02  0.10120607964E+03  0.50000000000E+02 0.  0.
<mgrwt>
<rscale>  0 0.51385054E+02</rscale>
<asrwt>0</asrwt>
<pdfrwt beam="1">  1       13 0.10000000E+01 0.51385054E+02</pdfrwt>
<pdfrwt beam="2">  1       22 0.13059268E+00 0.51385054E+02</pdfrwt>
<totfact> 0.94122349E-01</totfact>
</mgrwt>
</event>
<event>
 4    1  0.2496748E+000  0.5712988E+02  0.7957747E-01  0.1410287E+00
         13   -1    0    0    0    0  0.00000000000E+00  0.00000000000E+00  0.99999944172E+02  0.99999999992E+02  0.10566000000E+00 0. -1.
         22   -1    0    0    0    0 -0.00000000000E+00 -0.00000000000E+00 -0.36097417653E+02  0.36097417653E+02  0.00000000000E+00 0.  1.
         13    1    1    2    0    0  0.21122189133E+02 -0.17823462046E+02 -0.20336351129E+02  0.34313277523E+02  0.10566000000E+00 0.  1.
        996    1    1    2    0    0 -0.21122189133E+02  0.17823462046E+02  0.84238877648E+02  0.10178414012E+03  0.50000000000E+02 0.  0.
<mgrwt>
<rscale>  0 0.57129875E+02</rscale>
<asrwt>0</asrwt>
<pdfrwt beam="1">  1       13 0.10000000E+01 0.57129875E+02</pdfrwt>
<pdfrwt beam="2">  1       22 0.36097436E+00 0.57129875E+02</pdfrwt>
<totfact> 0.14961083E-01</totfact>
</mgrwt>
</event>
<event>
 4    1  0.2496748E+000  0.5161941E+02  0.7957747E-01  0.1436798E+00
         13   -1    0    0    0    0  0.00000000000E+00  0.00000000000E+00  0.99999944183E+02  0.10000000000E+03  0.10566000000E+00 0. -1.
         22   -1    0    0    0    0 -0.00000000000E+00 -0.00000000000E+00 -0.10401018353E+02  0.10401018353E+02  0.00000000000E+00 0. -1.
         13    1    1    2    0    0 -0.97141398641E+01 -0.83784569364E+01  0.16087948348E+02  0.20576595929E+02  0.10566000000E+00 0.  1.
        996    1    1    2    0    0  0.97141398641E+01  0.83784569364E+01  0.73510977482E+02  0.89824422427E+02  0.50000000000E+02 0.  0.
<mgrwt>
<rscale>  0 0.51619406E+02</rscale>
<asrwt>0</asrwt>
<pdfrwt beam="1">  1       13 0.10000000E+01 0.51619406E+02</pdfrwt>
<pdfrwt beam="2">  1       22 0.10401043E+00 0.51619406E+02</pdfrwt>
<totfact> 0.13301209E+00</totfact>
</mgrwt>
</event>
<event>
 4    1  0.2496748E+000  0.5112261E+02  0.7957747E-01  0.1439379E+00
         13   -1    0    0    0    0  0.00000000000E+00  0.00000000000E+00  0.99999944181E+02  0.10000000000E+03  0.10566000000E+00 0.  1.
         22   -1    0    0    0    0 -0.00000000000E+00 -0.00000000000E+00 -0.15287626915E+02  0.15287626915E+02  0.00000000000E+00 0. -1.
         13    1    1    2    0    0 -0.70790608489E+01 -0.79629356417E+01 -0.52010589434E+01  0.11856796562E+02  0.10566000000E+00 0. -1.
        996    1    1    2    0    0  0.70790608489E+01  0.79629356417E+01  0.89913376210E+02  0.10343083036E+03  0.50000000000E+02 0.  0.
<mgrwt>
<rscale>  0 0.51122612E+02</rscale>
<asrwt>0</asrwt>
<pdfrwt beam="1">  1       13 0.10000000E+01 0.51122612E+02</pdfrwt>
<pdfrwt beam="2">  1       22 0.15287651E+00 0.51122612E+02</pdfrwt>
<totfact> 0.72808953E-01</totfact>
</mgrwt>
</event>
<event>
 4    1  0.2496748E+000  0.5617477E+02  0.7957747E-01  0.1414624E+00
         13   -1    0    0    0    0  0.00000000000E+00  0.00000000000E+00  0.99999944173E+02  0.99999999993E+02  0.10566000000E+00 0. -1.
         22   -1    0    0    0    0 -0.00000000000E+00 -0.00000000000E+00 -0.38471518990E+02  0.38471518990E+02  0.00000000000E+00 0.  1.
         13    1    1    2    0    0  0.22058062032E+02 -0.13001781413E+02 -0.24688539680E+02  0.35568800600E+02  0.10566000000E+00 0.  1.
        996    1    1    2    0    0 -0.22058062032E+02  0.13001781413E+02  0.86216964863E+02  0.10290271838E+03  0.50000000000E+02 0.  0.
<mgrwt>
<rscale>  0 0.56174767E+02</rscale>
<asrwt>0</asrwt>
<pdfrwt beam="1">  1       13 0.10000000E+01 0.56174767E+02</pdfrwt>
<pdfrwt beam="2">  1       22 0.38471536E+00 0.56174767E+02</pdfrwt>
<totfact> 0.13340554E-01</totfact>
</mgrwt>
</event>
<event>
 4    1  0.2496748E+000  0.5125953E+02  0.7957747E-01  0.1438664E+00
         13   -1    0    0    0    0  0.00000000000E+00  0.00000000000E+00  0.99999944183E+02  0.10000000000E+03  0.10566000000E+00 0. -1.
         22   -1    0    0    0    0 -0.00000000000E+00 -0.00000000000E+00 -0.16655099689E+02  0.16655099689E+02  0.00000000000E+00 0. -1.
         13    1    1    2    0    0 -0.10952113442E+02 -0.27550538153E+01 -0.66351253195E+01  0.13098670254E+02  0.10566000000E+00 0.  1.
        996    1    1    2    0    0  0.10952113442E+02  0.27550538153E+01  0.89979969814E+02  0.10355642944E+03  0.50000000000E+02 0.  0.
<mgrwt>
<rscale>  0 0.51259527E+02</rscale>
<asrwt>0</asrwt>
<pdfrwt beam="1">  1       13 0.10000000E+01 0.51259527E+02</pdfrwt>
<pdfrwt beam="2">  1       22 0.16655123E+00 0.51259527E+02</pdfrwt>
<totfact> 0.62920491E-01</totfact>
</mgrwt>
</event>
<event>
 4    1  0.2496748E+000  0.7152379E+02  0.7957747E-01  0.1354987E+00
         13   -1    0    0    0    0  0.00000000000E+00  0.00000000000E+00  0.99999944191E+02  0.10000000001E+03  0.10566000000E+00 0. -1.
         22   -1    0    0    0    0 -0.00000000000E+00 -0.00000000000E+00 -0.70765584961E+02  0.70765584961E+02  0.00000000000E+00 0.  1.
         13    1    1    2    0    0  0.44961672222E+02  0.24374163768E+02 -0.44679958399E+02  0.67911425217E+02  0.10566000000E+00 0.  1.
        996    1    1    2    0    0 -0.44961672222E+02 -0.24374163768E+02  0.73914317629E+02  0.10285415976E+03  0.50000000000E+02 0.  0.
<mgrwt>
<rscale>  0 0.71523785E+02</rscale>
<asrwt>0</asrwt>
<pdfrwt beam="1">  1       13 0.10000000E+01 0.71523785E+02</pdfrwt>
<pdfrwt beam="2">  1       22 0.70765593E+00 0.71523785E+02</pdfrwt>
<totfact> 0.70631808E-02</totfact>
</mgrwt>
</event>
<event>
 4    1  0.2496748E+000  0.5155867E+02  0.7957747E-01  0.1437111E+00
         13   -1    0    0    0    0  0.00000000000E+00  0.00000000000E+00  0.99999944181E+02  0.10000000000E+03  0.10566000000E+00 0.  1.
         22   -1    0    0    0    0 -0.00000000000E+00 -0.00000000000E+00 -0.10481307979E+02  0.10481307979E+02  0.00000000000E+00 0.  1.
         13    1    1    2    0    0  0.44615750440E+01  0.11763953390E+02  0.12033421578E+02  0.17410073238E+02  0.10566000000E+00 0. -1.
        996    1    1    2    0    0 -0.44615750440E+01 -0.11763953390E+02  0.77485214623E+02  0.93071234742E+02  0.50000000000E+02 0.  0.
<mgrwt>
<rscale>  0 0.51558668E+02</rscale>
<asrwt>0</asrwt>
<pdfrwt beam="1">  1       13 0.10000000E+01 0.51558668E+02</pdfrwt>
<pdfrwt beam="2">  1       22 0.10481333E+00 0.51558668E+02</pdfrwt>
<totfact> 0.13150264E+00</totfact>
</mgrwt>
</event>
<event>
 4    1  0.2496748E+000  0.5156266E+02  0.7957747E-01  0.1437091E+00
         13   -1    0    0    0    0  0.00000000000E+00  0.00000000000E+00  0.99999944178E+02  0.99999999998E+02  0.10566000000E+00 0. -1.
         22   -1    0    0    0    0 -0.00000000000E+00 -0.00000000000E+00 -0.10956038524E+02  0.10956038524E+02  0.00000000000E+00 0. -1.
         13    1    1    2    0    0 -0.11232863371E+02 -0.57036063543E+01  0.30169251509E+02  0.32694085789E+02  0.10566000000E+00 0.  1.
        996    1    1    2    0    0  0.11232863371E+02  0.57036063543E+01  0.58874654145E+02  0.78261952733E+02  0.50000000000E+02 0.  0.
<mgrwt>
<rscale>  0 0.51562664E+02</rscale>
<asrwt>0</asrwt>
<pdfrwt beam="1">  1       13 0.10000000E+01 0.51562664E+02</pdfrwt>
<pdfrwt beam="2">  1       22 0.10956063E+00 0.51562664E+02</pdfrwt>
<totfact> 0.12317926E+00</totfact>
</mgrwt>
</event>
<event>
 4    1  0.2496748E+000  0.5133757E+02  0.7957747E-01  0.1438258E+00
         13   -1    0    0    0    0  0.00000000000E+00  0.00000000000E+00  0.99999944181E+02  0.10000000000E+03  0.10566000000E+00 0.  1.
         22   -1    0    0    0    0 -0.00000000000E+00 -0.00000000000E+00 -0.20896842961E+02  0.20896842961E+02  0.00000000000E+00 0. -1.
         13    1    1    2    0    0  0.94921656310E+01 -0.67413142787E+01 -0.11750641239E+02  0.16541924318E+02  0.10566000000E+00 0. -1.
        996    1    1    2    0    0 -0.94921656310E+01  0.67413142787E+01  0.90853742459E+02  0.10435491864E+03  0.50000000000E+02 0.  0.
<mgrwt>
<rscale>  0 0.51337574E+02</rscale>
<asrwt>0</asrwt>
<pdfrwt beam="1">  1       13 0.10000000E+01 0.51337574E+02</pdfrwt>
<pdfrwt beam="2">  1       22 0.20896865E+00 0.51337574E+02</pdfrwt>
<totfact> 0.41673417E-01</totfact>
</mgrwt>
</event>
<event>
 4    1  0.2496748E+000  0.5285745E+02  0.7957747E-01  0.1430512E+00
         13   -1    0    0    0    0  0.00000000000E+00  0.00000000000E+00  0.99999944177E+02  0.99999999997E+02  0.10566000000E+00 0. -1.
         22   -1    0    0    0    0 -0.00000000000E+00 -0.00000000000E+00 -0.12579208411E+02  0.12579208411E+02  0.00000000000E+00 0. -1.
         13    1    1    2    0    0  0.52825643128E+01  0.16309659560E+02  0.29854412571E+02  0.34426844100E+02  0.10566000000E+00 0.  1.
        996    1    1    2    0    0 -0.52825643128E+01 -0.16309659560E+02  0.57566323196E+02  0.78152364308E+02  0.50000000000E+02 0.  0.
<mgrwt>
<rscale>  0 0.52857454E+02</rscale>
<asrwt>0</asrwt>
<pdfrwt beam="1">  1       13 0.10000000E+01 0.52857454E+02</pdfrwt>
<pdfrwt beam="2">  1       22 0.12579233E+00 0.52857454E+02</pdfrwt>
<totfact> 0.10013327E+00</totfact>
</mgrwt>
</event>
<event>
 4    1  0.2496748E+000  0.7448483E+02  0.7957747E-01  0.1345474E+00
         13   -1    0    0    0    0  0.00000000000E+00  0.00000000000E+00  0.99999944184E+02  0.10000000000E+03  0.10566000000E+00 0. -1.
         22   -1    0    0    0    0 -0.00000000000E+00 -0.00000000000E+00 -0.44611431313E+02  0.44611431313E+02  0.00000000000E+00 0.  1.
         13    1    1    2    0    0 -0.53272663473E+02 -0.14491814116E+02  0.40955333894E+02  0.68741107704E+02  0.10566000000E+00 0.  1.
        996    1    1    2    0    0  0.53272663473E+02  0.14491814116E+02  0.14433178976E+02  0.75870323614E+02  0.50000000000E+02 0.  0.
<mgrwt>
<rscale>  0 0.74484826E+02</rscale>
<asrwt>0</asrwt>
<pdfrwt beam="1">  1       13 0.10000000E+01 0.74484826E+02</pdfrwt>
<pdfrwt beam="2">  1       22 0.44611447E+00 0.74484826E+02</pdfrwt>
<totfact> 0.99702125E-02</totfact>
</mgrwt>
</event>
<event>
 4    1  0.2496748E+000  0.5258883E+02  0.7957747E-01  0.1431858E+00
         13   -1    0    0    0    0  0.00000000000E+00  0.00000000000E+00  0.99999944176E+02  0.99999999996E+02  0.10566000000E+00 0.  1.
         22   -1    0    0    0    0 -0.00000000000E+00 -0.00000000000E+00 -0.15616927999E+02  0.15616927999E+02  0.00000000000E+00 0.  1.
         13    1    1    2    0    0 -0.11696736721E+02 -0.11347751269E+02  0.12901457987E+00  0.16297635338E+02  0.10566000000E+00 0. -1.
        996    1    1    2    0    0  0.11696736721E+02  0.11347751269E+02  0.84254001597E+02  0.99319292657E+02  0.50000000000E+02 0.  0.
<mgrwt>
<rscale>  0 0.52588831E+02</rscale>
<asrwt>0</asrwt>
<pdfrwt beam="1">  1       13 0.10000000E+01 0.52588831E+02</pdfrwt>
<pdfrwt beam="2">  1       22 0.15616952E+00 0.52588831E+02</pdfrwt>
<totfact> 0.70449481E-01</totfact>
</mgrwt>
</event>
<event>
 4    1  0.2496748E+000  0.5311967E+02  0.7957747E-01  0.1429206E+00
         13   -1    0    0    0    0  0.00000000000E+00  0.00000000000E+00  0.99999944190E+02  0.10000000001E+03  0.10566000000E+00 0.  1.
         22   -1    0    0    0    0 -0.00000000000E+00 -0.00000000000E+00 -0.62874988408E+02  0.62874988408E+02  0.00000000000E+00 0. -1.
         13    1    1    2    0    0  0.14523856921E+02 -0.10524122501E+02 -0.54273954506E+02  0.57160938376E+02  0.10566000000E+00 0. -1.
        996    1    1    2    0    0 -0.14523856921E+02  0.10524122501E+02  0.91398910288E+02  0.10571405004E+03  0.50000000000E+02 0.  0.
<mgrwt>
<rscale>  0 0.53119672E+02</rscale>
<asrwt>0</asrwt>
<pdfrwt beam="1">  1       13 0.10000000E+01 0.53119672E+02</pdfrwt>
<pdfrwt beam="2">  1       22 0.62874999E+00 0.53119672E+02</pdfrwt>
<totfact> 0.78017822E-02</totfact>
</mgrwt>
</event>
<event>
 4    1  0.2496748E+000  0.5875480E+02  0.7957747E-01  0.1403133E+00
         13   -1    0    0    0    0  0.00000000000E+00  0.00000000000E+00  0.99999944182E+02  0.10000000000E+03  0.10566000000E+00 0.  1.
         22   -1    0    0    0    0 -0.00000000000E+00 -0.00000000000E+00 -0.22486344733E+02  0.22486344733E+02  0.00000000000E+00 0. -1.
         13    1    1    2    0    0  0.17775221740E+02  0.25222364696E+02  0.88187799901E+01  0.32092183368E+02  0.10566000000E+00 0. -1.
        996    1    1    2    0    0 -0.17775221740E+02 -0.25222364696E+02  0.68694819459E+02  0.90394161367E+02  0.50000000000E+02 0.  0.
<mgrwt>
<rscale>  0 0.58754797E+02</rscale>
<asrwt>0</asrwt>
<pdfrwt beam="1">  1       13 0.10000000E+01 0.58754797E+02</pdfrwt>
<pdfrwt beam="2">  1       22 0.22486366E+00 0.58754797E+02</pdfrwt>
<totfact> 0.36647656E-01</totfact>
</mgrwt>
</event>
<event>
 4    1  0.2496748E+000  0.5205148E+02  0.7957747E-01  0.1434580E+00
         13   -1    0    0    0    0  0.00000000000E+00  0.00000000000E+00  0.99999944174E+02  0.99999999994E+02  0.10566000000E+00 0. -1.
         22   -1    0    0    0    0 -0.00000000000E+00 -0.00000000000E+00 -0.12472362943E+02  0.12472362943E+02  0.00000000000E+00 0.  1.
         13    1    1    2    0    0 -0.14273276062E+02 -0.23728443940E+01  0.58253569884E+01  0.15598164896E+02  0.10566000000E+00 0.  1.
        996    1    1    2    0    0  0.14273276062E+02  0.23728443940E+01  0.81702224242E+02  0.96874198041E+02  0.50000000000E+02 0.  0.
<mgrwt>
<rscale>  0 0.52051482E+02</rscale>
<asrwt>0</asrwt>
<pdfrwt beam="1">  1       13 0.10000000E+01 0.52051482E+02</pdfrwt>
<pdfrwt beam="2">  1       22 0.12472387E+00 0.52051482E+02</pdfrwt>
<totfact> 0.10129248E+00</totfact>
</mgrwt>
</event>
<event>
 4    1  0.2496748E+000  0.5915534E+02  0.7957747E-01  0.1401411E+00
         13   -1    0    0    0    0  0.00000000000E+00  0.00000000000E+00  0.99999944178E+02  0.99999999999E+02  0.10566000000E+00 0. -1.
         22   -1    0    0    0    0 -0.00000000000E+00 -0.00000000000E+00 -0.26714663465E+02  0.26714663465E+02  0.00000000000E+00 0.  1.
         13    1    1    2    0    0  0.26029881681E+02 -0.17938781113E+02 -0.11527736248E+01  0.31633758221E+02  0.10566000000E+00 0.  1.
        996    1    1    2    0    0 -0.26029881681E+02  0.17938781113E+02  0.74438054338E+02  0.95080905243E+02  0.50000000000E+02 0.  0.
<mgrwt>
<rscale>  0 0.59155343E+02</rscale>
<asrwt>0</asrwt>
<pdfrwt beam="1">  1       13 0.10000000E+01 0.59155343E+02</pdfrwt>
<pdfrwt beam="2">  1       22 0.26714684E+00 0.59155343E+02</pdfrwt>
<totfact> 0.26133206E-01</totfact>
</mgrwt>
</event>
<event>
 4    1  0.2496748E+000  0.5102574E+02  0.7957747E-01  0.1439886E+00
         13   -1    0    0    0    0  0.00000000000E+00  0.00000000000E+00  0.99999944183E+02  0.10000000000E+03  0.10566000000E+00 0.  1.
         22   -1    0    0    0    0 -0.00000000000E+00 -0.00000000000E+00 -0.24999118887E+02  0.24999118887E+02  0.00000000000E+00 0. -1.
         13    1    1    2    0    0  0.10142899830E+02  0.86481752912E+00 -0.16988759815E+02  0.19805439920E+02  0.10566000000E+00 0. -1.
        996    1    1    2    0    0 -0.10142899830E+02 -0.86481752912E+00  0.91989585112E+02  0.10519367897E+03  0.50000000000E+02 0.  0.
<mgrwt>
<rscale>  0 0.51025742E+02</rscale>
<asrwt>0</asrwt>
<pdfrwt beam="1">  1       13 0.10000000E+01 0.51025742E+02</pdfrwt>
<pdfrwt beam="2">  1       22 0.24999140E+00 0.51025742E+02</pdfrwt>
<totfact> 0.29435858E-01</totfact>
</mgrwt>
</event>
<event>
 4    1  0.2496748E+000  0.5157677E+02  0.7957747E-01  0.1437018E+00
         13   -1    0    0    0    0  0.00000000000E+00  0.00000000000E+00  0.99999944182E+02  0.10000000000E+03  0.10566000000E+00 0.  1.
         22   -1    0    0    0    0 -0.00000000000E+00 -0.00000000000E+00 -0.10347071454E+02  0.10347071454E+02  0.00000000000E+00 0.  1.
         13    1    1    2    0    0 -0.10230232063E+02 -0.74501812636E+01  0.20211199643E+02  0.23846731515E+02  0.10566000000E+00 0. -1.
        996    1    1    2    0    0  0.10230232063E+02  0.74501812636E+01  0.69441673086E+02  0.86500339941E+02  0.50000000000E+02 0.  0.
<mgrwt>
<rscale>  0 0.51576767E+02</rscale>
<asrwt>0</asrwt>
<pdfrwt beam="1">  1       13 0.10000000E+01 0.51576767E+02</pdfrwt>
<pdfrwt beam="2">  1       22 0.10347096E+00 0.51576767E+02</pdfrwt>
<totfact> 0.13401415E+00</totfact>
</mgrwt>
</event>
<event>
 4    1  0.2496748E+000  0.5602468E+02  0.7957747E-01  0.1415314E+00
         13   -1    0    0    0    0  0.00000000000E+00  0.00000000000E+00  0.99999944170E+02  0.99999999991E+02  0.10566000000E+00 0.  1.
         22   -1    0    0    0    0 -0.00000000000E+00 -0.00000000000E+00 -0.38059924298E+02  0.38059924298E+02  0.00000000000E+00 0. -1.
         13    1    1    2    0    0 -0.21946387235E+02  0.12534799127E+02 -0.24403638118E+02  0.35132802610E+02  0.10566000000E+00 0. -1.
        996    1    1    2    0    0  0.21946387235E+02 -0.12534799127E+02  0.86343657990E+02  0.10292712168E+03  0.50000000000E+02 0.  0.
<mgrwt>
<rscale>  0 0.56024683E+02</rscale>
<asrwt>0</asrwt>
<pdfrwt beam="1">  1       13 0.10000000E+01 0.56024683E+02</pdfrwt>
<pdfrwt beam="2">  1       22 0.38059942E+00 0.56024683E+02</pdfrwt>
<totfact> 0.13602221E-01</totfact>
</mgrwt>
</event>
<event>
 4    1  0.2496748E+000  0.5134471E+02  0.7957747E-01  0.1438221E+00
         13   -1    0    0    0    0  0.00000000000E+00  0.00000000000E+00  0.99999944174E+02  0.99999999994E+02  0.10566000000E+00 0.  1.
         22   -1    0    0    0    0 -0.00000000000E+00 -0.00000000000E+00 -0.15021400945E+02  0.15021400945E+02  0.00000000000E+00 0. -1.
         13    1    1    2    0    0 -0.96939651769E+00 -0.11633557310E+02 -0.39585755981E+01  0.12327240977E+02  0.10566000000E+00 0. -1.
        996    1    1    2    0    0  0.96939651769E+00  0.11633557310E+02  0.88937118827E+02  0.10269415996E+03  0.50000000000E+02 0.  0.
<mgrwt>
<rscale>  0 0.51344711E+02</rscale>
<asrwt>0</asrwt>
<pdfrwt beam="1">  1       13 0.10000000E+01 0.51344711E+02</pdfrwt>
<pdfrwt beam="2">  1       22 0.15021425E+00 0.51344711E+02</pdfrwt>
<totfact> 0.75012746E-01</totfact>
</mgrwt>
</event>
<event>
 4    1  0.2496748E+000  0.5137405E+02  0.7957747E-01  0.1438068E+00
         13   -1    0    0    0    0  0.00000000000E+00  0.00000000000E+00  0.99999944176E+02  0.99999999997E+02  0.10566000000E+00 0.  1.
         22   -1    0    0    0    0 -0.00000000000E+00 -0.00000000000E+00 -0.15103735125E+02  0.15103735125E+02  0.00000000000E+00 0. -1.
         13    1    1    2    0    0  0.87106461725E+01 -0.79635052650E+01 -0.39732051219E+01  0.12453525438E+02  0.10566000000E+00 0. -1.
        996    1    1    2    0    0 -0.87106461725E+01  0.79635052650E+01  0.88869414173E+02  0.10265020968E+03  0.50000000000E+02 0.  0.
<mgrwt>
<rscale>  0 0.51374048E+02</rscale>
<asrwt>0</asrwt>
<pdfrwt beam="1">  1       13 0.10000000E+01 0.51374048E+02</pdfrwt>
<pdfrwt beam="2">  1       22 0.15103759E+00 0.51374048E+02</pdfrwt>
<totfact> 0.74336714E-01</totfact>
</mgrwt>
</event>
<event>
 4    1  0.2496748E+000  0.5697041E+02  0.7957747E-01  0.1411004E+00
         13   -1    0    0    0    0  0.00000000000E+00  0.00000000000E+00  0.99999944176E+02  0.99999999997E+02  0.10566000000E+00 0. -1.
         22   -1    0    0    0    0 -0.00000000000E+00 -0.00000000000E+00 -0.25781264960E+02  0.25781264960E+02  0.00000000000E+00 0.  1.
         13    1    1    2    0    0  0.18975570271E+02 -0.19635552669E+02 -0.54439158771E+01  0.27843752977E+02  0.10566000000E+00 0.  1.
        996    1    1    2    0    0 -0.18975570271E+02  0.19635552669E+02  0.79662595094E+02  0.97937511980E+02  0.50000000000E+02 0.  0.
<mgrwt>
<rscale>  0 0.56970406E+02</rscale>
<asrwt>0</asrwt>
<pdfrwt beam="1">  1       13 0.10000000E+01 0.56970406E+02</pdfrwt>
<pdfrwt beam="2">  1       22 0.25781286E+00 0.56970406E+02</pdfrwt>
<totfact> 0.27949245E-01</totfact>
</mgrwt>
</event>
<event>
 4    1  0.2496748E+000  0.5135422E+02  0.7957747E-01  0.1438171E+00
         13   -1    0    0    0    0  0.00000000000E+00  0.00000000000E+00  0.99999944180E+02  0.10000000000E+03  0.10566000000E+00 0. -1.
         22   -1    0    0    0    0 -0.00000000000E+00 -0.00000000000E+00 -0.11492632137E+02  0.11492632137E+02  0.00000000000E+00 0. -1.
         13    1    1    2    0    0 -0.71290361848E+01  0.92969442041E+01  0.35887486794E+01  0.12253432563E+02  0.10566000000E+00 0.  1.
        996    1    1    2    0    0  0.71290361848E+01 -0.92969442041E+01  0.84918563364E+02  0.99239199575E+02  0.50000000000E+02 0.  0.
<mgrwt>
<rscale>  0 0.51354224E+02</rscale>
<asrwt>0</asrwt>
<pdfrwt beam="1">  1       13 0.10000000E+01 0.51354224E+02</pdfrwt>
<pdfrwt beam="2">  1       22 0.11492657E+00 0.51354224E+02</pdfrwt>
<totfact> 0.11461737E+00</totfact>
</mgrwt>
</event>
<event>
 4    1  0.2496748E+000  0.5114148E+02  0.7957747E-01  0.1439280E+00
         13   -1    0    0    0    0  0.00000000000E+00  0.00000000000E+00  0.99999944182E+02  0.10000000000E+03  0.10566000000E+00 0.  1.
         22   -1    0    0    0    0 -0.00000000000E+00 -0.00000000000E+00 -0.96878468663E+01  0.96878468663E+01  0.00000000000E+00 0.  1.
         13    1    1    2    0    0 -0.10744677738E+02 -0.49934564093E-01  0.11519013280E+02  0.15752759255E+02  0.10566000000E+00 0. -1.
        996    1    1    2    0    0  0.10744677738E+02  0.49934564093E-01  0.78793084036E+02  0.93935087614E+02  0.50000000000E+02 0.  0.
<mgrwt>
<rscale>  0 0.51141476E+02</rscale>
<asrwt>0</asrwt>
<pdfrwt beam="1">  1       13 0.10000000E+01 0.51141476E+02</pdfrwt>
<pdfrwt beam="2">  1       22 0.96878721E-01 0.51141476E+02</pdfrwt>
<totfact> 0.14726871E+00</totfact>
</mgrwt>
</event>
<event>
 4    1  0.2496748E+000  0.5855651E+02  0.7957747E-01  0.1403991E+00
         13   -1    0    0    0    0  0.00000000000E+00  0.00000000000E+00  0.99999944178E+02  0.99999999999E+02  0.10566000000E+00 0. -1.
         22   -1    0    0    0    0 -0.00000000000E+00 -0.00000000000E+00 -0.37405305122E+02  0.37405305122E+02  0.00000000000E+00 0.  1.
         13    1    1    2    0    0  0.16512576549E+02 -0.25616396942E+02 -0.19783857208E+02  0.36335618154E+02  0.10566000000E+00 0.  1.
        996    1    1    2    0    0 -0.16512576549E+02  0.25616396942E+02  0.82378496265E+02  0.10106968697E+03  0.50000000000E+02 0.  0.
<mgrwt>
<rscale>  0 0.58556511E+02</rscale>
<asrwt>0</asrwt>
<pdfrwt beam="1">  1       13 0.10000000E+01 0.58556511E+02</pdfrwt>
<pdfrwt beam="2">  1       22 0.37405323E+00 0.58556511E+02</pdfrwt>
<totfact> 0.14062442E-01</totfact>
</mgrwt>
</event>
<event>
 4    1  0.2496748E+000  0.5739579E+02  0.7957747E-01  0.1409097E+00
         13   -1    0    0    0    0  0.00000000000E+00  0.00000000000E+00  0.99999944172E+02  0.99999999992E+02  0.10566000000E+00 0. -1.
         22   -1    0    0    0    0 -0.00000000000E+00 -0.00000000000E+00 -0.18984144610E+02  0.18984144610E+02  0.00000000000E+00 0.  1.
         13    1    1    2    0    0  0.96014739566E+00 -0.28166565148E+02  0.16604658861E+02  0.32710902390E+02  0.10566000000E+00 0.  1.
        996    1    1    2    0    0 -0.96014739566E+00  0.28166565148E+02  0.64411140701E+02  0.86273242212E+02  0.50000000000E+02 0.  0.
<mgrwt>
<rscale>  0 0.57395795E+02</rscale>
<asrwt>0</asrwt>
<pdfrwt beam="1">  1       13 0.10000000E+01 0.57395795E+02</pdfrwt>
<pdfrwt beam="2">  1       22 0.18984167E+00 0.57395795E+02</pdfrwt>
<totfact> 0.50361614E-01</totfact>
</mgrwt>
</event>
<event>
 4    1  0.2496748E+000  0.5339109E+02  0.7957747E-01  0.1427864E+00
         13   -1    0    0    0    0  0.00000000000E+00  0.00000000000E+00  0.99999944180E+02  0.10000000000E+03  0.10566000000E+00 0.  1.
         22   -1    0    0    0    0 -0.00000000000E+00 -0.00000000000E+00 -0.33684138399E+02  0.33684138399E+02  0.00000000000E+00 0. -1.
         13    1    1    2    0    0 -0.15318854034E+02  0.10767592375E+02 -0.22980693476E+02  0.29643410248E+02  0.10566000000E+00 0. -1.
        996    1    1    2    0    0  0.15318854034E+02 -0.10767592375E+02  0.89296499257E+02  0.10404072815E+03  0.50000000000E+02 0.  0.
<mgrwt>
<rscale>  0 0.53391089E+02</rscale>
<asrwt>0</asrwt>
<pdfrwt beam="1">  1       13 0.10000000E+01 0.53391089E+02</pdfrwt>
<pdfrwt beam="2">  1       22 0.33684157E+00 0.53391089E+02</pdfrwt>
<totfact> 0.16827467E-01</totfact>
</mgrwt>
</event>
<event>
 4    1  0.2496748E+000  0.5408789E+02  0.7957747E-01  0.1424462E+00
         13   -1    0    0    0    0  0.00000000000E+00  0.00000000000E+00  0.99999944185E+02  0.10000000001E+03  0.10566000000E+00 0. -1.
         22   -1    0    0    0    0 -0.00000000000E+00 -0.00000000000E+00 -0.14144295388E+02  0.14144295388E+02  0.00000000000E+00 0.  1.
         13    1    1    2    0    0 -0.20626342592E+02  0.23086395233E+00  0.29855237764E+02  0.36288368562E+02  0.10566000000E+00 0.  1.
        996    1    1    2    0    0  0.20626342592E+02 -0.23086395233E+00  0.56000411033E+02  0.77855926832E+02  0.50000000000E+02 0.  0.
<mgrwt>
<rscale>  0 0.54087885E+02</rscale>
<asrwt>0</asrwt>
<pdfrwt beam="1">  1       13 0.10000000E+01 0.54087885E+02</pdfrwt>
<pdfrwt beam="2">  1       22 0.14144319E+00 0.54087885E+02</pdfrwt>
<totfact> 0.83290648E-01</totfact>
</mgrwt>
</event>
<event>
 4    1  0.2496748E+000  0.5124425E+02  0.7957747E-01  0.1438744E+00
         13   -1    0    0    0    0  0.00000000000E+00  0.00000000000E+00  0.99999944178E+02  0.99999999998E+02  0.10566000000E+00 0. -1.
         22   -1    0    0    0    0 -0.00000000000E+00 -0.00000000000E+00 -0.12634156683E+02  0.12634156683E+02  0.00000000000E+00 0.  1.
         13    1    1    2    0    0 -0.35895702909E+01 -0.10634293223E+02 -0.14310170035E+00  0.11225188166E+02  0.10566000000E+00 0.  1.
        996    1    1    2    0    0  0.35895702909E+01  0.10634293223E+02  0.87508889195E+02  0.10140896852E+03  0.50000000000E+02 0.  0.
<mgrwt>
<rscale>  0 0.51244250E+02</rscale>
<asrwt>0</asrwt>
<pdfrwt beam="1">  1       13 0.10000000E+01 0.51244250E+02</pdfrwt>
<pdfrwt beam="2">  1       22 0.12634181E+00 0.51244250E+02</pdfrwt>
<totfact> 0.99104749E-01</totfact>
</mgrwt>
</event>
<event>
 4    1  0.2496748E+000  0.5222625E+02  0.7957747E-01  0.1433691E+00
         13   -1    0    0    0    0  0.00000000000E+00  0.00000000000E+00  0.99999944178E+02  0.99999999999E+02  0.10566000000E+00 0. -1.
         22   -1    0    0    0    0 -0.00000000000E+00 -0.00000000000E+00 -0.31032559424E+02  0.31032559424E+02  0.00000000000E+00 0. -1.
         13    1    1    2    0    0 -0.12491956482E+02  0.84576958992E+01 -0.21682398145E+02  0.26414373928E+02  0.10566000000E+00 0.  1.
        996    1    1    2    0    0  0.12491956482E+02 -0.84576958992E+01  0.90649782899E+02  0.10461818549E+03  0.50000000000E+02 0.  0.
<mgrwt>
<rscale>  0 0.52226254E+02</rscale>
<asrwt>0</asrwt>
<pdfrwt beam="1">  1       13 0.10000000E+01 0.52226254E+02</pdfrwt>
<pdfrwt beam="2">  1       22 0.31032579E+00 0.52226254E+02</pdfrwt>
<totfact> 0.19454397E-01</totfact>
</mgrwt>
</event>
<event>
 4    1  0.2496748E+000  0.5285485E+02  0.7957747E-01  0.1430525E+00
         13   -1    0    0    0    0  0.00000000000E+00  0.00000000000E+00  0.99999944179E+02  0.99999999999E+02  0.10566000000E+00 0. -1.
         22   -1    0    0    0    0 -0.00000000000E+00 -0.00000000000E+00 -0.12829244822E+02  0.12829244822E+02  0.00000000000E+00 0.  1.
         13    1    1    2    0    0 -0.16913125400E+02 -0.27534622819E+01  0.11932676272E+02  0.20881458100E+02  0.10566000000E+00 0.  1.
        996    1    1    2    0    0  0.16913125400E+02  0.27534622819E+01  0.75238023085E+02  0.91947786722E+02  0.50000000000E+02 0.  0.
<mgrwt>
<rscale>  0 0.52854852E+02</rscale>
<asrwt>0</asrwt>
<pdfrwt beam="1">  1       13 0.10000000E+01 0.52854852E+02</pdfrwt>
<pdfrwt beam="2">  1       22 0.12829269E+00 0.52854852E+02</pdfrwt>
<totfact> 0.97098791E-01</totfact>
</mgrwt>
</event>
<event>
 4    1  0.2496748E+000  0.5286789E+02  0.7957747E-01  0.1430459E+00
         13   -1    0    0    0    0  0.00000000000E+00  0.00000000000E+00  0.99999944178E+02  0.99999999998E+02  0.10566000000E+00 0. -1.
         22   -1    0    0    0    0 -0.00000000000E+00 -0.00000000000E+00 -0.12469113705E+02  0.12469113705E+02  0.00000000000E+00 0.  1.
         13    1    1    2    0    0  0.21882903134E+00 -0.17174582996E+02  0.28030219666E+02  0.32874284263E+02  0.10566000000E+00 0.  1.
        996    1    1    2    0    0 -0.21882903134E+00  0.17174582996E+02  0.59500610807E+02  0.79594829441E+02  0.50000000000E+02 0.  0.
<mgrwt>
<rscale>  0 0.52867894E+02</rscale>
<asrwt>0</asrwt>
<pdfrwt beam="1">  1       13 0.10000000E+01 0.52867894E+02</pdfrwt>
<pdfrwt beam="2">  1       22 0.12469138E+00 0.52867894E+02</pdfrwt>
<totfact> 0.10151406E+00</totfact>
</mgrwt>
</event>
<event>
 4    1  0.2496748E+000  0.5101061E+02  0.7957747E-01  0.1439966E+00
         13   -1    0    0    0    0  0.00000000000E+00  0.00000000000E+00  0.99999944181E+02  0.10000000000E+03  0.10566000000E+00 0. -1.
         22   -1    0    0    0    0 -0.00000000000E+00 -0.00000000000E+00 -0.17179466369E+02  0.17179466369E+02  0.00000000000E+00 0. -1.
         13    1    1    2    0    0  0.86895875833E+01  0.51549317381E+01  0.60774522335E+02  0.61608733007E+02  0.10566000000E+00 0.  1.
        996    1    1    2    0    0 -0.86895875833E+01 -0.51549317381E+01  0.22045955477E+02  0.55570733363E+02  0.50000000000E+02 0.  0.
<mgrwt>
<rscale>  0 0.51010609E+02</rscale>
<asrwt>0</asrwt>
<pdfrwt beam="1">  1       13 0.10000000E+01 0.51010609E+02</pdfrwt>
<pdfrwt beam="2">  1       22 0.17179489E+00 0.51010609E+02</pdfrwt>
<totfact> 0.59572697E-01</totfact>
</mgrwt>
</event>
<event>
 4    1  0.2496748E+000  0.5145189E+02  0.7957747E-01  0.1437664E+00
         13   -1    0    0    0    0  0.00000000000E+00  0.00000000000E+00  0.99999944173E+02  0.99999999994E+02  0.10566000000E+00 0.  1.
         22   -1    0    0    0    0 -0.00000000000E+00 -0.00000000000E+00 -0.28713897533E+02  0.28713897533E+02  0.00000000000E+00 0. -1.
         13    1    1    2    0    0 -0.97737932565E+01 -0.71950987660E+01 -0.20307670116E+02  0.23658172170E+02  0.10566000000E+00 0. -1.
        996    1    1    2    0    0  0.97737932565E+01  0.71950987660E+01  0.91593716756E+02  0.10505572536E+03  0.50000000000E+02 0.  0.
<mgrwt>
<rscale>  0 0.51451885E+02</rscale>
<asrwt>0</asrwt>
<pdfrwt beam="1">  1       13 0.10000000E+01 0.51451885E+02</pdfrwt>
<pdfrwt beam="2">  1       22 0.28713917E+00 0.51451885E+02</pdfrwt>
<totfact> 0.22476477E-01</totfact>
</mgrwt>
</event>
<event>
 4    1  0.2496748E+000  0.5621212E+02  0.7957747E-01  0.1414452E+00
         13   -1    0    0    0    0  0.00000000000E+00  0.00000000000E+00  0.99999944177E+02  0.99999999998E+02  0.10566000000E+00 0. -1.
         22   -1    0    0    0    0 -0.00000000000E+00 -0.00000000000E+00 -0.24825992781E+02  0.24825992781E+02  0.00000000000E+00 0.  1.
         13    1    1    2    0    0  0.16563584181E+02 -0.19632888466E+02 -0.57228511078E+01  0.26316626290E+02  0.10566000000E+00 0.  1.
        996    1    1    2    0    0 -0.16563584181E+02  0.19632888466E+02  0.80896802504E+02  0.98509366488E+02  0.50000000000E+02 0.  0.
<mgrwt>
<rscale>  0 0.56212122E+02</rscale>
<asrwt>0</asrwt>
<pdfrwt beam="1">  1       13 0.10000000E+01 0.56212122E+02</pdfrwt>
<pdfrwt beam="2">  1       22 0.24826014E+00 0.56212122E+02</pdfrwt>
<totfact> 0.30078187E-01</totfact>
</mgrwt>
</event>
<event>
 4    1  0.2496748E+000  0.5452653E+02  0.7957747E-01  0.1422351E+00
         13   -1    0    0    0    0  0.00000000000E+00  0.00000000000E+00  0.99999944185E+02  0.10000000000E+03  0.10566000000E+00 0. -1.
         22   -1    0    0    0    0 -0.00000000000E+00 -0.00000000000E+00 -0.16848666526E+02  0.16848666526E+02  0.00000000000E+00 0.  1.
         13    1    1    2    0    0  0.18147758555E+02 -0.11991740373E+02  0.63507802297E+01  0.22660241643E+02  0.10566000000E+00 0.  1.
        996    1    1    2    0    0 -0.18147758555E+02  0.11991740373E+02  0.76800497429E+02  0.94188424889E+02  0.50000000000E+02 0.  0.
<mgrwt>
<rscale>  0 0.54526535E+02</rscale>
<asrwt>0</asrwt>
<pdfrwt beam="1">  1       13 0.10000000E+01 0.54526535E+02</pdfrwt>
<pdfrwt beam="2">  1       22 0.16848690E+00 0.54526535E+02</pdfrwt>
<totfact> 0.62053295E-01</totfact>
</mgrwt>
</event>
<event>
 4    1  0.2496748E+000  0.5760811E+02  0.7957747E-01  0.1408153E+00
         13   -1    0    0    0    0  0.00000000000E+00  0.00000000000E+00  0.99999944173E+02  0.99999999994E+02  0.10566000000E+00 0. -1.
         22   -1    0    0    0    0 -0.00000000000E+00 -0.00000000000E+00 -0.26950120691E+02  0.26950120691E+02  0.00000000000E+00 0.  1.
         13    1    1    2    0    0 -0.24947436862E+02  0.14011434706E+02 -0.59019494515E+01  0.29215391147E+02  0.10566000000E+00 0.  1.
        996    1    1    2    0    0  0.24947436862E+02 -0.14011434706E+02  0.78951772934E+02  0.97734729538E+02  0.50000000000E+02 0.  0.
<mgrwt>
<rscale>  0 0.57608115E+02</rscale>
<asrwt>0</asrwt>
<pdfrwt beam="1">  1       13 0.10000000E+01 0.57608115E+02</pdfrwt>
<pdfrwt beam="2">  1       22 0.26950141E+00 0.57608115E+02</pdfrwt>
<totfact> 0.25634381E-01</totfact>
</mgrwt>
</event>
<event>
 4    1  0.2496748E+000  0.6436134E+02  0.7957747E-01  0.1380390E+00
         13   -1    0    0    0    0  0.00000000000E+00  0.00000000000E+00  0.99999944183E+02  0.10000000000E+03  0.10566000000E+00 0.  1.
         22   -1    0    0    0    0 -0.00000000000E+00 -0.00000000000E+00 -0.35786071107E+02  0.35786071107E+02  0.00000000000E+00 0. -1.
         13    1    1    2    0    0 -0.40453225446E+02  0.24329266038E+01 -0.55081559223E+01  0.40899065106E+02  0.10566000000E+00 0. -1.
        996    1    1    2    0    0  0.40453225446E+02 -0.24329266038E+01  0.69722028999E+02  0.94887006005E+02  0.50000000000E+02 0.  0.
<mgrwt>
<rscale>  0 0.64361344E+02</rscale>
<asrwt>0</asrwt>
<pdfrwt beam="1">  1       13 0.10000000E+01 0.64361344E+02</pdfrwt>
<pdfrwt beam="2">  1       22 0.35786089E+00 0.64361344E+02</pdfrwt>
<totfact> 0.15284227E-01</totfact>
</mgrwt>
</event>
<event>
 4    1  0.2496748E+000  0.5193653E+02  0.7957747E-01  0.1435168E+00
         13   -1    0    0    0    0  0.00000000000E+00  0.00000000000E+00  0.99999944185E+02  0.10000000000E+03  0.10566000000E+00 0. -1.
         22   -1    0    0    0    0 -0.00000000000E+00 -0.00000000000E+00 -0.14880806872E+02  0.14880806872E+02  0.00000000000E+00 0. -1.
         13    1    1    2    0    0  0.10433095814E+02 -0.94102797777E+01  0.50611358757E+02  0.52525457190E+02  0.10566000000E+00 0.  1.
        996    1    1    2    0    0 -0.10433095814E+02  0.94102797777E+01  0.34507778556E+02  0.62355349687E+02  0.50000000000E+02 0.  0.
<mgrwt>
<rscale>  0 0.51936527E+02</rscale>
<asrwt>0</asrwt>
<pdfrwt beam="1">  1       13 0.10000000E+01 0.51936527E+02</pdfrwt>
<pdfrwt beam="2">  1       22 0.14880831E+00 0.51936527E+02</pdfrwt>
<totfact> 0.76287738E-01</totfact>
</mgrwt>
</event>
<event>
 4    1  0.2496748E+000  0.5300432E+02  0.7957747E-01  0.1429779E+00
         13   -1    0    0    0    0  0.00000000000E+00  0.00000000000E+00  0.99999944173E+02  0.99999999993E+02  0.10566000000E+00 0. -1.
         22   -1    0    0    0    0 -0.00000000000E+00 -0.00000000000E+00 -0.19319459139E+02  0.19319459139E+02  0.00000000000E+00 0.  1.
         13    1    1    2    0    0 -0.17523632297E+02 -0.15428536707E+01 -0.52483630688E+01  0.18357956457E+02  0.10566000000E+00 0.  1.
        996    1    1    2    0    0  0.17523632297E+02  0.15428536707E+01  0.85928848102E+02  0.10096150268E+03  0.50000000000E+02 0.  0.
<mgrwt>
<rscale>  0 0.53004321E+02</rscale>
<asrwt>0</asrwt>
<pdfrwt beam="1">  1       13 0.10000000E+01 0.53004321E+02</pdfrwt>
<pdfrwt beam="2">  1       22 0.19319482E+00 0.53004321E+02</pdfrwt>
<totfact> 0.48398916E-01</totfact>
</mgrwt>
</event>
<event>
 4    1  0.2496748E+000  0.5186690E+02  0.7957747E-01  0.1435524E+00
         13   -1    0    0    0    0  0.00000000000E+00  0.00000000000E+00  0.99999944179E+02  0.99999999999E+02  0.10566000000E+00 0. -1.
         22   -1    0    0    0    0 -0.00000000000E+00 -0.00000000000E+00 -0.18471666137E+02  0.18471666137E+02  0.00000000000E+00 0. -1.
         13    1    1    2    0    0  0.61521972684E+01  0.12342050373E+02 -0.73042718021E+01  0.15605745392E+02  0.10566000000E+00 0.  1.
        996    1    1    2    0    0 -0.61521972684E+01 -0.12342050373E+02  0.88832549844E+02  0.10286592074E+03  0.50000000000E+02 0.  0.
<mgrwt>
<rscale>  0 0.51866904E+02</rscale>
<asrwt>0</asrwt>
<pdfrwt beam="1">  1       13 0.10000000E+01 0.51866904E+02</pdfrwt>
<pdfrwt beam="2">  1       22 0.18471689E+00 0.51866904E+02</pdfrwt>
<totfact> 0.52425251E-01</totfact>
</mgrwt>
</event>
<event>
 4    1  0.2496748E+000  0.5107803E+02  0.7957747E-01  0.1439612E+00
         13   -1    0    0    0    0  0.00000000000E+00  0.00000000000E+00  0.99999944179E+02  0.99999999999E+02  0.10566000000E+00 0.  1.
         22   -1    0    0    0    0 -0.00000000000E+00 -0.00000000000E+00 -0.21025701185E+02  0.21025701185E+02  0.00000000000E+00 0. -1.
         13    1    1    2    0    0 -0.85581242930E+01 -0.59769346529E+01 -0.12482396887E+02  0.16272265833E+02  0.10566000000E+00 0. -1.
        996    1    1    2    0    0  0.85581242930E+01  0.59769346529E+01  0.91456639882E+02  0.10475343535E+03  0.50000000000E+02 0.  0.
<mgrwt>
<rscale>  0 0.51078031E+02</rscale>
<asrwt>0</asrwt>
<pdfrwt beam="1">  1       13 0.10000000E+01 0.51078031E+02</pdfrwt>
<pdfrwt beam="2">  1       22 0.21025723E+00 0.51078031E+02</pdfrwt>
<totfact> 0.41171884E-01</totfact>
</mgrwt>
</event>
<event>
 4    1  0.2496748E+000  0.5651890E+02  0.7957747E-01  0.1413049E+00
         13   -1    0    0    0    0  0.00000000000E+00  0.00000000000E+00  0.99999944174E+02  0.99999999994E+02  0.10566000000E+00 0. -1.
         22   -1    0    0    0    0 -0.00000000000E+00 -0.00000000000E+00 -0.57461425368E+02  0.57461425368E+02  0.00000000000E+00 0.  1.
         13    1    1    2    0    0  0.26347768612E+02 -0.42576179449E+00 -0.45653656219E+02  0.52712936497E+02  0.10566000000E+00 0.  1.
        996    1    1    2    0    0 -0.26347768612E+02  0.42576179449E+00  0.88192175025E+02  0.10474848887E+03  0.50000000000E+02 0.  0.
<mgrwt>
<rscale>  0 0.56518901E+02</rscale>
<asrwt>0</asrwt>
<pdfrwt beam="1">  1       13 0.10000000E+01 0.56518901E+02</pdfrwt>
<pdfrwt beam="2">  1       22 0.57461437E+00 0.56518901E+02</pdfrwt>
<totfact> 0.57889919E-02</totfact>
</mgrwt>
</event>
<event>
 4    1  0.2496748E+000  0.5103097E+02  0.7957747E-01  0.1439859E+00
         13   -1    0    0    0    0  0.00000000000E+00  0.00000000000E+00  0.99999944181E+02  0.10000000000E+03  0.10566000000E+00 0. -1.
         22   -1    0    0    0    0 -0.00000000000E+00 -0.00000000000E+00 -0.10700065849E+02  0.10700065849E+02  0.00000000000E+00 0. -1.
         13    1    1    2    0    0  0.91923669396E+01 -0.44339701160E+01  0.33789844152E+02  0.35297654778E+02  0.10566000000E+00 0.  1.
        996    1    1    2    0    0 -0.91923669396E+01  0.44339701160E+01  0.55510034179E+02  0.75402411072E+02  0.50000000000E+02 0.  0.
<mgrwt>
<rscale>  0 0.51030968E+02</rscale>
<asrwt>0</asrwt>
<pdfrwt beam="1">  1       13 0.10000000E+01 0.51030968E+02</pdfrwt>
<pdfrwt beam="2">  1       22 0.10700091E+00 0.51030968E+02</pdfrwt>
<totfact> 0.12740688E+00</totfact>
</mgrwt>
</event>
<event>
 4    1  0.2496748E+000  0.7508519E+02  0.7957747E-01  0.1343607E+00
         13   -1    0    0    0    0  0.00000000000E+00  0.00000000000E+00  0.99999944177E+02  0.99999999997E+02  0.10566000000E+00 0. -1.
         22   -1    0    0    0    0 -0.00000000000E+00 -0.00000000000E+00 -0.44398564236E+02  0.44398564236E+02  0.00000000000E+00 0.  1.
         13    1    1    2    0    0 -0.54981650108E+02  0.10714675967E+02  0.11064331443E+02  0.57098307541E+02  0.10566000000E+00 0.  1.
        996    1    1    2    0    0  0.54981650108E+02 -0.10714675967E+02  0.44537048498E+02  0.87300256693E+02  0.50000000000E+02 0.  0.
<mgrwt>
<rscale>  0 0.75085192E+02</rscale>
<asrwt>0</asrwt>
<pdfrwt beam="1">  1       13 0.10000000E+01 0.75085192E+02</pdfrwt>
<pdfrwt beam="2">  1       22 0.44398580E+00 0.75085192E+02</pdfrwt>
<totfact> 0.10083775E-01</totfact>
</mgrwt>
</event>
<event>
 4    1  0.2496748E+000  0.5194025E+02  0.7957747E-01  0.1435149E+00
         13   -1    0    0    0    0  0.00000000000E+00  0.00000000000E+00  0.99999944176E+02  0.99999999996E+02  0.10566000000E+00 0. -1.
         22   -1    0    0    0    0 -0.00000000000E+00 -0.00000000000E+00 -0.63266660559E+02  0.63266660559E+02  0.00000000000E+00 0.  1.
         13    1    1    2    0    0  0.13301649593E+02 -0.45668473647E+01 -0.55586815525E+02  0.57338426914E+02  0.10566000000E+00 0.  1.
        996    1    1    2    0    0 -0.13301649593E+02  0.45668473647E+01  0.92320099142E+02  0.10592823364E+03  0.50000000000E+02 0.  0.
<mgrwt>
<rscale>  0 0.51940254E+02</rscale>
<asrwt>0</asrwt>
<pdfrwt beam="1">  1       13 0.10000000E+01 0.51940254E+02</pdfrwt>
<pdfrwt beam="2">  1       22 0.63266671E+00 0.51940254E+02</pdfrwt>
<totfact> 0.80144892E-02</totfact>
</mgrwt>
</event>
<event>
 4    1  0.2496748E+000  0.5285331E+02  0.7957747E-01  0.1430532E+00
         13   -1    0    0    0    0  0.00000000000E+00  0.00000000000E+00  0.99999944182E+02  0.10000000000E+03  0.10566000000E+00 0. -1.
         22   -1    0    0    0    0 -0.00000000000E+00 -0.00000000000E+00 -0.14029560323E+02  0.14029560323E+02  0.00000000000E+00 0.  1.
         13    1    1    2    0    0  0.16587397302E+02  0.42814745687E+01  0.59604198678E+01  0.18138647766E+02  0.10566000000E+00 0.  1.
        996    1    1    2    0    0 -0.16587397302E+02 -0.42814745687E+01  0.80009963991E+02  0.95890912560E+02  0.50000000000E+02 0.  0.
<mgrwt>
<rscale>  0 0.52853314E+02</rscale>
<asrwt>0</asrwt>
<pdfrwt beam="1">  1       13 0.10000000E+01 0.52853314E+02</pdfrwt>
<pdfrwt beam="2">  1       22 0.14029584E+00 0.52853314E+02</pdfrwt>
<totfact> 0.84189167E-01</totfact>
</mgrwt>
</event>
<event>
 4    1  0.2496748E+000  0.5333716E+02  0.7957747E-01  0.1428130E+00
         13   -1    0    0    0    0  0.00000000000E+00  0.00000000000E+00  0.99999944180E+02  0.10000000000E+03  0.10566000000E+00 0. -1.
         22   -1    0    0    0    0 -0.00000000000E+00 -0.00000000000E+00 -0.54190855575E+02  0.54190855575E+02  0.00000000000E+00 0.  1.
         13    1    1    2    0    0  0.79810004725E+01 -0.16767710284E+02 -0.45109188981E+02  0.48782195228E+02  0.10566000000E+00 0.  1.
        996    1    1    2    0    0 -0.79810004725E+01  0.16767710284E+02  0.90918277586E+02  0.10540866035E+03  0.50000000000E+02 0.  0.
<mgrwt>
<rscale>  0 0.53337158E+02</rscale>
<asrwt>0</asrwt>
<pdfrwt beam="1">  1       13 0.10000000E+01 0.53337158E+02</pdfrwt>
<pdfrwt beam="2">  1       22 0.54190868E+00 0.53337158E+02</pdfrwt>
<totfact> 0.60281336E-02</totfact>
</mgrwt>
</event>
<event>
 4    1  0.2496748E+000  0.5309791E+02  0.7957747E-01  0.1429314E+00
         13   -1    0    0    0    0  0.00000000000E+00  0.00000000000E+00  0.99999944182E+02  0.10000000000E+03  0.10566000000E+00 0. -1.
         22   -1    0    0    0    0 -0.00000000000E+00 -0.00000000000E+00 -0.38793683639E+02  0.38793683639E+02  0.00000000000E+00 0.  1.
         13    1    1    2    0    0  0.17756530298E+02  0.20231669768E+01 -0.29032384746E+02  0.34092200001E+02  0.10566000000E+00 0.  1.
        996    1    1    2    0    0 -0.17756530298E+02 -0.20231669768E+01  0.90238645289E+02  0.10470148364E+03  0.50000000000E+02 0.  0.
<mgrwt>
<rscale>  0 0.53097906E+02</rscale>
<asrwt>0</asrwt>
<pdfrwt beam="1">  1       13 0.10000000E+01 0.53097906E+02</pdfrwt>
<pdfrwt beam="2">  1       22 0.38793701E+00 0.53097906E+02</pdfrwt>
<totfact> 0.13105926E-01</totfact>
</mgrwt>
</event>
<event>
 4    1  0.2496748E+000  0.7124837E+02  0.7957747E-01  0.1355899E+00
         13   -1    0    0    0    0  0.00000000000E+00  0.00000000000E+00  0.99999944178E+02  0.99999999998E+02  0.10566000000E+00 0. -1.
         22   -1    0    0    0    0 -0.00000000000E+00 -0.00000000000E+00 -0.37427448900E+02  0.37427448900E+02  0.00000000000E+00 0.  1.
         13    1    1    2    0    0  0.47933936952E+02  0.16693370651E+02  0.20942058342E+02  0.54908213475E+02  0.10566000000E+00 0.  1.
        996    1    1    2    0    0 -0.47933936952E+02 -0.16693370651E+02  0.41630436936E+02  0.82519235424E+02  0.50000000000E+02 0.  0.
<mgrwt>
<rscale>  0 0.71248375E+02</rscale>
<asrwt>0</asrwt>
<pdfrwt beam="1">  1       13 0.10000000E+01 0.71248375E+02</pdfrwt>
<pdfrwt beam="2">  1       22 0.37427466E+00 0.71248375E+02</pdfrwt>
<totfact> 0.14177363E-01</totfact>
</mgrwt>
</event>
<event>
 4    1  0.2496748E+000  0.5138825E+02  0.7957747E-01  0.1437994E+00
         13   -1    0    0    0    0  0.00000000000E+00  0.00000000000E+00  0.99999944181E+02  0.10000000000E+03  0.10566000000E+00 0. -1.
         22   -1    0    0    0    0 -0.00000000000E+00 -0.00000000000E+00 -0.10015947922E+02  0.10015947922E+02  0.00000000000E+00 0. -1.
         13    1    1    2    0    0 -0.82211265150E+01 -0.85536818129E+01  0.18507980864E+02  0.21984287876E+02  0.10566000000E+00 0.  1.
        996    1    1    2    0    0  0.82211265150E+01  0.85536818129E+01  0.71476015396E+02  0.88031660047E+02  0.50000000000E+02 0.  0.
<mgrwt>
<rscale>  0 0.51388252E+02</rscale>
<asrwt>0</asrwt>
<pdfrwt beam="1">  1       13 0.10000000E+01 0.51388252E+02</pdfrwt>
<pdfrwt beam="2">  1       22 0.10015973E+00 0.51388252E+02</pdfrwt>
<totfact> 0.14044591E+00</totfact>
</mgrwt>
</event>
<event>
 4    1  0.2496748E+000  0.5387578E+02  0.7957747E-01  0.1425491E+00
         13   -1    0    0    0    0  0.00000000000E+00  0.00000000000E+00  0.99999944166E+02  0.99999999986E+02  0.10566000000E+00 0.  1.
         22   -1    0    0    0    0 -0.00000000000E+00 -0.00000000000E+00 -0.16789580734E+02  0.16789580734E+02  0.00000000000E+00 0.  1.
         13    1    1    2    0    0 -0.19467110906E+02 -0.48611615768E+01  0.31817396990E+01  0.20315854165E+02  0.10566000000E+00 0. -1.
        996    1    1    2    0    0  0.19467110906E+02  0.48611615768E+01  0.80028623733E+02  0.96473726556E+02  0.50000000000E+02 0.  0.
<mgrwt>
<rscale>  0 0.53875777E+02</rscale>
<asrwt>0</asrwt>
<pdfrwt beam="1">  1       13 0.10000000E+01 0.53875777E+02</pdfrwt>
<pdfrwt beam="2">  1       22 0.16789604E+00 0.53875777E+02</pdfrwt>
<totfact> 0.62359623E-01</totfact>
</mgrwt>
</event>
<event>
 4    1  0.2496748E+000  0.5780169E+02  0.7957747E-01  0.1407296E+00
         13   -1    0    0    0    0  0.00000000000E+00  0.00000000000E+00  0.99999944175E+02  0.99999999995E+02  0.10566000000E+00 0. -1.
         22   -1    0    0    0    0 -0.00000000000E+00 -0.00000000000E+00 -0.35471844682E+02  0.35471844682E+02  0.00000000000E+00 0.  1.
         13    1    1    2    0    0  0.38387511710E+01 -0.28745424839E+02 -0.18430814482E+02  0.34361920002E+02  0.10566000000E+00 0.  1.
        996    1    1    2    0    0 -0.38387511710E+01  0.28745424839E+02  0.82958913976E+02  0.10110992467E+03  0.50000000000E+02 0.  0.
<mgrwt>
<rscale>  0 0.57801691E+02</rscale>
<asrwt>0</asrwt>
<pdfrwt beam="1">  1       13 0.10000000E+01 0.57801691E+02</pdfrwt>
<pdfrwt beam="2">  1       22 0.35471863E+00 0.57801691E+02</pdfrwt>
<totfact> 0.15437291E-01</totfact>
</mgrwt>
</event>
<event>
 4    1  0.2496748E+000  0.5198697E+02  0.7957747E-01  0.1434910E+00
         13   -1    0    0    0    0  0.00000000000E+00  0.00000000000E+00  0.99999944180E+02  0.10000000000E+03  0.10566000000E+00 0.  1.
         22   -1    0    0    0    0 -0.00000000000E+00 -0.00000000000E+00 -0.11341774250E+02  0.11341774250E+02  0.00000000000E+00 0.  1.
         13    1    1    2    0    0 -0.14020045852E+02  0.24664408582E+01  0.28320168186E+02  0.31696815397E+02  0.10566000000E+00 0. -1.
        996    1    1    2    0    0  0.14020045852E+02 -0.24664408582E+01  0.60338001744E+02  0.79644958853E+02  0.50000000000E+02 0.  0.
<mgrwt>
<rscale>  0 0.51986970E+02</rscale>
<asrwt>0</asrwt>
<pdfrwt beam="1">  1       13 0.10000000E+01 0.51986970E+02</pdfrwt>
<pdfrwt beam="2">  1       22 0.11341799E+00 0.51986970E+02</pdfrwt>
<totfact> 0.11708886E+00</totfact>
</mgrwt>
</event>
<event>
 4    1  0.2496748E+000  0.5139229E+02  0.7957747E-01  0.1437973E+00
         13   -1    0    0    0    0  0.00000000000E+00  0.00000000000E+00  0.99999944185E+02  0.10000000000E+03  0.10566000000E+00 0. -1.
         22   -1    0    0    0    0 -0.00000000000E+00 -0.00000000000E+00 -0.10401825587E+02  0.10401825587E+02  0.00000000000E+00 0. -1.
         13    1    1    2    0    0 -0.64097767721E+01 -0.10004093906E+02  0.94022374635E+01  0.15151909666E+02  0.10566000000E+00 0.  1.
        996    1    1    2    0    0  0.64097767721E+01  0.10004093906E+02  0.80195881134E+02  0.95249915927E+02  0.50000000000E+02 0.  0.
<mgrwt>
<rscale>  0 0.51392287E+02</rscale>
<asrwt>0</asrwt>
<pdfrwt beam="1">  1       13 0.10000000E+01 0.51392287E+02</pdfrwt>
<pdfrwt beam="2">  1       22 0.10401851E+00 0.51392287E+02</pdfrwt>
<totfact> 0.13292500E+00</totfact>
</mgrwt>
</event>
<event>
 4    1  0.2496748E+000  0.5131262E+02  0.7957747E-01  0.1438388E+00
         13   -1    0    0    0    0  0.00000000000E+00  0.00000000000E+00  0.99999944185E+02  0.10000000000E+03  0.10566000000E+00 0. -1.
         22   -1    0    0    0    0 -0.00000000000E+00 -0.00000000000E+00 -0.20799095978E+02  0.20799095978E+02  0.00000000000E+00 0.  1.
         13    1    1    2    0    0 -0.11380215232E+02 -0.18642042392E+01 -0.11691936085E+02  0.16422456869E+02  0.10566000000E+00 0.  1.
        996    1    1    2    0    0  0.11380215232E+02  0.18642042392E+01  0.90892784292E+02  0.10437663911E+03  0.50000000000E+02 0.  0.
<mgrwt>
<rscale>  0 0.51312616E+02</rscale>
<asrwt>0</asrwt>
<pdfrwt beam="1">  1       13 0.10000000E+01 0.51312616E+02</pdfrwt>
<pdfrwt beam="2">  1       22 0.20799118E+00 0.51312616E+02</pdfrwt>
<totfact> 0.42042713E-01</totfact>
</mgrwt>
</event>
<event>
 4    1  0.2496748E+000  0.5258504E+02  0.7957747E-01  0.1431877E+00
         13   -1    0    0    0    0  0.00000000000E+00  0.00000000000E+00  0.99999944176E+02  0.99999999996E+02  0.10566000000E+00 0.  1.
         22   -1    0    0    0    0 -0.00000000000E+00 -0.00000000000E+00 -0.36364006924E+02  0.36364006924E+02  0.00000000000E+00 0. -1.
         13    1    1    2    0    0 -0.80286745086E+01 -0.14167813495E+02 -0.27027492478E+02  0.31554446078E+02  0.10566000000E+00 0. -1.
        996    1    1    2    0    0  0.80286745086E+01  0.14167813495E+02  0.90663429730E+02  0.10480956084E+03  0.50000000000E+02 0.  0.
<mgrwt>
<rscale>  0 0.52585041E+02</rscale>
<asrwt>0</asrwt>
<pdfrwt beam="1">  1       13 0.10000000E+01 0.52585041E+02</pdfrwt>
<pdfrwt beam="2">  1       22 0.36364025E+00 0.52585041E+02</pdfrwt>
<totfact> 0.14707057E-01</totfact>
</mgrwt>
</event>
<event>
 4    1  0.2496748E+000  0.5136161E+02  0.7957747E-01  0.1438133E+00
         13   -1    0    0    0    0  0.00000000000E+00  0.00000000000E+00  0.99999944177E+02  0.99999999997E+02  0.10566000000E+00 0.  1.
         22   -1    0    0    0    0 -0.00000000000E+00 -0.00000000000E+00 -0.10192563600E+02  0.10192563600E+02  0.00000000000E+00 0. -1.
         13    1    1    2    0    0 -0.99990611532E+01  0.61671658134E+01  0.10802590751E+02  0.15960021588E+02  0.10566000000E+00 0. -1.
        996    1    1    2    0    0  0.99990611532E+01 -0.61671658134E+01  0.79004789826E+02  0.94232542009E+02  0.50000000000E+02 0.  0.
<mgrwt>
<rscale>  0 0.51361612E+02</rscale>
<asrwt>0</asrwt>
<pdfrwt beam="1">  1       13 0.10000000E+01 0.51361612E+02</pdfrwt>
<pdfrwt beam="2">  1       22 0.10192589E+00 0.51361612E+02</pdfrwt>
<totfact> 0.13691703E+00</totfact>
</mgrwt>
</event>
<event>
 4    1  0.2496748E+000  0.5196761E+02  0.7957747E-01  0.1435009E+00
         13   -1    0    0    0    0  0.00000000000E+00  0.00000000000E+00  0.99999944185E+02  0.10000000001E+03  0.10566000000E+00 0.  1.
         22   -1    0    0    0    0 -0.00000000000E+00 -0.00000000000E+00 -0.18781134410E+02  0.18781134410E+02  0.00000000000E+00 0. -1.
         13    1    1    2    0    0  0.69723092513E+01 -0.12329624326E+02 -0.74508452090E+01  0.16004967687E+02  0.10566000000E+00 0. -1.
        996    1    1    2    0    0 -0.69723092513E+01  0.12329624326E+02  0.88669654984E+02  0.10277616673E+03  0.50000000000E+02 0.  0.
<mgrwt>
<rscale>  0 0.51967612E+02</rscale>
<asrwt>0</asrwt>
<pdfrwt beam="1">  1       13 0.10000000E+01 0.51967612E+02</pdfrwt>
<pdfrwt beam="2">  1       22 0.18781157E+00 0.51967612E+02</pdfrwt>
<totfact> 0.50875857E-01</totfact>
</mgrwt>
</event>
<event>
 4    1  0.2496748E+000  0.5101342E+02  0.7957747E-01  0.1439951E+00
         13   -1    0    0    0    0  0.00000000000E+00  0.00000000000E+00  0.99999944183E+02  0.10000000000E+03  0.10566000000E+00 0. -1.
         22   -1    0    0    0    0 -0.00000000000E+00 -0.00000000000E+00 -0.11280943928E+02  0.11280943928E+02  0.00000000000E+00 0.  1.
         13    1    1    2    0    0 -0.95099862422E+01 -0.34538098167E+01  0.14862103791E+01  0.10226858066E+02  0.10566000000E+00 0.  1.
        996    1    1    2    0    0  0.95099862422E+01  0.34538098167E+01  0.87232789876E+02  0.10105408587E+03  0.50000000000E+02 0.  0.
<mgrwt>
<rscale>  0 0.51013416E+02</rscale>
<asrwt>0</asrwt>
<pdfrwt beam="1">  1       13 0.10000000E+01 0.51013416E+02</pdfrwt>
<pdfrwt beam="2">  1       22 0.11280969E+00 0.51013416E+02</pdfrwt>
<totfact> 0.11777221E+00</totfact>
</mgrwt>
</event>
<event>
 4    1  0.2496748E+000  0.5174514E+02  0.7957747E-01  0.1436150E+00
         13   -1    0    0    0    0  0.00000000000E+00  0.00000000000E+00  0.99999944179E+02  0.99999999999E+02  0.10566000000E+00 0.  1.
         22   -1    0    0    0    0 -0.00000000000E+00 -0.00000000000E+00 -0.11052253004E+02  0.11052253004E+02  0.00000000000E+00 0.  1.
         13    1    1    2    0    0 -0.13315129922E+02 -0.51649682338E+00  0.28637613174E+02  0.31586128381E+02  0.10566000000E+00 0. -1.
        996    1    1    2    0    0  0.13315129922E+02  0.51649682338E+00  0.60310078001E+02  0.79466124621E+02  0.50000000000E+02 0.  0.
<mgrwt>
<rscale>  0 0.51745139E+02</rscale>
<asrwt>0</asrwt>
<pdfrwt beam="1">  1       13 0.10000000E+01 0.51745139E+02</pdfrwt>
<pdfrwt beam="2">  1       22 0.11052278E+00 0.51745139E+02</pdfrwt>
<totfact> 0.12163882E+00</totfact>
</mgrwt>
</event>
<event>
 4    1  0.2496748E+000  0.5338001E+02  0.7957747E-01  0.1427919E+00
         13   -1    0    0    0    0  0.00000000000E+00  0.00000000000E+00  0.99999944177E+02  0.99999999998E+02  0.10566000000E+00 0. -1.
         22   -1    0    0    0    0 -0.00000000000E+00 -0.00000000000E+00 -0.61924545633E+02  0.61924545633E+02  0.00000000000E+00 0.  1.
         13    1    1    2    0    0  0.88777845225E+01  0.16450239598E+02 -0.53087875551E+02  0.56282849390E+02  0.10566000000E+00 0.  1.
        996    1    1    2    0    0 -0.88777845225E+01 -0.16450239598E+02  0.91163274096E+02  0.10564169624E+03  0.50000000000E+02 0.  0.
<mgrwt>
<rscale>  0 0.53380010E+02</rscale>
<asrwt>0</asrwt>
<pdfrwt beam="1">  1       13 0.10000000E+01 0.53380010E+02</pdfrwt>
<pdfrwt beam="2">  1       22 0.61924556E+00 0.53380010E+02</pdfrwt>
<totfact> 0.72474569E-02</totfact>
</mgrwt>
</event>
<event>
 4    1  0.2496748E+000  0.5185097E+02  0.7957747E-01  0.1435606E+00
         13   -1    0    0    0    0  0.00000000000E+00  0.00000000000E+00  0.99999944182E+02  0.10000000000E+03  0.10566000000E+00 0. -1.
         22   -1    0    0    0    0 -0.00000000000E+00 -0.00000000000E+00 -0.66225204553E+02  0.66225204553E+02  0.00000000000E+00 0.  1.
         13    1    1    2    0    0  0.21310952805E+01 -0.13563968951E+02 -0.58657386532E+02  0.60243032623E+02  0.10566000000E+00 0.  1.
        996    1    1    2    0    0 -0.21310952805E+01  0.13563968951E+02  0.92432126161E+02  0.10598217193E+03  0.50000000000E+02 0.  0.
<mgrwt>
<rscale>  0 0.51850967E+02</rscale>
<asrwt>0</asrwt>
<pdfrwt beam="1">  1       13 0.10000000E+01 0.51850967E+02</pdfrwt>
<pdfrwt beam="2">  1       22 0.66225214E+00 0.51850967E+02</pdfrwt>
<totfact> 0.87200252E-02</totfact>
</mgrwt>
</event>
<event>
 4    1  0.2496748E+000  0.5778891E+02  0.7957747E-01  0.1407352E+00
         13   -1    0    0    0    0  0.00000000000E+00  0.00000000000E+00  0.99999944185E+02  0.10000000000E+03  0.10566000000E+00 0.  1.
         22   -1    0    0    0    0 -0.00000000000E+00 -0.00000000000E+00 -0.36993971570E+02  0.36993971570E+02  0.00000000000E+00 0. -1.
         13    1    1    2    0    0  0.25688611763E+02 -0.13403474598E+02 -0.20462884056E+02  0.35472506163E+02  0.10566000000E+00 0. -1.
        996    1    1    2    0    0 -0.25688611763E+02  0.13403474598E+02  0.83468856670E+02  0.10152146541E+03  0.50000000000E+02 0.  0.
<mgrwt>
<rscale>  0 0.57788908E+02</rscale>
<asrwt>0</asrwt>
<pdfrwt beam="1">  1       13 0.10000000E+01 0.57788908E+02</pdfrwt>
<pdfrwt beam="2">  1       22 0.36993989E+00 0.57788908E+02</pdfrwt>
<totfact> 0.14333664E-01</totfact>
</mgrwt>
</event>
<event>
 4    1  0.2496748E+000  0.5933089E+02  0.7957747E-01  0.1400661E+00
         13   -1    0    0    0    0  0.00000000000E+00  0.00000000000E+00  0.99999944176E+02  0.99999999997E+02  0.10566000000E+00 0. -1.
         22   -1    0    0    0    0 -0.00000000000E+00 -0.00000000000E+00 -0.30240017226E+02  0.30240017226E+02  0.00000000000E+00 0.  1.
         13    1    1    2    0    0  0.10462647688E+02  0.30177601527E+02 -0.75180572311E+01  0.32812908728E+02  0.10566000000E+00 0.  1.
        996    1    1    2    0    0 -0.10462647688E+02 -0.30177601527E+02  0.77277984181E+02  0.97427108495E+02  0.50000000000E+02 0.  0.
<mgrwt>
<rscale>  0 0.59330891E+02</rscale>
<asrwt>0</asrwt>
<pdfrwt beam="1">  1       13 0.10000000E+01 0.59330891E+02</pdfrwt>
<pdfrwt beam="2">  1       22 0.30240037E+00 0.59330891E+02</pdfrwt>
<totfact> 0.20580382E-01</totfact>
</mgrwt>
</event>
<event>
 4    1  0.2496748E+000  0.7098023E+02  0.7957747E-01  0.1356791E+00
         13   -1    0    0    0    0  0.00000000000E+00  0.00000000000E+00  0.99999944173E+02  0.99999999993E+02  0.10566000000E+00 0.  1.
         22   -1    0    0    0    0 -0.00000000000E+00 -0.00000000000E+00 -0.51682628691E+02  0.51682628691E+02  0.00000000000E+00 0. -1.
         13    1    1    2    0    0 -0.44971885420E+02 -0.22709516493E+02 -0.19012438100E+02  0.53848645147E+02  0.10566000000E+00 0. -1.
        996    1    1    2    0    0  0.44971885420E+02  0.22709516493E+02  0.67329753581E+02  0.97833983538E+02  0.50000000000E+02 0.  0.
<mgrwt>
<rscale>  0 0.70980227E+02</rscale>
<asrwt>0</asrwt>
<pdfrwt beam="1">  1       13 0.10000000E+01 0.70980227E+02</pdfrwt>
<pdfrwt beam="2">  1       22 0.51682642E+00 0.70980227E+02</pdfrwt>
<totfact> 0.67791516E-02</totfact>
</mgrwt>
</event>
<event>
 4    1  0.2496748E+000  0.5345208E+02  0.7957747E-01  0.1427564E+00
         13   -1    0    0    0    0  0.00000000000E+00  0.00000000000E+00  0.99999944185E+02  0.10000000001E+03  0.10566000000E+00 0.  1.
         22   -1    0    0    0    0 -0.00000000000E+00 -0.00000000000E+00 -0.47291458508E+02  0.47291458508E+02  0.00000000000E+00 0. -1.
         13    1    1    2    0    0  0.18465578781E+02 -0.40183037252E+01 -0.37752634320E+02  0.42218442969E+02  0.10566000000E+00 0. -1.
        996    1    1    2    0    0 -0.18465578781E+02  0.40183037252E+01  0.90461119997E+02  0.10507301555E+03  0.50000000000E+02 0.  0.
<mgrwt>
<rscale>  0 0.53452075E+02</rscale>
<asrwt>0</asrwt>
<pdfrwt beam="1">  1       13 0.10000000E+01 0.53452075E+02</pdfrwt>
<pdfrwt beam="2">  1       22 0.47291473E+00 0.53452075E+02</pdfrwt>
<totfact> 0.85576461E-02</totfact>
</mgrwt>
</event>
<event>
 4    1  0.2496748E+000  0.5106383E+02  0.7957747E-01  0.1439687E+00
         13   -1    0    0    0    0  0.00000000000E+00  0.00000000000E+00  0.99999944177E+02  0.99999999997E+02  0.10566000000E+00 0. -1.
         22   -1    0    0    0    0 -0.00000000000E+00 -0.00000000000E+00 -0.11160706123E+02  0.11160706123E+02  0.00000000000E+00 0. -1.
         13    1    1    2    0    0 -0.99862259086E+01 -0.27910796107E+01  0.22112131107E+01  0.10602615750E+02  0.10566000000E+00 0.  1.
        996    1    1    2    0    0  0.99862259086E+01  0.27910796107E+01  0.86628024943E+02  0.10055809037E+03  0.50000000000E+02 0.  0.
<mgrwt>
<rscale>  0 0.51063831E+02</rscale>
<asrwt>0</asrwt>
<pdfrwt beam="1">  1       13 0.10000000E+01 0.51063831E+02</pdfrwt>
<pdfrwt beam="2">  1       22 0.11160731E+00 0.51063831E+02</pdfrwt>
<totfact> 0.11968962E+00</totfact>
</mgrwt>
</event>
<event>
 4    1  0.2496748E+000  0.7218717E+02  0.7957747E-01  0.1352810E+00
         13   -1    0    0    0    0  0.00000000000E+00  0.00000000000E+00  0.99999944184E+02  0.10000000000E+03  0.10566000000E+00 0. -1.
         22   -1    0    0    0    0 -0.00000000000E+00 -0.00000000000E+00 -0.50504636246E+02  0.50504636246E+02  0.00000000000E+00 0.  1.
         13    1    1    2    0    0  0.39605885753E+02  0.33798835300E+02 -0.14485446177E+02  0.54044673826E+02  0.10566000000E+00 0.  1.
        996    1    1    2    0    0 -0.39605885753E+02 -0.33798835300E+02  0.63980754115E+02  0.96459962425E+02  0.50000000000E+02 0.  0.
<mgrwt>
<rscale>  0 0.72187170E+02</rscale>
<asrwt>0</asrwt>
<pdfrwt beam="1">  1       13 0.10000000E+01 0.72187170E+02</pdfrwt>
<pdfrwt beam="2">  1       22 0.50504650E+00 0.72187170E+02</pdfrwt>
<totfact> 0.72149373E-02</totfact>
</mgrwt>
</event>
<event>
 4    1  0.2496748E+000  0.5118403E+02  0.7957747E-01  0.1439058E+00
         13   -1    0    0    0    0  0.00000000000E+00  0.00000000000E+00  0.99999944179E+02  0.99999999999E+02  0.10566000000E+00 0.  1.
         22   -1    0    0    0    0 -0.00000000000E+00 -0.00000000000E+00 -0.12713038311E+02  0.12713038311E+02  0.00000000000E+00 0.  1.
         13    1    1    2    0    0  0.97664333855E+01 -0.49418705195E+01  0.45024477710E+02  0.46335947842E+02  0.10566000000E+00 0. -1.
        996    1    1    2    0    0 -0.97664333855E+01  0.49418705195E+01  0.42262428158E+02  0.66377090469E+02  0.50000000000E+02 0.  0.
<mgrwt>
<rscale>  0 0.51184034E+02</rscale>
<asrwt>0</asrwt>
<pdfrwt beam="1">  1       13 0.10000000E+01 0.51184034E+02</pdfrwt>
<pdfrwt beam="2">  1       22 0.12713063E+00 0.51184034E+02</pdfrwt>
<totfact> 0.98133703E-01</totfact>
</mgrwt>
</event>
<event>
 4    1  0.2496748E+000  0.5113667E+02  0.7957747E-01  0.1439305E+00
         13   -1    0    0    0    0  0.00000000000E+00  0.00000000000E+00  0.99999944183E+02  0.10000000000E+03  0.10566000000E+00 0. -1.
         22   -1    0    0    0    0 -0.00000000000E+00 -0.00000000000E+00 -0.10877372455E+02  0.10877372455E+02  0.00000000000E+00 0. -1.
         13    1    1    2    0    0 -0.10622731677E+02  0.14549788470E+01  0.37460316542E+01  0.11357962357E+02  0.10566000000E+00 0.  1.
        996    1    1    2    0    0  0.10622731677E+02 -0.14549788470E+01  0.85376540074E+02  0.99519410100E+02  0.50000000000E+02 0.  0.
<mgrwt>
<rscale>  0 0.51136674E+02</rscale>
<asrwt>0</asrwt>
<pdfrwt beam="1">  1       13 0.10000000E+01 0.51136674E+02</pdfrwt>
<pdfrwt beam="2">  1       22 0.10877397E+00 0.51136674E+02</pdfrwt>
<totfact> 0.12437915E+00</totfact>
</mgrwt>
</event>
<event>
 4    1  0.2496748E+000  0.5417067E+02  0.7957747E-01  0.1424062E+00
         13   -1    0    0    0    0  0.00000000000E+00  0.00000000000E+00  0.99999944181E+02  0.10000000000E+03  0.10566000000E+00 0. -1.
         22   -1    0    0    0    0 -0.00000000000E+00 -0.00000000000E+00 -0.14739064386E+02  0.14739064386E+02  0.00000000000E+00 0. -1.
         13    1    1    2    0    0  0.20839889569E+02  0.40093875145E+00  0.13525128718E+02  0.24847575737E+02  0.10566000000E+00 0.  1.
        996    1    1    2    0    0 -0.20839889569E+02 -0.40093875145E+00  0.71735751077E+02  0.89891488650E+02  0.50000000000E+02 0.  0.
<mgrwt>
<rscale>  0 0.54170672E+02</rscale>
<asrwt>0</asrwt>
<pdfrwt beam="1">  1       13 0.10000000E+01 0.54170672E+02</pdfrwt>
<pdfrwt beam="2">  1       22 0.14739088E+00 0.54170672E+02</pdfrwt>
<totfact> 0.77856550E-01</totfact>
</mgrwt>
</event>
<event>
 4    1  0.2496748E+000  0.5662210E+02  0.7957747E-01  0.1412580E+00
         13   -1    0    0    0    0  0.00000000000E+00  0.00000000000E+00  0.99999944182E+02  0.10000000000E+03  0.10566000000E+00 0.  1.
         22   -1    0    0    0    0 -0.00000000000E+00 -0.00000000000E+00 -0.44713385362E+02  0.44713385362E+02  0.00000000000E+00 0. -1.
         13    1    1    2    0    0  0.21792153773E+02 -0.15204103015E+02 -0.31424119232E+02  0.41152753834E+02  0.10566000000E+00 0. -1.
        996    1    1    2    0    0 -0.21792153773E+02  0.15204103015E+02  0.86710678053E+02  0.10356063153E+03  0.50000000000E+02 0.  0.
<mgrwt>
<rscale>  0 0.56622104E+02</rscale>
<asrwt>0</asrwt>
<pdfrwt beam="1">  1       13 0.10000000E+01 0.56622104E+02</pdfrwt>
<pdfrwt beam="2">  1       22 0.44713401E+00 0.56622104E+02</pdfrwt>
<totfact> 0.98328000E-02</totfact>
</mgrwt>
</event>
<event>
 4    1  0.2496748E+000  0.5198424E+02  0.7957747E-01  0.1434924E+00
         13   -1    0    0    0    0  0.00000000000E+00  0.00000000000E+00  0.99999944182E+02  0.10000000000E+03  0.10566000000E+00 0. -1.
         22   -1    0    0    0    0 -0.00000000000E+00 -0.00000000000E+00 -0.22416906100E+02  0.22416906100E+02  0.00000000000E+00 0.  1.
         13    1    1    2    0    0 -0.44546444803E+01 -0.13509895981E+02 -0.12153587627E+02  0.18710478431E+02  0.10566000000E+00 0.  1.
        996    1    1    2    0    0  0.44546444803E+01  0.13509895981E+02  0.89736625709E+02  0.10370642767E+03  0.50000000000E+02 0.  0.
<mgrwt>
<rscale>  0 0.51984239E+02</rscale>
<asrwt>0</asrwt>
<pdfrwt beam="1">  1       13 0.10000000E+01 0.51984239E+02</pdfrwt>
<pdfrwt beam="2">  1       22 0.22416928E+00 0.51984239E+02</pdfrwt>
<totfact> 0.36476067E-01</totfact>
</mgrwt>
</event>
<event>
 4    1  0.2496748E+000  0.5276852E+02  0.7957747E-01  0.1430956E+00
         13   -1    0    0    0    0  0.00000000000E+00  0.00000000000E+00  0.99999944180E+02  0.10000000000E+03  0.10566000000E+00 0. -1.
         22   -1    0    0    0    0 -0.00000000000E+00 -0.00000000000E+00 -0.18125793890E+02  0.18125793890E+02  0.00000000000E+00 0. -1.
         13    1    1    2    0    0  0.23118079855E+01 -0.16708445955E+02 -0.39988508957E+01  0.17335472157E+02  0.10566000000E+00 0.  1.
        996    1    1    2    0    0 -0.23118079855E+01  0.16708445955E+02  0.85873001186E+02  0.10079032173E+03  0.50000000000E+02 0.  0.
<mgrwt>
<rscale>  0 0.52768519E+02</rscale>
<asrwt>0</asrwt>
<pdfrwt beam="1">  1       13 0.10000000E+01 0.52768519E+02</pdfrwt>
<pdfrwt beam="2">  1       22 0.18125817E+00 0.52768519E+02</pdfrwt>
<totfact> 0.54335697E-01</totfact>
</mgrwt>
</event>
<event>
 4    1  0.2496748E+000  0.5276969E+02  0.7957747E-01  0.1430950E+00
         13   -1    0    0    0    0  0.00000000000E+00  0.00000000000E+00  0.99999944177E+02  0.99999999997E+02  0.10566000000E+00 0.  1.
         22   -1    0    0    0    0 -0.00000000000E+00 -0.00000000000E+00 -0.15986894768E+02  0.15986894768E+02  0.00000000000E+00 0. -1.
         13    1    1    2    0    0 -0.12570002646E+02 -0.11253249938E+02  0.11358513731E+00  0.16872008366E+02  0.10566000000E+00 0. -1.
        996    1    1    2    0    0  0.12570002646E+02  0.11253249938E+02  0.83899464272E+02  0.99114886399E+02  0.50000000000E+02 0.  0.
<mgrwt>
<rscale>  0 0.52769694E+02</rscale>
<asrwt>0</asrwt>
<pdfrwt beam="1">  1       13 0.10000000E+01 0.52769694E+02</pdfrwt>
<pdfrwt beam="2">  1       22 0.15986918E+00 0.52769694E+02</pdfrwt>
<totfact> 0.67722243E-01</totfact>
</mgrwt>
</event>
<event>
 4    1  0.2496748E+000  0.5249865E+02  0.7957747E-01  0.1432312E+00
         13   -1    0    0    0    0  0.00000000000E+00  0.00000000000E+00  0.99999944182E+02  0.10000000000E+03  0.10566000000E+00 0.  1.
         22   -1    0    0    0    0 -0.00000000000E+00 -0.00000000000E+00 -0.11749902892E+02  0.11749902892E+02  0.00000000000E+00 0. -1.
         13    1    1    2    0    0  0.13696383362E+02 -0.82774931202E+01  0.22530725104E+02  0.27636073298E+02  0.10566000000E+00 0. -1.
        996    1    1    2    0    0 -0.13696383362E+02  0.82774931202E+01  0.65719316186E+02  0.84113829597E+02  0.50000000000E+02 0.  0.
<mgrwt>
<rscale>  0 0.52498646E+02</rscale>
<asrwt>0</asrwt>
<pdfrwt beam="1">  1       13 0.10000000E+01 0.52498646E+02</pdfrwt>
<pdfrwt beam="2">  1       22 0.11749928E+00 0.52498646E+02</pdfrwt>
<totfact> 0.11112840E+00</totfact>
</mgrwt>
</event>
<event>
 4    1  0.2496748E+000  0.6994578E+02  0.7957747E-01  0.1360278E+00
         13   -1    0    0    0    0  0.00000000000E+00  0.00000000000E+00  0.99999944189E+02  0.10000000001E+03  0.10566000000E+00 0.  1.
         22   -1    0    0    0    0 -0.00000000000E+00 -0.00000000000E+00 -0.66510279407E+02  0.66510279407E+02  0.00000000000E+00 0. -1.
         13    1    1    2    0    0  0.16542411603E+02 -0.46029995871E+02 -0.41367632977E+02  0.64060160191E+02  0.10566000000E+00 0. -1.
        996    1    1    2    0    0 -0.16542411603E+02  0.46029995871E+02  0.74857297759E+02  0.10245011923E+03  0.50000000000E+02 0.  0.
<mgrwt>
<rscale>  0 0.69945778E+02</rscale>
<asrwt>0</asrwt>
<pdfrwt beam="1">  1       13 0.10000000E+01 0.69945778E+02</pdfrwt>
<pdfrwt beam="2">  1       22 0.66510289E+00 0.69945778E+02</pdfrwt>
<totfact> 0.86987109E-02</totfact>
</mgrwt>
</event>
<event>
 4    1  0.2496748E+000  0.5167094E+02  0.7957747E-01  0.1436532E+00
         13   -1    0    0    0    0  0.00000000000E+00  0.00000000000E+00  0.99999944181E+02  0.10000000000E+03  0.10566000000E+00 0. -1.
         22   -1    0    0    0    0 -0.00000000000E+00 -0.00000000000E+00 -0.13944278938E+02  0.13944278938E+02  0.00000000000E+00 0.  1.
         13    1    1    2    0    0 -0.11280971677E+02  0.65288753245E+01 -0.60498849164E+00  0.13048513712E+02  0.10566000000E+00 0.  1.
        996    1    1    2    0    0  0.11280971677E+02 -0.65288753245E+01  0.86660653735E+02  0.10089576523E+03  0.50000000000E+02 0.  0.
<mgrwt>
<rscale>  0 0.51670945E+02</rscale>
<asrwt>0</asrwt>
<pdfrwt beam="1">  1       13 0.10000000E+01 0.51670945E+02</pdfrwt>
<pdfrwt beam="2">  1       22 0.13944303E+00 0.51670945E+02</pdfrwt>
<totfact> 0.84814942E-01</totfact>
</mgrwt>
</event>
<event>
 4    1  0.2496748E+000  0.6333255E+02  0.7957747E-01  0.1384356E+00
         13   -1    0    0    0    0  0.00000000000E+00  0.00000000000E+00  0.99999944171E+02  0.99999999992E+02  0.10566000000E+00 0.  1.
         22   -1    0    0    0    0 -0.00000000000E+00 -0.00000000000E+00 -0.27448499924E+02  0.27448499924E+02  0.00000000000E+00 0.  1.
         13    1    1    2    0    0  0.23916189071E+02 -0.30643563143E+02  0.14354885497E+02  0.41437735984E+02  0.10566000000E+00 0. -1.
        996    1    1    2    0    0 -0.23916189071E+02  0.30643563143E+02  0.58196558751E+02  0.86010763932E+02  0.50000000000E+02 0.  0.
<mgrwt>
<rscale>  0 0.63332551E+02</rscale>
<asrwt>0</asrwt>
<pdfrwt beam="1">  1       13 0.10000000E+01 0.63332551E+02</pdfrwt>
<pdfrwt beam="2">  1       22 0.27448520E+00 0.63332551E+02</pdfrwt>
<totfact> 0.24906180E-01</totfact>
</mgrwt>
</event>
<event>
 4    1  0.2496748E+000  0.5196004E+02  0.7957747E-01  0.1435048E+00
         13   -1    0    0    0    0  0.00000000000E+00  0.00000000000E+00  0.99999944171E+02  0.99999999991E+02  0.10566000000E+00 0.  1.
         22   -1    0    0    0    0 -0.00000000000E+00 -0.00000000000E+00 -0.43733400827E+02  0.43733400827E+02  0.00000000000E+00 0. -1.
         13    1    1    2    0    0  0.94236237061E+01  0.10537588613E+02 -0.35536776298E+02  0.38245510733E+02  0.10566000000E+00 0. -1.
        996    1    1    2    0    0 -0.94236237061E+01 -0.10537588613E+02  0.91803319641E+02  0.10548789009E+03  0.50000000000E+02 0.  0.
<mgrwt>
<rscale>  0 0.51960037E+02</rscale>
<asrwt>0</asrwt>
<pdfrwt beam="1">  1       13 0.10000000E+01 0.51960037E+02</pdfrwt>
<pdfrwt beam="2">  1       22 0.43733417E+00 0.51960037E+02</pdfrwt>
<totfact> 0.10309609E-01</totfact>
</mgrwt>
</event>
<event>
 4    1  0.2496748E+000  0.5175166E+02  0.7957747E-01  0.1436116E+00
         13   -1    0    0    0    0  0.00000000000E+00  0.00000000000E+00  0.99999944178E+02  0.99999999998E+02  0.10566000000E+00 0. -1.
         22   -1    0    0    0    0 -0.00000000000E+00 -0.00000000000E+00 -0.25577509178E+02  0.25577509178E+02  0.00000000000E+00 0.  1.
         13    1    1    2    0    0 -0.10354541743E+02  0.84272108830E+01 -0.16338082027E+02  0.21099253691E+02  0.10566000000E+00 0.  1.
        996    1    1    2    0    0  0.10354541743E+02 -0.84272108830E+01  0.90760517027E+02  0.10447825548E+03  0.50000000000E+02 0.  0.
<mgrwt>
<rscale>  0 0.51751661E+02</rscale>
<asrwt>0</asrwt>
<pdfrwt beam="1">  1       13 0.10000000E+01 0.51751661E+02</pdfrwt>
<pdfrwt beam="2">  1       22 0.25577530E+00 0.51751661E+02</pdfrwt>
<totfact> 0.28172995E-01</totfact>
</mgrwt>
</event>
<event>
 4    1  0.2496748E+000  0.5737507E+02  0.7957747E-01  0.1409190E+00
         13   -1    0    0    0    0  0.00000000000E+00  0.00000000000E+00  0.99999944174E+02  0.99999999994E+02  0.10566000000E+00 0. -1.
         22   -1    0    0    0    0 -0.00000000000E+00 -0.00000000000E+00 -0.29779366210E+02  0.29779366210E+02  0.00000000000E+00 0.  1.
         13    1    1    2    0    0  0.28079278824E+02  0.18580675611E+01 -0.11104126298E+02  0.30252456086E+02  0.10566000000E+00 0.  1.
        996    1    1    2    0    0 -0.28079278824E+02 -0.18580675611E+01  0.81324704262E+02  0.99526910118E+02  0.50000000000E+02 0.  0.
<mgrwt>
<rscale>  0 0.57375067E+02</rscale>
<asrwt>0</asrwt>
<pdfrwt beam="1">  1       13 0.10000000E+01 0.57375067E+02</pdfrwt>
<pdfrwt beam="2">  1       22 0.29779386E+00 0.57375067E+02</pdfrwt>
<totfact> 0.21134449E-01</totfact>
</mgrwt>
</event>
<event>
 4    1  0.2496748E+000  0.5191876E+02  0.7957747E-01  0.1435259E+00
         13   -1    0    0    0    0  0.00000000000E+00  0.00000000000E+00  0.99999944179E+02  0.99999999999E+02  0.10566000000E+00 0.  1.
         22   -1    0    0    0    0 -0.00000000000E+00 -0.00000000000E+00 -0.15191090349E+02  0.15191090349E+02  0.00000000000E+00 0.  1.
         13    1    1    2    0    0 -0.93733036199E+01  0.10377806497E+02 -0.19138604380E+01  0.14114946484E+02  0.10566000000E+00 0. -1.
        996    1    1    2    0    0  0.93733036199E+01 -0.10377806497E+02  0.86722714267E+02  0.10107614386E+03  0.50000000000E+02 0.  0.
<mgrwt>
<rscale>  0 0.51918760E+02</rscale>
<asrwt>0</asrwt>
<pdfrwt beam="1">  1       13 0.10000000E+01 0.51918760E+02</pdfrwt>
<pdfrwt beam="2">  1       22 0.15191114E+00 0.51918760E+02</pdfrwt>
<totfact> 0.73705910E-01</totfact>
</mgrwt>
</event>
<event>
 4    1  0.2496748E+000  0.5117866E+02  0.7957747E-01  0.1439086E+00
         13   -1    0    0    0    0  0.00000000000E+00  0.00000000000E+00  0.99999944176E+02  0.99999999996E+02  0.10566000000E+00 0.  1.
         22   -1    0    0    0    0 -0.00000000000E+00 -0.00000000000E+00 -0.15830866592E+02  0.15830866592E+02  0.00000000000E+00 0. -1.
         13    1    1    2    0    0  0.72685265294E+01  0.81500504298E+01 -0.57688884487E+01  0.12350952914E+02  0.10566000000E+00 0. -1.
        996    1    1    2    0    0 -0.72685265294E+01 -0.81500504298E+01  0.89937966033E+02  0.10347991367E+03  0.50000000000E+02 0.  0.
<mgrwt>
<rscale>  0 0.51178656E+02</rscale>
<asrwt>0</asrwt>
<pdfrwt beam="1">  1       13 0.10000000E+01 0.51178656E+02</pdfrwt>
<pdfrwt beam="2">  1       22 0.15830890E+00 0.51178656E+02</pdfrwt>
<totfact> 0.68646373E-01</totfact>
</mgrwt>
</event>
<event>
 4    1  0.2496748E+000  0.5115999E+02  0.7957747E-01  0.1439183E+00
         13   -1    0    0    0    0  0.00000000000E+00  0.00000000000E+00  0.99999944182E+02  0.10000000000E+03  0.10566000000E+00 0. -1.
         22   -1    0    0    0    0 -0.00000000000E+00 -0.00000000000E+00 -0.12332423543E+02  0.12332423543E+02  0.00000000000E+00 0.  1.
         13    1    1    2    0    0  0.72859778270E+01  0.80161732324E+01  0.46916954932E-02  0.10833083228E+02  0.10566000000E+00 0.  1.
        996    1    1    2    0    0 -0.72859778270E+01 -0.80161732324E+01  0.87662828944E+02  0.10149934032E+03  0.50000000000E+02 0.  0.
<mgrwt>
<rscale>  0 0.51159989E+02</rscale>
<asrwt>0</asrwt>
<pdfrwt beam="1">  1       13 0.10000000E+01 0.51159989E+02</pdfrwt>
<pdfrwt beam="2">  1       22 0.12332448E+00 0.51159989E+02</pdfrwt>
<totfact> 0.10287425E+00</totfact>
</mgrwt>
</event>
<event>
 4    1  0.2496748E+000  0.6668988E+02  0.7957747E-01  0.1371725E+00
         13   -1    0    0    0    0  0.00000000000E+00  0.00000000000E+00  0.99999944177E+02  0.99999999997E+02  0.10566000000E+00 0. -1.
         22   -1    0    0    0    0 -0.00000000000E+00 -0.00000000000E+00 -0.32864048077E+02  0.32864048077E+02  0.00000000000E+00 0.  1.
         13    1    1    2    0    0  0.43820046609E+02  0.52291682895E+01  0.10482587654E+02  0.45358973686E+02  0.10566000000E+00 0.  1.
        996    1    1    2    0    0 -0.43820046609E+02 -0.52291682895E+01  0.56653308446E+02  0.87505074388E+02  0.50000000000E+02 0.  0.
<mgrwt>
<rscale>  0 0.66689884E+02</rscale>
<asrwt>0</asrwt>
<pdfrwt beam="1">  1       13 0.10000000E+01 0.66689884E+02</pdfrwt>
<pdfrwt beam="2">  1       22 0.32864067E+00 0.66689884E+02</pdfrwt>
<totfact> 0.17809296E-01</totfact>
</mgrwt>
</event>
<event>
 4    1  0.2496748E+000  0.5102305E+02  0.7957747E-01  0.1439900E+00
         13   -1    0    0    0    0  0.00000000000E+00  0.00000000000E+00  0.99999944177E+02  0.99999999997E+02  0.10566000000E+00 0.  1.
         22   -1    0    0    0    0 -0.00000000000E+00 -0.00000000000E+00 -0.15335871859E+02  0.15335871859E+02  0.00000000000E+00 0. -1.
         13    1    1    2    0    0  0.37506354118E+01 -0.94490332859E+01 -0.56310576187E+01  0.11622025210E+02  0.10566000000E+00 0. -1.
        996    1    1    2    0    0 -0.37506354118E+01  0.94490332859E+01  0.90295129937E+02  0.10371384665E+03  0.50000000000E+02 0.  0.
<mgrwt>
<rscale>  0 0.51023049E+02</rscale>
<asrwt>0</asrwt>
<pdfrwt beam="1">  1       13 0.10000000E+01 0.51023049E+02</pdfrwt>
<pdfrwt beam="2">  1       22 0.15335895E+00 0.51023049E+02</pdfrwt>
<totfact> 0.72410115E-01</totfact>
</mgrwt>
</event>
<event>
 4    1  0.2496748E+000  0.5573419E+02  0.7957747E-01  0.1416658E+00
         13   -1    0    0    0    0  0.00000000000E+00  0.00000000000E+00  0.99999944178E+02  0.99999999998E+02  0.10566000000E+00 0. -1.
         22   -1    0    0    0    0 -0.00000000000E+00 -0.00000000000E+00 -0.23587533793E+02  0.23587533793E+02  0.00000000000E+00 0.  1.
         13    1    1    2    0    0 -0.21008882847E+02  0.12842368393E+02 -0.48031316783E+01  0.25087463451E+02  0.10566000000E+00 0.  1.
        996    1    1    2    0    0  0.21008882847E+02 -0.12842368393E+02  0.81215542063E+02  0.98500070340E+02  0.50000000000E+02 0.  0.
<mgrwt>
<rscale>  0 0.55734187E+02</rscale>
<asrwt>0</asrwt>
<pdfrwt beam="1">  1       13 0.10000000E+01 0.55734187E+02</pdfrwt>
<pdfrwt beam="2">  1       22 0.23587555E+00 0.55734187E+02</pdfrwt>
<totfact> 0.33236187E-01</totfact>
</mgrwt>
</event>
<event>
 4    1  0.2496748E+000  0.5148015E+02  0.7957747E-01  0.1437518E+00
         13   -1    0    0    0    0  0.00000000000E+00  0.00000000000E+00  0.99999944174E+02  0.99999999994E+02  0.10566000000E+00 0. -1.
         22   -1    0    0    0    0 -0.00000000000E+00 -0.00000000000E+00 -0.14301184228E+02  0.14301184228E+02  0.00000000000E+00 0. -1.
         13    1    1    2    0    0  0.10735028771E+01 -0.12208736331E+02 -0.21849837650E+01  0.12449536912E+02  0.10566000000E+00 0.  1.
        996    1    1    2    0    0 -0.10735028771E+01  0.12208736331E+02  0.87883743711E+02  0.10185164731E+03  0.50000000000E+02 0.  0.
<mgrwt>
<rscale>  0 0.51480148E+02</rscale>
<asrwt>0</asrwt>
<pdfrwt beam="1">  1       13 0.10000000E+01 0.51480148E+02</pdfrwt>
<pdfrwt beam="2">  1       22 0.14301208E+00 0.51480148E+02</pdfrwt>
<totfact> 0.81368029E-01</totfact>
</mgrwt>
</event>
<event>
 4    1  0.2496748E+000  0.5215000E+02  0.7957747E-01  0.1434078E+00
         13   -1    0    0    0    0  0.00000000000E+00  0.00000000000E+00  0.99999944184E+02  0.10000000000E+03  0.10566000000E+00 0. -1.
         22   -1    0    0    0    0 -0.00000000000E+00 -0.00000000000E+00 -0.28648170019E+02  0.28648170019E+02  0.00000000000E+00 0.  1.
         13    1    1    2    0    0  0.60138353984E+01  0.13544608592E+02 -0.19138837662E+02  0.24205968462E+02  0.10566000000E+00 0.  1.
        996    1    1    2    0    0 -0.60138353984E+01 -0.13544608592E+02  0.90490611827E+02  0.10444220156E+03  0.50000000000E+02 0.  0.
<mgrwt>
<rscale>  0 0.52150001E+02</rscale>
<asrwt>0</asrwt>
<pdfrwt beam="1">  1       13 0.10000000E+01 0.52150001E+02</pdfrwt>
<pdfrwt beam="2">  1       22 0.28648190E+00 0.52150001E+02</pdfrwt>
<totfact> 0.22597308E-01</totfact>
</mgrwt>
</event>
<event>
 4    1  0.2496748E+000  0.5325722E+02  0.7957747E-01  0.1428525E+00
         13   -1    0    0    0    0  0.00000000000E+00  0.00000000000E+00  0.99999944175E+02  0.99999999995E+02  0.10566000000E+00 0.  1.
         22   -1    0    0    0    0 -0.00000000000E+00 -0.00000000000E+00 -0.13201535076E+02  0.13201535076E+02  0.00000000000E+00 0.  1.
         13    1    1    2    0    0  0.10019289064E+02  0.15360517285E+02  0.31343777220E+02  0.36314944293E+02  0.10566000000E+00 0. -1.
        996    1    1    2    0    0 -0.10019289064E+02 -0.15360517285E+02  0.55454631879E+02  0.76886590778E+02  0.50000000000E+02 0.  0.
<mgrwt>
<rscale>  0 0.53257222E+02</rscale>
<asrwt>0</asrwt>
<pdfrwt beam="1">  1       13 0.10000000E+01 0.53257222E+02</pdfrwt>
<pdfrwt beam="2">  1       22 0.13201559E+00 0.53257222E+02</pdfrwt>
<totfact> 0.92894918E-01</totfact>
</mgrwt>
</event>
<event>
 4    1  0.2496748E+000  0.5761375E+02  0.7957747E-01  0.1408128E+00
         13   -1    0    0    0    0  0.00000000000E+00  0.00000000000E+00  0.99999944185E+02  0.10000000001E+03  0.10566000000E+00 0. -1.
         22   -1    0    0    0    0 -0.00000000000E+00 -0.00000000000E+00 -0.26178744619E+02  0.26178744619E+02  0.00000000000E+00 0. -1.
         13    1    1    2    0    0 -0.21747841087E+02 -0.18611177988E+02  0.60669277151E+02  0.67082910581E+02  0.10566000000E+00 0.  1.
        996    1    1    2    0    0  0.21747841087E+02  0.18611177988E+02  0.13151922415E+02  0.59095834043E+02  0.50000000000E+02 0.  0.
<mgrwt>
<rscale>  0 0.57613753E+02</rscale>
<asrwt>0</asrwt>
<pdfrwt beam="1">  1       13 0.10000000E+01 0.57613753E+02</pdfrwt>
<pdfrwt beam="2">  1       22 0.26178765E+00 0.57613753E+02</pdfrwt>
<totfact> 0.27142218E-01</totfact>
</mgrwt>
</event>
<event>
 4    1  0.2496748E+000  0.5427705E+02  0.7957747E-01  0.1423549E+00
         13   -1    0    0    0    0  0.00000000000E+00  0.00000000000E+00  0.99999944183E+02  0.10000000000E+03  0.10566000000E+00 0. -1.
         22   -1    0    0    0    0 -0.00000000000E+00 -0.00000000000E+00 -0.36356876493E+02  0.36356876493E+02  0.00000000000E+00 0.  1.
         13    1    1    2    0    0 -0.12801427420E+02 -0.16796460589E+02 -0.24808254658E+02  0.32580029091E+02  0.10566000000E+00 0.  1.
        996    1    1    2    0    0  0.12801427420E+02  0.16796460589E+02  0.88451322348E+02  0.10377684741E+03  0.50000000000E+02 0.  0.
<mgrwt>
<rscale>  0 0.54277045E+02</rscale>
<asrwt>0</asrwt>
<pdfrwt beam="1">  1       13 0.10000000E+01 0.54277045E+02</pdfrwt>
<pdfrwt beam="2">  1       22 0.36356894E+00 0.54277045E+02</pdfrwt>
<totfact> 0.14735507E-01</totfact>
</mgrwt>
</event>
<event>
 4    1  0.2496748E+000  0.5109300E+02  0.7957747E-01  0.1439534E+00
         13   -1    0    0    0    0  0.00000000000E+00  0.00000000000E+00  0.99999944177E+02  0.99999999997E+02  0.10566000000E+00 0.  1.
         22   -1    0    0    0    0 -0.00000000000E+00 -0.00000000000E+00 -0.97613186855E+01  0.97613186855E+01  0.00000000000E+00 0.  1.
         13    1    1    2    0    0  0.10486540120E+02 -0.72583644546E+00  0.23214021483E+02  0.25483255673E+02  0.10566000000E+00 0. -1.
        996    1    1    2    0    0 -0.10486540120E+02  0.72583644546E+00  0.67024604008E+02  0.84278063009E+02  0.50000000000E+02 0.  0.
<mgrwt>
<rscale>  0 0.51092997E+02</rscale>
<asrwt>0</asrwt>
<pdfrwt beam="1">  1       13 0.10000000E+01 0.51092997E+02</pdfrwt>
<pdfrwt beam="2">  1       22 0.97613439E-01 0.51092997E+02</pdfrwt>
<totfact> 0.14566067E+00</totfact>
</mgrwt>
</event>
<event>
 4    1  0.2496748E+000  0.5212588E+02  0.7957747E-01  0.1434201E+00
         13   -1    0    0    0    0  0.00000000000E+00  0.00000000000E+00  0.99999944179E+02  0.99999999999E+02  0.10566000000E+00 0.  1.
         22   -1    0    0    0    0 -0.00000000000E+00 -0.00000000000E+00 -0.16049617683E+02  0.16049617683E+02  0.00000000000E+00 0.  1.
         13    1    1    2    0    0 -0.27783912963E+01 -0.14470252248E+02 -0.26504401218E+01  0.14971427961E+02  0.10566000000E+00 0. -1.
        996    1    1    2    0    0  0.27783912963E+01  0.14470252248E+02  0.86600766618E+02  0.10107818972E+03  0.50000000000E+02 0.  0.
<mgrwt>
<rscale>  0 0.52125883E+02</rscale>
<asrwt>0</asrwt>
<pdfrwt beam="1">  1       13 0.10000000E+01 0.52125883E+02</pdfrwt>
<pdfrwt beam="2">  1       22 0.16049641E+00 0.52125883E+02</pdfrwt>
<totfact> 0.67184825E-01</totfact>
</mgrwt>
</event>
<event>
 4    1  0.2496748E+000  0.5128558E+02  0.7957747E-01  0.1438528E+00
         13   -1    0    0    0    0  0.00000000000E+00  0.00000000000E+00  0.99999944178E+02  0.99999999999E+02  0.10566000000E+00 0.  1.
         22   -1    0    0    0    0 -0.00000000000E+00 -0.00000000000E+00 -0.12011244412E+02  0.12011244412E+02  0.00000000000E+00 0.  1.
         13    1    1    2    0    0  0.47585517116E+01 -0.10371466839E+02  0.15680080245E+01  0.11518721803E+02  0.10566000000E+00 0. -1.
        996    1    1    2    0    0 -0.47585517116E+01  0.10371466839E+02  0.86420691742E+02  0.10049252261E+03  0.50000000000E+02 0.  0.
<mgrwt>
<rscale>  0 0.51285584E+02</rscale>
<asrwt>0</asrwt>
<pdfrwt beam="1">  1       13 0.10000000E+01 0.51285584E+02</pdfrwt>
<pdfrwt beam="2">  1       22 0.12011269E+00 0.51285584E+02</pdfrwt>
<totfact> 0.10716740E+00</totfact>
</mgrwt>
</event>
<event>
 4    1  0.2496748E+000  0.5290931E+02  0.7957747E-01  0.1430253E+00
         13   -1    0    0    0    0  0.00000000000E+00  0.00000000000E+00  0.99999944176E+02  0.99999999996E+02  0.10566000000E+00 0.  1.
         22   -1    0    0    0    0 -0.00000000000E+00 -0.00000000000E+00 -0.28197586218E+02  0.28197586218E+02  0.00000000000E+00 0.  1.
         13    1    1    2    0    0  0.92984039537E+01 -0.14592280886E+02 -0.17365054246E+02  0.24514307058E+02  0.10566000000E+00 0. -1.
        996    1    1    2    0    0 -0.92984039537E+01  0.14592280886E+02  0.89167412204E+02  0.10368327916E+03  0.50000000000E+02 0.  0.
<mgrwt>
<rscale>  0 0.52909309E+02</rscale>
<asrwt>0</asrwt>
<pdfrwt beam="1">  1       13 0.10000000E+01 0.52909309E+02</pdfrwt>
<pdfrwt beam="2">  1       22 0.28197606E+00 0.52909309E+02</pdfrwt>
<totfact> 0.23321742E-01</totfact>
</mgrwt>
</event>
<event>
 4    1  0.2496748E+000  0.6820637E+02  0.7957747E-01  0.1366301E+00
         13   -1    0    0    0    0  0.00000000000E+00  0.00000000000E+00  0.99999944185E+02  0.10000000001E+03  0.10566000000E+00 0. -1.
         22   -1    0    0    0    0 -0.00000000000E+00 -0.00000000000E+00 -0.69369575049E+02  0.69369575049E+02  0.00000000000E+00 0.  1.
         13    1    1    2    0    0 -0.46255177803E+02  0.35450135113E+01 -0.46995605908E+02  0.66035647442E+02  0.10566000000E+00 0.  1.
        996    1    1    2    0    0  0.46255177803E+02 -0.35450135113E+01  0.77625975044E+02  0.10333392761E+03  0.50000000000E+02 0.  0.
<mgrwt>
<rscale>  0 0.68206368E+02</rscale>
<asrwt>0</asrwt>
<pdfrwt beam="1">  1       13 0.10000000E+01 0.68206368E+02</pdfrwt>
<pdfrwt beam="2">  1       22 0.69369584E+00 0.68206368E+02</pdfrwt>
<totfact> 0.77739565E-02</totfact>
</mgrwt>
</event>
<event>
 4    1  0.2496748E+000  0.5117463E+02  0.7957747E-01  0.1439107E+00
         13   -1    0    0    0    0  0.00000000000E+00  0.00000000000E+00  0.99999944181E+02  0.10000000000E+03  0.10566000000E+00 0.  1.
         22   -1    0    0    0    0 -0.00000000000E+00 -0.00000000000E+00 -0.98075903441E+01  0.98075903441E+01  0.00000000000E+00 0.  1.
         13    1    1    2    0    0 -0.87124909446E+01 -0.65524948552E+01  0.21956672561E+02  0.24514267709E+02  0.10566000000E+00 0. -1.
        996    1    1    2    0    0  0.87124909446E+01  0.65524948552E+01  0.68235681276E+02  0.85293322637E+02  0.50000000000E+02 0.  0.
<mgrwt>
<rscale>  0 0.51174629E+02</rscale>
<asrwt>0</asrwt>
<pdfrwt beam="1">  1       13 0.10000000E+01 0.51174629E+02</pdfrwt>
<pdfrwt beam="2">  1       22 0.98076155E-01 0.51174629E+02</pdfrwt>
<totfact> 0.14470137E+00</totfact>
</mgrwt>
</event>
<event>
 4    1  0.2496748E+000  0.5221204E+02  0.7957747E-01  0.1433763E+00
         13   -1    0    0    0    0  0.00000000000E+00  0.00000000000E+00  0.99999944176E+02  0.99999999996E+02  0.10566000000E+00 0. -1.
         22   -1    0    0    0    0 -0.00000000000E+00 -0.00000000000E+00 -0.32086631614E+02  0.32086631614E+02  0.00000000000E+00 0.  1.
         13    1    1    2    0    0 -0.11652584767E+02 -0.95033943775E+01 -0.22863709774E+02  0.27365263110E+02  0.10566000000E+00 0.  1.
        996    1    1    2    0    0  0.11652584767E+02  0.95033943775E+01  0.90777022335E+02  0.10472136850E+03  0.50000000000E+02 0.  0.
<mgrwt>
<rscale>  0 0.52212041E+02</rscale>
<asrwt>0</asrwt>
<pdfrwt beam="1">  1       13 0.10000000E+01 0.52212041E+02</pdfrwt>
<pdfrwt beam="2">  1       22 0.32086651E+00 0.52212041E+02</pdfrwt>
<totfact> 0.18313938E-01</totfact>
</mgrwt>
</event>
<event>
 4    1  0.2496748E+000  0.5335535E+02  0.7957747E-01  0.1428041E+00
         13   -1    0    0    0    0  0.00000000000E+00  0.00000000000E+00  0.99999944178E+02  0.99999999998E+02  0.10566000000E+00 0.  1.
         22   -1    0    0    0    0 -0.00000000000E+00 -0.00000000000E+00 -0.60060759210E+02  0.60060759210E+02  0.00000000000E+00 0. -1.
         13    1    1    2    0    0  0.15443729404E+02  0.10406002403E+02 -0.51183751474E+02  0.54466331278E+02  0.10566000000E+00 0. -1.
        996    1    1    2    0    0 -0.15443729404E+02 -0.10406002403E+02  0.91122936443E+02  0.10559442793E+03  0.50000000000E+02 0.  0.
<mgrwt>
<rscale>  0 0.53355353E+02</rscale>
<asrwt>0</asrwt>
<pdfrwt beam="1">  1       13 0.10000000E+01 0.53355353E+02</pdfrwt>
<pdfrwt beam="2">  1       22 0.60060770E+00 0.53355353E+02</pdfrwt>
<totfact> 0.63800971E-02</totfact>
</mgrwt>
</event>
<event>
 4    1  0.2496748E+000  0.6525242E+02  0.7957747E-01  0.1377025E+00
         13   -1    0    0    0    0  0.00000000000E+00  0.00000000000E+00  0.99999944176E+02  0.99999999996E+02  0.10566000000E+00 0. -1.
         22   -1    0    0    0    0 -0.00000000000E+00 -0.00000000000E+00 -0.31009838815E+02  0.31009838815E+02  0.00000000000E+00 0.  1.
         13    1    1    2    0    0 -0.40945371517E+02  0.90196597272E+01  0.10132001003E+02  0.43134050571E+02  0.10566000000E+00 0.  1.
        996    1    1    2    0    0  0.40945371517E+02 -0.90196597272E+01  0.58858104358E+02  0.87875788241E+02  0.50000000000E+02 0.  0.
<mgrwt>
<rscale>  0 0.65252415E+02</rscale>
<asrwt>0</asrwt>
<pdfrwt beam="1">  1       13 0.10000000E+01 0.65252415E+02</pdfrwt>
<pdfrwt beam="2">  1       22 0.31009858E+00 0.65252415E+02</pdfrwt>
<totfact> 0.19765359E-01</totfact>
</mgrwt>
</event>
<event>
 4    1  0.2496748E+000  0.5227115E+02  0.7957747E-01  0.1433463E+00
         13   -1    0    0    0    0  0.00000000000E+00  0.00000000000E+00  0.99999944176E+02  0.99999999997E+02  0.10566000000E+00 0. -1.
         22   -1    0    0    0    0 -0.00000000000E+00 -0.00000000000E+00 -0.11400358539E+02  0.11400358539E+02  0.00000000000E+00 0. -1.
         13    1    1    2    0    0  0.20031612003E+01  0.15108282255E+02  0.21055361046E+02  0.25992542013E+02  0.10566000000E+00 0.  1.
        996    1    1    2    0    0 -0.20031612003E+01 -0.15108282255E+02  0.67544224591E+02  0.85407816522E+02  0.50000000000E+02 0.  0.
<mgrwt>
<rscale>  0 0.52271147E+02</rscale>
<asrwt>0</asrwt>
<pdfrwt beam="1">  1       13 0.10000000E+01 0.52271147E+02</pdfrwt>
<pdfrwt beam="2">  1       22 0.11400383E+00 0.52271147E+02</pdfrwt>
<totfact> 0.11626073E+00</totfact>
</mgrwt>
</event>
<event>
 4    1  0.2496748E+000  0.5918250E+02  0.7957747E-01  0.1401295E+00
         13   -1    0    0    0    0  0.00000000000E+00  0.00000000000E+00  0.99999944171E+02  0.99999999991E+02  0.10566000000E+00 0. -1.
         22   -1    0    0    0    0 -0.00000000000E+00 -0.00000000000E+00 -0.21128485546E+02  0.21128485546E+02  0.00000000000E+00 0.  1.
         13    1    1    2    0    0  0.12507759049E+02  0.29088223871E+02  0.18916413036E+02  0.36883745073E+02  0.10566000000E+00 0.  1.
        996    1    1    2    0    0 -0.12507759049E+02 -0.29088223871E+02  0.59955045588E+02  0.84244740464E+02  0.50000000000E+02 0.  0.
<mgrwt>
<rscale>  0 0.59182504E+02</rscale>
<asrwt>0</asrwt>
<pdfrwt beam="1">  1       13 0.10000000E+01 0.59182504E+02</pdfrwt>
<pdfrwt beam="2">  1       22 0.21128508E+00 0.59182504E+02</pdfrwt>
<totfact> 0.41338852E-01</totfact>
</mgrwt>
</event>
<event>
 4    1  0.2496748E+000  0.5101711E+02  0.7957747E-01  0.1439931E+00
         13   -1    0    0    0    0  0.00000000000E+00  0.00000000000E+00  0.99999944178E+02  0.99999999999E+02  0.10566000000E+00 0. -1.
         22   -1    0    0    0    0 -0.00000000000E+00 -0.00000000000E+00 -0.10486345849E+02  0.10486345849E+02  0.00000000000E+00 0. -1.
         13    1    1    2    0    0 -0.10134166878E+02 -0.21062057924E+00  0.39734632140E+01  0.10887849801E+02  0.10566000000E+00 0.  1.
        996    1    1    2    0    0  0.10134166878E+02  0.21062057924E+00  0.85540135115E+02  0.99598496047E+02  0.50000000000E+02 0.  0.
<mgrwt>
<rscale>  0 0.51017112E+02</rscale>
<asrwt>0</asrwt>
<pdfrwt beam="1">  1       13 0.10000000E+01 0.51017112E+02</pdfrwt>
<pdfrwt beam="2">  1       22 0.10486371E+00 0.51017112E+02</pdfrwt>
<totfact> 0.13124016E+00</totfact>
</mgrwt>
</event>
<event>
 4    1  0.2496748E+000  0.5203692E+02  0.7957747E-01  0.1434655E+00
         13   -1    0    0    0    0  0.00000000000E+00  0.00000000000E+00  0.99999944176E+02  0.99999999996E+02  0.10566000000E+00 0. -1.
         22   -1    0    0    0    0 -0.00000000000E+00 -0.00000000000E+00 -0.32701146368E+02  0.32701146368E+02  0.00000000000E+00 0.  1.
         13    1    1    2    0    0 -0.75513665346E+01 -0.12280803756E+02 -0.23777710719E+02  0.27807048900E+02  0.10566000000E+00 0.  1.
        996    1    1    2    0    0  0.75513665346E+01  0.12280803756E+02  0.91076508527E+02  0.10489409746E+03  0.50000000000E+02 0.  0.
<mgrwt>
<rscale>  0 0.52036922E+02</rscale>
<asrwt>0</asrwt>
<pdfrwt beam="1">  1       13 0.10000000E+01 0.52036922E+02</pdfrwt>
<pdfrwt beam="2">  1       22 0.32701165E+00 0.52036922E+02</pdfrwt>
<totfact> 0.17701996E-01</totfact>
</mgrwt>
</event>
<event>
 4    1  0.2496748E+000  0.5385083E+02  0.7957747E-01  0.1425613E+00
         13   -1    0    0    0    0  0.00000000000E+00  0.00000000000E+00  0.99999944182E+02  0.10000000000E+03  0.10566000000E+00 0.  1.
         22   -1    0    0    0    0 -0.00000000000E+00 -0.00000000000E+00 -0.53281865539E+02  0.53281865539E+02  0.00000000000E+00 0. -1.
         13    1    1    2    0    0 -0.50050057898E+01 -0.19361341108E+02 -0.43690947290E+02  0.48050199288E+02  0.10566000000E+00 0. -1.
        996    1    1    2    0    0  0.50050057898E+01  0.19361341108E+02  0.90409025933E+02  0.10523166625E+03  0.50000000000E+02 0.  0.
<mgrwt>
<rscale>  0 0.53850827E+02</rscale>
<asrwt>0</asrwt>
<pdfrwt beam="1">  1       13 0.10000000E+01 0.53850827E+02</pdfrwt>
<pdfrwt beam="2">  1       22 0.53281879E+00 0.53850827E+02</pdfrwt>
<totfact> 0.62393433E-02</totfact>
</mgrwt>
</event>
<event>
 4    1  0.2496748E+000  0.5261266E+02  0.7957747E-01  0.1431738E+00
         13   -1    0    0    0    0  0.00000000000E+00  0.00000000000E+00  0.99999944178E+02  0.99999999998E+02  0.10566000000E+00 0. -1.
         22   -1    0    0    0    0 -0.00000000000E+00 -0.00000000000E+00 -0.12184946998E+02  0.12184946998E+02  0.00000000000E+00 0.  1.
         13    1    1    2    0    0 -0.16369639239E+02 -0.35559495654E+00  0.14026582468E+02  0.21560327371E+02  0.10566000000E+00 0.  1.
        996    1    1    2    0    0  0.16369639239E+02  0.35559495654E+00  0.73788414712E+02  0.90624619626E+02  0.50000000000E+02 0.  0.
<mgrwt>
<rscale>  0 0.52612656E+02</rscale>
<asrwt>0</asrwt>
<pdfrwt beam="1">  1       13 0.10000000E+01 0.52612656E+02</pdfrwt>
<pdfrwt beam="2">  1       22 0.12184972E+00 0.52612656E+02</pdfrwt>
<totfact> 0.10514046E+00</totfact>
</mgrwt>
</event>
<event>
 4    1  0.2496748E+000  0.7243904E+02  0.7957747E-01  0.1351990E+00
         13   -1    0    0    0    0  0.00000000000E+00  0.00000000000E+00  0.99999944181E+02  0.10000000000E+03  0.10566000000E+00 0. -1.
         22   -1    0    0    0    0 -0.00000000000E+00 -0.00000000000E+00 -0.70811414857E+02  0.70811414857E+02  0.00000000000E+00 0.  1.
         13    1    1    2    0    0  0.16566285480E+02  0.49728985830E+02 -0.43555976232E+02  0.68150921313E+02  0.10566000000E+00 0.  1.
        996    1    1    2    0    0 -0.16566285480E+02 -0.49728985830E+02  0.72744505556E+02  0.10266049354E+03  0.50000000000E+02 0.  0.
<mgrwt>
<rscale>  0 0.72439035E+02</rscale>
<asrwt>0</asrwt>
<pdfrwt beam="1">  1       13 0.10000000E+01 0.72439035E+02</pdfrwt>
<pdfrwt beam="2">  1       22 0.70811423E+00 0.72439035E+02</pdfrwt>
<totfact> 0.70388710E-02</totfact>
</mgrwt>
</event>
<event>
 4    1  0.2496748E+000  0.5121556E+02  0.7957747E-01  0.1438893E+00
         13   -1    0    0    0    0  0.00000000000E+00  0.00000000000E+00  0.99999944183E+02  0.10000000000E+03  0.10566000000E+00 0. -1.
         22   -1    0    0    0    0 -0.00000000000E+00 -0.00000000000E+00 -0.70019311106E+02  0.70019311106E+02  0.00000000000E+00 0.  1.
         13    1    1    2    0    0 -0.20108127468E+01  0.10908277059E+02 -0.62944830014E+02  0.63914760938E+02  0.10566000000E+00 0.  1.
        996    1    1    2    0    0  0.20108127468E+01 -0.10908277059E+02  0.92925463091E+02  0.10610455017E+03  0.50000000000E+02 0.  0.
<mgrwt>
<rscale>  0 0.51215563E+02</rscale>
<asrwt>0</asrwt>
<pdfrwt beam="1">  1       13 0.10000000E+01 0.51215563E+02</pdfrwt>
<pdfrwt beam="2">  1       22 0.70019320E+00 0.51215563E+02</pdfrwt>
<totfact> 0.74552364E-02</totfact>
</mgrwt>
</event>
<event>
 4    1  0.2496748E+000  0.5167087E+02  0.7957747E-01  0.1436532E+00
         13   -1    0    0    0    0  0.00000000000E+00  0.00000000000E+00  0.99999944181E+02  0.10000000000E+03  0.10566000000E+00 0.  1.
         22   -1    0    0    0    0 -0.00000000000E+00 -0.00000000000E+00 -0.31109859948E+02  0.31109859948E+02  0.00000000000E+00 0. -1.
         13    1    1    2    0    0 -0.68490544429E+00  0.13015764055E+02 -0.22569876344E+02  0.26063186521E+02  0.10566000000E+00 0. -1.
        996    1    1    2    0    0  0.68490544429E+00 -0.13015764055E+02  0.91459960578E+02  0.10504667343E+03  0.50000000000E+02 0.  0.
<mgrwt>
<rscale>  0 0.51670874E+02</rscale>
<asrwt>0</asrwt>
<pdfrwt beam="1">  1       13 0.10000000E+01 0.51670874E+02</pdfrwt>
<pdfrwt beam="2">  1       22 0.31109879E+00 0.51670874E+02</pdfrwt>
<totfact> 0.19352730E-01</totfact>
</mgrwt>
</event>
<event>
 4    1  0.2496748E+000  0.5746309E+02  0.7957747E-01  0.1408797E+00
         13   -1    0    0    0    0  0.00000000000E+00  0.00000000000E+00  0.99999944170E+02  0.99999999990E+02  0.10566000000E+00 0.  1.
         22   -1    0    0    0    0 -0.00000000000E+00 -0.00000000000E+00 -0.30461005903E+02  0.30461005903E+02  0.00000000000E+00 0. -1.
         13    1    1    2    0    0 -0.67867604033E+00  0.28311597797E+02 -0.11959295490E+02  0.30741553045E+02  0.10566000000E+00 0. -1.
        996    1    1    2    0    0  0.67867604033E+00 -0.28311597797E+02  0.81498233756E+02  0.99719452848E+02  0.50000000000E+02 0.  0.
<mgrwt>
<rscale>  0 0.57463094E+02</rscale>
<asrwt>0</asrwt>
<pdfrwt beam="1">  1       13 0.10000000E+01 0.57463094E+02</pdfrwt>
<pdfrwt beam="2">  1       22 0.30461025E+00 0.57463094E+02</pdfrwt>
<totfact> 0.20259708E-01</totfact>
</mgrwt>
</event>
<event>
 4    1  0.2496748E+000  0.5110398E+02  0.7957747E-01  0.1439476E+00
         13   -1    0    0    0    0  0.00000000000E+00  0.00000000000E+00  0.99999944177E+02  0.99999999997E+02  0.10566000000E+00 0. -1.
         22   -1    0    0    0    0 -0.00000000000E+00 -0.00000000000E+00 -0.19142863054E+02  0.19142863054E+02  0.00000000000E+00 0.  1.
         13    1    1    2    0    0  0.95007485053E+01 -0.46208337766E+01 -0.10225378178E+02  0.14703259838E+02  0.10566000000E+00 0.  1.
        996    1    1    2    0    0 -0.95007485053E+01  0.46208337766E+01  0.91082459301E+02  0.10443960321E+03  0.50000000000E+02 0.  0.
<mgrwt>
<rscale>  0 0.51103976E+02</rscale>
<asrwt>0</asrwt>
<pdfrwt beam="1">  1       13 0.10000000E+01 0.51103976E+02</pdfrwt>
<pdfrwt beam="2">  1       22 0.19142886E+00 0.51103976E+02</pdfrwt>
<totfact> 0.49052444E-01</totfact>
</mgrwt>
</event>
<event>
 4    1  0.2496748E+000  0.5165763E+02  0.7957747E-01  0.1436600E+00
         13   -1    0    0    0    0  0.00000000000E+00  0.00000000000E+00  0.99999944183E+02  0.10000000000E+03  0.10566000000E+00 0. -1.
         22   -1    0    0    0    0 -0.00000000000E+00 -0.00000000000E+00 -0.44025936089E+02  0.44025936089E+02  0.00000000000E+00 0.  1.
         13    1    1    2    0    0  0.12771564917E+02  0.23232400594E+01 -0.36148274666E+02  0.38408582897E+02  0.10566000000E+00 0.  1.
        996    1    1    2    0    0 -0.12771564917E+02 -0.23232400594E+01  0.92122282761E+02  0.10561735319E+03  0.50000000000E+02 0.  0.
<mgrwt>
<rscale>  0 0.51657626E+02</rscale>
<asrwt>0</asrwt>
<pdfrwt beam="1">  1       13 0.10000000E+01 0.51657626E+02</pdfrwt>
<pdfrwt beam="2">  1       22 0.44025952E+00 0.51657626E+02</pdfrwt>
<totfact> 0.10155926E-01</totfact>
</mgrwt>
</event>
<event>
 4    1  0.2496748E+000  0.5262053E+02  0.7957747E-01  0.1431699E+00
         13   -1    0    0    0    0  0.00000000000E+00  0.00000000000E+00  0.99999944179E+02  0.99999999999E+02  0.10566000000E+00 0.  1.
         22   -1    0    0    0    0 -0.00000000000E+00 -0.00000000000E+00 -0.18798473473E+02  0.18798473473E+02  0.00000000000E+00 0. -1.
         13    1    1    2    0    0 -0.13718700629E+02  0.89842850230E+01 -0.55692709908E+01  0.17319008855E+02  0.10566000000E+00 0. -1.
        996    1    1    2    0    0  0.13718700629E+02 -0.89842850230E+01  0.86770741697E+02  0.10147946462E+03  0.50000000000E+02 0.  0.
<mgrwt>
<rscale>  0 0.52620529E+02</rscale>
<asrwt>0</asrwt>
<pdfrwt beam="1">  1       13 0.10000000E+01 0.52620529E+02</pdfrwt>
<pdfrwt beam="2">  1       22 0.18798496E+00 0.52620529E+02</pdfrwt>
<totfact> 0.50851408E-01</totfact>
</mgrwt>
</event>
<event>
 4    1  0.2496748E+000  0.5135685E+02  0.7957747E-01  0.1438157E+00
         13   -1    0    0    0    0  0.00000000000E+00  0.00000000000E+00  0.99999944173E+02  0.99999999993E+02  0.10566000000E+00 0.  1.
         22   -1    0    0    0    0 -0.00000000000E+00 -0.00000000000E+00 -0.12306069169E+02  0.12306069169E+02  0.00000000000E+00 0. -1.
         13    1    1    2    0    0  0.92953801965E+01 -0.71499897536E+01  0.12990216851E+01  0.11799367265E+02  0.10566000000E+00 0. -1.
        996    1    1    2    0    0 -0.92953801965E+01  0.71499897536E+01  0.86394853319E+02  0.10050670190E+03  0.50000000000E+02 0.  0.
<mgrwt>
<rscale>  0 0.51356854E+02</rscale>
<asrwt>0</asrwt>
<pdfrwt beam="1">  1       13 0.10000000E+01 0.51356854E+02</pdfrwt>
<pdfrwt beam="2">  1       22 0.12306094E+00 0.51356854E+02</pdfrwt>
<totfact> 0.10326048E+00</totfact>
</mgrwt>
</event>
<event>
 4    1  0.2496748E+000  0.5493712E+02  0.7957747E-01  0.1420396E+00
         13   -1    0    0    0    0  0.00000000000E+00  0.00000000000E+00  0.99999944180E+02  0.10000000000E+03  0.10566000000E+00 0.  1.
         22   -1    0    0    0    0 -0.00000000000E+00 -0.00000000000E+00 -0.22247488861E+02  0.22247488861E+02  0.00000000000E+00 0.  1.
         13    1    1    2    0    0  0.14534745050E+02 -0.17516524312E+02 -0.46296176035E+01  0.23227827295E+02  0.10566000000E+00 0. -1.
        996    1    1    2    0    0 -0.14534745050E+02  0.17516524312E+02  0.82382072923E+02  0.99019661566E+02  0.50000000000E+02 0.  0.
<mgrwt>
<rscale>  0 0.54937123E+02</rscale>
<asrwt>0</asrwt>
<pdfrwt beam="1">  1       13 0.10000000E+01 0.54937123E+02</pdfrwt>
<pdfrwt beam="2">  1       22 0.22247511E+00 0.54937123E+02</pdfrwt>
<totfact> 0.37194433E-01</totfact>
</mgrwt>
</event>
<event>
 4    1  0.2496748E+000  0.5246588E+02  0.7957747E-01  0.1432478E+00
         13   -1    0    0    0    0  0.00000000000E+00  0.00000000000E+00  0.99999944177E+02  0.99999999997E+02  0.10566000000E+00 0.  1.
         22   -1    0    0    0    0 -0.00000000000E+00 -0.00000000000E+00 -0.38186554387E+02  0.38186554387E+02  0.00000000000E+00 0. -1.
         13    1    1    2    0    0 -0.93221013429E+01  0.12875040142E+02 -0.29135414920E+02  0.33189633904E+02  0.10566000000E+00 0. -1.
        996    1    1    2    0    0  0.93221013429E+01 -0.12875040142E+02  0.90948804710E+02  0.10499692048E+03  0.50000000000E+02 0.  0.
<mgrwt>
<rscale>  0 0.52465877E+02</rscale>
<asrwt>0</asrwt>
<pdfrwt beam="1">  1       13 0.10000000E+01 0.52465877E+02</pdfrwt>
<pdfrwt beam="2">  1       22 0.38186572E+00 0.52465877E+02</pdfrwt>
<totfact> 0.13480498E-01</totfact>
</mgrwt>
</event>
<event>
 4    1  0.2496748E+000  0.6759989E+02  0.7957747E-01  0.1368450E+00
         13   -1    0    0    0    0  0.00000000000E+00  0.00000000000E+00  0.99999944172E+02  0.99999999993E+02  0.10566000000E+00 0. -1.
         22   -1    0    0    0    0 -0.00000000000E+00 -0.00000000000E+00 -0.36959944968E+02  0.36959944968E+02  0.00000000000E+00 0.  1.
         13    1    1    2    0    0 -0.41291448516E+02 -0.19098733897E+02  0.14618071078E+01  0.45518055770E+02  0.10566000000E+00 0.  1.
        996    1    1    2    0    0  0.41291448516E+02  0.19098733897E+02  0.61578192096E+02  0.91441889191E+02  0.50000000000E+02 0.  0.
<mgrwt>
<rscale>  0 0.67599892E+02</rscale>
<asrwt>0</asrwt>
<pdfrwt beam="1">  1       13 0.10000000E+01 0.67599892E+02</pdfrwt>
<pdfrwt beam="2">  1       22 0.36959963E+00 0.67599892E+02</pdfrwt>
<totfact> 0.14466006E-01</totfact>
</mgrwt>
</event>
<event>
 4    1  0.2496748E+000  0.5109606E+02  0.7957747E-01  0.1439518E+00
         13   -1    0    0    0    0  0.00000000000E+00  0.00000000000E+00  0.99999944178E+02  0.99999999999E+02  0.10566000000E+00 0. -1.
         22   -1    0    0    0    0 -0.00000000000E+00 -0.00000000000E+00 -0.11988053309E+02  0.11988053309E+02  0.00000000000E+00 0. -1.
         13    1    1    2    0    0 -0.65800834763E+01  0.82164281506E+01  0.36338942073E+00  0.10533299864E+02  0.10566000000E+00 0.  1.
        996    1    1    2    0    0  0.65800834763E+01 -0.82164281506E+01  0.87648501449E+02  0.10145475344E+03  0.50000000000E+02 0.  0.
<mgrwt>
<rscale>  0 0.51096058E+02</rscale>
<asrwt>0</asrwt>
<pdfrwt beam="1">  1       13 0.10000000E+01 0.51096058E+02</pdfrwt>
<pdfrwt beam="2">  1       22 0.11988078E+00 0.51096058E+02</pdfrwt>
<totfact> 0.10743871E+00</totfact>
</mgrwt>
</event>
<event>
 4    1  0.2496748E+000  0.5327984E+02  0.7957747E-01  0.1428413E+00
         13   -1    0    0    0    0  0.00000000000E+00  0.00000000000E+00  0.99999944175E+02  0.99999999995E+02  0.10566000000E+00 0. -1.
         22   -1    0    0    0    0 -0.00000000000E+00 -0.00000000000E+00 -0.14662372823E+02  0.14662372823E+02  0.00000000000E+00 0.  1.
         13    1    1    2    0    0  0.17618385387E+02  0.53229226393E+01  0.65201156646E+01  0.19525984774E+02  0.10566000000E+00 0.  1.
        996    1    1    2    0    0 -0.17618385387E+02 -0.53229226393E+01  0.78817455687E+02  0.95136388044E+02  0.50000000000E+02 0.  0.
<mgrwt>
<rscale>  0 0.53279837E+02</rscale>
<asrwt>0</asrwt>
<pdfrwt beam="1">  1       13 0.10000000E+01 0.53279837E+02</pdfrwt>
<pdfrwt beam="2">  1       22 0.14662397E+00 0.53279837E+02</pdfrwt>
<totfact> 0.78391953E-01</totfact>
</mgrwt>
</event>
<event>
 4    1  0.2496748E+000  0.5241014E+02  0.7957747E-01  0.1432759E+00
         13   -1    0    0    0    0  0.00000000000E+00  0.00000000000E+00  0.99999944182E+02  0.10000000000E+03  0.10566000000E+00 0.  1.
         22   -1    0    0    0    0 -0.00000000000E+00 -0.00000000000E+00 -0.18932231556E+02  0.18932231556E+02  0.00000000000E+00 0. -1.
         13    1    1    2    0    0 -0.15161964223E+02  0.41154871672E+01 -0.63999974430E+01  0.16964478331E+02  0.10566000000E+00 0. -1.
        996    1    1    2    0    0  0.15161964223E+02 -0.41154871672E+01  0.87467710068E+02  0.10196775323E+03  0.50000000000E+02 0.  0.
<mgrwt>
<rscale>  0 0.52410136E+02</rscale>
<asrwt>0</asrwt>
<pdfrwt beam="1">  1       13 0.10000000E+01 0.52410136E+02</pdfrwt>
<pdfrwt beam="2">  1       22 0.18932254E+00 0.52410136E+02</pdfrwt>
<totfact> 0.50177866E-01</totfact>
</mgrwt>
</event>
<event>
 4    1  0.2496748E+000  0.5119816E+02  0.7957747E-01  0.1438984E+00
         13   -1    0    0    0    0  0.00000000000E+00  0.00000000000E+00  0.99999944189E+02  0.10000000001E+03  0.10566000000E+00 0.  1.
         22   -1    0    0    0    0 -0.00000000000E+00 -0.00000000000E+00 -0.18637925507E+02  0.18637925507E+02  0.00000000000E+00 0.  1.
         13    1    1    2    0    0 -0.86960631575E+01  0.67550042095E+01 -0.93691136243E+01  0.14458321149E+02  0.10566000000E+00 0. -1.
        996    1    1    2    0    0  0.86960631575E+01 -0.67550042095E+01  0.90731132306E+02  0.10417960437E+03  0.50000000000E+02 0.  0.
<mgrwt>
<rscale>  0 0.51198160E+02</rscale>
<asrwt>0</asrwt>
<pdfrwt beam="1">  1       13 0.10000000E+01 0.51198160E+02</pdfrwt>
<pdfrwt beam="2">  1       22 0.18637948E+00 0.51198160E+02</pdfrwt>
<totfact> 0.51515266E-01</totfact>
</mgrwt>
</event>
<event>
 4    1  0.2496748E+000  0.5383712E+02  0.7957747E-01  0.1425680E+00
         13   -1    0    0    0    0  0.00000000000E+00  0.00000000000E+00  0.99999944181E+02  0.10000000000E+03  0.10566000000E+00 0.  1.
         22   -1    0    0    0    0 -0.00000000000E+00 -0.00000000000E+00 -0.13616983673E+02  0.13616983673E+02  0.00000000000E+00 0.  1.
         13    1    1    2    0    0  0.12959444496E+02  0.15181835515E+02  0.22827811757E+02  0.30324173276E+02  0.10566000000E+00 0. -1.
        996    1    1    2    0    0 -0.12959444496E+02 -0.15181835515E+02  0.63555148751E+02  0.83292810398E+02  0.50000000000E+02 0.  0.
<mgrwt>
<rscale>  0 0.53837119E+02</rscale>
<asrwt>0</asrwt>
<pdfrwt beam="1">  1       13 0.10000000E+01 0.53837119E+02</pdfrwt>
<pdfrwt beam="2">  1       22 0.13617008E+00 0.53837119E+02</pdfrwt>
<totfact> 0.88522389E-01</totfact>
</mgrwt>
</event>
<event>
 4    1  0.2496748E+000  0.5222807E+02  0.7957747E-01  0.1433682E+00
         13   -1    0    0    0    0  0.00000000000E+00  0.00000000000E+00  0.99999944188E+02  0.10000000001E+03  0.10566000000E+00 0.  1.
         22   -1    0    0    0    0 -0.00000000000E+00 -0.00000000000E+00 -0.25087855670E+02  0.25087855670E+02  0.00000000000E+00 0. -1.
         13    1    1    2    0    0 -0.10798821041E+02 -0.10543082595E+02 -0.14890718231E+02  0.21201787188E+02  0.10566000000E+00 0. -1.
        996    1    1    2    0    0  0.10798821041E+02  0.10543082595E+02  0.89802806748E+02  0.10388606849E+03  0.50000000000E+02 0.  0.
<mgrwt>
<rscale>  0 0.52228068E+02</rscale>
<asrwt>0</asrwt>
<pdfrwt beam="1">  1       13 0.10000000E+01 0.52228068E+02</pdfrwt>
<pdfrwt beam="2">  1       22 0.25087877E+00 0.52228068E+02</pdfrwt>
<totfact> 0.29286994E-01</totfact>
</mgrwt>
</event>
<event>
 4    1  0.2496748E+000  0.5119678E+02  0.7957747E-01  0.1438991E+00
         13   -1    0    0    0    0  0.00000000000E+00  0.00000000000E+00  0.99999944179E+02  0.99999999999E+02  0.10566000000E+00 0. -1.
         22   -1    0    0    0    0 -0.00000000000E+00 -0.00000000000E+00 -0.99985564178E+01  0.99985564178E+01  0.00000000000E+00 0.  1.
         13    1    1    2    0    0  0.94228167455E+00 -0.10964620294E+02  0.92066467591E+01  0.14348668981E+02  0.10566000000E+00 0.  1.
        996    1    1    2    0    0 -0.94228167455E+00  0.10964620294E+02  0.80794741002E+02  0.95649887436E+02  0.50000000000E+02 0.  0.
<mgrwt>
<rscale>  0 0.51196785E+02</rscale>
<asrwt>0</asrwt>
<pdfrwt beam="1">  1       13 0.10000000E+01 0.51196785E+02</pdfrwt>
<pdfrwt beam="2">  1       22 0.99985815E-01 0.51196785E+02</pdfrwt>
<totfact> 0.14073438E+00</totfact>
</mgrwt>
</event>
<event>
 4    1  0.2496748E+000  0.5282057E+02  0.7957747E-01  0.1430696E+00
         13   -1    0    0    0    0  0.00000000000E+00  0.00000000000E+00  0.99999944179E+02  0.99999999999E+02  0.10566000000E+00 0.  1.
         22   -1    0    0    0    0 -0.00000000000E+00 -0.00000000000E+00 -0.33888218145E+02  0.33888218145E+02  0.00000000000E+00 0. -1.
         13    1    1    2    0    0 -0.99971219324E+01  0.13786576999E+02 -0.24004975812E+02  0.29432332222E+02  0.10566000000E+00 0. -1.
        996    1    1    2    0    0  0.99971219324E+01 -0.13786576999E+02  0.90116701845E+02  0.10445588592E+03  0.50000000000E+02 0.  0.
<mgrwt>
<rscale>  0 0.52820566E+02</rscale>
<asrwt>0</asrwt>
<pdfrwt beam="1">  1       13 0.10000000E+01 0.52820566E+02</pdfrwt>
<pdfrwt beam="2">  1       22 0.33888237E+00 0.52820566E+02</pdfrwt>
<totfact> 0.16640049E-01</totfact>
</mgrwt>
</event>
<event>
 4    1  0.2496748E+000  0.5307285E+02  0.7957747E-01  0.1429439E+00
         13   -1    0    0    0    0  0.00000000000E+00  0.00000000000E+00  0.99999944177E+02  0.99999999997E+02  0.10566000000E+00 0. -1.
         22   -1    0    0    0    0 -0.00000000000E+00 -0.00000000000E+00 -0.13452089543E+02  0.13452089543E+02  0.00000000000E+00 0. -1.
         13    1    1    2    0    0  0.17686876579E+02  0.19751866276E+01  0.10334393647E+02  0.20580034534E+02  0.10566000000E+00 0.  1.
        996    1    1    2    0    0 -0.17686876579E+02 -0.19751866276E+01  0.76213460987E+02  0.92872055006E+02  0.50000000000E+02 0.  0.
<mgrwt>
<rscale>  0 0.53072846E+02</rscale>
<asrwt>0</asrwt>
<pdfrwt beam="1">  1       13 0.10000000E+01 0.53072846E+02</pdfrwt>
<pdfrwt beam="2">  1       22 0.13452114E+00 0.53072846E+02</pdfrwt>
<totfact> 0.90122739E-01</totfact>
</mgrwt>
</event>
<event>
 4    1  0.2496748E+000  0.5142982E+02  0.7957747E-01  0.1437779E+00
         13   -1    0    0    0    0  0.00000000000E+00  0.00000000000E+00  0.99999944178E+02  0.99999999998E+02  0.10566000000E+00 0.  1.
         22   -1    0    0    0    0 -0.00000000000E+00 -0.00000000000E+00 -0.45346285072E+02  0.45346285072E+02  0.00000000000E+00 0. -1.
         13    1    1    2    0    0  0.71612561964E+01  0.96821004125E+01 -0.37733520131E+02  0.39608791501E+02  0.10566000000E+00 0. -1.
        996    1    1    2    0    0 -0.71612561964E+01 -0.96821004125E+01  0.92387179237E+02  0.10573749357E+03  0.50000000000E+02 0.  0.
<mgrwt>
<rscale>  0 0.51429823E+02</rscale>
<asrwt>0</asrwt>
<pdfrwt beam="1">  1       13 0.10000000E+01 0.51429823E+02</pdfrwt>
<pdfrwt beam="2">  1       22 0.45346300E+00 0.51429823E+02</pdfrwt>
<totfact> 0.94857134E-02</totfact>
</mgrwt>
</event>
<event>
 4    1  0.2496748E+000  0.5125734E+02  0.7957747E-01  0.1438675E+00
         13   -1    0    0    0    0  0.00000000000E+00  0.00000000000E+00  0.99999944179E+02  0.99999999999E+02  0.10566000000E+00 0.  1.
         22   -1    0    0    0    0 -0.00000000000E+00 -0.00000000000E+00 -0.10531725160E+02  0.10531725160E+02  0.00000000000E+00 0. -1.
         13    1    1    2    0    0 -0.31014143010E+01 -0.10848776371E+02  0.65427255716E+01  0.13043509549E+02  0.10566000000E+00 0. -1.
        996    1    1    2    0    0  0.31014143010E+01  0.10848776371E+02  0.82925493447E+02  0.97488215610E+02  0.50000000000E+02 0.  0.
<mgrwt>
<rscale>  0 0.51257338E+02</rscale>
<asrwt>0</asrwt>
<pdfrwt beam="1">  1       13 0.10000000E+01 0.51257338E+02</pdfrwt>
<pdfrwt beam="2">  1       22 0.10531750E+00 0.51257338E+02</pdfrwt>
<totfact> 0.13048604E+00</totfact>
</mgrwt>
</event>
<event>
 4    1  0.2496748E+000  0.5788306E+02  0.7957747E-01  0.1406937E+00
         13   -1    0    0    0    0  0.00000000000E+00  0.00000000000E+00  0.99999944175E+02  0.99999999995E+02  0.10566000000E+00 0. -1.
         22   -1    0    0    0    0 -0.00000000000E+00 -0.00000000000E+00 -0.41950246417E+02  0.41950246417E+02  0.00000000000E+00 0.  1.
         13    1    1    2    0    0 -0.27605157333E+02  0.94023543881E+01 -0.26553857525E+02  0.39440683220E+02  0.10566000000E+00 0.  1.
        996    1    1    2    0    0  0.27605157333E+02 -0.94023543881E+01  0.84603555283E+02  0.10250956319E+03  0.50000000000E+02 0.  0.
<mgrwt>
<rscale>  0 0.57883063E+02</rscale>
<asrwt>0</asrwt>
<pdfrwt beam="1">  1       13 0.10000000E+01 0.57883063E+02</pdfrwt>
<pdfrwt beam="2">  1       22 0.41950263E+00 0.57883063E+02</pdfrwt>
<totfact> 0.11306900E-01</totfact>
</mgrwt>
</event>
<event>
 4    1  0.2496748E+000  0.5217738E+02  0.7957747E-01  0.1433939E+00
         13   -1    0    0    0    0  0.00000000000E+00  0.00000000000E+00  0.99999944175E+02  0.99999999995E+02  0.10566000000E+00 0. -1.
         22   -1    0    0    0    0 -0.00000000000E+00 -0.00000000000E+00 -0.15039578846E+02  0.15039578846E+02  0.00000000000E+00 0. -1.
         13    1    1    2    0    0 -0.13507279214E+02  0.63271391815E+01 -0.48353479705E+00  0.14923948938E+02  0.10566000000E+00 0.  1.
        996    1    1    2    0    0  0.13507279214E+02 -0.63271391815E+01  0.85443900126E+02  0.10011562990E+03  0.50000000000E+02 0.  0.
<mgrwt>
<rscale>  0 0.52177383E+02</rscale>
<asrwt>0</asrwt>
<pdfrwt beam="1">  1       13 0.10000000E+01 0.52177383E+02</pdfrwt>
<pdfrwt beam="2">  1       22 0.15039603E+00 0.52177383E+02</pdfrwt>
<totfact> 0.74989744E-01</totfact>
</mgrwt>
</event>
<event>
 4    1  0.2496748E+000  0.5388146E+02  0.7957747E-01  0.1425464E+00
         13   -1    0    0    0    0  0.00000000000E+00  0.00000000000E+00  0.99999944187E+02  0.10000000001E+03  0.10566000000E+00 0. -1.
         22   -1    0    0    0    0 -0.00000000000E+00 -0.00000000000E+00 -0.18933186978E+02  0.18933186978E+02  0.00000000000E+00 0.  1.
         13    1    1    2    0    0 -0.12969639183E+02  0.15329726105E+02 -0.17226248726E+01  0.20154171863E+02  0.10566000000E+00 0.  1.
        996    1    1    2    0    0  0.12969639183E+02 -0.15329726105E+02  0.82789382082E+02  0.98779015122E+02  0.50000000000E+02 0.  0.
<mgrwt>
<rscale>  0 0.53881463E+02</rscale>
<asrwt>0</asrwt>
<pdfrwt beam="1">  1       13 0.10000000E+01 0.53881463E+02</pdfrwt>
<pdfrwt beam="2">  1       22 0.18933210E+00 0.53881463E+02</pdfrwt>
<totfact> 0.50306447E-01</totfact>
</mgrwt>
</event>
<event>
 4    1  0.2496748E+000  0.5116602E+02  0.7957747E-01  0.1439152E+00
         13   -1    0    0    0    0  0.00000000000E+00  0.00000000000E+00  0.99999944179E+02  0.99999999999E+02  0.10566000000E+00 0.  1.
         22   -1    0    0    0    0 -0.00000000000E+00 -0.00000000000E+00 -0.16298016246E+02  0.16298016246E+02  0.00000000000E+00 0. -1.
         13    1    1    2    0    0  0.10806578838E+02  0.10859345045E+01 -0.64543631511E+01  0.12634530765E+02  0.10566000000E+00 0. -1.
        996    1    1    2    0    0 -0.10806578838E+02 -0.10859345045E+01  0.90156291084E+02  0.10366348548E+03  0.50000000000E+02 0.  0.
<mgrwt>
<rscale>  0 0.51166018E+02</rscale>
<asrwt>0</asrwt>
<pdfrwt beam="1">  1       13 0.10000000E+01 0.51166018E+02</pdfrwt>
<pdfrwt beam="2">  1       22 0.16298040E+00 0.51166018E+02</pdfrwt>
<totfact> 0.65311391E-01</totfact>
</mgrwt>
</event>
<event>
 4    1  0.2496748E+000  0.5110238E+02  0.7957747E-01  0.1439485E+00
         13   -1    0    0    0    0  0.00000000000E+00  0.00000000000E+00  0.99999944182E+02  0.10000000000E+03  0.10566000000E+00 0.  1.
         22   -1    0    0    0    0 -0.00000000000E+00 -0.00000000000E+00 -0.11973017079E+02  0.11973017079E+02  0.00000000000E+00 0.  1.
         13    1    1    2    0    0 -0.84390464225E+01 -0.63431794768E+01  0.43826871329E+00  0.10566772161E+02  0.10566000000E+00 0. -1.
        996    1    1    2    0    0  0.84390464225E+01  0.63431794768E+01  0.87588658390E+02  0.10140624492E+03  0.50000000000E+02 0.  0.
<mgrwt>
<rscale>  0 0.51102382E+02</rscale>
<asrwt>0</asrwt>
<pdfrwt beam="1">  1       13 0.10000000E+01 0.51102382E+02</pdfrwt>
<pdfrwt beam="2">  1       22 0.11973042E+00 0.51102382E+02</pdfrwt>
<totfact> 0.10764680E+00</totfact>
</mgrwt>
</event>
<event>
 4    1  0.2496748E+000  0.5161549E+02  0.7957747E-01  0.1436818E+00
         13   -1    0    0    0    0  0.00000000000E+00  0.00000000000E+00  0.99999944186E+02  0.10000000001E+03  0.10566000000E+00 0.  1.
         22   -1    0    0    0    0 -0.00000000000E+00 -0.00000000000E+00 -0.12203797818E+02  0.12203797818E+02  0.00000000000E+00 0.  1.
         13    1    1    2    0    0 -0.11417470293E+01 -0.12761473614E+02  0.33684196592E+01  0.13248253097E+02  0.10566000000E+00 0. -1.
        996    1    1    2    0    0  0.11417470293E+01  0.12761473614E+02  0.84427726709E+02  0.98955544728E+02  0.50000000000E+02 0.  0.
<mgrwt>
<rscale>  0 0.51615490E+02</rscale>
<asrwt>0</asrwt>
<pdfrwt beam="1">  1       13 0.10000000E+01 0.51615490E+02</pdfrwt>
<pdfrwt beam="2">  1       22 0.12203822E+00 0.51615490E+02</pdfrwt>
<totfact> 0.10465887E+00</totfact>
</mgrwt>
</event>
<event>
 4    1  0.2496748E+000  0.5666850E+02  0.7957747E-01  0.1412369E+00
         13   -1    0    0    0    0  0.00000000000E+00  0.00000000000E+00  0.99999944170E+02  0.99999999990E+02  0.10566000000E+00 0. -1.
         22   -1    0    0    0    0 -0.00000000000E+00 -0.00000000000E+00 -0.44261954972E+02  0.44261954972E+02  0.00000000000E+00 0.  1.
         13    1    1    2    0    0 -0.87486900751E+01  0.25194826388E+02 -0.30848800025E+02  0.40779633174E+02  0.10566000000E+00 0.  1.
        996    1    1    2    0    0  0.87486900751E+01 -0.25194826388E+02  0.86586789223E+02  0.10348232179E+03  0.50000000000E+02 0.  0.
<mgrwt>
<rscale>  0 0.56668500E+02</rscale>
<asrwt>0</asrwt>
<pdfrwt beam="1">  1       13 0.10000000E+01 0.56668500E+02</pdfrwt>
<pdfrwt beam="2">  1       22 0.44261971E+00 0.56668500E+02</pdfrwt>
<totfact> 0.10064411E-01</totfact>
</mgrwt>
</event>
<event>
 4    1  0.2496748E+000  0.5570036E+02  0.7957747E-01  0.1416816E+00
         13   -1    0    0    0    0  0.00000000000E+00  0.00000000000E+00  0.99999944185E+02  0.10000000000E+03  0.10566000000E+00 0. -1.
         22   -1    0    0    0    0 -0.00000000000E+00 -0.00000000000E+00 -0.17553967700E+02  0.17553967700E+02  0.00000000000E+00 0. -1.
         13    1    1    2    0    0 -0.22438907818E+02  0.99511387758E+01  0.10836788791E+02  0.26832385327E+02  0.10566000000E+00 0.  1.
        996    1    1    2    0    0  0.22438907818E+02 -0.99511387758E+01  0.71609187694E+02  0.90721582378E+02  0.50000000000E+02 0.  0.
<mgrwt>
<rscale>  0 0.55700357E+02</rscale>
<asrwt>0</asrwt>
<pdfrwt beam="1">  1       13 0.10000000E+01 0.55700357E+02</pdfrwt>
<pdfrwt beam="2">  1       22 0.17553991E+00 0.55700357E+02</pdfrwt>
<totfact> 0.57848058E-01</totfact>
</mgrwt>
</event>
<event>
 4    1  0.2496748E+000  0.6386214E+02  0.7957747E-01  0.1382304E+00
         13   -1    0    0    0    0  0.00000000000E+00  0.00000000000E+00  0.99999944178E+02  0.99999999998E+02  0.10566000000E+00 0. -1.
         22   -1    0    0    0    0 -0.00000000000E+00 -0.00000000000E+00 -0.27830416692E+02  0.27830416692E+02  0.00000000000E+00 0.  1.
         13    1    1    2    0    0 -0.12917979691E+02 -0.37569911878E+02  0.16170836878E+02  0.42893817820E+02  0.10566000000E+00 0.  1.
        996    1    1    2    0    0  0.12917979691E+02  0.37569911878E+02  0.55998690608E+02  0.84936598870E+02  0.50000000000E+02 0.  0.
<mgrwt>
<rscale>  0 0.63862136E+02</rscale>
<asrwt>0</asrwt>
<pdfrwt beam="1">  1       13 0.10000000E+01 0.63862136E+02</pdfrwt>
<pdfrwt beam="2">  1       22 0.27830437E+00 0.63862136E+02</pdfrwt>
<totfact> 0.24256317E-01</totfact>
</mgrwt>
</event>
<event>
 4    1  0.2496748E+000  0.5125262E+02  0.7957747E-01  0.1438700E+00
         13   -1    0    0    0    0  0.00000000000E+00  0.00000000000E+00  0.99999944172E+02  0.99999999992E+02  0.10566000000E+00 0.  1.
         22   -1    0    0    0    0 -0.00000000000E+00 -0.00000000000E+00 -0.38662537783E+02  0.38662537783E+02  0.00000000000E+00 0. -1.
         13    1    1    2    0    0 -0.20357565103E+01 -0.11076394698E+02 -0.31039790157E+02  0.33019851016E+02  0.10566000000E+00 0. -1.
        996    1    1    2    0    0  0.20357565103E+01  0.11076394698E+02  0.92377196546E+02  0.10564268676E+03  0.50000000000E+02 0.  0.
<mgrwt>
<rscale>  0 0.51252618E+02</rscale>
<asrwt>0</asrwt>
<pdfrwt beam="1">  1       13 0.10000000E+01 0.51252618E+02</pdfrwt>
<pdfrwt beam="2">  1       22 0.38662555E+00 0.51252618E+02</pdfrwt>
<totfact> 0.13166861E-01</totfact>
</mgrwt>
</event>
<event>
 4    1  0.2496748E+000  0.5158973E+02  0.7957747E-01  0.1436951E+00
         13   -1    0    0    0    0  0.00000000000E+00  0.00000000000E+00  0.99999944176E+02  0.99999999996E+02  0.10566000000E+00 0. -1.
         22   -1    0    0    0    0 -0.00000000000E+00 -0.00000000000E+00 -0.68560001576E+02  0.68560001576E+02  0.00000000000E+00 0.  1.
         13    1    1    2    0    0 -0.12583482155E+02 -0.17764538894E+01 -0.61209862890E+02  0.62515264461E+02  0.10566000000E+00 0.  1.
        996    1    1    2    0    0  0.12583482155E+02  0.17764538894E+01  0.92649805490E+02  0.10604473711E+03  0.50000000000E+02 0.  0.
<mgrwt>
<rscale>  0 0.51589726E+02</rscale>
<asrwt>0</asrwt>
<pdfrwt beam="1">  1       13 0.10000000E+01 0.51589726E+02</pdfrwt>
<pdfrwt beam="2">  1       22 0.68560010E+00 0.51589726E+02</pdfrwt>
<totfact> 0.81344927E-02</totfact>
</mgrwt>
</event>
<event>
 4    1  0.2496748E+000  0.5696145E+02  0.7957747E-01  0.1411044E+00
         13   -1    0    0    0    0  0.00000000000E+00  0.00000000000E+00  0.99999944183E+02  0.10000000000E+03  0.10566000000E+00 0. -1.
         22   -1    0    0    0    0 -0.00000000000E+00 -0.00000000000E+00 -0.28426048174E+02  0.28426048174E+02  0.00000000000E+00 0.  1.
         13    1    1    2    0    0  0.26259536738E+02 -0.74191132780E+01 -0.98885559781E+01  0.29024148823E+02  0.10566000000E+00 0.  1.
        996    1    1    2    0    0 -0.26259536738E+02  0.74191132780E+01  0.81462451987E+02  0.99401899354E+02  0.50000000000E+02 0.  0.
<mgrwt>
<rscale>  0 0.56961448E+02</rscale>
<asrwt>0</asrwt>
<pdfrwt beam="1">  1       13 0.10000000E+01 0.56961448E+02</pdfrwt>
<pdfrwt beam="2">  1       22 0.28426068E+00 0.56961448E+02</pdfrwt>
<totfact> 0.23085103E-01</totfact>
</mgrwt>
</event>
<event>
 4    1  0.2496748E+000  0.5217723E+02  0.7957747E-01  0.1433940E+00
         13   -1    0    0    0    0  0.00000000000E+00  0.00000000000E+00  0.99999944170E+02  0.99999999990E+02  0.10566000000E+00 0. -1.
         22   -1    0    0    0    0 -0.00000000000E+00 -0.00000000000E+00 -0.22688157849E+02  0.22688157849E+02  0.00000000000E+00 0.  1.
         13    1    1    2    0    0 -0.13088969421E+01 -0.14857672079E+02 -0.12072658039E+02  0.19189160142E+02  0.10566000000E+00 0.  1.
        996    1    1    2    0    0  0.13088969421E+01  0.14857672079E+02  0.89384444360E+02  0.10349899770E+03  0.50000000000E+02 0.  0.
<mgrwt>
<rscale>  0 0.52177233E+02</rscale>
<asrwt>0</asrwt>
<pdfrwt beam="1">  1       13 0.10000000E+01 0.52177233E+02</pdfrwt>
<pdfrwt beam="2">  1       22 0.22688179E+00 0.52177233E+02</pdfrwt>
<totfact> 0.35648495E-01</totfact>
</mgrwt>
</event>
<event>
 4    1  0.2496748E+000  0.5331754E+02  0.7957747E-01  0.1428227E+00
         13   -1    0    0    0    0  0.00000000000E+00  0.00000000000E+00  0.99999944181E+02  0.10000000000E+03  0.10566000000E+00 0. -1.
         22   -1    0    0    0    0 -0.00000000000E+00 -0.00000000000E+00 -0.15815879539E+02  0.15815879539E+02  0.00000000000E+00 0. -1.
         13    1    1    2    0    0  0.13290880520E+02 -0.12888454935E+02  0.30987269169E+01  0.18771602173E+02  0.10566000000E+00 0.  1.
        996    1    1    2    0    0 -0.13290880520E+02  0.12888454935E+02  0.81085337726E+02  0.97044277367E+02  0.50000000000E+02 0.  0.
<mgrwt>
<rscale>  0 0.53317537E+02</rscale>
<asrwt>0</asrwt>
<pdfrwt beam="1">  1       13 0.10000000E+01 0.53317537E+02</pdfrwt>
<pdfrwt beam="2">  1       22 0.15815903E+00 0.53317537E+02</pdfrwt>
<totfact> 0.69050170E-01</totfact>
</mgrwt>
</event>
<event>
 4    1  0.2496748E+000  0.5295653E+02  0.7957747E-01  0.1430017E+00
         13   -1    0    0    0    0  0.00000000000E+00  0.00000000000E+00  0.99999944185E+02  0.10000000001E+03  0.10566000000E+00 0.  1.
         22   -1    0    0    0    0 -0.00000000000E+00 -0.00000000000E+00 -0.67475925734E+02  0.67475925734E+02  0.00000000000E+00 0. -1.
         13    1    1    2    0    0  0.13849153248E+02 -0.10611098819E+02 -0.59114996994E+02  0.61635935114E+02  0.10566000000E+00 0. -1.
        996    1    1    2    0    0 -0.13849153248E+02  0.10611098819E+02  0.91639015445E+02  0.10583999063E+03  0.50000000000E+02 0.  0.
<mgrwt>
<rscale>  0 0.52956534E+02</rscale>
<asrwt>0</asrwt>
<pdfrwt beam="1">  1       13 0.10000000E+01 0.52956534E+02</pdfrwt>
<pdfrwt beam="2">  1       22 0.67475935E+00 0.52956534E+02</pdfrwt>
<totfact> 0.85121546E-02</totfact>
</mgrwt>
</event>
<event>
 4    1  0.2496748E+000  0.5130667E+02  0.7957747E-01  0.1438419E+00
         13   -1    0    0    0    0  0.00000000000E+00  0.00000000000E+00  0.99999944182E+02  0.10000000000E+03  0.10566000000E+00 0. -1.
         22   -1    0    0    0    0 -0.00000000000E+00 -0.00000000000E+00 -0.11469973168E+02  0.11469973168E+02  0.00000000000E+00 0. -1.
         13    1    1    2    0    0  0.33140299453E+01  0.11017794170E+02  0.32675089001E+01  0.11960867916E+02  0.10566000000E+00 0.  1.
        996    1    1    2    0    0 -0.33140299453E+01 -0.11017794170E+02  0.85262462114E+02  0.99509105254E+02  0.50000000000E+02 0.  0.
<mgrwt>
<rscale>  0 0.51306672E+02</rscale>
<asrwt>0</asrwt>
<pdfrwt beam="1">  1       13 0.10000000E+01 0.51306672E+02</pdfrwt>
<pdfrwt beam="2">  1       22 0.11469998E+00 0.51306672E+02</pdfrwt>
<totfact> 0.11494620E+00</totfact>
</mgrwt>
</event>
<event>
 4    1  0.2496748E+000  0.5117491E+02  0.7957747E-01  0.1439106E+00
         13   -1    0    0    0    0  0.00000000000E+00  0.00000000000E+00  0.99999944178E+02  0.99999999998E+02  0.10566000000E+00 0. -1.
         22   -1    0    0    0    0 -0.00000000000E+00 -0.00000000000E+00 -0.14210055771E+02  0.14210055771E+02  0.00000000000E+00 0. -1.
         13    1    1    2    0    0 -0.71019683390E+01  0.82724257277E+01  0.51423172904E+02  0.52566385241E+02  0.10566000000E+00 0.  1.
        996    1    1    2    0    0  0.71019683390E+01 -0.82724257277E+01  0.34366715503E+02  0.61643670528E+02  0.50000000000E+02 0.  0.
<mgrwt>
<rscale>  0 0.51174906E+02</rscale>
<asrwt>0</asrwt>
<pdfrwt beam="1">  1       13 0.10000000E+01 0.51174906E+02</pdfrwt>
<pdfrwt beam="2">  1       22 0.14210080E+00 0.51174906E+02</pdfrwt>
<totfact> 0.82167985E-01</totfact>
</mgrwt>
</event>
<event>
 4    1  0.2496748E+000  0.5816111E+02  0.7957747E-01  0.1405715E+00
         13   -1    0    0    0    0  0.00000000000E+00  0.00000000000E+00  0.99999944182E+02  0.10000000000E+03  0.10566000000E+00 0. -1.
         22   -1    0    0    0    0 -0.00000000000E+00 -0.00000000000E+00 -0.24366126318E+02  0.24366126318E+02  0.00000000000E+00 0.  1.
         13    1    1    2    0    0 -0.55718338288E+01  0.29183366588E+02  0.97521035532E+00  0.29726695358E+02  0.10566000000E+00 0.  1.
        996    1    1    2    0    0  0.55718338288E+01 -0.29183366588E+02  0.74658607509E+02  0.94639430962E+02  0.50000000000E+02 0.  0.
<mgrwt>
<rscale>  0 0.58161106E+02</rscale>
<asrwt>0</asrwt>
<pdfrwt beam="1">  1       13 0.10000000E+01 0.58161106E+02</pdfrwt>
<pdfrwt beam="2">  1       22 0.24366147E+00 0.58161106E+02</pdfrwt>
<totfact> 0.31294154E-01</totfact>
</mgrwt>
</event>
<event>
 4    1  0.2496748E+000  0.5285241E+02  0.7957747E-01  0.1430537E+00
         13   -1    0    0    0    0  0.00000000000E+00  0.00000000000E+00  0.99999944185E+02  0.10000000001E+03  0.10566000000E+00 0. -1.
         22   -1    0    0    0    0 -0.00000000000E+00 -0.00000000000E+00 -0.56132055962E+02  0.56132055962E+02  0.00000000000E+00 0.  1.
         13    1    1    2    0    0 -0.36599776878E+01 -0.16732653323E+02 -0.47547031983E+02  0.50538188910E+02  0.10566000000E+00 0.  1.
        996    1    1    2    0    0  0.36599776878E+01  0.16732653323E+02  0.91414920206E+02  0.10559386706E+03  0.50000000000E+02 0.  0.
<mgrwt>
<rscale>  0 0.52852409E+02</rscale>
<asrwt>0</asrwt>
<pdfrwt beam="1">  1       13 0.10000000E+01 0.52852409E+02</pdfrwt>
<pdfrwt beam="2">  1       22 0.56132068E+00 0.52852409E+02</pdfrwt>
<totfact> 0.58356350E-02</totfact>
</mgrwt>
</event>
<event>
 4    1  0.2496748E+000  0.5168858E+02  0.7957747E-01  0.1436441E+00
         13   -1    0    0    0    0  0.00000000000E+00  0.00000000000E+00  0.99999944184E+02  0.10000000000E+03  0.10566000000E+00 0.  1.
         22   -1    0    0    0    0 -0.00000000000E+00 -0.00000000000E+00 -0.19320240428E+02  0.19320240428E+02  0.00000000000E+00 0. -1.
         13    1    1    2    0    0 -0.97231829832E+01  0.87845670227E+01 -0.89398051230E+01  0.15863170704E+02  0.10566000000E+00 0. -1.
        996    1    1    2    0    0  0.97231829832E+01 -0.87845670227E+01  0.89619508879E+02  0.10345706973E+03  0.50000000000E+02 0.  0.
<mgrwt>
<rscale>  0 0.51688576E+02</rscale>
<asrwt>0</asrwt>
<pdfrwt beam="1">  1       13 0.10000000E+01 0.51688576E+02</pdfrwt>
<pdfrwt beam="2">  1       22 0.19320263E+00 0.51688576E+02</pdfrwt>
<totfact> 0.48279917E-01</totfact>
</mgrwt>
</event>
<event>
 4    1  0.2496748E+000  0.5240579E+02  0.7957747E-01  0.1432781E+00
         13   -1    0    0    0    0  0.00000000000E+00  0.00000000000E+00  0.99999944181E+02  0.10000000000E+03  0.10566000000E+00 0. -1.
         22   -1    0    0    0    0 -0.00000000000E+00 -0.00000000000E+00 -0.12964482177E+02  0.12964482177E+02  0.00000000000E+00 0.  1.
         13    1    1    2    0    0 -0.12557095973E+02 -0.94173552209E+01  0.67440206307E+01  0.17083916908E+02  0.10566000000E+00 0.  1.
        996    1    1    2    0    0  0.12557095973E+02  0.94173552209E+01  0.80291441373E+02  0.95880565269E+02  0.50000000000E+02 0.  0.
<mgrwt>
<rscale>  0 0.52405794E+02</rscale>
<asrwt>0</asrwt>
<pdfrwt beam="1">  1       13 0.10000000E+01 0.52405794E+02</pdfrwt>
<pdfrwt beam="2">  1       22 0.12964506E+00 0.52405794E+02</pdfrwt>
<totfact> 0.95419887E-01</totfact>
</mgrwt>
</event>
<event>
 4    1  0.2496748E+000  0.6407407E+02  0.7957747E-01  0.1381489E+00
         13   -1    0    0    0    0  0.00000000000E+00  0.00000000000E+00  0.99999944172E+02  0.99999999992E+02  0.10566000000E+00 0.  1.
         22   -1    0    0    0    0 -0.00000000000E+00 -0.00000000000E+00 -0.63669851274E+02  0.63669851274E+02  0.00000000000E+00 0. -1.
         13    1    1    2    0    0  0.14396885109E+02 -0.37392727554E+02 -0.44920666910E+02  0.60194383911E+02  0.10566000000E+00 0. -1.
        996    1    1    2    0    0 -0.14396885109E+02  0.37392727554E+02  0.81250759809E+02  0.10347546735E+03  0.50000000000E+02 0.  0.
<mgrwt>
<rscale>  0 0.64074069E+02</rscale>
<asrwt>0</asrwt>
<pdfrwt beam="1">  1       13 0.10000000E+01 0.64074069E+02</pdfrwt>
<pdfrwt beam="2">  1       22 0.63669861E+00 0.64074069E+02</pdfrwt>
<totfact> 0.82032531E-02</totfact>
</mgrwt>
</event>
<event>
 4    1  0.2496748E+000  0.5149925E+02  0.7957747E-01  0.1437419E+00
         13   -1    0    0    0    0  0.00000000000E+00  0.00000000000E+00  0.99999944180E+02  0.10000000000E+03  0.10566000000E+00 0.  1.
         22   -1    0    0    0    0 -0.00000000000E+00 -0.00000000000E+00 -0.36119259507E+02  0.36119259507E+02  0.00000000000E+00 0. -1.
         13    1    1    2    0    0 -0.12104236722E+02 -0.23791188654E+01 -0.28107935422E+02  0.30695927269E+02  0.10566000000E+00 0. -1.
        996    1    1    2    0    0  0.12104236722E+02  0.23791188654E+01  0.91988620095E+02  0.10542333224E+03  0.50000000000E+02 0.  0.
<mgrwt>
<rscale>  0 0.51499250E+02</rscale>
<asrwt>0</asrwt>
<pdfrwt beam="1">  1       13 0.10000000E+01 0.51499250E+02</pdfrwt>
<pdfrwt beam="2">  1       22 0.36119277E+00 0.51499250E+02</pdfrwt>
<totfact> 0.14866654E-01</totfact>
</mgrwt>
</event>
<event>
 4    1  0.2496748E+000  0.5303589E+02  0.7957747E-01  0.1429622E+00
         13   -1    0    0    0    0  0.00000000000E+00  0.00000000000E+00  0.99999944184E+02  0.10000000000E+03  0.10566000000E+00 0.  1.
         22   -1    0    0    0    0 -0.00000000000E+00 -0.00000000000E+00 -0.14813429048E+02  0.14813429048E+02  0.00000000000E+00 0. -1.
         13    1    1    2    0    0  0.13979070643E+02 -0.10834726757E+02  0.44881114950E+01  0.18247192353E+02  0.10566000000E+00 0. -1.
        996    1    1    2    0    0 -0.13979070643E+02  0.10834726757E+02  0.80698403641E+02  0.96566236699E+02  0.50000000000E+02 0.  0.
<mgrwt>
<rscale>  0 0.53035891E+02</rscale>
<asrwt>0</asrwt>
<pdfrwt beam="1">  1       13 0.10000000E+01 0.53035891E+02</pdfrwt>
<pdfrwt beam="2">  1       22 0.14813453E+00 0.53035891E+02</pdfrwt>
<totfact> 0.77036077E-01</totfact>
</mgrwt>
</event>
<event>
 4    1  0.2496748E+000  0.5231402E+02  0.7957747E-01  0.1433246E+00
         13   -1    0    0    0    0  0.00000000000E+00  0.00000000000E+00  0.99999944177E+02  0.99999999997E+02  0.10566000000E+00 0. -1.
         22   -1    0    0    0    0 -0.00000000000E+00 -0.00000000000E+00 -0.12165315684E+02  0.12165315684E+02  0.00000000000E+00 0. -1.
         13    1    1    2    0    0  0.88091566620E+01 -0.12615666467E+02  0.98868939840E+01  0.18289836472E+02  0.10566000000E+00 0.  1.
        996    1    1    2    0    0 -0.88091566620E+01  0.12615666467E+02  0.77947734509E+02  0.93875479208E+02  0.50000000000E+02 0.  0.
<mgrwt>
<rscale>  0 0.52314016E+02</rscale>
<asrwt>0</asrwt>
<pdfrwt beam="1">  1       13 0.10000000E+01 0.52314016E+02</pdfrwt>
<pdfrwt beam="2">  1       22 0.12165340E+00 0.52314016E+02</pdfrwt>
<totfact> 0.10533256E+00</totfact>
</mgrwt>
</event>
<event>
 4    1  0.2496748E+000  0.5247179E+02  0.7957747E-01  0.1432448E+00
         13   -1    0    0    0    0  0.00000000000E+00  0.00000000000E+00  0.99999944177E+02  0.99999999997E+02  0.10566000000E+00 0. -1.
         22   -1    0    0    0    0 -0.00000000000E+00 -0.00000000000E+00 -0.12878140908E+02  0.12878140908E+02  0.00000000000E+00 0.  1.
         13    1    1    2    0    0 -0.15050246299E+02  0.51747790712E+01  0.76797815433E+01  0.17671402341E+02  0.10566000000E+00 0.  1.
        996    1    1    2    0    0  0.15050246299E+02 -0.51747790712E+01  0.79442021726E+02  0.95206738564E+02  0.50000000000E+02 0.  0.
<mgrwt>
<rscale>  0 0.52471785E+02</rscale>
<asrwt>0</asrwt>
<pdfrwt beam="1">  1       13 0.10000000E+01 0.52471785E+02</pdfrwt>
<pdfrwt beam="2">  1       22 0.12878165E+00 0.52471785E+02</pdfrwt>
<totfact> 0.96441439E-01</totfact>
</mgrwt>
</event>
<event>
 4    1  0.2496748E+000  0.5125345E+02  0.7957747E-01  0.1438696E+00
         13   -1    0    0    0    0  0.00000000000E+00  0.00000000000E+00  0.99999944178E+02  0.99999999999E+02  0.10566000000E+00 0.  1.
         22   -1    0    0    0    0 -0.00000000000E+00 -0.00000000000E+00 -0.97747977554E+01  0.97747977554E+01  0.00000000000E+00 0.  1.
         13    1    1    2    0    0  0.11265703554E+02 -0.67090005918E-02  0.15521699717E+02  0.19179427721E+02  0.10566000000E+00 0. -1.
        996    1    1    2    0    0 -0.11265703554E+02  0.67090005918E-02  0.74703446706E+02  0.90595370033E+02  0.50000000000E+02 0.  0.
<mgrwt>
<rscale>  0 0.51253450E+02</rscale>
<asrwt>0</asrwt>
<pdfrwt beam="1">  1       13 0.10000000E+01 0.51253450E+02</pdfrwt>
<pdfrwt beam="2">  1       22 0.97748229E-01 0.51253450E+02</pdfrwt>
<totfact> 0.14542905E+00</totfact>
</mgrwt>
</event>
<event>
 4    1  0.2496748E+000  0.5137191E+02  0.7957747E-01  0.1438079E+00
         13   -1    0    0    0    0  0.00000000000E+00  0.00000000000E+00  0.99999944177E+02  0.99999999997E+02  0.10566000000E+00 0. -1.
         22   -1    0    0    0    0 -0.00000000000E+00 -0.00000000000E+00 -0.19375793956E+02  0.19375793956E+02  0.00000000000E+00 0.  1.
         13    1    1    2    0    0  0.11743255940E+02 -0.10812461111E+01 -0.98291233812E+01  0.15352393419E+02  0.10566000000E+00 0.  1.
        996    1    1    2    0    0 -0.11743255940E+02  0.10812461111E+01  0.90453273602E+02  0.10402340053E+03  0.50000000000E+02 0.  0.
<mgrwt>
<rscale>  0 0.51371910E+02</rscale>
<asrwt>0</asrwt>
<pdfrwt beam="1">  1       13 0.10000000E+01 0.51371910E+02</pdfrwt>
<pdfrwt beam="2">  1       22 0.19375816E+00 0.51371910E+02</pdfrwt>
<totfact> 0.47997130E-01</totfact>
</mgrwt>
</event>
<event>
 4    1  0.2496748E+000  0.5172310E+02  0.7957747E-01  0.1436263E+00
         13   -1    0    0    0    0  0.00000000000E+00  0.00000000000E+00  0.99999944177E+02  0.99999999997E+02  0.10566000000E+00 0. -1.
         22   -1    0    0    0    0 -0.00000000000E+00 -0.00000000000E+00 -0.15505676526E+02  0.15505676526E+02  0.00000000000E+00 0.  1.
         13    1    1    2    0    0  0.11657158936E+02  0.62761100822E+01 -0.32667376228E+01  0.13636775680E+02  0.10566000000E+00 0.  1.
        996    1    1    2    0    0 -0.11657158936E+02 -0.62761100822E+01  0.87761005274E+02  0.10186890084E+03  0.50000000000E+02 0.  0.
<mgrwt>
<rscale>  0 0.51723098E+02</rscale>
<asrwt>0</asrwt>
<pdfrwt beam="1">  1       13 0.10000000E+01 0.51723098E+02</pdfrwt>
<pdfrwt beam="2">  1       22 0.15505700E+00 0.51723098E+02</pdfrwt>
<totfact> 0.71182304E-01</totfact>
</mgrwt>
</event>
<event>
 4    1  0.2496748E+000  0.5334932E+02  0.7957747E-01  0.1428070E+00
         13   -1    0    0    0    0  0.00000000000E+00  0.00000000000E+00  0.99999944184E+02  0.10000000000E+03  0.10566000000E+00 0. -1.
         22   -1    0    0    0    0 -0.00000000000E+00 -0.00000000000E+00 -0.25975787002E+02  0.25975787002E+02  0.00000000000E+00 0.  1.
         13    1    1    2    0    0 -0.18549522052E+02 -0.14369457282E+01 -0.13836540028E+02  0.23186431061E+02  0.10566000000E+00 0.  1.
        996    1    1    2    0    0  0.18549522052E+02  0.14369457282E+01  0.87860697210E+02  0.10278935594E+03  0.50000000000E+02 0.  0.
<mgrwt>
<rscale>  0 0.53349317E+02</rscale>
<asrwt>0</asrwt>
<pdfrwt beam="1">  1       13 0.10000000E+01 0.53349317E+02</pdfrwt>
<pdfrwt beam="2">  1       22 0.25975808E+00 0.53349317E+02</pdfrwt>
<totfact> 0.27395461E-01</totfact>
</mgrwt>
</event>
<event>
 4    1  0.2496748E+000  0.5156579E+02  0.7957747E-01  0.1437075E+00
         13   -1    0    0    0    0  0.00000000000E+00  0.00000000000E+00  0.99999944175E+02  0.99999999995E+02  0.10566000000E+00 0. -1.
         22   -1    0    0    0    0 -0.00000000000E+00 -0.00000000000E+00 -0.40102194203E+02  0.40102194203E+02  0.00000000000E+00 0.  1.
         13    1    1    2    0    0  0.12522302740E+02 -0.14907806672E+01 -0.32183152452E+02  0.34565835137E+02  0.10566000000E+00 0.  1.
        996    1    1    2    0    0 -0.12522302740E+02  0.14907806672E+01  0.92080902423E+02  0.10553635906E+03  0.50000000000E+02 0.  0.
<mgrwt>
<rscale>  0 0.51565788E+02</rscale>
<asrwt>0</asrwt>
<pdfrwt beam="1">  1       13 0.10000000E+01 0.51565788E+02</pdfrwt>
<pdfrwt beam="2">  1       22 0.40102211E+00 0.51565788E+02</pdfrwt>
<totfact> 0.12303601E-01</totfact>
</mgrwt>
</event>
<event>
 4    1  0.2496748E+000  0.5691073E+02  0.7957747E-01  0.1411273E+00
         13   -1    0    0    0    0  0.00000000000E+00  0.00000000000E+00  0.99999944175E+02  0.99999999995E+02  0.10566000000E+00 0.  1.
         22   -1    0    0    0    0 -0.00000000000E+00 -0.00000000000E+00 -0.18080285057E+02  0.18080285057E+02  0.00000000000E+00 0. -1.
         13    1    1    2    0    0 -0.26967176728E+02 -0.34063171292E+01  0.18558143647E+02  0.32912725149E+02  0.10566000000E+00 0. -1.
        996    1    1    2    0    0  0.26967176728E+02  0.34063171292E+01  0.63361515472E+02  0.85167559904E+02  0.50000000000E+02 0.  0.
<mgrwt>
<rscale>  0 0.56910734E+02</rscale>
<asrwt>0</asrwt>
<pdfrwt beam="1">  1       13 0.10000000E+01 0.56910734E+02</pdfrwt>
<pdfrwt beam="2">  1       22 0.18080308E+00 0.56910734E+02</pdfrwt>
<totfact> 0.54985661E-01</totfact>
</mgrwt>
</event>
<event>
 4    1  0.2496748E+000  0.5608396E+02  0.7957747E-01  0.1415041E+00
         13   -1    0    0    0    0  0.00000000000E+00  0.00000000000E+00  0.99999944178E+02  0.99999999998E+02  0.10566000000E+00 0. -1.
         22   -1    0    0    0    0 -0.00000000000E+00 -0.00000000000E+00 -0.18367795162E+02  0.18367795162E+02  0.00000000000E+00 0.  1.
         13    1    1    2    0    0 -0.17778544213E+02  0.18147567570E+02  0.97889163553E+01  0.27225812944E+02  0.10566000000E+00 0.  1.
        996    1    1    2    0    0  0.17778544213E+02 -0.18147567570E+02  0.71843232661E+02  0.91141982216E+02  0.50000000000E+02 0.  0.
<mgrwt>
<rscale>  0 0.56083962E+02</rscale>
<asrwt>0</asrwt>
<pdfrwt beam="1">  1       13 0.10000000E+01 0.56083962E+02</pdfrwt>
<pdfrwt beam="2">  1       22 0.18367818E+00 0.56083962E+02</pdfrwt>
<totfact> 0.53365915E-01</totfact>
</mgrwt>
</event>
<event>
 4    1  0.2496748E+000  0.5619194E+02  0.7957747E-01  0.1414545E+00
         13   -1    0    0    0    0  0.00000000000E+00  0.00000000000E+00  0.99999944173E+02  0.99999999993E+02  0.10566000000E+00 0. -1.
         22   -1    0    0    0    0 -0.00000000000E+00 -0.00000000000E+00 -0.20671501784E+02  0.20671501784E+02  0.00000000000E+00 0.  1.
         13    1    1    2    0    0 -0.16804329688E+02  0.19368744882E+02  0.28954137373E+01  0.25805587753E+02  0.10566000000E+00 0.  1.
        996    1    1    2    0    0  0.16804329688E+02 -0.19368744882E+02  0.76433028652E+02  0.94865914023E+02  0.50000000000E+02 0.  0.
<mgrwt>
<rscale>  0 0.56191937E+02</rscale>
<asrwt>0</asrwt>
<pdfrwt beam="1">  1       13 0.10000000E+01 0.56191937E+02</pdfrwt>
<pdfrwt beam="2">  1       22 0.20671524E+00 0.56191937E+02</pdfrwt>
<totfact> 0.42889216E-01</totfact>
</mgrwt>
</event>
<event>
 4    1  0.2496748E+000  0.5137083E+02  0.7957747E-01  0.1438085E+00
         13   -1    0    0    0    0  0.00000000000E+00  0.00000000000E+00  0.99999944180E+02  0.10000000000E+03  0.10566000000E+00 0. -1.
         22   -1    0    0    0    0 -0.00000000000E+00 -0.00000000000E+00 -0.12583512920E+02  0.12583512920E+02  0.00000000000E+00 0.  1.
         13    1    1    2    0    0 -0.14346217594E+01  0.11700583979E+02  0.72038718956E+00  0.11810670039E+02  0.10566000000E+00 0.  1.
        996    1    1    2    0    0  0.14346217594E+01 -0.11700583979E+02  0.86696044070E+02  0.10077284288E+03  0.50000000000E+02 0.  0.
<mgrwt>
<rscale>  0 0.51370826E+02</rscale>
<asrwt>0</asrwt>
<pdfrwt beam="1">  1       13 0.10000000E+01 0.51370826E+02</pdfrwt>
<pdfrwt beam="2">  1       22 0.12583537E+00 0.51370826E+02</pdfrwt>
<totfact> 0.99754823E-01</totfact>
</mgrwt>
</event>
<event>
 4    1  0.2496748E+000  0.5422755E+02  0.7957747E-01  0.1423788E+00
         13   -1    0    0    0    0  0.00000000000E+00  0.00000000000E+00  0.99999944176E+02  0.99999999996E+02  0.10566000000E+00 0. -1.
         22   -1    0    0    0    0 -0.00000000000E+00 -0.00000000000E+00 -0.19551494162E+02  0.19551494162E+02  0.00000000000E+00 0.  1.
         13    1    1    2    0    0  0.10012830009E+02 -0.18449136108E+02 -0.17640016244E+01  0.21065380455E+02  0.10566000000E+00 0.  1.
        996    1    1    2    0    0 -0.10012830009E+02  0.18449136108E+02  0.82212451638E+02  0.98486113703E+02  0.50000000000E+02 0.  0.
<mgrwt>
<rscale>  0 0.54227552E+02</rscale>
<asrwt>0</asrwt>
<pdfrwt beam="1">  1       13 0.10000000E+01 0.54227552E+02</pdfrwt>
<pdfrwt beam="2">  1       22 0.19551517E+00 0.54227552E+02</pdfrwt>
<totfact> 0.47445145E-01</totfact>
</mgrwt>
</event>
<event>
 4    1  0.2496748E+000  0.6619075E+02  0.7957747E-01  0.1373548E+00
         13   -1    0    0    0    0  0.00000000000E+00  0.00000000000E+00  0.99999944180E+02  0.10000000000E+03  0.10566000000E+00 0.  1.
         22   -1    0    0    0    0 -0.00000000000E+00 -0.00000000000E+00 -0.32082744594E+02  0.32082744594E+02  0.00000000000E+00 0. -1.
         13    1    1    2    0    0  0.20692503234E+02  0.38118702070E+02  0.10903296494E+02  0.44722568979E+02  0.10566000000E+00 0. -1.
        996    1    1    2    0    0 -0.20692503234E+02 -0.38118702070E+02  0.57013903092E+02  0.87360175615E+02  0.50000000000E+02 0.  0.
<mgrwt>
<rscale>  0 0.66190748E+02</rscale>
<asrwt>0</asrwt>
<pdfrwt beam="1">  1       13 0.10000000E+01 0.66190748E+02</pdfrwt>
<pdfrwt beam="2">  1       22 0.32082764E+00 0.66190748E+02</pdfrwt>
<totfact> 0.18589684E-01</totfact>
</mgrwt>
</event>
<event>
 4    1  0.2496748E+000  0.8371560E+02  0.7957747E-01  0.1318826E+00
         13   -1    0    0    0    0  0.00000000000E+00  0.00000000000E+00  0.99999944178E+02  0.99999999998E+02  0.10566000000E+00 0. -1.
         22   -1    0    0    0    0 -0.00000000000E+00 -0.00000000000E+00 -0.58853648643E+02  0.58853648643E+02  0.00000000000E+00 0.  1.
         13    1    1    2    0    0 -0.60995723486E+02 -0.28068185701E+02  0.39890184104E+01  0.67262357705E+02  0.10566000000E+00 0.  1.
        996    1    1    2    0    0  0.60995723486E+02  0.28068185701E+02  0.37157277125E+02  0.91591290937E+02  0.50000000000E+02 0.  0.
<mgrwt>
<rscale>  0 0.83715598E+02</rscale>
<asrwt>0</asrwt>
<pdfrwt beam="1">  1       13 0.10000000E+01 0.83715598E+02</pdfrwt>
<pdfrwt beam="2">  1       22 0.58853660E+00 0.83715598E+02</pdfrwt>
<totfact> 0.60286434E-02</totfact>
</mgrwt>
</event>
<event>
 4    1  0.2496748E+000  0.5445630E+02  0.7957747E-01  0.1422688E+00
         13   -1    0    0    0    0  0.00000000000E+00  0.00000000000E+00  0.99999944177E+02  0.99999999997E+02  0.10566000000E+00 0.  1.
         22   -1    0    0    0    0 -0.00000000000E+00 -0.00000000000E+00 -0.19174482129E+02  0.19174482129E+02  0.00000000000E+00 0.  1.
         13    1    1    2    0    0 -0.95679641552E+01  0.19337601195E+02 -0.16808741292E+00  0.21576101953E+02  0.10566000000E+00 0. -1.
        996    1    1    2    0    0  0.95679641552E+01 -0.19337601195E+02  0.80993549461E+02  0.97598380173E+02  0.50000000000E+02 0.  0.
<mgrwt>
<rscale>  0 0.54456301E+02</rscale>
<asrwt>0</asrwt>
<pdfrwt beam="1">  1       13 0.10000000E+01 0.54456301E+02</pdfrwt>
<pdfrwt beam="2">  1       22 0.19174505E+00 0.54456301E+02</pdfrwt>
<totfact> 0.49200849E-01</totfact>
</mgrwt>
</event>
<event>
 4    1  0.2496748E+000  0.7259345E+02  0.7957747E-01  0.1351490E+00
         13   -1    0    0    0    0  0.00000000000E+00  0.00000000000E+00  0.99999944187E+02  0.10000000001E+03  0.10566000000E+00 0.  1.
         22   -1    0    0    0    0 -0.00000000000E+00 -0.00000000000E+00 -0.47397455117E+02  0.47397455117E+02  0.00000000000E+00 0. -1.
         13    1    1    2    0    0 -0.15074731984E+02  0.50423823609E+02 -0.74892916269E+01  0.53159290673E+02  0.10566000000E+00 0. -1.
        996    1    1    2    0    0  0.15074731984E+02 -0.50423823609E+02  0.60091780697E+02  0.94238164451E+02  0.50000000000E+02 0.  0.
<mgrwt>
<rscale>  0 0.72593454E+02</rscale>
<asrwt>0</asrwt>
<pdfrwt beam="1">  1       13 0.10000000E+01 0.72593454E+02</pdfrwt>
<pdfrwt beam="2">  1       22 0.47397470E+00 0.72593454E+02</pdfrwt>
<totfact> 0.85787196E-02</totfact>
</mgrwt>
</event>
<event>
 4    1  0.2496748E+000  0.5165039E+02  0.7957747E-01  0.1436638E+00
         13   -1    0    0    0    0  0.00000000000E+00  0.00000000000E+00  0.99999944180E+02  0.10000000000E+03  0.10566000000E+00 0. -1.
         22   -1    0    0    0    0 -0.00000000000E+00 -0.00000000000E+00 -0.15415070473E+02  0.15415070473E+02  0.00000000000E+00 0.  1.
         13    1    1    2    0    0 -0.11587442201E+01  0.12900378233E+02 -0.33986753302E+01  0.13391213714E+02  0.10566000000E+00 0.  1.
        996    1    1    2    0    0  0.11587442201E+01 -0.12900378233E+02  0.87983549037E+02  0.10202385676E+03  0.50000000000E+02 0.  0.
<mgrwt>
<rscale>  0 0.51650387E+02</rscale>
<asrwt>0</asrwt>
<pdfrwt beam="1">  1       13 0.10000000E+01 0.51650387E+02</pdfrwt>
<pdfrwt beam="2">  1       22 0.15415094E+00 0.51650387E+02</pdfrwt>
<totfact> 0.71878166E-01</totfact>
</mgrwt>
</event>
<event>
 4    1  0.2496748E+000  0.5117167E+02  0.7957747E-01  0.1439122E+00
         13   -1    0    0    0    0  0.00000000000E+00  0.00000000000E+00  0.99999944177E+02  0.99999999997E+02  0.10566000000E+00 0.  1.
         22   -1    0    0    0    0 -0.00000000000E+00 -0.00000000000E+00 -0.16384592903E+02  0.16384592903E+02  0.00000000000E+00 0. -1.
         13    1    1    2    0    0  0.67899770552E+01  0.85109473374E+01 -0.65528837246E+01  0.12707929105E+02  0.10566000000E+00 0. -1.
        996    1    1    2    0    0 -0.67899770552E+01 -0.85109473374E+01  0.90168234999E+02  0.10367666380E+03  0.50000000000E+02 0.  0.
<mgrwt>
<rscale>  0 0.51171672E+02</rscale>
<asrwt>0</asrwt>
<pdfrwt beam="1">  1       13 0.10000000E+01 0.51171672E+02</pdfrwt>
<pdfrwt beam="2">  1       22 0.16384616E+00 0.51171672E+02</pdfrwt>
<totfact> 0.64718435E-01</totfact>
</mgrwt>
</event>
<event>
 4    1  0.2496748E+000  0.8685138E+02  0.7957747E-01  0.1310661E+00
         13   -1    0    0    0    0  0.00000000000E+00  0.00000000000E+00  0.99999944181E+02  0.10000000000E+03  0.10566000000E+00 0.  1.
         22   -1    0    0    0    0 -0.00000000000E+00 -0.00000000000E+00 -0.63730145871E+02  0.63730145871E+02  0.00000000000E+00 0. -1.
         13    1    1    2    0    0 -0.59125111443E+02 -0.39336790915E+02  0.41734580183E+01  0.71137829869E+02  0.10566000000E+00 0. -1.
        996    1    1    2    0    0  0.59125111443E+02  0.39336790915E+02  0.32096340291E+02  0.92592316003E+02  0.50000000000E+02 0.  0.
<mgrwt>
<rscale>  0 0.86851378E+02</rscale>
<asrwt>0</asrwt>
<pdfrwt beam="1">  1       13 0.10000000E+01 0.86851378E+02</pdfrwt>
<pdfrwt beam="2">  1       22 0.63730156E+00 0.86851378E+02</pdfrwt>
<totfact> 0.82333140E-02</totfact>
</mgrwt>
</event>
<event>
 4    1  0.2496748E+000  0.5131872E+02  0.7957747E-01  0.1438356E+00
         13   -1    0    0    0    0  0.00000000000E+00  0.00000000000E+00  0.99999944181E+02  0.10000000000E+03  0.10566000000E+00 0. -1.
         22   -1    0    0    0    0 -0.00000000000E+00 -0.00000000000E+00 -0.99150442805E+01  0.99150442805E+01  0.00000000000E+00 0. -1.
         13    1    1    2    0    0  0.42074663758E+01  0.10766049952E+02  0.19029110473E+02  0.22264968320E+02  0.10566000000E+00 0.  1.
        996    1    1    2    0    0 -0.42074663758E+01 -0.10766049952E+02  0.71055789428E+02  0.87650075962E+02  0.50000000000E+02 0.  0.
<mgrwt>
<rscale>  0 0.51318716E+02</rscale>
<asrwt>0</asrwt>
<pdfrwt beam="1">  1       13 0.10000000E+01 0.51318716E+02</pdfrwt>
<pdfrwt beam="2">  1       22 0.99150694E-01 0.51318716E+02</pdfrwt>
<totfact> 0.14249450E+00</totfact>
</mgrwt>
</event>
<event>
 4    1  0.2496748E+000  0.5391697E+02  0.7957747E-01  0.1425291E+00
         13   -1    0    0    0    0  0.00000000000E+00  0.00000000000E+00  0.99999944177E+02  0.99999999997E+02  0.10566000000E+00 0.  1.
         22   -1    0    0    0    0 -0.00000000000E+00 -0.00000000000E+00 -0.24830777542E+02  0.24830777542E+02  0.00000000000E+00 0. -1.
         13    1    1    2    0    0 -0.10227283568E+02 -0.17390878438E+02 -0.11153592666E+02  0.23053281229E+02  0.10566000000E+00 0. -1.
        996    1    1    2    0    0  0.10227283568E+02  0.17390878438E+02  0.86322759300E+02  0.10177749631E+03  0.50000000000E+02 0.  0.
<mgrwt>
<rscale>  0 0.53916973E+02</rscale>
<asrwt>0</asrwt>
<pdfrwt beam="1">  1       13 0.10000000E+01 0.53916973E+02</pdfrwt>
<pdfrwt beam="2">  1       22 0.24830799E+00 0.53916973E+02</pdfrwt>
<totfact> 0.29964532E-01</totfact>
</mgrwt>
</event>
<event>
 4    1  0.2496748E+000  0.5387898E+02  0.7957747E-01  0.1425476E+00
         13   -1    0    0    0    0  0.00000000000E+00  0.00000000000E+00  0.99999944173E+02  0.99999999993E+02  0.10566000000E+00 0. -1.
         22   -1    0    0    0    0 -0.00000000000E+00 -0.00000000000E+00 -0.15420037045E+02  0.15420037045E+02  0.00000000000E+00 0. -1.
         13    1    1    2    0    0  0.14375328256E+02 -0.14010525607E+02  0.76133919284E+01  0.21469042619E+02  0.10566000000E+00 0.  1.
        996    1    1    2    0    0 -0.14375328256E+02  0.14010525607E+02  0.76966515200E+02  0.93950994419E+02  0.50000000000E+02 0.  0.
<mgrwt>
<rscale>  0 0.53878984E+02</rscale>
<asrwt>0</asrwt>
<pdfrwt beam="1">  1       13 0.10000000E+01 0.53878984E+02</pdfrwt>
<pdfrwt beam="2">  1       22 0.15420061E+00 0.53878984E+02</pdfrwt>
<totfact> 0.72158358E-01</totfact>
</mgrwt>
</event>
<event>
 4    1  0.2496748E+000  0.5332434E+02  0.7957747E-01  0.1428194E+00
         13   -1    0    0    0    0  0.00000000000E+00  0.00000000000E+00  0.99999944182E+02  0.10000000000E+03  0.10566000000E+00 0. -1.
         22   -1    0    0    0    0 -0.00000000000E+00 -0.00000000000E+00 -0.13437419739E+02  0.13437419739E+02  0.00000000000E+00 0. -1.
         13    1    1    2    0    0  0.17475850542E+02 -0.61709050482E+01  0.13249124729E+02  0.22782359215E+02  0.10566000000E+00 0.  1.
        996    1    1    2    0    0 -0.17475850542E+02  0.61709050482E+01  0.73313399714E+02  0.90655060526E+02  0.50000000000E+02 0.  0.
<mgrwt>
<rscale>  0 0.53324342E+02</rscale>
<asrwt>0</asrwt>
<pdfrwt beam="1">  1       13 0.10000000E+01 0.53324342E+02</pdfrwt>
<pdfrwt beam="2">  1       22 0.13437444E+00 0.53324342E+02</pdfrwt>
<totfact> 0.90327169E-01</totfact>
</mgrwt>
</event>
<event>
 4    1  0.2496748E+000  0.5156684E+02  0.7957747E-01  0.1437069E+00
         13   -1    0    0    0    0  0.00000000000E+00  0.00000000000E+00  0.99999944181E+02  0.10000000000E+03  0.10566000000E+00 0. -1.
         22   -1    0    0    0    0 -0.00000000000E+00 -0.00000000000E+00 -0.11312940821E+02  0.11312940821E+02  0.00000000000E+00 0. -1.
         13    1    1    2    0    0  0.87943356284E+01 -0.90442837359E+01  0.62566747784E+01  0.14081780809E+02  0.10566000000E+00 0.  1.
        996    1    1    2    0    0 -0.87943356284E+01  0.90442837359E+01  0.82430328582E+02  0.97231160013E+02  0.50000000000E+02 0.  0.
<mgrwt>
<rscale>  0 0.51566844E+02</rscale>
<asrwt>0</asrwt>
<pdfrwt beam="1">  1       13 0.10000000E+01 0.51566844E+02</pdfrwt>
<pdfrwt beam="2">  1       22 0.11312966E+00 0.51566844E+02</pdfrwt>
<totfact> 0.11742382E+00</totfact>
</mgrwt>
</event>
<event>
 4    1  0.2496748E+000  0.5656797E+02  0.7957747E-01  0.1412826E+00
         13   -1    0    0    0    0  0.00000000000E+00  0.00000000000E+00  0.99999944187E+02  0.10000000001E+03  0.10566000000E+00 0. -1.
         22   -1    0    0    0    0 -0.00000000000E+00 -0.00000000000E+00 -0.37145322800E+02  0.37145322800E+02  0.00000000000E+00 0.  1.
         13    1    1    2    0    0 -0.67540871427E+01 -0.25579637075E+02 -0.22511472907E+02  0.34737776303E+02  0.10566000000E+00 0.  1.
        996    1    1    2    0    0  0.67540871427E+01  0.25579637075E+02  0.85366094293E+02  0.10240754650E+03  0.50000000000E+02 0.  0.
<mgrwt>
<rscale>  0 0.56567973E+02</rscale>
<asrwt>0</asrwt>
<pdfrwt beam="1">  1       13 0.10000000E+01 0.56567973E+02</pdfrwt>
<pdfrwt beam="2">  1       22 0.37145340E+00 0.56567973E+02</pdfrwt>
<totfact> 0.14215302E-01</totfact>
</mgrwt>
</event>
<event>
 4    1  0.2496748E+000  0.5315008E+02  0.7957747E-01  0.1429055E+00
         13   -1    0    0    0    0  0.00000000000E+00  0.00000000000E+00  0.99999944178E+02  0.99999999998E+02  0.10566000000E+00 0. -1.
         22   -1    0    0    0    0 -0.00000000000E+00 -0.00000000000E+00 -0.16363593317E+02  0.16363593317E+02  0.00000000000E+00 0. -1.
         13    1    1    2    0    0 -0.45103752710E+01  0.17452446921E+02  0.92830131450E+00  0.18050049750E+02  0.10566000000E+00 0.  1.
        996    1    1    2    0    0  0.45103752710E+01 -0.17452446921E+02  0.82708049546E+02  0.98313543565E+02  0.50000000000E+02 0.  0.
<mgrwt>
<rscale>  0 0.53150084E+02</rscale>
<asrwt>0</asrwt>
<pdfrwt beam="1">  1       13 0.10000000E+01 0.53150084E+02</pdfrwt>
<pdfrwt beam="2">  1       22 0.16363617E+00 0.53150084E+02</pdfrwt>
<totfact> 0.65114236E-01</totfact>
</mgrwt>
</event>
<event>
 4    1  0.2496748E+000  0.5654474E+02  0.7957747E-01  0.1412932E+00
         13   -1    0    0    0    0  0.00000000000E+00  0.00000000000E+00  0.99999944181E+02  0.10000000000E+03  0.10566000000E+00 0.  1.
         22   -1    0    0    0    0 -0.00000000000E+00 -0.00000000000E+00 -0.41955816529E+02  0.41955816529E+02  0.00000000000E+00 0. -1.
         13    1    1    2    0    0  0.70850093241E+01  0.25438362463E+02 -0.28323983204E+02  0.38724240864E+02  0.10566000000E+00 0. -1.
        996    1    1    2    0    0 -0.70850093241E+01 -0.25438362463E+02  0.86368110855E+02  0.10323157567E+03  0.50000000000E+02 0.  0.
<mgrwt>
<rscale>  0 0.56544740E+02</rscale>
<asrwt>0</asrwt>
<pdfrwt beam="1">  1       13 0.10000000E+01 0.56544740E+02</pdfrwt>
<pdfrwt beam="2">  1       22 0.41955833E+00 0.56544740E+02</pdfrwt>
<totfact> 0.11294163E-01</totfact>
</mgrwt>
</event>
<event>
 4    1  0.2496748E+000  0.5694764E+02  0.7957747E-01  0.1411107E+00
         13   -1    0    0    0    0  0.00000000000E+00  0.00000000000E+00  0.99999944171E+02  0.99999999991E+02  0.10566000000E+00 0.  1.
         22   -1    0    0    0    0 -0.00000000000E+00 -0.00000000000E+00 -0.38672465427E+02  0.38672465427E+02  0.00000000000E+00 0. -1.
         13    1    1    2    0    0 -0.14999773011E+02 -0.22760511632E+02 -0.23844526582E+02  0.36216110947E+02  0.10566000000E+00 0. -1.
        996    1    1    2    0    0  0.14999773011E+02  0.22760511632E+02  0.85172005326E+02  0.10245635447E+03  0.50000000000E+02 0.  0.
<mgrwt>
<rscale>  0 0.56947643E+02</rscale>
<asrwt>0</asrwt>
<pdfrwt beam="1">  1       13 0.10000000E+01 0.56947643E+02</pdfrwt>
<pdfrwt beam="2">  1       22 0.38672483E+00 0.56947643E+02</pdfrwt>
<totfact> 0.13221947E-01</totfact>
</mgrwt>
</event>
<event>
 4    1  0.2496748E+000  0.5347893E+02  0.7957747E-01  0.1427432E+00
         13   -1    0    0    0    0  0.00000000000E+00  0.00000000000E+00  0.99999944181E+02  0.10000000000E+03  0.10566000000E+00 0.  1.
         22   -1    0    0    0    0 -0.00000000000E+00 -0.00000000000E+00 -0.15956993179E+02  0.15956993179E+02  0.00000000000E+00 0.  1.
         13    1    1    2    0    0  0.90330395013E+01  0.16685316819E+02  0.35271729393E+01  0.19298904450E+02  0.10566000000E+00 0. -1.
        996    1    1    2    0    0 -0.90330395013E+01 -0.16685316819E+02  0.80515778062E+02  0.96658088730E+02  0.50000000000E+02 0.  0.
<mgrwt>
<rscale>  0 0.53478927E+02</rscale>
<asrwt>0</asrwt>
<pdfrwt beam="1">  1       13 0.10000000E+01 0.53478927E+02</pdfrwt>
<pdfrwt beam="2">  1       22 0.15957017E+00 0.53478927E+02</pdfrwt>
<totfact> 0.68033088E-01</totfact>
</mgrwt>
</event>
<event>
 4    1  0.2496748E+000  0.5153902E+02  0.7957747E-01  0.1437213E+00
         13   -1    0    0    0    0  0.00000000000E+00  0.00000000000E+00  0.99999944176E+02  0.99999999997E+02  0.10566000000E+00 0. -1.
         22   -1    0    0    0    0 -0.00000000000E+00 -0.00000000000E+00 -0.10371221560E+02  0.10371221560E+02  0.00000000000E+00 0. -1.
         13    1    1    2    0    0  0.29835835938E+01 -0.12139557341E+02  0.13119163986E+02  0.18121651448E+02  0.10566000000E+00 0.  1.
        996    1    1    2    0    0 -0.29835835938E+01  0.12139557341E+02  0.76509558630E+02  0.92249570109E+02  0.50000000000E+02 0.  0.
<mgrwt>
<rscale>  0 0.51539020E+02</rscale>
<asrwt>0</asrwt>
<pdfrwt beam="1">  1       13 0.10000000E+01 0.51539020E+02</pdfrwt>
<pdfrwt beam="2">  1       22 0.10371247E+00 0.51539020E+02</pdfrwt>
<totfact> 0.13354608E+00</totfact>
</mgrwt>
</event>
<event>
 4    1  0.2496748E+000  0.5122406E+02  0.7957747E-01  0.1438849E+00
         13   -1    0    0    0    0  0.00000000000E+00  0.00000000000E+00  0.99999944171E+02  0.99999999992E+02  0.10566000000E+00 0.  1.
         22   -1    0    0    0    0 -0.00000000000E+00 -0.00000000000E+00 -0.17117501231E+02  0.17117501231E+02  0.00000000000E+00 0. -1.
         13    1    1    2    0    0  0.12287626417E+01 -0.11063192871E+02 -0.73639386714E+01  0.13347016555E+02  0.10566000000E+00 0. -1.
        996    1    1    2    0    0 -0.12287626417E+01  0.11063192871E+02  0.90246381612E+02  0.10377048467E+03  0.50000000000E+02 0.  0.
<mgrwt>
<rscale>  0 0.51224058E+02</rscale>
<asrwt>0</asrwt>
<pdfrwt beam="1">  1       13 0.10000000E+01 0.51224058E+02</pdfrwt>
<pdfrwt beam="2">  1       22 0.17117524E+00 0.51224058E+02</pdfrwt>
<totfact> 0.59977401E-01</totfact>
</mgrwt>
</event>
<event>
 4    1  0.2496748E+000  0.5857438E+02  0.7957747E-01  0.1403914E+00
         13   -1    0    0    0    0  0.00000000000E+00  0.00000000000E+00  0.99999944175E+02  0.99999999995E+02  0.10566000000E+00 0. -1.
         22   -1    0    0    0    0 -0.00000000000E+00 -0.00000000000E+00 -0.25722653495E+02  0.25722653495E+02  0.00000000000E+00 0.  1.
         13    1    1    2    0    0 -0.19886410479E+02 -0.23140638081E+02 -0.77131440467E+00  0.30521542269E+02  0.10566000000E+00 0.  1.
        996    1    1    2    0    0  0.19886410479E+02  0.23140638081E+02  0.75048605085E+02  0.95201111221E+02  0.50000000000E+02 0.  0.
<mgrwt>
<rscale>  0 0.58574384E+02</rscale>
<asrwt>0</asrwt>
<pdfrwt beam="1">  1       13 0.10000000E+01 0.58574384E+02</pdfrwt>
<pdfrwt beam="2">  1       22 0.25722674E+00 0.58574384E+02</pdfrwt>
<totfact> 0.28136898E-01</totfact>
</mgrwt>
</event>
<event>
 4    1  0.2496748E+000  0.5138306E+02  0.7957747E-01  0.1438021E+00
         13   -1    0    0    0    0  0.00000000000E+00  0.00000000000E+00  0.99999944172E+02  0.99999999992E+02  0.10566000000E+00 0.  1.
         22   -1    0    0    0    0 -0.00000000000E+00 -0.00000000000E+00 -0.12987224467E+02  0.12987224467E+02  0.00000000000E+00 0.  1.
         13    1    1    2    0    0 -0.17140584069E+00 -0.11840179270E+02 -0.10822586898E+00  0.11842385823E+02  0.10566000000E+00 0. -1.
        996    1    1    2    0    0  0.17140584069E+00  0.11840179270E+02  0.87120945574E+02  0.10114483864E+03  0.50000000000E+02 0.  0.
<mgrwt>
<rscale>  0 0.51383064E+02</rscale>
<asrwt>0</asrwt>
<pdfrwt beam="1">  1       13 0.10000000E+01 0.51383064E+02</pdfrwt>
<pdfrwt beam="2">  1       22 0.12987249E+00 0.51383064E+02</pdfrwt>
<totfact> 0.94945826E-01</totfact>
</mgrwt>
</event>
<event>
 4    1  0.2496748E+000  0.7205518E+02  0.7957747E-01  0.1353241E+00
         13   -1    0    0    0    0  0.00000000000E+00  0.00000000000E+00  0.99999944181E+02  0.10000000000E+03  0.10566000000E+00 0.  1.
         22   -1    0    0    0    0 -0.00000000000E+00 -0.00000000000E+00 -0.70262145393E+02  0.70262145393E+02  0.00000000000E+00 0. -1.
         13    1    1    2    0    0  0.47030216728E+02  0.21911370944E+02 -0.43362883162E+02  0.67618786312E+02  0.10566000000E+00 0. -1.
        996    1    1    2    0    0 -0.47030216728E+02 -0.21911370944E+02  0.73100681950E+02  0.10264335908E+03  0.50000000000E+02 0.  0.
<mgrwt>
<rscale>  0 0.72055183E+02</rscale>
<asrwt>0</asrwt>
<pdfrwt beam="1">  1       13 0.10000000E+01 0.72055183E+02</pdfrwt>
<pdfrwt beam="2">  1       22 0.70262154E+00 0.72055183E+02</pdfrwt>
<totfact> 0.73278505E-02</totfact>
</mgrwt>
</event>
<event>
 4    1  0.2496748E+000  0.6934658E+02  0.7957747E-01  0.1362329E+00
         13   -1    0    0    0    0  0.00000000000E+00  0.00000000000E+00  0.99999944178E+02  0.99999999998E+02  0.10566000000E+00 0.  1.
         22   -1    0    0    0    0 -0.00000000000E+00 -0.00000000000E+00 -0.41939043015E+02  0.41939043015E+02  0.00000000000E+00 0. -1.
         13    1    1    2    0    0  0.45141457599E+02  0.16468063596E+02 -0.48661163959E+01  0.48297397089E+02  0.10566000000E+00 0. -1.
        996    1    1    2    0    0 -0.45141457599E+02 -0.16468063596E+02  0.62927017559E+02  0.93641645925E+02  0.50000000000E+02 0.  0.
<mgrwt>
<rscale>  0 0.69346581E+02</rscale>
<asrwt>0</asrwt>
<pdfrwt beam="1">  1       13 0.10000000E+01 0.69346581E+02</pdfrwt>
<pdfrwt beam="2">  1       22 0.41939059E+00 0.69346581E+02</pdfrwt>
<totfact> 0.11387867E-01</totfact>
</mgrwt>
</event>
<event>
 4    1  0.2496748E+000  0.5106533E+02  0.7957747E-01  0.1439679E+00
         13   -1    0    0    0    0  0.00000000000E+00  0.00000000000E+00  0.99999944174E+02  0.99999999995E+02  0.10566000000E+00 0. -1.
         22   -1    0    0    0    0 -0.00000000000E+00 -0.00000000000E+00 -0.26192439861E+02  0.26192439861E+02  0.00000000000E+00 0.  1.
         13    1    1    2    0    0  0.98857254641E+01  0.31527618142E+01 -0.18207745757E+02  0.20957114415E+02  0.10566000000E+00 0.  1.
        996    1    1    2    0    0 -0.98857254641E+01 -0.31527618142E+01  0.92015250071E+02  0.10523532544E+03  0.50000000000E+02 0.  0.
<mgrwt>
<rscale>  0 0.51065326E+02</rscale>
<asrwt>0</asrwt>
<pdfrwt beam="1">  1       13 0.10000000E+01 0.51065326E+02</pdfrwt>
<pdfrwt beam="2">  1       22 0.26192460E+00 0.51065326E+02</pdfrwt>
<totfact> 0.26858720E-01</totfact>
</mgrwt>
</event>
<event>
 4    1  0.2496748E+000  0.5100485E+02  0.7957747E-01  0.1439996E+00
         13   -1    0    0    0    0  0.00000000000E+00  0.00000000000E+00  0.99999944177E+02  0.99999999998E+02  0.10566000000E+00 0. -1.
         22   -1    0    0    0    0 -0.00000000000E+00 -0.00000000000E+00 -0.18193374894E+02  0.18193374894E+02  0.00000000000E+00 0.  1.
         13    1    1    2    0    0  0.81292716855E+01  0.59505659898E+01 -0.93451487989E+01  0.13741807154E+02  0.10566000000E+00 0.  1.
        996    1    1    2    0    0 -0.81292716855E+01 -0.59505659898E+01  0.91151718082E+02  0.10445156774E+03  0.50000000000E+02 0.  0.
<mgrwt>
<rscale>  0 0.51004846E+02</rscale>
<asrwt>0</asrwt>
<pdfrwt beam="1">  1       13 0.10000000E+01 0.51004846E+02</pdfrwt>
<pdfrwt beam="2">  1       22 0.18193398E+00 0.51004846E+02</pdfrwt>
<totfact> 0.53793951E-01</totfact>
</mgrwt>
</event>
<event>
 4    1  0.2496748E+000  0.6480929E+02  0.7957747E-01  0.1378690E+00
         13   -1    0    0    0    0  0.00000000000E+00  0.00000000000E+00  0.99999944181E+02  0.10000000000E+03  0.10566000000E+00 0. -1.
         22   -1    0    0    0    0 -0.00000000000E+00 -0.00000000000E+00 -0.45519995882E+02  0.45519995882E+02  0.00000000000E+00 0.  1.
         13    1    1    2    0    0 -0.39785580514E+02 -0.10832921477E+02 -0.20801945503E+02  0.46184160762E+02  0.10566000000E+00 0.  1.
        996    1    1    2    0    0  0.39785580514E+02  0.10832921477E+02  0.75281893803E+02  0.99335835120E+02  0.50000000000E+02 0.  0.
<mgrwt>
<rscale>  0 0.64809294E+02</rscale>
<asrwt>0</asrwt>
<pdfrwt beam="1">  1       13 0.10000000E+01 0.64809294E+02</pdfrwt>
<pdfrwt beam="2">  1       22 0.45520011E+00 0.64809294E+02</pdfrwt>
<totfact> 0.94649112E-02</totfact>
</mgrwt>
</event>
<event>
 4    1  0.2496748E+000  0.5190321E+02  0.7957747E-01  0.1435338E+00
         13   -1    0    0    0    0  0.00000000000E+00  0.00000000000E+00  0.99999944177E+02  0.99999999997E+02  0.10566000000E+00 0.  1.
         22   -1    0    0    0    0 -0.00000000000E+00 -0.00000000000E+00 -0.13311475233E+02  0.13311475233E+02  0.00000000000E+00 0.  1.
         13    1    1    2    0    0 -0.13900397539E+02 -0.85002475692E+00  0.21222434798E+01  0.14087536167E+02  0.10566000000E+00 0. -1.
        996    1    1    2    0    0  0.13900397539E+02  0.85002475692E+00  0.84566225464E+02  0.99223939063E+02  0.50000000000E+02 0.  0.
<mgrwt>
<rscale>  0 0.51903214E+02</rscale>
<asrwt>0</asrwt>
<pdfrwt beam="1">  1       13 0.10000000E+01 0.51903214E+02</pdfrwt>
<pdfrwt beam="2">  1       22 0.13311499E+00 0.51903214E+02</pdfrwt>
<totfact> 0.91416838E-01</totfact>
</mgrwt>
</event>
<event>
 4    1  0.2496748E+000  0.5234469E+02  0.7957747E-01  0.1433090E+00
         13   -1    0    0    0    0  0.00000000000E+00  0.00000000000E+00  0.99999944193E+02  0.10000000001E+03  0.10566000000E+00 0. -1.
         22   -1    0    0    0    0 -0.00000000000E+00 -0.00000000000E+00 -0.18462169421E+02  0.18462169421E+02  0.00000000000E+00 0.  1.
         13    1    1    2    0    0 -0.89320393178E+01  0.12656427021E+02 -0.58810498632E+01  0.16569984395E+02  0.10566000000E+00 0.  1.
        996    1    1    2    0    0  0.89320393178E+01 -0.12656427021E+02  0.87418824636E+02  0.10189218504E+03  0.50000000000E+02 0.  0.
<mgrwt>
<rscale>  0 0.52344689E+02</rscale>
<asrwt>0</asrwt>
<pdfrwt beam="1">  1       13 0.10000000E+01 0.52344689E+02</pdfrwt>
<pdfrwt beam="2">  1       22 0.18462192E+00 0.52344689E+02</pdfrwt>
<totfact> 0.52520833E-01</totfact>
</mgrwt>
</event>
<event>
 4    1  0.2496748E+000  0.5323014E+02  0.7957747E-01  0.1428659E+00
         13   -1    0    0    0    0  0.00000000000E+00  0.00000000000E+00  0.99999944172E+02  0.99999999992E+02  0.10566000000E+00 0.  1.
         22   -1    0    0    0    0 -0.00000000000E+00 -0.00000000000E+00 -0.39242883352E+02  0.39242883352E+02  0.00000000000E+00 0. -1.
         13    1    1    2    0    0  0.11367742949E+02 -0.14290635448E+02 -0.29362006560E+02  0.34577253137E+02  0.10566000000E+00 0. -1.
        996    1    1    2    0    0 -0.11367742949E+02  0.14290635448E+02  0.90119067380E+02  0.10466563021E+03  0.50000000000E+02 0.  0.
<mgrwt>
<rscale>  0 0.53230140E+02</rscale>
<asrwt>0</asrwt>
<pdfrwt beam="1">  1       13 0.10000000E+01 0.53230140E+02</pdfrwt>
<pdfrwt beam="2">  1       22 0.39242900E+00 0.53230140E+02</pdfrwt>
<totfact> 0.12831904E-01</totfact>
</mgrwt>
</event>
<event>
 4    1  0.2496748E+000  0.5272849E+02  0.7957747E-01  0.1431157E+00
         13   -1    0    0    0    0  0.00000000000E+00  0.00000000000E+00  0.99999944181E+02  0.10000000000E+03  0.10566000000E+00 0. -1.
         22   -1    0    0    0    0 -0.00000000000E+00 -0.00000000000E+00 -0.12335978056E+02  0.12335978056E+02  0.00000000000E+00 0. -1.
         13    1    1    2    0    0 -0.61517323221E+01  0.15570811395E+02  0.14481446066E+02  0.22136337146E+02  0.10566000000E+00 0.  1.
        996    1    1    2    0    0  0.61517323221E+01 -0.15570811395E+02  0.73182520060E+02  0.90199640910E+02  0.50000000000E+02 0.  0.
<mgrwt>
<rscale>  0 0.52728493E+02</rscale>
<asrwt>0</asrwt>
<pdfrwt beam="1">  1       13 0.10000000E+01 0.52728493E+02</pdfrwt>
<pdfrwt beam="2">  1       22 0.12336003E+00 0.52728493E+02</pdfrwt>
<totfact> 0.10318605E+00</totfact>
</mgrwt>
</event>
<event>
 4    1  0.2496748E+000  0.5268991E+02  0.7957747E-01  0.1431350E+00
         13   -1    0    0    0    0  0.00000000000E+00  0.00000000000E+00  0.99999944186E+02  0.10000000001E+03  0.10566000000E+00 0. -1.
         22   -1    0    0    0    0 -0.00000000000E+00 -0.00000000000E+00 -0.27120502414E+02  0.27120502414E+02  0.00000000000E+00 0.  1.
         13    1    1    2    0    0 -0.15529506561E+01  0.16547353550E+02 -0.16465889634E+02  0.23395795578E+02  0.10566000000E+00 0.  1.
        996    1    1    2    0    0  0.15529506561E+01 -0.16547353550E+02  0.89345331406E+02  0.10372470684E+03  0.50000000000E+02 0.  0.
<mgrwt>
<rscale>  0 0.52689910E+02</rscale>
<asrwt>0</asrwt>
<pdfrwt beam="1">  1       13 0.10000000E+01 0.52689910E+02</pdfrwt>
<pdfrwt beam="2">  1       22 0.27120523E+00 0.52689910E+02</pdfrwt>
<totfact> 0.25148160E-01</totfact>
</mgrwt>
</event>
<event>
 4    1  0.2496748E+000  0.6253209E+02  0.7957747E-01  0.1387503E+00
         13   -1    0    0    0    0  0.00000000000E+00  0.00000000000E+00  0.99999944182E+02  0.10000000000E+03  0.10566000000E+00 0.  1.
         22   -1    0    0    0    0 -0.00000000000E+00 -0.00000000000E+00 -0.26371001536E+02  0.26371001536E+02  0.00000000000E+00 0. -1.
         13    1    1    2    0    0  0.13985739992E+02 -0.34851986175E+02  0.14335052836E+02  0.40196601439E+02  0.10566000000E+00 0. -1.
        996    1    1    2    0    0 -0.13985739992E+02  0.34851986175E+02  0.59293889811E+02  0.86174400098E+02  0.50000000000E+02 0.  0.
<mgrwt>
<rscale>  0 0.62532087E+02</rscale>
<asrwt>0</asrwt>
<pdfrwt beam="1">  1       13 0.10000000E+01 0.62532087E+02</pdfrwt>
<pdfrwt beam="2">  1       22 0.26371022E+00 0.62532087E+02</pdfrwt>
<totfact> 0.26923745E-01</totfact>
</mgrwt>
</event>
<event>
 4    1  0.2496748E+000  0.6177264E+02  0.7957747E-01  0.1390540E+00
         13   -1    0    0    0    0  0.00000000000E+00  0.00000000000E+00  0.99999944180E+02  0.10000000000E+03  0.10566000000E+00 0.  1.
         22   -1    0    0    0    0 -0.00000000000E+00 -0.00000000000E+00 -0.62048814863E+02  0.62048814863E+02  0.00000000000E+00 0. -1.
         13    1    1    2    0    0  0.26322712137E+02 -0.24959451347E+02 -0.45520112030E+02  0.58206109208E+02  0.10566000000E+00 0. -1.
        996    1    1    2    0    0 -0.26322712137E+02  0.24959451347E+02  0.83471241347E+02  0.10384270566E+03  0.50000000000E+02 0.  0.
<mgrwt>
<rscale>  0 0.61772643E+02</rscale>
<asrwt>0</asrwt>
<pdfrwt beam="1">  1       13 0.10000000E+01 0.61772643E+02</pdfrwt>
<pdfrwt beam="2">  1       22 0.62048825E+00 0.61772643E+02</pdfrwt>
<totfact> 0.73243779E-02</totfact>
</mgrwt>
</event>
<event>
 4    1  0.2496748E+000  0.5143611E+02  0.7957747E-01  0.1437746E+00
         13   -1    0    0    0    0  0.00000000000E+00  0.00000000000E+00  0.99999944182E+02  0.10000000000E+03  0.10566000000E+00 0.  1.
         22   -1    0    0    0    0 -0.00000000000E+00 -0.00000000000E+00 -0.17798882869E+02  0.17798882869E+02  0.00000000000E+00 0.  1.
         13    1    1    2    0    0  0.64787263679E+01 -0.10183293559E+02 -0.76334074361E+01  0.14281226704E+02  0.10566000000E+00 0. -1.
        996    1    1    2    0    0 -0.64787263679E+01  0.10183293559E+02  0.89834468749E+02  0.10351765617E+03  0.50000000000E+02 0.  0.
<mgrwt>
<rscale>  0 0.51436110E+02</rscale>
<asrwt>0</asrwt>
<pdfrwt beam="1">  1       13 0.10000000E+01 0.51436110E+02</pdfrwt>
<pdfrwt beam="2">  1       22 0.17798906E+00 0.51436110E+02</pdfrwt>
<totfact> 0.55995553E-01</totfact>
</mgrwt>
</event>
<event>
 4    1  0.2496748E+000  0.5520851E+02  0.7957747E-01  0.1419115E+00
         13   -1    0    0    0    0  0.00000000000E+00  0.00000000000E+00  0.99999944175E+02  0.99999999995E+02  0.10566000000E+00 0. -1.
         22   -1    0    0    0    0 -0.00000000000E+00 -0.00000000000E+00 -0.60233169676E+02  0.60233169676E+02  0.00000000000E+00 0.  1.
         13    1    1    2    0    0  0.23263694956E+02 -0.26038512674E+01 -0.49794687706E+02  0.55022737410E+02  0.10566000000E+00 0.  1.
        996    1    1    2    0    0 -0.23263694956E+02  0.26038512674E+01  0.89561462204E+02  0.10521043226E+03  0.50000000000E+02 0.  0.
<mgrwt>
<rscale>  0 0.55208510E+02</rscale>
<asrwt>0</asrwt>
<pdfrwt beam="1">  1       13 0.10000000E+01 0.55208510E+02</pdfrwt>
<pdfrwt beam="2">  1       22 0.60233181E+00 0.55208510E+02</pdfrwt>
<totfact> 0.64452999E-02</totfact>
</mgrwt>
</event>
<event>
 4    1  0.2496748E+000  0.5188744E+02  0.7957747E-01  0.1435419E+00
         13   -1    0    0    0    0  0.00000000000E+00  0.00000000000E+00  0.99999944178E+02  0.99999999999E+02  0.10566000000E+00 0. -1.
         22   -1    0    0    0    0 -0.00000000000E+00 -0.00000000000E+00 -0.20053349573E+02  0.20053349573E+02  0.00000000000E+00 0.  1.
         13    1    1    2    0    0  0.13327043835E+02  0.38335243452E+01 -0.93855875196E+01  0.16745340349E+02  0.10566000000E+00 0.  1.
        996    1    1    2    0    0 -0.13327043835E+02 -0.38335243452E+01  0.89332182125E+02  0.10330800922E+03  0.50000000000E+02 0.  0.
<mgrwt>
<rscale>  0 0.51887436E+02</rscale>
<asrwt>0</asrwt>
<pdfrwt beam="1">  1       13 0.10000000E+01 0.51887436E+02</pdfrwt>
<pdfrwt beam="2">  1       22 0.20053372E+00 0.51887436E+02</pdfrwt>
<totfact> 0.45074061E-01</totfact>
</mgrwt>
</event>
<event>
 4    1  0.2496748E+000  0.5375729E+02  0.7957747E-01  0.1426069E+00
         13   -1    0    0    0    0  0.00000000000E+00  0.00000000000E+00  0.99999944180E+02  0.10000000000E+03  0.10566000000E+00 0.  1.
         22   -1    0    0    0    0 -0.00000000000E+00 -0.00000000000E+00 -0.15334755666E+02  0.15334755666E+02  0.00000000000E+00 0. -1.
         13    1    1    2    0    0  0.16372864556E+02 -0.11035185013E+02  0.71424360387E+01  0.20996941650E+02  0.10566000000E+00 0. -1.
        996    1    1    2    0    0 -0.16372864556E+02  0.11035185013E+02  0.77522752475E+02  0.94337814016E+02  0.50000000000E+02 0.  0.
<mgrwt>
<rscale>  0 0.53757288E+02</rscale>
<asrwt>0</asrwt>
<pdfrwt beam="1">  1       13 0.10000000E+01 0.53757288E+02</pdfrwt>
<pdfrwt beam="2">  1       22 0.15334779E+00 0.53757288E+02</pdfrwt>
<totfact> 0.72817857E-01</totfact>
</mgrwt>
</event>
<event>
 4    1  0.2496748E+000  0.5679292E+02  0.7957747E-01  0.1411805E+00
         13   -1    0    0    0    0  0.00000000000E+00  0.00000000000E+00  0.99999944166E+02  0.99999999986E+02  0.10566000000E+00 0. -1.
         22   -1    0    0    0    0 -0.00000000000E+00 -0.00000000000E+00 -0.80178468947E+02  0.80178468947E+02  0.00000000000E+00 0.  1.
         13    1    1    2    0    0 -0.58195399935E+01 -0.26297685851E+02 -0.69384069363E+02  0.74428459424E+02  0.10566000000E+00 0.  1.
        996    1    1    2    0    0  0.58195399935E+01  0.26297685851E+02  0.89205544583E+02  0.10575000951E+03  0.50000000000E+02 0.  0.
<mgrwt>
<rscale>  0 0.56792916E+02</rscale>
<asrwt>0</asrwt>
<pdfrwt beam="1">  1       13 0.10000000E+01 0.56792916E+02</pdfrwt>
<pdfrwt beam="2">  1       22 0.80178475E+00 0.56792916E+02</pdfrwt>
<totfact> 0.30376890E-02</totfact>
</mgrwt>
</event>
<event>
 4    1  0.2496748E+000  0.5109792E+02  0.7957747E-01  0.1439508E+00
         13   -1    0    0    0    0  0.00000000000E+00  0.00000000000E+00  0.99999944175E+02  0.99999999995E+02  0.10566000000E+00 0. -1.
         22   -1    0    0    0    0 -0.00000000000E+00 -0.00000000000E+00 -0.47698069682E+02  0.47698069682E+02  0.00000000000E+00 0.  1.
         13    1    1    2    0    0  0.35739382910E+01  0.99107983627E+01 -0.40451455724E+02  0.41801057323E+02  0.10566000000E+00 0.  1.
        996    1    1    2    0    0 -0.35739382910E+01 -0.99107983627E+01  0.92753330217E+02  0.10589701235E+03  0.50000000000E+02 0.  0.
<mgrwt>
<rscale>  0 0.51097915E+02</rscale>
<asrwt>0</asrwt>
<pdfrwt beam="1">  1       13 0.10000000E+01 0.51097915E+02</pdfrwt>
<pdfrwt beam="2">  1       22 0.47698084E+00 0.51097915E+02</pdfrwt>
<totfact> 0.83592575E-02</totfact>
</mgrwt>
</event>
<event>
 4    1  0.2496748E+000  0.5131981E+02  0.7957747E-01  0.1438350E+00
         13   -1    0    0    0    0  0.00000000000E+00  0.00000000000E+00  0.99999944178E+02  0.99999999998E+02  0.10566000000E+00 0. -1.
         22   -1    0    0    0    0 -0.00000000000E+00 -0.00000000000E+00 -0.17167415461E+02  0.17167415461E+02  0.00000000000E+00 0.  1.
         13    1    1    2    0    0 -0.10337877829E+02  0.51817986860E+01 -0.71376055484E+01  0.13589677429E+02  0.10566000000E+00 0.  1.
        996    1    1    2    0    0  0.10337877829E+02 -0.51817986860E+01  0.89970134265E+02  0.10357773803E+03  0.50000000000E+02 0.  0.
<mgrwt>
<rscale>  0 0.51319809E+02</rscale>
<asrwt>0</asrwt>
<pdfrwt beam="1">  1       13 0.10000000E+01 0.51319809E+02</pdfrwt>
<pdfrwt beam="2">  1       22 0.17167439E+00 0.51319809E+02</pdfrwt>
<totfact> 0.59682453E-01</totfact>
</mgrwt>
</event>
<event>
 4    1  0.2496748E+000  0.5122259E+02  0.7957747E-01  0.1438857E+00
         13   -1    0    0    0    0  0.00000000000E+00  0.00000000000E+00  0.99999944180E+02  0.10000000000E+03  0.10566000000E+00 0. -1.
         22   -1    0    0    0    0 -0.00000000000E+00 -0.00000000000E+00 -0.12940885778E+02  0.12940885778E+02  0.00000000000E+00 0. -1.
         13    1    1    2    0    0 -0.10274872397E+02  0.42638593812E+01 -0.89237581431E+00  0.11160689864E+02  0.10566000000E+00 0.  1.
        996    1    1    2    0    0  0.10274872397E+02 -0.42638593812E+01  0.87951434217E+02  0.10178019591E+03  0.50000000000E+02 0.  0.
<mgrwt>
<rscale>  0 0.51222588E+02</rscale>
<asrwt>0</asrwt>
<pdfrwt beam="1">  1       13 0.10000000E+01 0.51222588E+02</pdfrwt>
<pdfrwt beam="2">  1       22 0.12940910E+00 0.51222588E+02</pdfrwt>
<totfact> 0.95447587E-01</totfact>
</mgrwt>
</event>
<event>
 4    1  0.2496748E+000  0.5114592E+02  0.7957747E-01  0.1439257E+00
         13   -1    0    0    0    0  0.00000000000E+00  0.00000000000E+00  0.99999944188E+02  0.10000000001E+03  0.10566000000E+00 0. -1.
         22   -1    0    0    0    0 -0.00000000000E+00 -0.00000000000E+00 -0.71475894155E+02  0.71475894155E+02  0.00000000000E+00 0.  1.
         13    1    1    2    0    0 -0.79256881117E+01  0.72861952266E+01 -0.64460356088E+02  0.65353300176E+02  0.10566000000E+00 0.  1.
        996    1    1    2    0    0  0.79256881117E+01 -0.72861952266E+01  0.92984406120E+02  0.10612259399E+03  0.50000000000E+02 0.  0.
<mgrwt>
<rscale>  0 0.51145920E+02</rscale>
<asrwt>0</asrwt>
<pdfrwt beam="1">  1       13 0.10000000E+01 0.51145920E+02</pdfrwt>
<pdfrwt beam="2">  1       22 0.71475902E+00 0.51145920E+02</pdfrwt>
<totfact> 0.66867552E-02</totfact>
</mgrwt>
</event>
<event>
 4    1  0.2496748E+000  0.5594993E+02  0.7957747E-01  0.1415659E+00
         13   -1    0    0    0    0  0.00000000000E+00  0.00000000000E+00  0.99999944183E+02  0.10000000000E+03  0.10566000000E+00 0. -1.
         22   -1    0    0    0    0 -0.00000000000E+00 -0.00000000000E+00 -0.23802910728E+02  0.23802910728E+02  0.00000000000E+00 0.  1.
         13    1    1    2    0    0 -0.11511005320E+02  0.22313481523E+02 -0.45991751181E+01  0.25525639600E+02  0.10566000000E+00 0.  1.
        996    1    1    2    0    0  0.11511005320E+02 -0.22313481523E+02  0.80796208573E+02  0.98277271131E+02  0.50000000000E+02 0.  0.
<mgrwt>
<rscale>  0 0.55949930E+02</rscale>
<asrwt>0</asrwt>
<pdfrwt beam="1">  1       13 0.10000000E+01 0.55949930E+02</pdfrwt>
<pdfrwt beam="2">  1       22 0.23802932E+00 0.55949930E+02</pdfrwt>
<totfact> 0.32660255E-01</totfact>
</mgrwt>
</event>
<event>
 4    1  0.2496748E+000  0.5111207E+02  0.7957747E-01  0.1439434E+00
         13   -1    0    0    0    0  0.00000000000E+00  0.00000000000E+00  0.99999944176E+02  0.99999999996E+02  0.10566000000E+00 0. -1.
         22   -1    0    0    0    0 -0.00000000000E+00 -0.00000000000E+00 -0.10085285930E+02  0.10085285930E+02  0.00000000000E+00 0. -1.
         13    1    1    2    0    0  0.73552210915E+01 -0.76383738840E+01  0.27113392017E+02  0.29113419991E+02  0.10566000000E+00 0.  1.
        996    1    1    2    0    0 -0.73552210915E+01  0.76383738840E+01  0.62801266230E+02  0.80971865935E+02  0.50000000000E+02 0.  0.
<mgrwt>
<rscale>  0 0.51112073E+02</rscale>
<asrwt>0</asrwt>
<pdfrwt beam="1">  1       13 0.10000000E+01 0.51112073E+02</pdfrwt>
<pdfrwt beam="2">  1       22 0.10085311E+00 0.51112073E+02</pdfrwt>
<totfact> 0.13895481E+00</totfact>
</mgrwt>
</event>
<event>
 4    1  0.2496748E+000  0.5155904E+02  0.7957747E-01  0.1437109E+00
         13   -1    0    0    0    0  0.00000000000E+00  0.00000000000E+00  0.99999944180E+02  0.10000000000E+03  0.10566000000E+00 0. -1.
         22   -1    0    0    0    0 -0.00000000000E+00 -0.00000000000E+00 -0.10542899229E+02  0.10542899229E+02  0.00000000000E+00 0. -1.
         13    1    1    2    0    0 -0.11659090688E+02 -0.47329155544E+01  0.25118594130E+02  0.28094302277E+02  0.10566000000E+00 0.  1.
        996    1    1    2    0    0  0.11659090688E+02  0.47329155544E+01  0.64338450821E+02  0.82448596952E+02  0.50000000000E+02 0.  0.
<mgrwt>
<rscale>  0 0.51559043E+02</rscale>
<asrwt>0</asrwt>
<pdfrwt beam="1">  1       13 0.10000000E+01 0.51559043E+02</pdfrwt>
<pdfrwt beam="2">  1       22 0.10542924E+00 0.51559043E+02</pdfrwt>
<totfact> 0.13037639E+00</totfact>
</mgrwt>
</event>
<event>
 4    1  0.2496748E+000  0.5152943E+02  0.7957747E-01  0.1437263E+00
         13   -1    0    0    0    0  0.00000000000E+00  0.00000000000E+00  0.99999944178E+02  0.99999999998E+02  0.10566000000E+00 0. -1.
         22   -1    0    0    0    0 -0.00000000000E+00 -0.00000000000E+00 -0.11727562497E+02  0.11727562497E+02  0.00000000000E+00 0. -1.
         13    1    1    2    0    0 -0.96436210161E+01 -0.78919545926E+01  0.42572329061E+01  0.13168810487E+02  0.10566000000E+00 0. -1.
        996    1    1    2    0    0  0.96436210161E+01  0.78919545926E+01  0.84015148775E+02  0.98558752008E+02  0.50000000000E+02 0.  0.
<mgrwt>
<rscale>  0 0.51529432E+02</rscale>
<asrwt>0</asrwt>
<pdfrwt beam="1">  1       13 0.10000000E+01 0.51529432E+02</pdfrwt>
<pdfrwt beam="2">  1       22 0.11727587E+00 0.51529432E+02</pdfrwt>
<totfact> 0.11120686E+00</totfact>
</mgrwt>
</event>
<event>
 4    1  0.2496748E+000  0.5112953E+02  0.7957747E-01  0.1439343E+00
         13   -1    0    0    0    0  0.00000000000E+00  0.00000000000E+00  0.99999944178E+02  0.99999999998E+02  0.10566000000E+00 0. -1.
         22   -1    0    0    0    0 -0.00000000000E+00 -0.00000000000E+00 -0.11617620370E+02  0.11617620370E+02  0.00000000000E+00 0.  1.
         13    1    1    2    0    0 -0.67068132398E+01  0.83215269568E+01  0.14806559313E+01  0.10790396691E+02  0.10566000000E+00 0.  1.
        996    1    1    2    0    0  0.67068132398E+01 -0.83215269568E+01  0.86901667877E+02  0.10082722368E+03  0.50000000000E+02 0.  0.
<mgrwt>
<rscale>  0 0.51129533E+02</rscale>
<asrwt>0</asrwt>
<pdfrwt beam="1">  1       13 0.10000000E+01 0.51129533E+02</pdfrwt>
<pdfrwt beam="2">  1       22 0.11617645E+00 0.51129533E+02</pdfrwt>
<totfact> 0.11270202E+00</totfact>
</mgrwt>
</event>
<event>
 4    1  0.2496748E+000  0.5117139E+02  0.7957747E-01  0.1439124E+00
         13   -1    0    0    0    0  0.00000000000E+00  0.00000000000E+00  0.99999944171E+02  0.99999999991E+02  0.10566000000E+00 0. -1.
         22   -1    0    0    0    0 -0.00000000000E+00 -0.00000000000E+00 -0.10049075473E+02  0.10049075473E+02  0.00000000000E+00 0. -1.
         13    1    1    2    0    0 -0.58759643864E+01  0.91642831070E+01  0.83059569196E+01  0.13693470222E+02  0.10566000000E+00 0.  1.
        996    1    1    2    0    0  0.58759643864E+01 -0.91642831070E+01  0.81644911778E+02  0.96355605242E+02  0.50000000000E+02 0.  0.
<mgrwt>
<rscale>  0 0.51171389E+02</rscale>
<asrwt>0</asrwt>
<pdfrwt beam="1">  1       13 0.10000000E+01 0.51171389E+02</pdfrwt>
<pdfrwt beam="2">  1       22 0.10049101E+00 0.51171389E+02</pdfrwt>
<totfact> 0.13970182E+00</totfact>
</mgrwt>
</event>
<event>
 4    1  0.2496748E+000  0.5222900E+02  0.7957747E-01  0.1433677E+00
         13   -1    0    0    0    0  0.00000000000E+00  0.00000000000E+00  0.99999944177E+02  0.99999999997E+02  0.10566000000E+00 0.  1.
         22   -1    0    0    0    0 -0.00000000000E+00 -0.00000000000E+00 -0.14513537835E+02  0.14513537835E+02  0.00000000000E+00 0.  1.
         13    1    1    2    0    0  0.14009513474E+02 -0.56215795844E+01  0.92640222143E+00  0.15124087077E+02  0.10566000000E+00 0. -1.
        996    1    1    2    0    0 -0.14009513474E+02  0.56215795844E+01  0.84560004120E+02  0.99389450756E+02  0.50000000000E+02 0.  0.
<mgrwt>
<rscale>  0 0.52229002E+02</rscale>
<asrwt>0</asrwt>
<pdfrwt beam="1">  1       13 0.10000000E+01 0.52229002E+02</pdfrwt>
<pdfrwt beam="2">  1       22 0.14513562E+00 0.52229002E+02</pdfrwt>
<totfact> 0.79550371E-01</totfact>
</mgrwt>
</event>
<event>
 4    1  0.2496748E+000  0.5209790E+02  0.7957747E-01  0.1434344E+00
         13   -1    0    0    0    0  0.00000000000E+00  0.00000000000E+00  0.99999944182E+02  0.10000000000E+03  0.10566000000E+00 0.  1.
         22   -1    0    0    0    0 -0.00000000000E+00 -0.00000000000E+00 -0.52071351027E+02  0.52071351027E+02  0.00000000000E+00 0. -1.
         13    1    1    2    0    0 -0.11495016634E+02 -0.90584689185E+01 -0.44019923818E+02  0.46389181104E+02  0.10566000000E+00 0. -1.
        996    1    1    2    0    0  0.11495016634E+02  0.90584689185E+01  0.91948516972E+02  0.10568216992E+03  0.50000000000E+02 0.  0.
<mgrwt>
<rscale>  0 0.52097901E+02</rscale>
<asrwt>0</asrwt>
<pdfrwt beam="1">  1       13 0.10000000E+01 0.52097901E+02</pdfrwt>
<pdfrwt beam="2">  1       22 0.52071364E+00 0.52097901E+02</pdfrwt>
<totfact> 0.66065594E-02</totfact>
</mgrwt>
</event>
<event>
 4    1  0.2496748E+000  0.5106888E+02  0.7957747E-01  0.1439660E+00
         13   -1    0    0    0    0  0.00000000000E+00  0.00000000000E+00  0.99999944177E+02  0.99999999997E+02  0.10566000000E+00 0. -1.
         22   -1    0    0    0    0 -0.00000000000E+00 -0.00000000000E+00 -0.10645055829E+02  0.10645055829E+02  0.00000000000E+00 0. -1.
         13    1    1    2    0    0  0.48786566128E+01 -0.91776721268E+01  0.39171435139E+01  0.11107931101E+02  0.10566000000E+00 0.  1.
        996    1    1    2    0    0 -0.48786566128E+01  0.91776721268E+01  0.85437744835E+02  0.99537124725E+02  0.50000000000E+02 0.  0.
<mgrwt>
<rscale>  0 0.51068884E+02</rscale>
<asrwt>0</asrwt>
<pdfrwt beam="1">  1       13 0.10000000E+01 0.51068884E+02</pdfrwt>
<pdfrwt beam="2">  1       22 0.10645081E+00 0.51068884E+02</pdfrwt>
<totfact> 0.12839018E+00</totfact>
</mgrwt>
</event>
<event>
 4    1  0.2496748E+000  0.5099307E+02  0.7957747E-01  0.1440058E+00
         13   -1    0    0    0    0  0.00000000000E+00  0.00000000000E+00  0.99999944184E+02  0.10000000000E+03  0.10566000000E+00 0. -1.
         22   -1    0    0    0    0 -0.00000000000E+00 -0.00000000000E+00 -0.23646892037E+02  0.23646892037E+02  0.00000000000E+00 0.  1.
         13    1    1    2    0    0  0.65745324325E+01  0.75544097881E+01 -0.15578324802E+02  0.18519960897E+02  0.10566000000E+00 0.  1.
        996    1    1    2    0    0 -0.65745324325E+01 -0.75544097881E+01  0.91931376949E+02  0.10512693114E+03  0.50000000000E+02 0.  0.
<mgrwt>
<rscale>  0 0.50993074E+02</rscale>
<asrwt>0</asrwt>
<pdfrwt beam="1">  1       13 0.10000000E+01 0.50993074E+02</pdfrwt>
<pdfrwt beam="2">  1       22 0.23646913E+00 0.50993074E+02</pdfrwt>
<totfact> 0.32824923E-01</totfact>
</mgrwt>
</event>
<event>
 4    1  0.2496748E+000  0.5844802E+02  0.7957747E-01  0.1404463E+00
         13   -1    0    0    0    0  0.00000000000E+00  0.00000000000E+00  0.99999944176E+02  0.99999999997E+02  0.10566000000E+00 0. -1.
         22   -1    0    0    0    0 -0.00000000000E+00 -0.00000000000E+00 -0.51681371800E+02  0.51681371800E+02  0.00000000000E+00 0.  1.
         13    1    1    2    0    0 -0.12479376006E+02  0.27576003597E+02 -0.37286816571E+02  0.48025916482E+02  0.10566000000E+00 0.  1.
        996    1    1    2    0    0  0.12479376006E+02 -0.27576003597E+02  0.85605388947E+02  0.10365545532E+03  0.50000000000E+02 0.  0.
<mgrwt>
<rscale>  0 0.58448018E+02</rscale>
<asrwt>0</asrwt>
<pdfrwt beam="1">  1       13 0.10000000E+01 0.58448018E+02</pdfrwt>
<pdfrwt beam="2">  1       22 0.51681385E+00 0.58448018E+02</pdfrwt>
<totfact> 0.67520285E-02</totfact>
</mgrwt>
</event>
<event>
 4    1  0.2496748E+000  0.5271089E+02  0.7957747E-01  0.1431245E+00
         13   -1    0    0    0    0  0.00000000000E+00  0.00000000000E+00  0.99999944182E+02  0.10000000000E+03  0.10566000000E+00 0.  1.
         22   -1    0    0    0    0 -0.00000000000E+00 -0.00000000000E+00 -0.19616290156E+02  0.19616290156E+02  0.00000000000E+00 0. -1.
         13    1    1    2    0    0  0.25291553861E+01  0.16493686341E+02 -0.65699642071E+01  0.17933597235E+02  0.10566000000E+00 0. -1.
        996    1    1    2    0    0 -0.25291553861E+01 -0.16493686341E+02  0.86953618234E+02  0.10168269292E+03  0.50000000000E+02 0.  0.
<mgrwt>
<rscale>  0 0.52710894E+02</rscale>
<asrwt>0</asrwt>
<pdfrwt beam="1">  1       13 0.10000000E+01 0.52710894E+02</pdfrwt>
<pdfrwt beam="2">  1       22 0.19616313E+00 0.52710894E+02</pdfrwt>
<totfact> 0.47029412E-01</totfact>
</mgrwt>
</event>
<event>
 4    1  0.2496748E+000  0.5376043E+02  0.7957747E-01  0.1426054E+00
         13   -1    0    0    0    0  0.00000000000E+00  0.00000000000E+00  0.99999944191E+02  0.10000000001E+03  0.10566000000E+00 0. -1.
         22   -1    0    0    0    0 -0.00000000000E+00 -0.00000000000E+00 -0.72409105331E+02  0.72409105331E+02  0.00000000000E+00 0.  1.
         13    1    1    2    0    0 -0.68369607084E+01  0.18532119914E+02 -0.63574662118E+02  0.66572759653E+02  0.10566000000E+00 0.  1.
        996    1    1    2    0    0  0.68369607084E+01 -0.18532119914E+02  0.91165500978E+02  0.10583634569E+03  0.50000000000E+02 0.  0.
<mgrwt>
<rscale>  0 0.53760427E+02</rscale>
<asrwt>0</asrwt>
<pdfrwt beam="1">  1       13 0.10000000E+01 0.53760427E+02</pdfrwt>
<pdfrwt beam="2">  1       22 0.72409113E+00 0.53760427E+02</pdfrwt>
<totfact> 0.61858966E-02</totfact>
</mgrwt>
</event>
<event>
 4    1  0.2496748E+000  0.5108177E+02  0.7957747E-01  0.1439593E+00
         13   -1    0    0    0    0  0.00000000000E+00  0.00000000000E+00  0.99999944180E+02  0.10000000000E+03  0.10566000000E+00 0. -1.
         22   -1    0    0    0    0 -0.00000000000E+00 -0.00000000000E+00 -0.23270487116E+02  0.23270487116E+02  0.00000000000E+00 0. -1.
         13    1    1    2    0    0  0.10275378444E+02 -0.19400428494E+01 -0.14994978285E+02  0.18281348589E+02  0.10566000000E+00 0.  1.
        996    1    1    2    0    0 -0.10275378444E+02  0.19400428494E+01  0.91724435350E+02  0.10498913853E+03  0.50000000000E+02 0.  0.
<mgrwt>
<rscale>  0 0.51081769E+02</rscale>
<asrwt>0</asrwt>
<pdfrwt beam="1">  1       13 0.10000000E+01 0.51081769E+02</pdfrwt>
<pdfrwt beam="2">  1       22 0.23270509E+00 0.51081769E+02</pdfrwt>
<totfact> 0.33873516E-01</totfact>
</mgrwt>
</event>
<event>
 4    1  0.2496748E+000  0.5208962E+02  0.7957747E-01  0.1434386E+00
         13   -1    0    0    0    0  0.00000000000E+00  0.00000000000E+00  0.99999944176E+02  0.99999999997E+02  0.10566000000E+00 0.  1.
         22   -1    0    0    0    0 -0.00000000000E+00 -0.00000000000E+00 -0.11123838281E+02  0.11123838281E+02  0.00000000000E+00 0.  1.
         13    1    1    2    0    0 -0.13776904730E+02  0.48502790553E+01  0.20231572299E+02  0.24953075814E+02  0.10566000000E+00 0. -1.
        996    1    1    2    0    0  0.13776904730E+02 -0.48502790553E+01  0.68644533597E+02  0.86170762464E+02  0.50000000000E+02 0.  0.
<mgrwt>
<rscale>  0 0.52089618E+02</rscale>
<asrwt>0</asrwt>
<pdfrwt beam="1">  1       13 0.10000000E+01 0.52089618E+02</pdfrwt>
<pdfrwt beam="2">  1       22 0.11123863E+00 0.52089618E+02</pdfrwt>
<totfact> 0.12056903E+00</totfact>
</mgrwt>
</event>
<event>
 4    1  0.2496748E+000  0.8372022E+02  0.7957747E-01  0.1318814E+00
         13   -1    0    0    0    0  0.00000000000E+00  0.00000000000E+00  0.99999944184E+02  0.10000000000E+03  0.10566000000E+00 0. -1.
         22   -1    0    0    0    0 -0.00000000000E+00 -0.00000000000E+00 -0.69767466039E+02  0.69767466039E+02  0.00000000000E+00 0.  1.
         13    1    1    2    0    0  0.71956572927E+01 -0.66763003110E+02 -0.22505937397E+02  0.70820932289E+02  0.10566000000E+00 0.  1.
        996    1    1    2    0    0 -0.71956572927E+01  0.66763003110E+02  0.52738415541E+02  0.98946533754E+02  0.50000000000E+02 0.  0.
<mgrwt>
<rscale>  0 0.83720225E+02</rscale>
<asrwt>0</asrwt>
<pdfrwt beam="1">  1       13 0.10000000E+01 0.83720225E+02</pdfrwt>
<pdfrwt beam="2">  1       22 0.69767475E+00 0.83720225E+02</pdfrwt>
<totfact> 0.75790611E-02</totfact>
</mgrwt>
</event>
<event>
 4    1  0.2496748E+000  0.6071323E+02  0.7957747E-01  0.1394863E+00
         13   -1    0    0    0    0  0.00000000000E+00  0.00000000000E+00  0.99999944174E+02  0.99999999994E+02  0.10566000000E+00 0. -1.
         22   -1    0    0    0    0 -0.00000000000E+00 -0.00000000000E+00 -0.39876386588E+02  0.39876386588E+02  0.00000000000E+00 0.  1.
         13    1    1    2    0    0  0.32130926430E+02 -0.12397582348E+02 -0.19631221555E+02  0.39642054754E+02  0.10566000000E+00 0.  1.
        996    1    1    2    0    0 -0.32130926430E+02  0.12397582348E+02  0.79754779141E+02  0.10023433183E+03  0.50000000000E+02 0.  0.
<mgrwt>
<rscale>  0 0.60713232E+02</rscale>
<asrwt>0</asrwt>
<pdfrwt beam="1">  1       13 0.10000000E+01 0.60713232E+02</pdfrwt>
<pdfrwt beam="2">  1       22 0.39876403E+00 0.60713232E+02</pdfrwt>
<totfact> 0.12519894E-01</totfact>
</mgrwt>
</event>
<event>
 4    1  0.2496748E+000  0.5122889E+02  0.7957747E-01  0.1438824E+00
         13   -1    0    0    0    0  0.00000000000E+00  0.00000000000E+00  0.99999944175E+02  0.99999999996E+02  0.10566000000E+00 0.  1.
         22   -1    0    0    0    0 -0.00000000000E+00 -0.00000000000E+00 -0.12749694893E+02  0.12749694893E+02  0.00000000000E+00 0.  1.
         13    1    1    2    0    0 -0.88077450303E+01 -0.68427229186E+01 -0.47241727538E+00  0.11163940683E+02  0.10566000000E+00 0. -1.
        996    1    1    2    0    0  0.88077450303E+01  0.68427229186E+01  0.87722666558E+02  0.10158575421E+03  0.50000000000E+02 0.  0.
<mgrwt>
<rscale>  0 0.51228891E+02</rscale>
<asrwt>0</asrwt>
<pdfrwt beam="1">  1       13 0.10000000E+01 0.51228891E+02</pdfrwt>
<pdfrwt beam="2">  1       22 0.12749719E+00 0.51228891E+02</pdfrwt>
<totfact> 0.97702791E-01</totfact>
</mgrwt>
</event>
<event>
 4    1  0.2496748E+000  0.5628547E+02  0.7957747E-01  0.1414116E+00
         13   -1    0    0    0    0  0.00000000000E+00  0.00000000000E+00  0.99999944182E+02  0.10000000000E+03  0.10566000000E+00 0.  1.
         22   -1    0    0    0    0 -0.00000000000E+00 -0.00000000000E+00 -0.34703988766E+02  0.34703988766E+02  0.00000000000E+00 0. -1.
         13    1    1    2    0    0 -0.12256020819E+02 -0.22756178416E+02 -0.19882039523E+02  0.32609206707E+02  0.10566000000E+00 0. -1.
        996    1    1    2    0    0  0.12256020819E+02  0.22756178416E+02  0.85177994939E+02  0.10209478206E+03  0.50000000000E+02 0.  0.
<mgrwt>
<rscale>  0 0.56285466E+02</rscale>
<asrwt>0</asrwt>
<pdfrwt beam="1">  1       13 0.10000000E+01 0.56285466E+02</pdfrwt>
<pdfrwt beam="2">  1       22 0.34704007E+00 0.56285466E+02</pdfrwt>
<totfact> 0.16017989E-01</totfact>
</mgrwt>
</event>
<event>
 4    1  0.2496748E+000  0.5417254E+02  0.7957747E-01  0.1424053E+00
         13   -1    0    0    0    0  0.00000000000E+00  0.00000000000E+00  0.99999944181E+02  0.10000000000E+03  0.10566000000E+00 0.  1.
         22   -1    0    0    0    0 -0.00000000000E+00 -0.00000000000E+00 -0.22597657427E+02  0.22597657427E+02  0.00000000000E+00 0. -1.
         13    1    1    2    0    0 -0.29925629813E+01 -0.20632713786E+02 -0.72688536825E+01  0.22079667327E+02  0.10566000000E+00 0. -1.
        996    1    1    2    0    0  0.29925629813E+01  0.20632713786E+02  0.84671140436E+02  0.10051799010E+03  0.50000000000E+02 0.  0.
<mgrwt>
<rscale>  0 0.54172542E+02</rscale>
<asrwt>0</asrwt>
<pdfrwt beam="1">  1       13 0.10000000E+01 0.54172542E+02</pdfrwt>
<pdfrwt beam="2">  1       22 0.22597679E+00 0.54172542E+02</pdfrwt>
<totfact> 0.36043298E-01</totfact>
</mgrwt>
</event>
<event>
 4    1  0.2496748E+000  0.5149244E+02  0.7957747E-01  0.1437454E+00
         13   -1    0    0    0    0  0.00000000000E+00  0.00000000000E+00  0.99999944184E+02  0.10000000000E+03  0.10566000000E+00 0.  1.
         22   -1    0    0    0    0 -0.00000000000E+00 -0.00000000000E+00 -0.10293636504E+02  0.10293636504E+02  0.00000000000E+00 0.  1.
         13    1    1    2    0    0 -0.10045079397E+02  0.71111154037E+01  0.22285015586E+02  0.25457899876E+02  0.10566000000E+00 0. -1.
        996    1    1    2    0    0  0.10045079397E+02 -0.71111154037E+01  0.67421292093E+02  0.84835736632E+02  0.50000000000E+02 0.  0.
<mgrwt>
<rscale>  0 0.51492442E+02</rscale>
<asrwt>0</asrwt>
<pdfrwt beam="1">  1       13 0.10000000E+01 0.51492442E+02</pdfrwt>
<pdfrwt beam="2">  1       22 0.10293662E+00 0.51492442E+02</pdfrwt>
<totfact> 0.13500432E+00</totfact>
</mgrwt>
</event>
<event>
 4    1  0.2496748E+000  0.5145217E+02  0.7957747E-01  0.1437663E+00
         13   -1    0    0    0    0  0.00000000000E+00  0.00000000000E+00  0.99999944177E+02  0.99999999997E+02  0.10566000000E+00 0. -1.
         22   -1    0    0    0    0 -0.00000000000E+00 -0.00000000000E+00 -0.15101215880E+02  0.15101215880E+02  0.00000000000E+00 0.  1.
         13    1    1    2    0    0  0.55019207269E+01 -0.10819176053E+02 -0.36622633629E+01  0.12678684440E+02  0.10566000000E+00 0.  1.
        996    1    1    2    0    0 -0.55019207269E+01  0.10819176053E+02  0.88560991660E+02  0.10242253144E+03  0.50000000000E+02 0.  0.
<mgrwt>
<rscale>  0 0.51452169E+02</rscale>
<asrwt>0</asrwt>
<pdfrwt beam="1">  1       13 0.10000000E+01 0.51452169E+02</pdfrwt>
<pdfrwt beam="2">  1       22 0.15101240E+00 0.51452169E+02</pdfrwt>
<totfact> 0.74369391E-01</totfact>
</mgrwt>
</event>
<event>
 4    1  0.2496748E+000  0.5264194E+02  0.7957747E-01  0.1431591E+00
         13   -1    0    0    0    0  0.00000000000E+00  0.00000000000E+00  0.99999944178E+02  0.99999999998E+02  0.10566000000E+00 0. -1.
         22   -1    0    0    0    0 -0.00000000000E+00 -0.00000000000E+00 -0.13684874609E+02  0.13684874609E+02  0.00000000000E+00 0. -1.
         13    1    1    2    0    0 -0.13874238223E+02  0.88701587580E+01  0.57433370782E+01  0.17440507088E+02  0.10566000000E+00 0.  1.
        996    1    1    2    0    0  0.13874238223E+02 -0.88701587580E+01  0.80571732490E+02  0.96244367519E+02  0.50000000000E+02 0.  0.
<mgrwt>
<rscale>  0 0.52641943E+02</rscale>
<asrwt>0</asrwt>
<pdfrwt beam="1">  1       13 0.10000000E+01 0.52641943E+02</pdfrwt>
<pdfrwt beam="2">  1       22 0.13684899E+00 0.52641943E+02</pdfrwt>
<totfact> 0.87601394E-01</totfact>
</mgrwt>
</event>
<event>
 4    1  0.2496748E+000  0.5205058E+02  0.7957747E-01  0.1434585E+00
         13   -1    0    0    0    0  0.00000000000E+00  0.00000000000E+00  0.99999944169E+02  0.99999999989E+02  0.10566000000E+00 0. -1.
         22   -1    0    0    0    0 -0.00000000000E+00 -0.00000000000E+00 -0.17640305722E+02  0.17640305722E+02  0.00000000000E+00 0.  1.
         13    1    1    2    0    0 -0.13097442499E+02 -0.61416429793E+01 -0.55356113737E+01  0.15489252267E+02  0.10566000000E+00 0.  1.
        996    1    1    2    0    0  0.13097442499E+02  0.61416429793E+01  0.87895249821E+02  0.10215105344E+03  0.50000000000E+02 0.  0.
<mgrwt>
<rscale>  0 0.52050579E+02</rscale>
<asrwt>0</asrwt>
<pdfrwt beam="1">  1       13 0.10000000E+01 0.52050579E+02</pdfrwt>
<pdfrwt beam="2">  1       22 0.17640329E+00 0.52050579E+02</pdfrwt>
<totfact> 0.56962335E-01</totfact>
</mgrwt>
</event>
<event>
 4    1  0.2496748E+000  0.5121219E+02  0.7957747E-01  0.1438911E+00
         13   -1    0    0    0    0  0.00000000000E+00  0.00000000000E+00  0.99999944180E+02  0.10000000000E+03  0.10566000000E+00 0. -1.
         22   -1    0    0    0    0 -0.00000000000E+00 -0.00000000000E+00 -0.10245176043E+02  0.10245176043E+02  0.00000000000E+00 0. -1.
         13    1    1    2    0    0  0.11055428100E+02 -0.68284762079E+00  0.27408133339E+02  0.29561896227E+02  0.10566000000E+00 0.  1.
        996    1    1    2    0    0 -0.11055428100E+02  0.68284762079E+00  0.62346634798E+02  0.80683279816E+02  0.50000000000E+02 0.  0.
<mgrwt>
<rscale>  0 0.51212194E+02</rscale>
<asrwt>0</asrwt>
<pdfrwt beam="1">  1       13 0.10000000E+01 0.51212194E+02</pdfrwt>
<pdfrwt beam="2">  1       22 0.10245201E+00 0.51212194E+02</pdfrwt>
<totfact> 0.13584520E+00</totfact>
</mgrwt>
</event>
<event>
 4    1  0.2496748E+000  0.5121448E+02  0.7957747E-01  0.1438899E+00
         13   -1    0    0    0    0  0.00000000000E+00  0.00000000000E+00  0.99999944176E+02  0.99999999996E+02  0.10566000000E+00 0.  1.
         22   -1    0    0    0    0 -0.00000000000E+00 -0.00000000000E+00 -0.27866438526E+02  0.27866438526E+02  0.00000000000E+00 0. -1.
         13    1    1    2    0    0  0.41144342262E+00  0.11079447738E+02 -0.19763926146E+02  0.22661583983E+02  0.10566000000E+00 0. -1.
        996    1    1    2    0    0 -0.41144342262E+00 -0.11079447738E+02  0.91897431796E+02  0.10520485454E+03  0.50000000000E+02 0.  0.
<mgrwt>
<rscale>  0 0.51214485E+02</rscale>
<asrwt>0</asrwt>
<pdfrwt beam="1">  1       13 0.10000000E+01 0.51214485E+02</pdfrwt>
<pdfrwt beam="2">  1       22 0.27866459E+00 0.51214485E+02</pdfrwt>
<totfact> 0.23803533E-01</totfact>
</mgrwt>
</event>
<event>
 4    1  0.2496748E+000  0.5105251E+02  0.7957747E-01  0.1439746E+00
         13   -1    0    0    0    0  0.00000000000E+00  0.00000000000E+00  0.99999944183E+02  0.10000000000E+03  0.10566000000E+00 0. -1.
         22   -1    0    0    0    0 -0.00000000000E+00 -0.00000000000E+00 -0.13338390877E+02  0.13338390877E+02  0.00000000000E+00 0. -1.
         13    1    1    2    0    0  0.10159782190E+00 -0.10312561823E+02 -0.24846080527E+01  0.10608661305E+02  0.10566000000E+00 0.  1.
        996    1    1    2    0    0 -0.10159782190E+00  0.10312561823E+02  0.89146161359E+02  0.10272972958E+03  0.50000000000E+02 0.  0.
<mgrwt>
<rscale>  0 0.51052515E+02</rscale>
<asrwt>0</asrwt>
<pdfrwt beam="1">  1       13 0.10000000E+01 0.51052515E+02</pdfrwt>
<pdfrwt beam="2">  1       22 0.13338415E+00 0.51052515E+02</pdfrwt>
<totfact> 0.90955995E-01</totfact>
</mgrwt>
</event>
<event>
 4    1  0.2496748E+000  0.5220542E+02  0.7957747E-01  0.1433797E+00
         13   -1    0    0    0    0  0.00000000000E+00  0.00000000000E+00  0.99999944180E+02  0.10000000000E+03  0.10566000000E+00 0. -1.
         22   -1    0    0    0    0 -0.00000000000E+00 -0.00000000000E+00 -0.19375380488E+02  0.19375380488E+02  0.00000000000E+00 0. -1.
         13    1    1    2    0    0  0.83574720448E+01  0.12472317301E+02 -0.76260462844E+01  0.16839649159E+02  0.10566000000E+00 0.  1.
        996    1    1    2    0    0 -0.83574720448E+01 -0.12472317301E+02  0.88250609976E+02  0.10253573133E+03  0.50000000000E+02 0.  0.
<mgrwt>
<rscale>  0 0.52205422E+02</rscale>
<asrwt>0</asrwt>
<pdfrwt beam="1">  1       13 0.10000000E+01 0.52205422E+02</pdfrwt>
<pdfrwt beam="2">  1       22 0.19375403E+00 0.52205422E+02</pdfrwt>
<totfact> 0.48072370E-01</totfact>
</mgrwt>
</event>
<event>
 4    1  0.2496748E+000  0.5392830E+02  0.7957747E-01  0.1425236E+00
         13   -1    0    0    0    0  0.00000000000E+00  0.00000000000E+00  0.99999944173E+02  0.99999999993E+02  0.10566000000E+00 0. -1.
         22   -1    0    0    0    0 -0.00000000000E+00 -0.00000000000E+00 -0.25042123394E+02  0.25042123394E+02  0.00000000000E+00 0. -1.
         13    1    1    2    0    0  0.74754597204E+01  0.18771754842E+02  0.67671668262E+02  0.70623842484E+02  0.10566000000E+00 0.  1.
        996    1    1    2    0    0 -0.74754597204E+01 -0.18771754842E+02  0.72861525174E+01  0.54418280903E+02  0.50000000000E+02 0.  0.
<mgrwt>
<rscale>  0 0.53928298E+02</rscale>
<asrwt>0</asrwt>
<pdfrwt beam="1">  1       13 0.10000000E+01 0.53928298E+02</pdfrwt>
<pdfrwt beam="2">  1       22 0.25042144E+00 0.53928298E+02</pdfrwt>
<totfact> 0.29469111E-01</totfact>
</mgrwt>
</event>
<event>
 4    1  0.2496748E+000  0.5119990E+02  0.7957747E-01  0.1438975E+00
         13   -1    0    0    0    0  0.00000000000E+00  0.00000000000E+00  0.99999944182E+02  0.10000000000E+03  0.10566000000E+00 0. -1.
         22   -1    0    0    0    0 -0.00000000000E+00 -0.00000000000E+00 -0.16507652992E+02  0.16507652992E+02  0.00000000000E+00 0.  1.
         13    1    1    2    0    0 -0.36874747034E+01  0.10384218538E+02 -0.66273341103E+01  0.12859322913E+02  0.10566000000E+00 0.  1.
        996    1    1    2    0    0  0.36874747034E+01 -0.10384218538E+02  0.90119625300E+02  0.10364833008E+03  0.50000000000E+02 0.  0.
<mgrwt>
<rscale>  0 0.51199897E+02</rscale>
<asrwt>0</asrwt>
<pdfrwt beam="1">  1       13 0.10000000E+01 0.51199897E+02</pdfrwt>
<pdfrwt beam="2">  1       22 0.16507676E+00 0.51199897E+02</pdfrwt>
<totfact> 0.63890567E-01</totfact>
</mgrwt>
</event>
<event>
 4    1  0.2496748E+000  0.5276059E+02  0.7957747E-01  0.1430996E+00
         13   -1    0    0    0    0  0.00000000000E+00  0.00000000000E+00  0.99999944173E+02  0.99999999994E+02  0.10566000000E+00 0. -1.
         22   -1    0    0    0    0 -0.00000000000E+00 -0.00000000000E+00 -0.22443750762E+02  0.22443750762E+02  0.00000000000E+00 0.  1.
         13    1    1    2    0    0 -0.15674481243E+02  0.61636080544E+01 -0.10458972426E+02  0.19826262753E+02  0.10566000000E+00 0.  1.
        996    1    1    2    0    0  0.15674481243E+02 -0.61636080544E+01  0.88015165838E+02  0.10261748800E+03  0.50000000000E+02 0.  0.
<mgrwt>
<rscale>  0 0.52760586E+02</rscale>
<asrwt>0</asrwt>
<pdfrwt beam="1">  1       13 0.10000000E+01 0.52760586E+02</pdfrwt>
<pdfrwt beam="2">  1       22 0.22443772E+00 0.52760586E+02</pdfrwt>
<totfact> 0.36439133E-01</totfact>
</mgrwt>
</event>
<event>
 4    1  0.2496748E+000  0.5394623E+02  0.7957747E-01  0.1425149E+00
         13   -1    0    0    0    0  0.00000000000E+00  0.00000000000E+00  0.99999944178E+02  0.99999999998E+02  0.10566000000E+00 0.  1.
         22   -1    0    0    0    0 -0.00000000000E+00 -0.00000000000E+00 -0.13819820958E+02  0.13819820958E+02  0.00000000000E+00 0.  1.
         13    1    1    2    0    0 -0.20097971534E+02 -0.25034601987E+01  0.20378563353E+02  0.28731390171E+02  0.10566000000E+00 0. -1.
        996    1    1    2    0    0  0.20097971534E+02  0.25034601987E+01  0.65801559866E+02  0.85088430786E+02  0.50000000000E+02 0.  0.
<mgrwt>
<rscale>  0 0.53946230E+02</rscale>
<asrwt>0</asrwt>
<pdfrwt beam="1">  1       13 0.10000000E+01 0.53946230E+02</pdfrwt>
<pdfrwt beam="2">  1       22 0.13819845E+00 0.53946230E+02</pdfrwt>
<totfact> 0.86459924E-01</totfact>
</mgrwt>
</event>
<event>
 4    1  0.2496748E+000  0.5658140E+02  0.7957747E-01  0.1412765E+00
         13   -1    0    0    0    0  0.00000000000E+00  0.00000000000E+00  0.99999944172E+02  0.99999999992E+02  0.10566000000E+00 0. -1.
         22   -1    0    0    0    0 -0.00000000000E+00 -0.00000000000E+00 -0.17728075310E+02  0.17728075310E+02  0.00000000000E+00 0. -1.
         13    1    1    2    0    0  0.26483422471E+02  0.28848999973E+00  0.17606831676E+02  0.31803562347E+02  0.10566000000E+00 0.  1.
        996    1    1    2    0    0 -0.26483422471E+02 -0.28848999973E+00  0.64665037187E+02  0.85924512955E+02  0.50000000000E+02 0.  0.
<mgrwt>
<rscale>  0 0.56581401E+02</rscale>
<asrwt>0</asrwt>
<pdfrwt beam="1">  1       13 0.10000000E+01 0.56581401E+02</pdfrwt>
<pdfrwt beam="2">  1       22 0.17728098E+00 0.56581401E+02</pdfrwt>
<totfact> 0.56927427E-01</totfact>
</mgrwt>
</event>
<event>
 4    1  0.2496748E+000  0.5262101E+02  0.7957747E-01  0.1431696E+00
         13   -1    0    0    0    0  0.00000000000E+00  0.00000000000E+00  0.99999944178E+02  0.99999999998E+02  0.10566000000E+00 0. -1.
         22   -1    0    0    0    0 -0.00000000000E+00 -0.00000000000E+00 -0.14420150043E+02  0.14420150043E+02  0.00000000000E+00 0. -1.
         13    1    1    2    0    0  0.43197708926E+01  0.15821212347E+02  0.32639641791E+01  0.16722314639E+02  0.10566000000E+00 0.  1.
        996    1    1    2    0    0 -0.43197708926E+01 -0.15821212347E+02  0.82315829956E+02  0.97697835401E+02  0.50000000000E+02 0.  0.
<mgrwt>
<rscale>  0 0.52621015E+02</rscale>
<asrwt>0</asrwt>
<pdfrwt beam="1">  1       13 0.10000000E+01 0.52621015E+02</pdfrwt>
<pdfrwt beam="2">  1       22 0.14420174E+00 0.52621015E+02</pdfrwt>
<totfact> 0.80462788E-01</totfact>
</mgrwt>
</event>
<event>
 4    1  0.2496748E+000  0.5148318E+02  0.7957747E-01  0.1437502E+00
         13   -1    0    0    0    0  0.00000000000E+00  0.00000000000E+00  0.99999944182E+02  0.10000000000E+03  0.10566000000E+00 0. -1.
         22   -1    0    0    0    0 -0.00000000000E+00 -0.00000000000E+00 -0.10412503658E+02  0.10412503658E+02  0.00000000000E+00 0. -1.
         13    1    1    2    0    0 -0.12082215621E+02  0.21303009630E+01  0.24723481680E+02  0.27600359181E+02  0.10566000000E+00 0.  1.
        996    1    1    2    0    0  0.12082215621E+02 -0.21303009630E+01  0.64863958844E+02  0.82812144480E+02  0.50000000000E+02 0.  0.
<mgrwt>
<rscale>  0 0.51483183E+02</rscale>
<asrwt>0</asrwt>
<pdfrwt beam="1">  1       13 0.10000000E+01 0.51483183E+02</pdfrwt>
<pdfrwt beam="2">  1       22 0.10412529E+00 0.51483183E+02</pdfrwt>
<totfact> 0.13275428E+00</totfact>
</mgrwt>
</event>
<event>
 4    1  0.2496748E+000  0.5119269E+02  0.7957747E-01  0.1439013E+00
         13   -1    0    0    0    0  0.00000000000E+00  0.00000000000E+00  0.99999944178E+02  0.99999999998E+02  0.10566000000E+00 0.  1.
         22   -1    0    0    0    0 -0.00000000000E+00 -0.00000000000E+00 -0.11978560869E+02  0.11978560869E+02  0.00000000000E+00 0.  1.
         13    1    1    2    0    0 -0.10190716125E+02 -0.41037034504E+01  0.10204365061E+01  0.11033745142E+02  0.10566000000E+00 0. -1.
        996    1    1    2    0    0  0.10190716125E+02  0.41037034504E+01  0.87000946803E+02  0.10094481572E+03  0.50000000000E+02 0.  0.
<mgrwt>
<rscale>  0 0.51192686E+02</rscale>
<asrwt>0</asrwt>
<pdfrwt beam="1">  1       13 0.10000000E+01 0.51192686E+02</pdfrwt>
<pdfrwt beam="2">  1       22 0.11978585E+00 0.51192686E+02</pdfrwt>
<totfact> 0.10759269E+00</totfact>
</mgrwt>
</event>
<event>
 4    1  0.2496748E+000  0.5399147E+02  0.7957747E-01  0.1424929E+00
         13   -1    0    0    0    0  0.00000000000E+00  0.00000000000E+00  0.99999944167E+02  0.99999999988E+02  0.10566000000E+00 0.  1.
         22   -1    0    0    0    0 -0.00000000000E+00 -0.00000000000E+00 -0.19145014525E+02  0.19145014525E+02  0.00000000000E+00 0.  1.
         13    1    1    2    0    0 -0.45464807737E+01  0.19859719417E+02 -0.17625886732E+01  0.20449861262E+02  0.10566000000E+00 0. -1.
        996    1    1    2    0    0  0.45464807737E+01 -0.19859719417E+02  0.82617518315E+02  0.98695153251E+02  0.50000000000E+02 0.  0.
<mgrwt>
<rscale>  0 0.53991471E+02</rscale>
<asrwt>0</asrwt>
<pdfrwt beam="1">  1       13 0.10000000E+01 0.53991471E+02</pdfrwt>
<pdfrwt beam="2">  1       22 0.19145037E+00 0.53991471E+02</pdfrwt>
<totfact> 0.49299983E-01</totfact>
</mgrwt>
</event>
<event>
 4    1  0.2496748E+000  0.5319687E+02  0.7957747E-01  0.1428824E+00
         13   -1    0    0    0    0  0.00000000000E+00  0.00000000000E+00  0.99999944177E+02  0.99999999997E+02  0.10566000000E+00 0. -1.
         22   -1    0    0    0    0 -0.00000000000E+00 -0.00000000000E+00 -0.13389113638E+02  0.13389113638E+02  0.00000000000E+00 0.  1.
         13    1    1    2    0    0  0.21671217636E+01  0.18033607274E+02  0.12053332394E+02  0.21799114521E+02  0.10566000000E+00 0.  1.
        996    1    1    2    0    0 -0.21671217636E+01 -0.18033607274E+02  0.74557498145E+02  0.91589999114E+02  0.50000000000E+02 0.  0.
<mgrwt>
<rscale>  0 0.53196874E+02</rscale>
<asrwt>0</asrwt>
<pdfrwt beam="1">  1       13 0.10000000E+01 0.53196874E+02</pdfrwt>
<pdfrwt beam="2">  1       22 0.13389138E+00 0.53196874E+02</pdfrwt>
<totfact> 0.90823325E-01</totfact>
</mgrwt>
</event>
<event>
 4    1  0.2496748E+000  0.5133577E+02  0.7957747E-01  0.1438267E+00
         13   -1    0    0    0    0  0.00000000000E+00  0.00000000000E+00  0.99999944182E+02  0.10000000000E+03  0.10566000000E+00 0. -1.
         22   -1    0    0    0    0 -0.00000000000E+00 -0.00000000000E+00 -0.12890446435E+02  0.12890446435E+02  0.00000000000E+00 0. -1.
         13    1    1    2    0    0 -0.10882478987E+02  0.41150190406E+01 -0.16630586328E+00  0.11636174298E+02  0.10566000000E+00 0.  1.
        996    1    1    2    0    0  0.10882478987E+02 -0.41150190406E+01  0.87275803610E+02  0.10125427214E+03  0.50000000000E+02 0.  0.
<mgrwt>
<rscale>  0 0.51335774E+02</rscale>
<asrwt>0</asrwt>
<pdfrwt beam="1">  1       13 0.10000000E+01 0.51335774E+02</pdfrwt>
<pdfrwt beam="2">  1       22 0.12890471E+00 0.51335774E+02</pdfrwt>
<totfact> 0.96058987E-01</totfact>
</mgrwt>
</event>
<event>
 4    1  0.2496748E+000  0.5145927E+02  0.7957747E-01  0.1437626E+00
         13   -1    0    0    0    0  0.00000000000E+00  0.00000000000E+00  0.99999944177E+02  0.99999999998E+02  0.10566000000E+00 0. -1.
         22   -1    0    0    0    0 -0.00000000000E+00 -0.00000000000E+00 -0.11892355514E+02  0.11892355514E+02  0.00000000000E+00 0.  1.
         13    1    1    2    0    0 -0.53798213412E+01  0.10913926030E+02  0.31566580640E+01  0.12571074465E+02  0.10566000000E+00 0.  1.
        996    1    1    2    0    0  0.53798213412E+01 -0.10913926030E+02  0.84950930599E+02  0.99321281046E+02  0.50000000000E+02 0.  0.
<mgrwt>
<rscale>  0 0.51459268E+02</rscale>
<asrwt>0</asrwt>
<pdfrwt beam="1">  1       13 0.10000000E+01 0.51459268E+02</pdfrwt>
<pdfrwt beam="2">  1       22 0.11892380E+00 0.51459268E+02</pdfrwt>
<totfact> 0.10885288E+00</totfact>
</mgrwt>
</event>
<event>
 4    1  0.2496748E+000  0.5297662E+02  0.7957747E-01  0.1429917E+00
         13   -1    0    0    0    0  0.00000000000E+00  0.00000000000E+00  0.99999944179E+02  0.10000000000E+03  0.10566000000E+00 0.  1.
         22   -1    0    0    0    0 -0.00000000000E+00 -0.00000000000E+00 -0.12457626462E+02  0.12457626462E+02  0.00000000000E+00 0. -1.
         13    1    1    2    0    0  0.12168225426E+02  0.12587949371E+02  0.24475533511E+02  0.30092940768E+02  0.10566000000E+00 0. -1.
        996    1    1    2    0    0 -0.12168225426E+02 -0.12587949371E+02  0.63066784206E+02  0.82364685694E+02  0.50000000000E+02 0.  0.
<mgrwt>
<rscale>  0 0.52976619E+02</rscale>
<asrwt>0</asrwt>
<pdfrwt beam="1">  1       13 0.10000000E+01 0.52976619E+02</pdfrwt>
<pdfrwt beam="2">  1       22 0.12457651E+00 0.52976619E+02</pdfrwt>
<totfact> 0.10168332E+00</totfact>
</mgrwt>
</event>
<event>
 4    1  0.2496748E+000  0.5198970E+02  0.7957747E-01  0.1434896E+00
         13   -1    0    0    0    0  0.00000000000E+00  0.00000000000E+00  0.99999944179E+02  0.99999999999E+02  0.10566000000E+00 0.  1.
         22   -1    0    0    0    0 -0.00000000000E+00 -0.00000000000E+00 -0.24759616248E+02  0.24759616248E+02  0.00000000000E+00 0. -1.
         13    1    1    2    0    0  0.12808560898E+02 -0.62345418460E+01 -0.14954493134E+02  0.20653735092E+02  0.10566000000E+00 0. -1.
        996    1    1    2    0    0 -0.12808560898E+02  0.62345418460E+01  0.90194821064E+02  0.10410588116E+03  0.50000000000E+02 0.  0.
<mgrwt>
<rscale>  0 0.51989698E+02</rscale>
<asrwt>0</asrwt>
<pdfrwt beam="1">  1       13 0.10000000E+01 0.51989698E+02</pdfrwt>
<pdfrwt beam="2">  1       22 0.24759637E+00 0.51989698E+02</pdfrwt>
<totfact> 0.30044326E-01</totfact>
</mgrwt>
</event>
<event>
 4    1  0.2496748E+000  0.5173465E+02  0.7957747E-01  0.1436204E+00
         13   -1    0    0    0    0  0.00000000000E+00  0.00000000000E+00  0.99999944182E+02  0.10000000000E+03  0.10566000000E+00 0. -1.
         22   -1    0    0    0    0 -0.00000000000E+00 -0.00000000000E+00 -0.40643179752E+02  0.40643179752E+02  0.00000000000E+00 0.  1.
         13    1    1    2    0    0 -0.53936915949E+01  0.12140105252E+02 -0.32560780623E+02  0.35166598690E+02  0.10566000000E+00 0.  1.
        996    1    1    2    0    0  0.53936915949E+01 -0.12140105252E+02  0.91917545053E+02  0.10547658106E+03  0.50000000000E+02 0.  0.
<mgrwt>
<rscale>  0 0.51734651E+02</rscale>
<asrwt>0</asrwt>
<pdfrwt beam="1">  1       13 0.10000000E+01 0.51734651E+02</pdfrwt>
<pdfrwt beam="2">  1       22 0.40643196E+00 0.51734651E+02</pdfrwt>
<totfact> 0.11992440E-01</totfact>
</mgrwt>
</event>
<event>
 4    1  0.2496748E+000  0.5611279E+02  0.7957747E-01  0.1414909E+00
         13   -1    0    0    0    0  0.00000000000E+00  0.00000000000E+00  0.99999944182E+02  0.10000000000E+03  0.10566000000E+00 0. -1.
         22   -1    0    0    0    0 -0.00000000000E+00 -0.00000000000E+00 -0.18961478068E+02  0.18961478068E+02  0.00000000000E+00 0. -1.
         13    1    1    2    0    0 -0.68872103027E+01  0.24519624269E+02  0.76772436902E+01  0.26600693125E+02  0.10566000000E+00 0.  1.
        996    1    1    2    0    0  0.68872103027E+01 -0.24519624269E+02  0.73361222424E+02  0.92360784944E+02  0.50000000000E+02 0.  0.
<mgrwt>
<rscale>  0 0.56112794E+02</rscale>
<asrwt>0</asrwt>
<pdfrwt beam="1">  1       13 0.10000000E+01 0.56112794E+02</pdfrwt>
<pdfrwt beam="2">  1       22 0.18961501E+00 0.56112794E+02</pdfrwt>
<totfact> 0.50363699E-01</totfact>
</mgrwt>
</event>
<event>
 4    1  0.2496748E+000  0.5449495E+02  0.7957747E-01  0.1422503E+00
         13   -1    0    0    0    0  0.00000000000E+00  0.00000000000E+00  0.99999944178E+02  0.99999999999E+02  0.10566000000E+00 0.  1.
         22   -1    0    0    0    0 -0.00000000000E+00 -0.00000000000E+00 -0.16110554164E+02  0.16110554164E+02  0.00000000000E+00 0. -1.
         13    1    1    2    0    0 -0.21555898678E+02  0.22456375915E+01  0.89409210370E+01  0.23444634547E+02  0.10566000000E+00 0. -1.
        996    1    1    2    0    0  0.21555898678E+02 -0.22456375915E+01  0.74948468978E+02  0.92665919615E+02  0.50000000000E+02 0.  0.
<mgrwt>
<rscale>  0 0.54494951E+02</rscale>
<asrwt>0</asrwt>
<pdfrwt beam="1">  1       13 0.10000000E+01 0.54494951E+02</pdfrwt>
<pdfrwt beam="2">  1       22 0.16110578E+00 0.54494951E+02</pdfrwt>
<totfact> 0.67056088E-01</totfact>
</mgrwt>
</event>
<event>
 4    1  0.2496748E+000  0.5496697E+02  0.7957747E-01  0.1420255E+00
         13   -1    0    0    0    0  0.00000000000E+00  0.00000000000E+00  0.99999944179E+02  0.99999999999E+02  0.10566000000E+00 0. -1.
         22   -1    0    0    0    0 -0.00000000000E+00 -0.00000000000E+00 -0.44957883567E+02  0.44957883567E+02  0.00000000000E+00 0.  1.
         13    1    1    2    0    0  0.12116085736E+02  0.19353754324E+02 -0.33619155051E+02  0.40640202883E+02  0.10566000000E+00 0.  1.
        996    1    1    2    0    0 -0.12116085736E+02 -0.19353754324E+02  0.88661215663E+02  0.10431768068E+03  0.50000000000E+02 0.  0.
<mgrwt>
<rscale>  0 0.54966966E+02</rscale>
<asrwt>0</asrwt>
<pdfrwt beam="1">  1       13 0.10000000E+01 0.54966966E+02</pdfrwt>
<pdfrwt beam="2">  1       22 0.44957899E+00 0.54966966E+02</pdfrwt>
<totfact> 0.96998566E-02</totfact>
</mgrwt>
</event>
<event>
 4    1  0.2496748E+000  0.5680627E+02  0.7957747E-01  0.1411745E+00
         13   -1    0    0    0    0  0.00000000000E+00  0.00000000000E+00  0.99999944180E+02  0.10000000000E+03  0.10566000000E+00 0.  1.
         22   -1    0    0    0    0 -0.00000000000E+00 -0.00000000000E+00 -0.17816753499E+02  0.17816753499E+02  0.00000000000E+00 0.  1.
         13    1    1    2    0    0 -0.12629700474E+02  0.23821067979E+02  0.19845235078E+02  0.33478308396E+02  0.10566000000E+00 0. -1.
        996    1    1    2    0    0  0.12629700474E+02 -0.23821067979E+02  0.62337955603E+02  0.84338445104E+02  0.50000000000E+02 0.  0.
<mgrwt>
<rscale>  0 0.56806273E+02</rscale>
<asrwt>0</asrwt>
<pdfrwt beam="1">  1       13 0.10000000E+01 0.56806273E+02</pdfrwt>
<pdfrwt beam="2">  1       22 0.17816776E+00 0.56806273E+02</pdfrwt>
<totfact> 0.56443833E-01</totfact>
</mgrwt>
</event>
<event>
 4    1  0.2496748E+000  0.5213024E+02  0.7957747E-01  0.1434179E+00
         13   -1    0    0    0    0  0.00000000000E+00  0.00000000000E+00  0.99999944180E+02  0.10000000000E+03  0.10566000000E+00 0.  1.
         22   -1    0    0    0    0 -0.00000000000E+00 -0.00000000000E+00 -0.11549387530E+02  0.11549387530E+02  0.00000000000E+00 0. -1.
         13    1    1    2    0    0  0.13036447784E+02  0.69002203475E+01  0.11990346736E+02  0.19008987099E+02  0.10566000000E+00 0. -1.
        996    1    1    2    0    0 -0.13036447784E+02 -0.69002203475E+01  0.76460209914E+02  0.92540400430E+02  0.50000000000E+02 0.  0.
<mgrwt>
<rscale>  0 0.52130241E+02</rscale>
<asrwt>0</asrwt>
<pdfrwt beam="1">  1       13 0.10000000E+01 0.52130241E+02</pdfrwt>
<pdfrwt beam="2">  1       22 0.11549412E+00 0.52130241E+02</pdfrwt>
<totfact> 0.11397010E+00</totfact>
</mgrwt>
</event>
<event>
 4    1  0.2496748E+000  0.5243656E+02  0.7957747E-01  0.1432626E+00
         13   -1    0    0    0    0  0.00000000000E+00  0.00000000000E+00  0.99999944174E+02  0.99999999995E+02  0.10566000000E+00 0. -1.
         22   -1    0    0    0    0 -0.00000000000E+00 -0.00000000000E+00 -0.14860219028E+02  0.14860219028E+02  0.00000000000E+00 0.  1.
         13    1    1    2    0    0 -0.47405648733E+01 -0.15070505536E+02  0.11434623820E+01  0.15840194528E+02  0.10566000000E+00 0.  1.
        996    1    1    2    0    0  0.47405648733E+01  0.15070505536E+02  0.83996262764E+02  0.99020024494E+02  0.50000000000E+02 0.  0.
<mgrwt>
<rscale>  0 0.52436563E+02</rscale>
<asrwt>0</asrwt>
<pdfrwt beam="1">  1       13 0.10000000E+01 0.52436563E+02</pdfrwt>
<pdfrwt beam="2">  1       22 0.14860243E+00 0.52436563E+02</pdfrwt>
<totfact> 0.76541396E-01</totfact>
</mgrwt>
</event>
<event>
 4    1  0.2496748E+000  0.5523069E+02  0.7957747E-01  0.1419011E+00
         13   -1    0    0    0    0  0.00000000000E+00  0.00000000000E+00  0.99999944186E+02  0.10000000001E+03  0.10566000000E+00 0.  1.
         22   -1    0    0    0    0 -0.00000000000E+00 -0.00000000000E+00 -0.28376281540E+02  0.28376281540E+02  0.00000000000E+00 0. -1.
         13    1    1    2    0    0  0.13556872544E+02 -0.19147867903E+02 -0.13377603203E+02  0.27007426199E+02  0.10566000000E+00 0. -1.
        996    1    1    2    0    0 -0.13556872544E+02  0.19147867903E+02  0.85001265849E+02  0.10136885535E+03  0.50000000000E+02 0.  0.
<mgrwt>
<rscale>  0 0.55230695E+02</rscale>
<asrwt>0</asrwt>
<pdfrwt beam="1">  1       13 0.10000000E+01 0.55230695E+02</pdfrwt>
<pdfrwt beam="2">  1       22 0.28376302E+00 0.55230695E+02</pdfrwt>
<totfact> 0.23111424E-01</totfact>
</mgrwt>
</event>
<event>
 4    1  0.2496748E+000  0.5100871E+02  0.7957747E-01  0.1439976E+00
         13   -1    0    0    0    0  0.00000000000E+00  0.00000000000E+00  0.99999944176E+02  0.99999999997E+02  0.10566000000E+00 0.  1.
         22   -1    0    0    0    0 -0.00000000000E+00 -0.00000000000E+00 -0.12295324455E+02  0.12295324455E+02  0.00000000000E+00 0.  1.
         13    1    1    2    0    0 -0.97874742706E+01 -0.24685768228E+01 -0.81849516928E+00  0.10127666192E+02  0.10566000000E+00 0. -1.
        996    1    1    2    0    0  0.97874742706E+01  0.24685768228E+01  0.88523114891E+02  0.10216765826E+03  0.50000000000E+02 0.  0.
<mgrwt>
<rscale>  0 0.51008710E+02</rscale>
<asrwt>0</asrwt>
<pdfrwt beam="1">  1       13 0.10000000E+01 0.51008710E+02</pdfrwt>
<pdfrwt beam="2">  1       22 0.12295349E+00 0.51008710E+02</pdfrwt>
<totfact> 0.10331888E+00</totfact>
</mgrwt>
</event>
<event>
 4    1  0.2496748E+000  0.5124983E+02  0.7957747E-01  0.1438715E+00
         13   -1    0    0    0    0  0.00000000000E+00  0.00000000000E+00  0.99999944177E+02  0.99999999997E+02  0.10566000000E+00 0. -1.
         22   -1    0    0    0    0 -0.00000000000E+00 -0.00000000000E+00 -0.12502057500E+02  0.12502057500E+02  0.00000000000E+00 0. -1.
         13    1    1    2    0    0  0.49915198554E+01  0.10081178039E+02  0.17543847719E+00  0.11251105005E+02  0.10566000000E+00 0.  1.
        996    1    1    2    0    0 -0.49915198554E+01 -0.10081178039E+02  0.87322448200E+02  0.10125095249E+03  0.50000000000E+02 0.  0.
<mgrwt>
<rscale>  0 0.51249833E+02</rscale>
<asrwt>0</asrwt>
<pdfrwt beam="1">  1       13 0.10000000E+01 0.51249833E+02</pdfrwt>
<pdfrwt beam="2">  1       22 0.12502082E+00 0.51249833E+02</pdfrwt>
<totfact> 0.10074006E+00</totfact>
</mgrwt>
</event>
<event>
 4    1  0.2496748E+000  0.5525320E+02  0.7957747E-01  0.1418905E+00
         13   -1    0    0    0    0  0.00000000000E+00  0.00000000000E+00  0.99999944176E+02  0.99999999996E+02  0.10566000000E+00 0. -1.
         22   -1    0    0    0    0 -0.00000000000E+00 -0.00000000000E+00 -0.21671715651E+02  0.21671715651E+02  0.00000000000E+00 0.  1.
         13    1    1    2    0    0  0.75281184473E+01 -0.22276525295E+02 -0.26242514290E+01  0.23660388969E+02  0.10566000000E+00 0.  1.
        996    1    1    2    0    0 -0.75281184473E+01  0.22276525295E+02  0.80952479954E+02  0.98011326678E+02  0.50000000000E+02 0.  0.
<mgrwt>
<rscale>  0 0.55253200E+02</rscale>
<asrwt>0</asrwt>
<pdfrwt beam="1">  1       13 0.10000000E+01 0.55253200E+02</pdfrwt>
<pdfrwt beam="2">  1       22 0.21671738E+00 0.55253200E+02</pdfrwt>
<totfact> 0.39139282E-01</totfact>
</mgrwt>
</event>
<event>
 4    1  0.2496748E+000  0.5161856E+02  0.7957747E-01  0.1436802E+00
         13   -1    0    0    0    0  0.00000000000E+00  0.00000000000E+00  0.99999944177E+02  0.99999999997E+02  0.10566000000E+00 0. -1.
         22   -1    0    0    0    0 -0.00000000000E+00 -0.00000000000E+00 -0.14472139309E+02  0.14472139309E+02  0.00000000000E+00 0. -1.
         13    1    1    2    0    0  0.56918191752E+01  0.11492559401E+02  0.50469897954E+02  0.52073961734E+02  0.10566000000E+00 0.  1.
        996    1    1    2    0    0 -0.56918191752E+01 -0.11492559401E+02  0.35057906914E+02  0.62398177572E+02  0.50000000000E+02 0.  0.
<mgrwt>
<rscale>  0 0.51618560E+02</rscale>
<asrwt>0</asrwt>
<pdfrwt beam="1">  1       13 0.10000000E+01 0.51618560E+02</pdfrwt>
<pdfrwt beam="2">  1       22 0.14472163E+00 0.51618560E+02</pdfrwt>
<totfact> 0.79823245E-01</totfact>
</mgrwt>
</event>
<event>
 4    1  0.2496748E+000  0.5164064E+02  0.7957747E-01  0.1436688E+00
         13   -1    0    0    0    0  0.00000000000E+00  0.00000000000E+00  0.99999944183E+02  0.10000000000E+03  0.10566000000E+00 0. -1.
         22   -1    0    0    0    0 -0.00000000000E+00 -0.00000000000E+00 -0.44413355110E+02  0.44413355110E+02  0.00000000000E+00 0.  1.
         13    1    1    2    0    0 -0.11121450400E+02  0.65626993654E+01 -0.36565177007E+02  0.38778589654E+02  0.10566000000E+00 0.  1.
        996    1    1    2    0    0  0.11121450400E+02 -0.65626993654E+01  0.92151766080E+02  0.10563476546E+03  0.50000000000E+02 0.  0.
<mgrwt>
<rscale>  0 0.51640640E+02</rscale>
<asrwt>0</asrwt>
<pdfrwt beam="1">  1       13 0.10000000E+01 0.51640640E+02</pdfrwt>
<pdfrwt beam="2">  1       22 0.44413371E+00 0.51640640E+02</pdfrwt>
<totfact> 0.99569214E-02</totfact>
</mgrwt>
</event>
<event>
 4    1  0.2496748E+000  0.5177624E+02  0.7957747E-01  0.1435990E+00
         13   -1    0    0    0    0  0.00000000000E+00  0.00000000000E+00  0.99999944181E+02  0.10000000000E+03  0.10566000000E+00 0. -1.
         22   -1    0    0    0    0 -0.00000000000E+00 -0.00000000000E+00 -0.10954756941E+02  0.10954756941E+02  0.00000000000E+00 0. -1.
         13    1    1    2    0    0  0.44159890730E+01 -0.12699528994E+02  0.11391059734E+02  0.17622326806E+02  0.10566000000E+00 0.  1.
        996    1    1    2    0    0 -0.44159890730E+01  0.12699528994E+02  0.77654127506E+02  0.93332430135E+02  0.50000000000E+02 0.  0.
<mgrwt>
<rscale>  0 0.51776240E+02</rscale>
<asrwt>0</asrwt>
<pdfrwt beam="1">  1       13 0.10000000E+01 0.51776240E+02</pdfrwt>
<pdfrwt beam="2">  1       22 0.10954782E+00 0.51776240E+02</pdfrwt>
<totfact> 0.12326197E+00</totfact>
</mgrwt>
</event>
<event>
 4    1  0.2496748E+000  0.7435729E+02  0.7957747E-01  0.1345873E+00
         13   -1    0    0    0    0  0.00000000000E+00  0.00000000000E+00  0.99999944173E+02  0.99999999993E+02  0.10566000000E+00 0.  1.
         22   -1    0    0    0    0 -0.00000000000E+00 -0.00000000000E+00 -0.74299072116E+02  0.74299072116E+02  0.00000000000E+00 0. -1.
         13    1    1    2    0    0 -0.54822178685E+02 -0.48512995820E+01 -0.45455255003E+02  0.71380653925E+02  0.10566000000E+00 0. -1.
        996    1    1    2    0    0  0.54822178685E+02  0.48512995820E+01  0.71156127060E+02  0.10291841818E+03  0.50000000000E+02 0.  0.
<mgrwt>
<rscale>  0 0.74357289E+02</rscale>
<asrwt>0</asrwt>
<pdfrwt beam="1">  1       13 0.10000000E+01 0.74357289E+02</pdfrwt>
<pdfrwt beam="2">  1       22 0.74299079E+00 0.74357289E+02</pdfrwt>
<totfact> 0.52254166E-02</totfact>
</mgrwt>
</event>
<event>
 4    1  0.2496748E+000  0.5115685E+02  0.7957747E-01  0.1439200E+00
         13   -1    0    0    0    0  0.00000000000E+00  0.00000000000E+00  0.99999944185E+02  0.10000000000E+03  0.10566000000E+00 0. -1.
         22   -1    0    0    0    0 -0.00000000000E+00 -0.00000000000E+00 -0.13905974971E+02  0.13905974971E+02  0.00000000000E+00 0. -1.
         13    1    1    2    0    0  0.84745800957E+01 -0.67234266956E+01 -0.29497734931E+01  0.11213175377E+02  0.10566000000E+00 0.  1.
        996    1    1    2    0    0 -0.84745800957E+01  0.67234266956E+01  0.89043742707E+02  0.10269279960E+03  0.50000000000E+02 0.  0.
<mgrwt>
<rscale>  0 0.51156847E+02</rscale>
<asrwt>0</asrwt>
<pdfrwt beam="1">  1       13 0.10000000E+01 0.51156847E+02</pdfrwt>
<pdfrwt beam="2">  1       22 0.13905999E+00 0.51156847E+02</pdfrwt>
<totfact> 0.85099679E-01</totfact>
</mgrwt>
</event>
<event>
 4    1  0.2496748E+000  0.5198493E+02  0.7957747E-01  0.1434920E+00
         13   -1    0    0    0    0  0.00000000000E+00  0.00000000000E+00  0.99999944169E+02  0.99999999989E+02  0.10566000000E+00 0.  1.
         22   -1    0    0    0    0 -0.00000000000E+00 -0.00000000000E+00 -0.33663656443E+02  0.33663656443E+02  0.00000000000E+00 0. -1.
         13    1    1    2    0    0 -0.13025514175E+02 -0.57243935189E+01 -0.24887387243E+02  0.28667506143E+02  0.10566000000E+00 0. -1.
        996    1    1    2    0    0  0.13025514175E+02  0.57243935189E+01  0.91223674968E+02  0.10499615029E+03  0.50000000000E+02 0.  0.
<mgrwt>
<rscale>  0 0.51984928E+02</rscale>
<asrwt>0</asrwt>
<pdfrwt beam="1">  1       13 0.10000000E+01 0.51984928E+02</pdfrwt>
<pdfrwt beam="2">  1       22 0.33663675E+00 0.51984928E+02</pdfrwt>
<totfact> 0.16819446E-01</totfact>
</mgrwt>
</event>
<event>
 4    1  0.2496748E+000  0.5822677E+02  0.7957747E-01  0.1405427E+00
         13   -1    0    0    0    0  0.00000000000E+00  0.00000000000E+00  0.99999944181E+02  0.10000000000E+03  0.10566000000E+00 0. -1.
         22   -1    0    0    0    0 -0.00000000000E+00 -0.00000000000E+00 -0.19389849359E+02  0.19389849359E+02  0.00000000000E+00 0.  1.
         13    1    1    2    0    0  0.17244867429E+02  0.24350995210E+02  0.27700826071E+02  0.40714903284E+02  0.10566000000E+00 0.  1.
        996    1    1    2    0    0 -0.17244867429E+02 -0.24350995210E+02  0.52909268751E+02  0.78674946076E+02  0.50000000000E+02 0.  0.
<mgrwt>
<rscale>  0 0.58226767E+02</rscale>
<asrwt>0</asrwt>
<pdfrwt beam="1">  1       13 0.10000000E+01 0.58226767E+02</pdfrwt>
<pdfrwt beam="2">  1       22 0.19389872E+00 0.58226767E+02</pdfrwt>
<totfact> 0.48503193E-01</totfact>
</mgrwt>
</event>
<event>
 4    1  0.2496748E+000  0.5136331E+02  0.7957747E-01  0.1438124E+00
         13   -1    0    0    0    0  0.00000000000E+00  0.00000000000E+00  0.99999944177E+02  0.99999999997E+02  0.10566000000E+00 0.  1.
         22   -1    0    0    0    0 -0.00000000000E+00 -0.00000000000E+00 -0.99957460470E+01  0.99957460470E+01  0.00000000000E+00 0.  1.
         13    1    1    2    0    0  0.10874557836E+02 -0.44647063991E+01  0.19425763100E+02  0.22705969423E+02  0.10566000000E+00 0. -1.
        996    1    1    2    0    0 -0.10874557836E+02  0.44647063991E+01  0.70578435030E+02  0.87289776622E+02  0.50000000000E+02 0.  0.
<mgrwt>
<rscale>  0 0.51363310E+02</rscale>
<asrwt>0</asrwt>
<pdfrwt beam="1">  1       13 0.10000000E+01 0.51363310E+02</pdfrwt>
<pdfrwt beam="2">  1       22 0.99957712E-01 0.51363310E+02</pdfrwt>
<totfact> 0.14084869E+00</totfact>
</mgrwt>
</event>
<event>
 4    1  0.2496748E+000  0.5110300E+02  0.7957747E-01  0.1439481E+00
         13   -1    0    0    0    0  0.00000000000E+00  0.00000000000E+00  0.99999944181E+02  0.10000000000E+03  0.10566000000E+00 0. -1.
         22   -1    0    0    0    0 -0.00000000000E+00 -0.00000000000E+00 -0.20473140794E+02  0.20473140794E+02  0.00000000000E+00 0. -1.
         13    1    1    2    0    0  0.10532310494E+02 -0.76595203880E+00 -0.11790861013E+02  0.15828828583E+02  0.10566000000E+00 0.  1.
        996    1    1    2    0    0 -0.10532310494E+02  0.76595203880E+00  0.91317664400E+02  0.10464431221E+03  0.50000000000E+02 0.  0.
<mgrwt>
<rscale>  0 0.51102996E+02</rscale>
<asrwt>0</asrwt>
<pdfrwt beam="1">  1       13 0.10000000E+01 0.51102996E+02</pdfrwt>
<pdfrwt beam="2">  1       22 0.20473163E+00 0.51102996E+02</pdfrwt>
<totfact> 0.43296891E-01</totfact>
</mgrwt>
</event>
<event>
 4    1  0.2496748E+000  0.5151409E+02  0.7957747E-01  0.1437342E+00
         13   -1    0    0    0    0  0.00000000000E+00  0.00000000000E+00  0.99999944179E+02  0.99999999999E+02  0.10566000000E+00 0.  1.
         22   -1    0    0    0    0 -0.00000000000E+00 -0.00000000000E+00 -0.14255339893E+02  0.14255339893E+02  0.00000000000E+00 0.  1.
         13    1    1    2    0    0  0.10733961336E+01 -0.12351073877E+02 -0.19491839962E+01  0.12550366029E+02  0.10566000000E+00 0. -1.
        996    1    1    2    0    0 -0.10733961336E+01  0.12351073877E+02  0.87693788283E+02  0.10170497386E+03  0.50000000000E+02 0.  0.
<mgrwt>
<rscale>  0 0.51514087E+02</rscale>
<asrwt>0</asrwt>
<pdfrwt beam="1">  1       13 0.10000000E+01 0.51514087E+02</pdfrwt>
<pdfrwt beam="2">  1       22 0.14255364E+00 0.51514087E+02</pdfrwt>
<totfact> 0.81801519E-01</totfact>
</mgrwt>
</event>
<event>
 4    1  0.2496748E+000  0.5152001E+02  0.7957747E-01  0.1437311E+00
         13   -1    0    0    0    0  0.00000000000E+00  0.00000000000E+00  0.99999944170E+02  0.99999999990E+02  0.10566000000E+00 0.  1.
         22   -1    0    0    0    0 -0.00000000000E+00 -0.00000000000E+00 -0.30608734581E+02  0.30608734581E+02  0.00000000000E+00 0. -1.
         13    1    1    2    0    0 -0.99538150450E+01  0.74318844675E+01 -0.22247247845E+02  0.25480630710E+02  0.10566000000E+00 0. -1.
        996    1    1    2    0    0  0.99538150450E+01 -0.74318844675E+01  0.91638457434E+02  0.10512810386E+03  0.50000000000E+02 0.  0.
<mgrwt>
<rscale>  0 0.51520009E+02</rscale>
<asrwt>0</asrwt>
<pdfrwt beam="1">  1       13 0.10000000E+01 0.51520009E+02</pdfrwt>
<pdfrwt beam="2">  1       22 0.30608754E+00 0.51520009E+02</pdfrwt>
<totfact> 0.19933273E-01</totfact>
</mgrwt>
</event>
<event>
 4    1  0.2496748E+000  0.5255272E+02  0.7957747E-01  0.1432040E+00
         13   -1    0    0    0    0  0.00000000000E+00  0.00000000000E+00  0.99999944181E+02  0.10000000000E+03  0.10566000000E+00 0.  1.
         22   -1    0    0    0    0 -0.00000000000E+00 -0.00000000000E+00 -0.15557343580E+02  0.15557343580E+02  0.00000000000E+00 0.  1.
         13    1    1    2    0    0  0.10968330834E+01 -0.16142658039E+02  0.98280549812E-01  0.16180521453E+02  0.10566000000E+00 0. -1.
        996    1    1    2    0    0 -0.10968330834E+01  0.16142658039E+02  0.84344320051E+02  0.99376822128E+02  0.50000000000E+02 0.  0.
<mgrwt>
<rscale>  0 0.52552721E+02</rscale>
<asrwt>0</asrwt>
<pdfrwt beam="1">  1       13 0.10000000E+01 0.52552721E+02</pdfrwt>
<pdfrwt beam="2">  1       22 0.15557367E+00 0.52552721E+02</pdfrwt>
<totfact> 0.70901528E-01</totfact>
</mgrwt>
</event>
<event>
 4    1  0.2496748E+000  0.7621836E+02  0.7957747E-01  0.1340139E+00
         13   -1    0    0    0    0  0.00000000000E+00  0.00000000000E+00  0.99999944180E+02  0.10000000000E+03  0.10566000000E+00 0.  1.
         22   -1    0    0    0    0 -0.00000000000E+00 -0.00000000000E+00 -0.49423598868E+02  0.49423598868E+02  0.00000000000E+00 0. -1.
         13    1    1    2    0    0  0.44282795399E+02 -0.36718835816E+02 -0.75592593254E+00  0.57531047792E+02  0.10566000000E+00 0. -1.
        996    1    1    2    0    0 -0.44282795399E+02  0.36718835816E+02  0.51332271244E+02  0.91892551075E+02  0.50000000000E+02 0.  0.
<mgrwt>
<rscale>  0 0.76218363E+02</rscale>
<asrwt>0</asrwt>
<pdfrwt beam="1">  1       13 0.10000000E+01 0.76218363E+02</pdfrwt>
<pdfrwt beam="2">  1       22 0.49423613E+00 0.76218363E+02</pdfrwt>
<totfact> 0.76703539E-02</totfact>
</mgrwt>
</event>
<event>
 4    1  0.2496748E+000  0.5521713E+02  0.7957747E-01  0.1419075E+00
         13   -1    0    0    0    0  0.00000000000E+00  0.00000000000E+00  0.99999944172E+02  0.99999999993E+02  0.10566000000E+00 0. -1.
         22   -1    0    0    0    0 -0.00000000000E+00 -0.00000000000E+00 -0.18474394253E+02  0.18474394253E+02  0.00000000000E+00 0. -1.
         13    1    1    2    0    0 -0.10567386934E+01  0.23405440826E+02  0.47523077819E+01  0.23906629838E+02  0.10566000000E+00 0.  1.
        996    1    1    2    0    0  0.10567386934E+01 -0.23405440826E+02  0.76773242137E+02  0.94567764408E+02  0.50000000000E+02 0.  0.
<mgrwt>
<rscale>  0 0.55217129E+02</rscale>
<asrwt>0</asrwt>
<pdfrwt beam="1">  1       13 0.10000000E+01 0.55217129E+02</pdfrwt>
<pdfrwt beam="2">  1       22 0.18474417E+00 0.55217129E+02</pdfrwt>
<totfact> 0.52729797E-01</totfact>
</mgrwt>
</event>
<event>
 4    1  0.2496748E+000  0.5847623E+02  0.7957747E-01  0.1404340E+00
         13   -1    0    0    0    0  0.00000000000E+00  0.00000000000E+00  0.99999944183E+02  0.10000000000E+03  0.10566000000E+00 0.  1.
         22   -1    0    0    0    0 -0.00000000000E+00 -0.00000000000E+00 -0.36117612132E+02  0.36117612132E+02  0.00000000000E+00 0. -1.
         13    1    1    2    0    0  0.80718626456E+01  0.29228654424E+02 -0.18177612393E+02  0.35354009142E+02  0.10566000000E+00 0. -1.
        996    1    1    2    0    0 -0.80718626456E+01 -0.29228654424E+02  0.82059944445E+02  0.10076360299E+03  0.50000000000E+02 0.  0.
<mgrwt>
<rscale>  0 0.58476228E+02</rscale>
<asrwt>0</asrwt>
<pdfrwt beam="1">  1       13 0.10000000E+01 0.58476228E+02</pdfrwt>
<pdfrwt beam="2">  1       22 0.36117630E+00 0.58476228E+02</pdfrwt>
<totfact> 0.14963974E-01</totfact>
</mgrwt>
</event>
<event>
 4    1  0.2496748E+000  0.5478602E+02  0.7957747E-01  0.1421114E+00
         13   -1    0    0    0    0  0.00000000000E+00  0.00000000000E+00  0.99999944180E+02  0.10000000000E+03  0.10566000000E+00 0.  1.
         22   -1    0    0    0    0 -0.00000000000E+00 -0.00000000000E+00 -0.15060723118E+02  0.15060723118E+02  0.00000000000E+00 0.  1.
         13    1    1    2    0    0  0.21992324795E+02  0.42244299142E+01  0.30377239246E+02  0.37739846134E+02  0.10566000000E+00 0. -1.
        996    1    1    2    0    0 -0.21992324795E+02 -0.42244299142E+01  0.54561981815E+02  0.77320876984E+02  0.50000000000E+02 0.  0.
<mgrwt>
<rscale>  0 0.54786022E+02</rscale>
<asrwt>0</asrwt>
<pdfrwt beam="1">  1       13 0.10000000E+01 0.54786022E+02</pdfrwt>
<pdfrwt beam="2">  1       22 0.15060747E+00 0.54786022E+02</pdfrwt>
<totfact> 0.75201538E-01</totfact>
</mgrwt>
</event>
<event>
 4    1  0.2496748E+000  0.5188077E+02  0.7957747E-01  0.1435453E+00
         13   -1    0    0    0    0  0.00000000000E+00  0.00000000000E+00  0.99999944192E+02  0.10000000001E+03  0.10566000000E+00 0.  1.
         22   -1    0    0    0    0 -0.00000000000E+00 -0.00000000000E+00 -0.17329488824E+02  0.17329488824E+02  0.00000000000E+00 0. -1.
         13    1    1    2    0    0  0.13540447268E+02  0.28758334503E+01 -0.56071689994E+01  0.14935382100E+02  0.10566000000E+00 0. -1.
        996    1    1    2    0    0 -0.13540447268E+02 -0.28758334503E+01  0.88277624368E+02  0.10239410674E+03  0.50000000000E+02 0.  0.
<mgrwt>
<rscale>  0 0.51880768E+02</rscale>
<asrwt>0</asrwt>
<pdfrwt beam="1">  1       13 0.10000000E+01 0.51880768E+02</pdfrwt>
<pdfrwt beam="2">  1       22 0.17329512E+00 0.51880768E+02</pdfrwt>
<totfact> 0.58766301E-01</totfact>
</mgrwt>
</event>
<event>
 4    1  0.2496748E+000  0.5221568E+02  0.7957747E-01  0.1433744E+00
         13   -1    0    0    0    0  0.00000000000E+00  0.00000000000E+00  0.99999944179E+02  0.10000000000E+03  0.10566000000E+00 0. -1.
         22   -1    0    0    0    0 -0.00000000000E+00 -0.00000000000E+00 -0.28673231437E+02  0.28673231437E+02  0.00000000000E+00 0.  1.
         13    1    1    2    0    0  0.15038768137E+02  0.55949200868E+00 -0.19061798019E+02  0.24286640075E+02  0.10566000000E+00 0.  1.
        996    1    1    2    0    0 -0.15038768137E+02 -0.55949200868E+00  0.90388510762E+02  0.10438659136E+03  0.50000000000E+02 0.  0.
<mgrwt>
<rscale>  0 0.52215683E+02</rscale>
<asrwt>0</asrwt>
<pdfrwt beam="1">  1       13 0.10000000E+01 0.52215683E+02</pdfrwt>
<pdfrwt beam="2">  1       22 0.28673251E+00 0.52215683E+02</pdfrwt>
<totfact> 0.22561535E-01</totfact>
</mgrwt>
</event>
<event>
 4    1  0.2496748E+000  0.5451644E+02  0.7957747E-01  0.1422400E+00
         13   -1    0    0    0    0  0.00000000000E+00  0.00000000000E+00  0.99999944180E+02  0.10000000000E+03  0.10566000000E+00 0. -1.
         22   -1    0    0    0    0 -0.00000000000E+00 -0.00000000000E+00 -0.19908221345E+02  0.19908221345E+02  0.00000000000E+00 0.  1.
         13    1    1    2    0    0  0.12960756742E+02  0.17437333672E+02 -0.15010837363E+01  0.21778572895E+02  0.10566000000E+00 0.  1.
        996    1    1    2    0    0 -0.12960756742E+02 -0.17437333672E+02  0.81592806571E+02  0.98129648450E+02  0.50000000000E+02 0.  0.
<mgrwt>
<rscale>  0 0.54516436E+02</rscale>
<asrwt>0</asrwt>
<pdfrwt beam="1">  1       13 0.10000000E+01 0.54516436E+02</pdfrwt>
<pdfrwt beam="2">  1       22 0.19908244E+00 0.54516436E+02</pdfrwt>
<totfact> 0.45900192E-01</totfact>
</mgrwt>
</event>
<event>
 4    1  0.2496748E+000  0.5105742E+02  0.7957747E-01  0.1439720E+00
         13   -1    0    0    0    0  0.00000000000E+00  0.00000000000E+00  0.99999944181E+02  0.10000000000E+03  0.10566000000E+00 0.  1.
         22   -1    0    0    0    0 -0.00000000000E+00 -0.00000000000E+00 -0.14031179794E+02  0.14031179794E+02  0.00000000000E+00 0. -1.
         13    1    1    2    0    0 -0.31018676026E+01  0.98609677111E+01 -0.35877441556E+01  0.10942729960E+02  0.10566000000E+00 0. -1.
        996    1    1    2    0    0  0.31018676026E+01 -0.98609677111E+01  0.89556508543E+02  0.10308844983E+03  0.50000000000E+02 0.  0.
<mgrwt>
<rscale>  0 0.51057421E+02</rscale>
<asrwt>0</asrwt>
<pdfrwt beam="1">  1       13 0.10000000E+01 0.51057421E+02</pdfrwt>
<pdfrwt beam="2">  1       22 0.14031204E+00 0.51057421E+02</pdfrwt>
<totfact> 0.83856200E-01</totfact>
</mgrwt>
</event>
<event>
 4    1  0.2496748E+000  0.5599321E+02  0.7957747E-01  0.1415459E+00
         13   -1    0    0    0    0  0.00000000000E+00  0.00000000000E+00  0.99999944181E+02  0.10000000000E+03  0.10566000000E+00 0.  1.
         22   -1    0    0    0    0 -0.00000000000E+00 -0.00000000000E+00 -0.23267101778E+02  0.23267101778E+02  0.00000000000E+00 0. -1.
         13    1    1    2    0    0 -0.23725437717E+02  0.85054829736E+01 -0.34808423848E+01  0.25443409033E+02  0.10566000000E+00 0. -1.
        996    1    1    2    0    0  0.23725437717E+02 -0.85054829736E+01  0.80213684787E+02  0.97823692746E+02  0.50000000000E+02 0.  0.
<mgrwt>
<rscale>  0 0.55993211E+02</rscale>
<asrwt>0</asrwt>
<pdfrwt beam="1">  1       13 0.10000000E+01 0.55993211E+02</pdfrwt>
<pdfrwt beam="2">  1       22 0.23267123E+00 0.55993211E+02</pdfrwt>
<totfact> 0.34150348E-01</totfact>
</mgrwt>
</event>
<event>
 4    1  0.2496748E+000  0.7546918E+02  0.7957747E-01  0.1342424E+00
         13   -1    0    0    0    0  0.00000000000E+00  0.00000000000E+00  0.99999944185E+02  0.10000000001E+03  0.10566000000E+00 0.  1.
         22   -1    0    0    0    0 -0.00000000000E+00 -0.00000000000E+00 -0.63102365174E+02  0.63102365174E+02  0.00000000000E+00 0. -1.
         13    1    1    2    0    0 -0.14477821795E+02  0.54644208922E+02 -0.28438988795E+02  0.63280203385E+02  0.10566000000E+00 0. -1.
        996    1    1    2    0    0  0.14477821795E+02 -0.54644208922E+02  0.65336567806E+02  0.99822161795E+02  0.50000000000E+02 0.  0.
<mgrwt>
<rscale>  0 0.75469178E+02</rscale>
<asrwt>0</asrwt>
<pdfrwt beam="1">  1       13 0.10000000E+01 0.75469178E+02</pdfrwt>
<pdfrwt beam="2">  1       22 0.63102376E+00 0.75469178E+02</pdfrwt>
<totfact> 0.79338083E-02</totfact>
</mgrwt>
</event>
<event>
 4    1  0.2496748E+000  0.5113254E+02  0.7957747E-01  0.1439327E+00
         13   -1    0    0    0    0  0.00000000000E+00  0.00000000000E+00  0.99999944177E+02  0.99999999998E+02  0.10566000000E+00 0. -1.
         22   -1    0    0    0    0 -0.00000000000E+00 -0.00000000000E+00 -0.98972693208E+01  0.98972693208E+01  0.00000000000E+00 0. -1.
         13    1    1    2    0    0  0.10270303117E+02 -0.30095847759E+01  0.88180222009E+01  0.13867422479E+02  0.10566000000E+00 0.  1.
        996    1    1    2    0    0 -0.10270303117E+02  0.30095847759E+01  0.81284652656E+02  0.96029846839E+02  0.50000000000E+02 0.  0.
<mgrwt>
<rscale>  0 0.51132541E+02</rscale>
<asrwt>0</asrwt>
<pdfrwt beam="1">  1       13 0.10000000E+01 0.51132541E+02</pdfrwt>
<pdfrwt beam="2">  1       22 0.98972945E-01 0.51132541E+02</pdfrwt>
<totfact> 0.14279936E+00</totfact>
</mgrwt>
</event>
<event>
 4    1  0.2496748E+000  0.5219020E+02  0.7957747E-01  0.1433874E+00
         13   -1    0    0    0    0  0.00000000000E+00  0.00000000000E+00  0.99999944176E+02  0.99999999996E+02  0.10566000000E+00 0. -1.
         22   -1    0    0    0    0 -0.00000000000E+00 -0.00000000000E+00 -0.19110331154E+02  0.19110331154E+02  0.00000000000E+00 0. -1.
         13    1    1    2    0    0  0.14598930932E+02  0.32692076113E+01 -0.72907596386E+01  0.16642801535E+02  0.10566000000E+00 0.  1.
        996    1    1    2    0    0 -0.14598930932E+02 -0.32692076113E+01  0.88180372661E+02  0.10246752962E+03  0.50000000000E+02 0.  0.
<mgrwt>
<rscale>  0 0.52190195E+02</rscale>
<asrwt>0</asrwt>
<pdfrwt beam="1">  1       13 0.10000000E+01 0.52190195E+02</pdfrwt>
<pdfrwt beam="2">  1       22 0.19110354E+00 0.52190195E+02</pdfrwt>
<totfact> 0.49304703E-01</totfact>
</mgrwt>
</event>
<event>
 4    1  0.2496748E+000  0.5382815E+02  0.7957747E-01  0.1425723E+00
         13   -1    0    0    0    0  0.00000000000E+00  0.00000000000E+00  0.99999944182E+02  0.10000000000E+03  0.10566000000E+00 0.  1.
         22   -1    0    0    0    0 -0.00000000000E+00 -0.00000000000E+00 -0.28453756913E+02  0.28453756913E+02  0.00000000000E+00 0. -1.
         13    1    1    2    0    0 -0.73517213157E+01 -0.18531639030E+02 -0.16081044180E+02  0.25614070301E+02  0.10566000000E+00 0. -1.
        996    1    1    2    0    0  0.73517213157E+01  0.18531639030E+02  0.87627231449E+02  0.10283968661E+03  0.50000000000E+02 0.  0.
<mgrwt>
<rscale>  0 0.53828147E+02</rscale>
<asrwt>0</asrwt>
<pdfrwt beam="1">  1       13 0.10000000E+01 0.53828147E+02</pdfrwt>
<pdfrwt beam="2">  1       22 0.28453777E+00 0.53828147E+02</pdfrwt>
<totfact> 0.22947380E-01</totfact>
</mgrwt>
</event>
<event>
 4    1  0.2496748E+000  0.5366990E+02  0.7957747E-01  0.1426496E+00
         13   -1    0    0    0    0  0.00000000000E+00  0.00000000000E+00  0.99999944176E+02  0.99999999996E+02  0.10566000000E+00 0.  1.
         22   -1    0    0    0    0 -0.00000000000E+00 -0.00000000000E+00 -0.14146394499E+02  0.14146394499E+02  0.00000000000E+00 0.  1.
         13    1    1    2    0    0  0.77557123270E+01 -0.17897114664E+02  0.35745371456E+02  0.40721008479E+02  0.10566000000E+00 0. -1.
        996    1    1    2    0    0 -0.77557123270E+01  0.17897114664E+02  0.50108178220E+02  0.73425386016E+02  0.50000000000E+02 0.  0.
<mgrwt>
<rscale>  0 0.53669896E+02</rscale>
<asrwt>0</asrwt>
<pdfrwt beam="1">  1       13 0.10000000E+01 0.53669896E+02</pdfrwt>
<pdfrwt beam="2">  1       22 0.14146418E+00 0.53669896E+02</pdfrwt>
<totfact> 0.83200464E-01</totfact>
</mgrwt>
</event>
<event>
 4    1  0.2496748E+000  0.5371564E+02  0.7957747E-01  0.1426272E+00
         13   -1    0    0    0    0  0.00000000000E+00  0.00000000000E+00  0.99999944171E+02  0.99999999991E+02  0.10566000000E+00 0.  1.
         22   -1    0    0    0    0 -0.00000000000E+00 -0.00000000000E+00 -0.74097479644E+02  0.74097479644E+02  0.00000000000E+00 0. -1.
         13    1    1    2    0    0  0.18887472210E+02 -0.53510512074E+01 -0.65335722790E+02  0.68221244434E+02  0.10566000000E+00 0. -1.
        996    1    1    2    0    0 -0.18887472210E+02  0.53510512074E+01  0.91238187317E+02  0.10587623520E+03  0.50000000000E+02 0.  0.
<mgrwt>
<rscale>  0 0.53715643E+02</rscale>
<asrwt>0</asrwt>
<pdfrwt beam="1">  1       13 0.10000000E+01 0.53715643E+02</pdfrwt>
<pdfrwt beam="2">  1       22 0.74097487E+00 0.53715643E+02</pdfrwt>
<totfact> 0.53254303E-02</totfact>
</mgrwt>
</event>
<event>
 4    1  0.2496748E+000  0.5249753E+02  0.7957747E-01  0.1432318E+00
         13   -1    0    0    0    0  0.00000000000E+00  0.00000000000E+00  0.99999944182E+02  0.10000000000E+03  0.10566000000E+00 0. -1.
         22   -1    0    0    0    0 -0.00000000000E+00 -0.00000000000E+00 -0.11785497592E+02  0.11785497592E+02  0.00000000000E+00 0. -1.
         13    1    1    2    0    0  0.13511090941E+02  0.85697529916E+01  0.23972231639E+02  0.28821334087E+02  0.10566000000E+00 0.  1.
        996    1    1    2    0    0 -0.13511090941E+02 -0.85697529916E+01  0.64242214951E+02  0.82964163508E+02  0.50000000000E+02 0.  0.
<mgrwt>
<rscale>  0 0.52497526E+02</rscale>
<asrwt>0</asrwt>
<pdfrwt beam="1">  1       13 0.10000000E+01 0.52497526E+02</pdfrwt>
<pdfrwt beam="2">  1       22 0.11785522E+00 0.52497526E+02</pdfrwt>
<totfact> 0.11061829E+00</totfact>
</mgrwt>
</event>
<event>
 4    1  0.2496748E+000  0.6029653E+02  0.7957747E-01  0.1396592E+00
         13   -1    0    0    0    0  0.00000000000E+00  0.00000000000E+00  0.99999944168E+02  0.99999999988E+02  0.10566000000E+00 0.  1.
         22   -1    0    0    0    0 -0.00000000000E+00 -0.00000000000E+00 -0.25986366153E+02  0.25986366153E+02  0.00000000000E+00 0. -1.
         13    1    1    2    0    0 -0.22568548530E+02  0.25026617801E+02  0.45535750549E+01  0.34006134610E+02  0.10566000000E+00 0. -1.
        996    1    1    2    0    0  0.22568548530E+02 -0.25026617801E+02  0.69460002960E+02  0.91980231531E+02  0.50000000000E+02 0.  0.
<mgrwt>
<rscale>  0 0.60296525E+02</rscale>
<asrwt>0</asrwt>
<pdfrwt beam="1">  1       13 0.10000000E+01 0.60296525E+02</pdfrwt>
<pdfrwt beam="2">  1       22 0.25986387E+00 0.60296525E+02</pdfrwt>
<totfact> 0.27638568E-01</totfact>
</mgrwt>
</event>
<event>
 4    1  0.2496748E+000  0.5146970E+02  0.7957747E-01  0.1437572E+00
         13   -1    0    0    0    0  0.00000000000E+00  0.00000000000E+00  0.99999944181E+02  0.10000000000E+03  0.10566000000E+00 0.  1.
         22   -1    0    0    0    0 -0.00000000000E+00 -0.00000000000E+00 -0.12082398256E+02  0.12082398256E+02  0.00000000000E+00 0. -1.
         13    1    1    2    0    0 -0.11989421259E+02  0.23203775499E+01  0.26683061340E+01  0.12500455822E+02  0.10566000000E+00 0. -1.
        996    1    1    2    0    0  0.11989421259E+02 -0.23203775499E+01  0.85249239791E+02  0.99581942435E+02  0.50000000000E+02 0.  0.
<mgrwt>
<rscale>  0 0.51469703E+02</rscale>
<asrwt>0</asrwt>
<pdfrwt beam="1">  1       13 0.10000000E+01 0.51469703E+02</pdfrwt>
<pdfrwt beam="2">  1       22 0.12082423E+00 0.51469703E+02</pdfrwt>
<totfact> 0.10624541E+00</totfact>
</mgrwt>
</event>
<event>
 4    1  0.2496748E+000  0.5196907E+02  0.7957747E-01  0.1435001E+00
         13   -1    0    0    0    0  0.00000000000E+00  0.00000000000E+00  0.99999944179E+02  0.99999999999E+02  0.10566000000E+00 0.  1.
         22   -1    0    0    0    0 -0.00000000000E+00 -0.00000000000E+00 -0.21527426256E+02  0.21527426256E+02  0.00000000000E+00 0. -1.
         13    1    1    2    0    0  0.75910585781E+01 -0.11964949206E+02 -0.11080039075E+02  0.17987846168E+02  0.10566000000E+00 0. -1.
        996    1    1    2    0    0 -0.75910585781E+01  0.11964949206E+02  0.89552556998E+02  0.10353958009E+03  0.50000000000E+02 0.  0.
<mgrwt>
<rscale>  0 0.51969069E+02</rscale>
<asrwt>0</asrwt>
<pdfrwt beam="1">  1       13 0.10000000E+01 0.51969069E+02</pdfrwt>
<pdfrwt beam="2">  1       22 0.21527448E+00 0.51969069E+02</pdfrwt>
<totfact> 0.39426264E-01</totfact>
</mgrwt>
</event>
<event>
 4    1  0.2496748E+000  0.7341396E+02  0.7957747E-01  0.1348854E+00
         13   -1    0    0    0    0  0.00000000000E+00  0.00000000000E+00  0.99999944190E+02  0.10000000001E+03  0.10566000000E+00 0. -1.
         22   -1    0    0    0    0 -0.00000000000E+00 -0.00000000000E+00 -0.70916664681E+02  0.70916664681E+02  0.00000000000E+00 0.  1.
         13    1    1    2    0    0 -0.53497985469E+01 -0.53488209173E+02 -0.42388843680E+02  0.68457534995E+02  0.10566000000E+00 0.  1.
        996    1    1    2    0    0  0.53497985469E+01  0.53488209173E+02  0.71472123189E+02  0.10245912970E+03  0.50000000000E+02 0.  0.
<mgrwt>
<rscale>  0 0.73413956E+02</rscale>
<asrwt>0</asrwt>
<pdfrwt beam="1">  1       13 0.10000000E+01 0.73413956E+02</pdfrwt>
<pdfrwt beam="2">  1       22 0.70916673E+00 0.73413956E+02</pdfrwt>
<totfact> 0.69830013E-02</totfact>
</mgrwt>
</event>
<event>
 4    1  0.2496748E+000  0.5107665E+02  0.7957747E-01  0.1439619E+00
         13   -1    0    0    0    0  0.00000000000E+00  0.00000000000E+00  0.99999944183E+02  0.10000000000E+03  0.10566000000E+00 0. -1.
         22   -1    0    0    0    0 -0.00000000000E+00 -0.00000000000E+00 -0.21071932781E+02  0.21071932781E+02  0.00000000000E+00 0. -1.
         13    1    1    2    0    0  0.73263170030E+01 -0.74262665197E+01 -0.12538212092E+02  0.16310802609E+02  0.10566000000E+00 0.  1.
        996    1    1    2    0    0 -0.73263170030E+01  0.74262665197E+01  0.91466223494E+02  0.10476113018E+03  0.50000000000E+02 0.  0.
<mgrwt>
<rscale>  0 0.51076652E+02</rscale>
<asrwt>0</asrwt>
<pdfrwt beam="1">  1       13 0.10000000E+01 0.51076652E+02</pdfrwt>
<pdfrwt beam="2">  1       22 0.21071955E+00 0.51076652E+02</pdfrwt>
<totfact> 0.41000621E-01</totfact>
</mgrwt>
</event>
<event>
 4    1  0.2496748E+000  0.5147350E+02  0.7957747E-01  0.1437552E+00
         13   -1    0    0    0    0  0.00000000000E+00  0.00000000000E+00  0.99999944176E+02  0.99999999997E+02  0.10566000000E+00 0.  1.
         22   -1    0    0    0    0 -0.00000000000E+00 -0.00000000000E+00 -0.11660702299E+02  0.11660702299E+02  0.00000000000E+00 0.  1.
         13    1    1    2    0    0  0.11935348689E+02  0.26586263121E+01  0.40207347003E+01  0.12872385706E+02  0.10566000000E+00 0. -1.
        996    1    1    2    0    0 -0.11935348689E+02 -0.26586263121E+01  0.84318507177E+02  0.98788316590E+02  0.50000000000E+02 0.  0.
<mgrwt>
<rscale>  0 0.51473497E+02</rscale>
<asrwt>0</asrwt>
<pdfrwt beam="1">  1       13 0.10000000E+01 0.51473497E+02</pdfrwt>
<pdfrwt beam="2">  1       22 0.11660727E+00 0.51473497E+02</pdfrwt>
<totfact> 0.11216078E+00</totfact>
</mgrwt>
</event>
<event>
 4    1  0.2496748E+000  0.5214510E+02  0.7957747E-01  0.1434103E+00
         13   -1    0    0    0    0  0.00000000000E+00  0.00000000000E+00  0.99999944184E+02  0.10000000000E+03  0.10566000000E+00 0. -1.
         22   -1    0    0    0    0 -0.00000000000E+00 -0.00000000000E+00 -0.11655196419E+02  0.11655196419E+02  0.00000000000E+00 0. -1.
         13    1    1    2    0    0 -0.14357131808E+02 -0.36033687276E+01  0.11299946026E+02  0.18622874218E+02  0.10566000000E+00 0.  1.
        996    1    1    2    0    0  0.14357131808E+02  0.36033687276E+01  0.77044801738E+02  0.93032322205E+02  0.50000000000E+02 0.  0.
<mgrwt>
<rscale>  0 0.52145100E+02</rscale>
<asrwt>0</asrwt>
<pdfrwt beam="1">  1       13 0.10000000E+01 0.52145100E+02</pdfrwt>
<pdfrwt beam="2">  1       22 0.11655221E+00 0.52145100E+02</pdfrwt>
<totfact> 0.11241222E+00</totfact>
</mgrwt>
</event>
<event>
 4    1  0.2496748E+000  0.5109793E+02  0.7957747E-01  0.1439508E+00
         13   -1    0    0    0    0  0.00000000000E+00  0.00000000000E+00  0.99999944180E+02  0.10000000000E+03  0.10566000000E+00 0. -1.
         22   -1    0    0    0    0 -0.00000000000E+00 -0.00000000000E+00 -0.10128446335E+02  0.10128446335E+02  0.00000000000E+00 0. -1.
         13    1    1    2    0    0  0.86435386796E+01  0.60238903889E+01  0.66105040851E+01  0.12438164841E+02  0.10566000000E+00 0.  1.
        996    1    1    2    0    0 -0.86435386796E+01 -0.60238903889E+01  0.83260993760E+02  0.97690281494E+02  0.50000000000E+02 0.  0.
<mgrwt>
<rscale>  0 0.51097926E+02</rscale>
<asrwt>0</asrwt>
<pdfrwt beam="1">  1       13 0.10000000E+01 0.51097926E+02</pdfrwt>
<pdfrwt beam="2">  1       22 0.10128471E+00 0.51097926E+02</pdfrwt>
<totfact> 0.13809112E+00</totfact>
</mgrwt>
</event>
<event>
 4    1  0.2496748E+000  0.5224722E+02  0.7957747E-01  0.1433584E+00
         13   -1    0    0    0    0  0.00000000000E+00  0.00000000000E+00  0.99999944177E+02  0.99999999997E+02  0.10566000000E+00 0.  1.
         22   -1    0    0    0    0 -0.00000000000E+00 -0.00000000000E+00 -0.13250276298E+02  0.13250276298E+02  0.00000000000E+00 0. -1.
         13    1    1    2    0    0  0.14909821738E+02 -0.27329024007E+01  0.45059085879E+01  0.15814104971E+02  0.10566000000E+00 0. -1.
        996    1    1    2    0    0 -0.14909821738E+02  0.27329024007E+01  0.82243759291E+02  0.97436171323E+02  0.50000000000E+02 0.  0.
<mgrwt>
<rscale>  0 0.52247216E+02</rscale>
<asrwt>0</asrwt>
<pdfrwt beam="1">  1       13 0.10000000E+01 0.52247216E+02</pdfrwt>
<pdfrwt beam="2">  1       22 0.13250301E+00 0.52247216E+02</pdfrwt>
<totfact> 0.92156185E-01</totfact>
</mgrwt>
</event>
<event>
 4    1  0.2496748E+000  0.5221120E+02  0.7957747E-01  0.1433767E+00
         13   -1    0    0    0    0  0.00000000000E+00  0.00000000000E+00  0.99999944183E+02  0.10000000000E+03  0.10566000000E+00 0. -1.
         22   -1    0    0    0    0 -0.00000000000E+00 -0.00000000000E+00 -0.18222810184E+02  0.18222810184E+02  0.00000000000E+00 0.  1.
         13    1    1    2    0    0 -0.97865891534E+01  0.11411922660E+02 -0.59220699065E+01  0.16158322378E+02  0.10566000000E+00 0.  1.
        996    1    1    2    0    0  0.97865891534E+01 -0.11411922660E+02  0.87699203906E+02  0.10206448781E+03  0.50000000000E+02 0.  0.
<mgrwt>
<rscale>  0 0.52211199E+02</rscale>
<asrwt>0</asrwt>
<pdfrwt beam="1">  1       13 0.10000000E+01 0.52211199E+02</pdfrwt>
<pdfrwt beam="2">  1       22 0.18222833E+00 0.52211199E+02</pdfrwt>
<totfact> 0.53760257E-01</totfact>
</mgrwt>
</event>
<event>
 4    1  0.2496748E+000  0.5131967E+02  0.7957747E-01  0.1438351E+00
         13   -1    0    0    0    0  0.00000000000E+00  0.00000000000E+00  0.99999944179E+02  0.99999999999E+02  0.10566000000E+00 0. -1.
         22   -1    0    0    0    0 -0.00000000000E+00 -0.00000000000E+00 -0.54057222535E+02  0.54057222535E+02  0.00000000000E+00 0.  1.
         13    1    1    2    0    0  0.11080589894E+02  0.33058557963E+01 -0.46721356996E+02  0.48131117985E+02  0.10566000000E+00 0.  1.
        996    1    1    2    0    0 -0.11080589894E+02 -0.33058557963E+01  0.92664078639E+02  0.10592610455E+03  0.50000000000E+02 0.  0.
<mgrwt>
<rscale>  0 0.51319666E+02</rscale>
<asrwt>0</asrwt>
<pdfrwt beam="1">  1       13 0.10000000E+01 0.51319666E+02</pdfrwt>
<pdfrwt beam="2">  1       22 0.54057235E+00 0.51319666E+02</pdfrwt>
<totfact> 0.60472701E-02</totfact>
</mgrwt>
</event>
<event>
 4    1  0.2496748E+000  0.5100677E+02  0.7957747E-01  0.1439986E+00
         13   -1    0    0    0    0  0.00000000000E+00  0.00000000000E+00  0.99999944183E+02  0.10000000000E+03  0.10566000000E+00 0. -1.
         22   -1    0    0    0    0 -0.00000000000E+00 -0.00000000000E+00 -0.12257388294E+02  0.12257388294E+02  0.00000000000E+00 0. -1.
         13    1    1    2    0    0  0.54298678377E+01  0.84974553269E+01 -0.75490777249E+00  0.10112925469E+02  0.10566000000E+00 0.  1.
        996    1    1    2    0    0 -0.54298678377E+01 -0.84974553269E+01  0.88497463662E+02  0.10214446283E+03  0.50000000000E+02 0.  0.
<mgrwt>
<rscale>  0 0.51006766E+02</rscale>
<asrwt>0</asrwt>
<pdfrwt beam="1">  1       13 0.10000000E+01 0.51006766E+02</pdfrwt>
<pdfrwt beam="2">  1       22 0.12257413E+00 0.51006766E+02</pdfrwt>
<totfact> 0.10381223E+00</totfact>
</mgrwt>
</event>
<event>
 4    1  0.2496748E+000  0.5134633E+02  0.7957747E-01  0.1438212E+00
         13   -1    0    0    0    0  0.00000000000E+00  0.00000000000E+00  0.99999944182E+02  0.10000000000E+03  0.10566000000E+00 0. -1.
         22   -1    0    0    0    0 -0.00000000000E+00 -0.00000000000E+00 -0.10108574506E+02  0.10108574506E+02  0.00000000000E+00 0. -1.
         13    1    1    2    0    0  0.14037828620E+01  0.11596332723E+02  0.11457057930E+02  0.16362178320E+02  0.10566000000E+00 0.  1.
        996    1    1    2    0    0 -0.14037828620E+01 -0.11596332723E+02  0.78434311747E+02  0.93746396187E+02  0.50000000000E+02 0.  0.
<mgrwt>
<rscale>  0 0.51346329E+02</rscale>
<asrwt>0</asrwt>
<pdfrwt beam="1">  1       13 0.10000000E+01 0.51346329E+02</pdfrwt>
<pdfrwt beam="2">  1       22 0.10108600E+00 0.51346329E+02</pdfrwt>
<totfact> 0.13856900E+00</totfact>
</mgrwt>
</event>
<event>
 4    1  0.2496748E+000  0.5120097E+02  0.7957747E-01  0.1438969E+00
         13   -1    0    0    0    0  0.00000000000E+00  0.00000000000E+00  0.99999944182E+02  0.10000000000E+03  0.10566000000E+00 0. -1.
         22   -1    0    0    0    0 -0.00000000000E+00 -0.00000000000E+00 -0.13418258936E+02  0.13418258936E+02  0.00000000000E+00 0. -1.
         13    1    1    2    0    0 -0.94707428901E+01  0.56430473691E+01 -0.19027435014E+01  0.11187964577E+02  0.10566000000E+00 0.  1.
        996    1    1    2    0    0  0.94707428901E+01 -0.56430473691E+01  0.88484428747E+02  0.10223029436E+03  0.50000000000E+02 0.  0.
<mgrwt>
<rscale>  0 0.51200966E+02</rscale>
<asrwt>0</asrwt>
<pdfrwt beam="1">  1       13 0.10000000E+01 0.51200966E+02</pdfrwt>
<pdfrwt beam="2">  1       22 0.13418283E+00 0.51200966E+02</pdfrwt>
<totfact> 0.90125088E-01</totfact>
</mgrwt>
</event>
<event>
 4    1  0.2496748E+000  0.6293650E+02  0.7957747E-01  0.1385906E+00
         13   -1    0    0    0    0  0.00000000000E+00  0.00000000000E+00  0.99999944179E+02  0.10000000000E+03  0.10566000000E+00 0.  1.
         22   -1    0    0    0    0 -0.00000000000E+00 -0.00000000000E+00 -0.44735297008E+02  0.44735297008E+02  0.00000000000E+00 0. -1.
         13    1    1    2    0    0 -0.35560636521E+02  0.14015847890E+02 -0.22763910148E+02  0.44488308927E+02  0.10566000000E+00 0. -1.
        996    1    1    2    0    0  0.35560636521E+02 -0.14015847890E+02  0.78028557320E+02  0.10024698808E+03  0.50000000000E+02 0.  0.
<mgrwt>
<rscale>  0 0.62936499E+02</rscale>
<asrwt>0</asrwt>
<pdfrwt beam="1">  1       13 0.10000000E+01 0.62936499E+02</pdfrwt>
<pdfrwt beam="2">  1       22 0.44735312E+00 0.62936499E+02</pdfrwt>
<totfact> 0.98541384E-02</totfact>
</mgrwt>
</event>
<event>
 4    1  0.2496748E+000  0.5328031E+02  0.7957747E-01  0.1428411E+00
         13   -1    0    0    0    0  0.00000000000E+00  0.00000000000E+00  0.99999944174E+02  0.99999999994E+02  0.10566000000E+00 0. -1.
         22   -1    0    0    0    0 -0.00000000000E+00 -0.00000000000E+00 -0.15671547806E+02  0.15671547806E+02  0.00000000000E+00 0.  1.
         13    1    1    2    0    0 -0.18323827077E+01 -0.18314866046E+02  0.33072620199E+01  0.18701366013E+02  0.10566000000E+00 0.  1.
        996    1    1    2    0    0  0.18323827077E+01  0.18314866046E+02  0.81021134349E+02  0.96970181787E+02  0.50000000000E+02 0.  0.
<mgrwt>
<rscale>  0 0.53280315E+02</rscale>
<asrwt>0</asrwt>
<pdfrwt beam="1">  1       13 0.10000000E+01 0.53280315E+02</pdfrwt>
<pdfrwt beam="2">  1       22 0.15671571E+00 0.53280315E+02</pdfrwt>
<totfact> 0.70129312E-01</totfact>
</mgrwt>
</event>
<event>
 4    1  0.2496748E+000  0.5122148E+02  0.7957747E-01  0.1438862E+00
         13   -1    0    0    0    0  0.00000000000E+00  0.00000000000E+00  0.99999944179E+02  0.99999999999E+02  0.10566000000E+00 0.  1.
         22   -1    0    0    0    0 -0.00000000000E+00 -0.00000000000E+00 -0.15598399303E+02  0.15598399303E+02  0.00000000000E+00 0. -1.
         13    1    1    2    0    0 -0.50461582959E+01  0.99084185965E+01 -0.52879257438E+01  0.12313155377E+02  0.10566000000E+00 0. -1.
        996    1    1    2    0    0  0.50461582959E+01 -0.99084185965E+01  0.89689470620E+02  0.10328524393E+03  0.50000000000E+02 0.  0.
<mgrwt>
<rscale>  0 0.51221484E+02</rscale>
<asrwt>0</asrwt>
<pdfrwt beam="1">  1       13 0.10000000E+01 0.51221484E+02</pdfrwt>
<pdfrwt beam="2">  1       22 0.15598423E+00 0.51221484E+02</pdfrwt>
<totfact> 0.70397031E-01</totfact>
</mgrwt>
</event>
<event>
 4    1  0.2496748E+000  0.5363156E+02  0.7957747E-01  0.1426683E+00
         13   -1    0    0    0    0  0.00000000000E+00  0.00000000000E+00  0.99999944184E+02  0.10000000000E+03  0.10566000000E+00 0. -1.
         22   -1    0    0    0    0 -0.00000000000E+00 -0.00000000000E+00 -0.31564900299E+02  0.31564900299E+02  0.00000000000E+00 0.  1.
         13    1    1    2    0    0  0.11111557922E+02 -0.15902121977E+02 -0.20174620626E+02  0.27988759963E+02  0.10566000000E+00 0.  1.
        996    1    1    2    0    0 -0.11111557922E+02  0.15902121977E+02  0.88609664511E+02  0.10357614034E+03  0.50000000000E+02 0.  0.
<mgrwt>
<rscale>  0 0.53631560E+02</rscale>
<asrwt>0</asrwt>
<pdfrwt beam="1">  1       13 0.10000000E+01 0.53631560E+02</pdfrwt>
<pdfrwt beam="2">  1       22 0.31564919E+00 0.53631560E+02</pdfrwt>
<totfact> 0.18894442E-01</totfact>
</mgrwt>
</event>
<event>
 4    1  0.2496748E+000  0.5369463E+02  0.7957747E-01  0.1426375E+00
         13   -1    0    0    0    0  0.00000000000E+00  0.00000000000E+00  0.99999944186E+02  0.10000000001E+03  0.10566000000E+00 0. -1.
         22   -1    0    0    0    0 -0.00000000000E+00 -0.00000000000E+00 -0.39073998329E+02  0.39073998329E+02  0.00000000000E+00 0.  1.
         13    1    1    2    0    0 -0.13210247440E+02 -0.14443068260E+02 -0.28614151304E+02  0.34668338251E+02  0.10566000000E+00 0.  1.
        996    1    1    2    0    0  0.13210247440E+02  0.14443068260E+02  0.89540097161E+02  0.10440566009E+03  0.50000000000E+02 0.  0.
<mgrwt>
<rscale>  0 0.53694626E+02</rscale>
<asrwt>0</asrwt>
<pdfrwt beam="1">  1       13 0.10000000E+01 0.53694626E+02</pdfrwt>
<pdfrwt beam="2">  1       22 0.39074015E+00 0.53694626E+02</pdfrwt>
<totfact> 0.12939636E-01</totfact>
</mgrwt>
</event>
<event>
 4    1  0.2496748E+000  0.5256634E+02  0.7957747E-01  0.1431971E+00
         13   -1    0    0    0    0  0.00000000000E+00  0.00000000000E+00  0.99999944190E+02  0.10000000001E+03  0.10566000000E+00 0.  1.
         22   -1    0    0    0    0 -0.00000000000E+00 -0.00000000000E+00 -0.23689833242E+02  0.23689833242E+02  0.00000000000E+00 0. -1.
         13    1    1    2    0    0  0.52744239826E+01  0.15342754380E+02 -0.12505138366E+02  0.20484367451E+02  0.10566000000E+00 0. -1.
        996    1    1    2    0    0 -0.52744239826E+01 -0.15342754380E+02  0.88815249314E+02  0.10320546580E+03  0.50000000000E+02 0.  0.
<mgrwt>
<rscale>  0 0.52566336E+02</rscale>
<asrwt>0</asrwt>
<pdfrwt beam="1">  1       13 0.10000000E+01 0.52566336E+02</pdfrwt>
<pdfrwt beam="2">  1       22 0.23689855E+00 0.52566336E+02</pdfrwt>
<totfact> 0.32793155E-01</totfact>
</mgrwt>
</event>
<event>
 4    1  0.2496748E+000  0.5150962E+02  0.7957747E-01  0.1437365E+00
         13   -1    0    0    0    0  0.00000000000E+00  0.00000000000E+00  0.99999944175E+02  0.99999999995E+02  0.10566000000E+00 0.  1.
         22   -1    0    0    0    0 -0.00000000000E+00 -0.00000000000E+00 -0.26012446991E+02  0.26012446991E+02  0.00000000000E+00 0. -1.
         13    1    1    2    0    0  0.11731817428E+02 -0.39503486971E+01 -0.17253794014E+02  0.21235474257E+02  0.10566000000E+00 0. -1.
        996    1    1    2    0    0 -0.11731817428E+02  0.39503486971E+01  0.91241291197E+02  0.10477697273E+03  0.50000000000E+02 0.  0.
<mgrwt>
<rscale>  0 0.51509618E+02</rscale>
<asrwt>0</asrwt>
<pdfrwt beam="1">  1       13 0.10000000E+01 0.51509618E+02</pdfrwt>
<pdfrwt beam="2">  1       22 0.26012468E+00 0.51509618E+02</pdfrwt>
<totfact> 0.27243765E-01</totfact>
</mgrwt>
</event>
<event>
 4    1  0.2496748E+000  0.5208868E+02  0.7957747E-01  0.1434391E+00
         13   -1    0    0    0    0  0.00000000000E+00  0.00000000000E+00  0.99999944178E+02  0.99999999998E+02  0.10566000000E+00 0. -1.
         22   -1    0    0    0    0 -0.00000000000E+00 -0.00000000000E+00 -0.35539317910E+02  0.35539317910E+02  0.00000000000E+00 0.  1.
         13    1    1    2    0    0  0.29338865615E+00  0.14599471120E+02 -0.26765347888E+02  0.30489762962E+02  0.10566000000E+00 0.  1.
        996    1    1    2    0    0 -0.29338865615E+00 -0.14599471120E+02  0.91225974156E+02  0.10504955495E+03  0.50000000000E+02 0.  0.
<mgrwt>
<rscale>  0 0.52088680E+02</rscale>
<asrwt>0</asrwt>
<pdfrwt beam="1">  1       13 0.10000000E+01 0.52088680E+02</pdfrwt>
<pdfrwt beam="2">  1       22 0.35539336E+00 0.52088680E+02</pdfrwt>
<totfact> 0.15302331E-01</totfact>
</mgrwt>
</event>
<event>
 4    1  0.2496748E+000  0.5127557E+02  0.7957747E-01  0.1438580E+00
         13   -1    0    0    0    0  0.00000000000E+00  0.00000000000E+00  0.99999944177E+02  0.99999999998E+02  0.10566000000E+00 0.  1.
         22   -1    0    0    0    0 -0.00000000000E+00 -0.00000000000E+00 -0.38596008481E+02  0.38596008481E+02  0.00000000000E+00 0. -1.
         13    1    1    2    0    0  0.23599650541E+01 -0.11118222497E+02 -0.30945229875E+02  0.32966691107E+02  0.10566000000E+00 0. -1.
        996    1    1    2    0    0 -0.23599650541E+01  0.11118222497E+02  0.92349165571E+02  0.10562931737E+03  0.50000000000E+02 0.  0.
<mgrwt>
<rscale>  0 0.51275572E+02</rscale>
<asrwt>0</asrwt>
<pdfrwt beam="1">  1       13 0.10000000E+01 0.51275572E+02</pdfrwt>
<pdfrwt beam="2">  1       22 0.38596026E+00 0.51275572E+02</pdfrwt>
<totfact> 0.13208533E-01</totfact>
</mgrwt>
</event>
<event>
 4    1  0.2496748E+000  0.5210463E+02  0.7957747E-01  0.1434309E+00
         13   -1    0    0    0    0  0.00000000000E+00  0.00000000000E+00  0.99999944183E+02  0.10000000000E+03  0.10566000000E+00 0.  1.
         22   -1    0    0    0    0 -0.00000000000E+00 -0.00000000000E+00 -0.22461124739E+02  0.22461124739E+02  0.00000000000E+00 0. -1.
         13    1    1    2    0    0  0.14602129419E+02  0.12922732490E+01 -0.11946933401E+02  0.18911174882E+02  0.10566000000E+00 0. -1.
        996    1    1    2    0    0 -0.14602129419E+02 -0.12922732490E+01  0.89485752845E+02  0.10354994986E+03  0.50000000000E+02 0.  0.
<mgrwt>
<rscale>  0 0.52104627E+02</rscale>
<asrwt>0</asrwt>
<pdfrwt beam="1">  1       13 0.10000000E+01 0.52104627E+02</pdfrwt>
<pdfrwt beam="2">  1       22 0.22461146E+00 0.52104627E+02</pdfrwt>
<totfact> 0.36344792E-01</totfact>
</mgrwt>
</event>
<event>
 4    1  0.2496748E+000  0.5422585E+02  0.7957747E-01  0.1423796E+00
         13   -1    0    0    0    0  0.00000000000E+00  0.00000000000E+00  0.99999944177E+02  0.99999999997E+02  0.10566000000E+00 0. -1.
         22   -1    0    0    0    0 -0.00000000000E+00 -0.00000000000E+00 -0.39292423347E+02  0.39292423347E+02  0.00000000000E+00 0. -1.
         13    1    1    2    0    0  0.65474245224E+01  0.19939253887E+02 -0.28200426293E+02  0.35152778277E+02  0.10566000000E+00 0.  1.
        996    1    1    2    0    0 -0.65474245224E+01 -0.19939253887E+02  0.88907947122E+02  0.10413964507E+03  0.50000000000E+02 0.  0.
<mgrwt>
<rscale>  0 0.54225848E+02</rscale>
<asrwt>0</asrwt>
<pdfrwt beam="1">  1       13 0.10000000E+01 0.54225848E+02</pdfrwt>
<pdfrwt beam="2">  1       22 0.39292440E+00 0.54225848E+02</pdfrwt>
<totfact> 0.12811977E-01</totfact>
</mgrwt>
</event>
<event>
 4    1  0.2496748E+000  0.5198110E+02  0.7957747E-01  0.1434940E+00
         13   -1    0    0    0    0  0.00000000000E+00  0.00000000000E+00  0.99999944176E+02  0.99999999996E+02  0.10566000000E+00 0. -1.
         22   -1    0    0    0    0 -0.00000000000E+00 -0.00000000000E+00 -0.12620446937E+02  0.12620446937E+02  0.00000000000E+00 0.  1.
         13    1    1    2    0    0 -0.11112134743E+02  0.88631131709E+01  0.47245408563E+01  0.14978877260E+02  0.10566000000E+00 0.  1.
        996    1    1    2    0    0  0.11112134743E+02 -0.88631131709E+01  0.82654956383E+02  0.97641569673E+02  0.50000000000E+02 0.  0.
<mgrwt>
<rscale>  0 0.51981096E+02</rscale>
<asrwt>0</asrwt>
<pdfrwt beam="1">  1       13 0.10000000E+01 0.51981096E+02</pdfrwt>
<pdfrwt beam="2">  1       22 0.12620471E+00 0.51981096E+02</pdfrwt>
<totfact> 0.99434235E-01</totfact>
</mgrwt>
</event>
<event>
 4    1  0.2496748E+000  0.5153549E+02  0.7957747E-01  0.1437231E+00
         13   -1    0    0    0    0  0.00000000000E+00  0.00000000000E+00  0.99999944181E+02  0.10000000000E+03  0.10566000000E+00 0. -1.
         22   -1    0    0    0    0 -0.00000000000E+00 -0.00000000000E+00 -0.11431570192E+02  0.11431570192E+02  0.00000000000E+00 0. -1.
         13    1    1    2    0    0 -0.12467345381E+02 -0.68723534190E+00  0.54307371295E+01  0.13616573103E+02  0.10566000000E+00 0.  1.
        996    1    1    2    0    0  0.12467345381E+02  0.68723534190E+00  0.83137636859E+02  0.97814997090E+02  0.50000000000E+02 0.  0.
<mgrwt>
<rscale>  0 0.51535493E+02</rscale>
<asrwt>0</asrwt>
<pdfrwt beam="1">  1       13 0.10000000E+01 0.51535493E+02</pdfrwt>
<pdfrwt beam="2">  1       22 0.11431595E+00 0.51535493E+02</pdfrwt>
<totfact> 0.11558907E+00</totfact>
</mgrwt>
</event>
<event>
 4    1  0.2496748E+000  0.5633864E+02  0.7957747E-01  0.1413872E+00
         13   -1    0    0    0    0  0.00000000000E+00  0.00000000000E+00  0.99999944176E+02  0.99999999996E+02  0.10566000000E+00 0. -1.
         22   -1    0    0    0    0 -0.00000000000E+00 -0.00000000000E+00 -0.17776416602E+02  0.17776416602E+02  0.00000000000E+00 0.  1.
         13    1    1    2    0    0  0.22969858682E+02  0.12100721118E+02  0.38618440046E+02  0.46534255502E+02  0.10566000000E+00 0.  1.
        996    1    1    2    0    0 -0.22969858682E+02 -0.12100721118E+02  0.43605087527E+02  0.71242161096E+02  0.50000000000E+02 0.  0.
<mgrwt>
<rscale>  0 0.56338636E+02</rscale>
<asrwt>0</asrwt>
<pdfrwt beam="1">  1       13 0.10000000E+01 0.56338636E+02</pdfrwt>
<pdfrwt beam="2">  1       22 0.17776440E+00 0.56338636E+02</pdfrwt>
<totfact> 0.56627243E-01</totfact>
</mgrwt>
</event>
<event>
 4    1  0.2496748E+000  0.5219368E+02  0.7957747E-01  0.1433856E+00
         13   -1    0    0    0    0  0.00000000000E+00  0.00000000000E+00  0.99999944181E+02  0.10000000000E+03  0.10566000000E+00 0. -1.
         22   -1    0    0    0    0 -0.00000000000E+00 -0.00000000000E+00 -0.11968628765E+02  0.11968628765E+02  0.00000000000E+00 0. -1.
         13    1    1    2    0    0 -0.98860212804E+00 -0.14939992656E+02  0.96974745797E+01  0.17839083272E+02  0.10566000000E+00 0.  1.
        996    1    1    2    0    0  0.98860212804E+00  0.14939992656E+02  0.78333840837E+02  0.94129545494E+02  0.50000000000E+02 0.  0.
<mgrwt>
<rscale>  0 0.52193685E+02</rscale>
<asrwt>0</asrwt>
<pdfrwt beam="1">  1       13 0.10000000E+01 0.52193685E+02</pdfrwt>
<pdfrwt beam="2">  1       22 0.11968653E+00 0.52193685E+02</pdfrwt>
<totfact> 0.10797235E+00</totfact>
</mgrwt>
</event>
<event>
 4    1  0.2496748E+000  0.5109118E+02  0.7957747E-01  0.1439543E+00
         13   -1    0    0    0    0  0.00000000000E+00  0.00000000000E+00  0.99999944182E+02  0.10000000000E+03  0.10566000000E+00 0. -1.
         22   -1    0    0    0    0 -0.00000000000E+00 -0.00000000000E+00 -0.15038375330E+02  0.15038375330E+02  0.00000000000E+00 0.  1.
         13    1    1    2    0    0 -0.71021275571E+01  0.77374658442E+01 -0.49603001579E+01  0.11615693489E+02  0.10566000000E+00 0.  1.
        996    1    1    2    0    0  0.71021275571E+01 -0.77374658442E+01  0.89921869010E+02  0.10342268184E+03  0.50000000000E+02 0.  0.
<mgrwt>
<rscale>  0 0.51091179E+02</rscale>
<asrwt>0</asrwt>
<pdfrwt beam="1">  1       13 0.10000000E+01 0.51091179E+02</pdfrwt>
<pdfrwt beam="2">  1       22 0.15038399E+00 0.51091179E+02</pdfrwt>
<totfact> 0.74832394E-01</totfact>
</mgrwt>
</event>
<event>
 4    1  0.2496748E+000  0.5122342E+02  0.7957747E-01  0.1438852E+00
         13   -1    0    0    0    0  0.00000000000E+00  0.00000000000E+00  0.99999944174E+02  0.99999999994E+02  0.10566000000E+00 0. -1.
         22   -1    0    0    0    0 -0.00000000000E+00 -0.00000000000E+00 -0.97195699397E+01  0.97195699397E+01  0.00000000000E+00 0. -1.
         13    1    1    2    0    0 -0.67975033078E+01  0.88109462248E+01  0.16248135268E+02  0.19693955629E+02  0.10566000000E+00 0.  1.
        996    1    1    2    0    0  0.67975033078E+01 -0.88109462248E+01  0.74032238966E+02  0.90025614304E+02  0.50000000000E+02 0.  0.
<mgrwt>
<rscale>  0 0.51223421E+02</rscale>
<asrwt>0</asrwt>
<pdfrwt beam="1">  1       13 0.10000000E+01 0.51223421E+02</pdfrwt>
<pdfrwt beam="2">  1       22 0.97195951E-01 0.51223421E+02</pdfrwt>
<totfact> 0.14660827E+00</totfact>
</mgrwt>
</event>
<event>
 4    1  0.2496748E+000  0.5389737E+02  0.7957747E-01  0.1425386E+00
         13   -1    0    0    0    0  0.00000000000E+00  0.00000000000E+00  0.99999944177E+02  0.99999999997E+02  0.10566000000E+00 0. -1.
         22   -1    0    0    0    0 -0.00000000000E+00 -0.00000000000E+00 -0.14187657923E+02  0.14187657923E+02  0.00000000000E+00 0. -1.
         13    1    1    2    0    0 -0.19230572517E+02 -0.59254677302E+01  0.33490578577E+02  0.39071167178E+02  0.10566000000E+00 0.  1.
        996    1    1    2    0    0  0.19230572517E+02  0.59254677302E+01  0.52321707677E+02  0.75116490742E+02  0.50000000000E+02 0.  0.
<mgrwt>
<rscale>  0 0.53897366E+02</rscale>
<asrwt>0</asrwt>
<pdfrwt beam="1">  1       13 0.10000000E+01 0.53897366E+02</pdfrwt>
<pdfrwt beam="2">  1       22 0.14187682E+00 0.53897366E+02</pdfrwt>
<totfact> 0.82844491E-01</totfact>
</mgrwt>
</event>
<event>
 4    1  0.2496748E+000  0.6064410E+02  0.7957747E-01  0.1395148E+00
         13   -1    0    0    0    0  0.00000000000E+00  0.00000000000E+00  0.99999944183E+02  0.10000000000E+03  0.10566000000E+00 0. -1.
         22   -1    0    0    0    0 -0.00000000000E+00 -0.00000000000E+00 -0.31069139514E+02  0.31069139514E+02  0.00000000000E+00 0.  1.
         13    1    1    2    0    0 -0.33248595130E+02  0.84992502312E+01 -0.58246069197E+01  0.34808670506E+02  0.10566000000E+00 0.  1.
        996    1    1    2    0    0  0.33248595130E+02 -0.84992502312E+01  0.74755411588E+02  0.96260469011E+02  0.50000000000E+02 0.  0.
<mgrwt>
<rscale>  0 0.60644096E+02</rscale>
<asrwt>0</asrwt>
<pdfrwt beam="1">  1       13 0.10000000E+01 0.60644096E+02</pdfrwt>
<pdfrwt beam="2">  1       22 0.31069159E+00 0.60644096E+02</pdfrwt>
<totfact> 0.19602585E-01</totfact>
</mgrwt>
</event>
<event>
 4    1  0.2496748E+000  0.5136519E+02  0.7957747E-01  0.1438114E+00
         13   -1    0    0    0    0  0.00000000000E+00  0.00000000000E+00  0.99999944181E+02  0.10000000000E+03  0.10566000000E+00 0.  1.
         22   -1    0    0    0    0 -0.00000000000E+00 -0.00000000000E+00 -0.15613188934E+02  0.15613188934E+02  0.00000000000E+00 0. -1.
         13    1    1    2    0    0  0.26505881821E+01  0.11461108914E+02 -0.47894531729E+01  0.12701679456E+02  0.10566000000E+00 0. -1.
        996    1    1    2    0    0 -0.26505881821E+01 -0.11461108914E+02  0.89176208419E+02  0.10291150948E+03  0.50000000000E+02 0.  0.
<mgrwt>
<rscale>  0 0.51365189E+02</rscale>
<asrwt>0</asrwt>
<pdfrwt beam="1">  1       13 0.10000000E+01 0.51365189E+02</pdfrwt>
<pdfrwt beam="2">  1       22 0.15613212E+00 0.51365189E+02</pdfrwt>
<totfact> 0.70304853E-01</totfact>
</mgrwt>
</event>
<event>
 4    1  0.2496748E+000  0.5126904E+02  0.7957747E-01  0.1438614E+00
         13   -1    0    0    0    0  0.00000000000E+00  0.00000000000E+00  0.99999944175E+02  0.99999999995E+02  0.10566000000E+00 0. -1.
         22   -1    0    0    0    0 -0.00000000000E+00 -0.00000000000E+00 -0.10153381968E+02  0.10153381968E+02  0.00000000000E+00 0.  1.
         13    1    1    2    0    0  0.48216642653E+01  0.10259943176E+02  0.92485502639E+01  0.14630848447E+02  0.10566000000E+00 0.  1.
        996    1    1    2    0    0 -0.48216642653E+01 -0.10259943176E+02  0.80598011943E+02  0.95522533516E+02  0.50000000000E+02 0.  0.
<mgrwt>
<rscale>  0 0.51269044E+02</rscale>
<asrwt>0</asrwt>
<pdfrwt beam="1">  1       13 0.10000000E+01 0.51269044E+02</pdfrwt>
<pdfrwt beam="2">  1       22 0.10153407E+00 0.51269044E+02</pdfrwt>
<totfact> 0.13765557E+00</totfact>
</mgrwt>
</event>
<event>
 4    1  0.2496748E+000  0.5328092E+02  0.7957747E-01  0.1428408E+00
         13   -1    0    0    0    0  0.00000000000E+00  0.00000000000E+00  0.99999944184E+02  0.10000000000E+03  0.10566000000E+00 0. -1.
         22   -1    0    0    0    0 -0.00000000000E+00 -0.00000000000E+00 -0.12849969661E+02  0.12849969661E+02  0.00000000000E+00 0. -1.
         13    1    1    2    0    0 -0.14274457856E+02 -0.11623091497E+02  0.21828593518E+02  0.28554422810E+02  0.10566000000E+00 0.  1.
        996    1    1    2    0    0  0.14274457856E+02  0.11623091497E+02  0.65321381005E+02  0.84295546854E+02  0.50000000000E+02 0.  0.
<mgrwt>
<rscale>  0 0.53280920E+02</rscale>
<asrwt>0</asrwt>
<pdfrwt beam="1">  1       13 0.10000000E+01 0.53280920E+02</pdfrwt>
<pdfrwt beam="2">  1       22 0.12849994E+00 0.53280920E+02</pdfrwt>
<totfact> 0.96941014E-01</totfact>
</mgrwt>
</event>
<event>
 4    1  0.2496748E+000  0.5738685E+02  0.7957747E-01  0.1409137E+00
         13   -1    0    0    0    0  0.00000000000E+00  0.00000000000E+00  0.99999944170E+02  0.99999999990E+02  0.10566000000E+00 0.  1.
         22   -1    0    0    0    0 -0.00000000000E+00 -0.00000000000E+00 -0.22078079323E+02  0.22078079323E+02  0.00000000000E+00 0. -1.
         13    1    1    2    0    0 -0.25334815966E+02  0.12304352230E+02  0.39262017593E+01  0.28437232779E+02  0.10566000000E+00 0. -1.
        996    1    1    2    0    0  0.25334815966E+02 -0.12304352230E+02  0.73995663088E+02  0.93640846534E+02  0.50000000000E+02 0.  0.
<mgrwt>
<rscale>  0 0.57386845E+02</rscale>
<asrwt>0</asrwt>
<pdfrwt beam="1">  1       13 0.10000000E+01 0.57386845E+02</pdfrwt>
<pdfrwt beam="2">  1       22 0.22078101E+00 0.57386845E+02</pdfrwt>
<totfact> 0.37892131E-01</totfact>
</mgrwt>
</event>
<event>
 4    1  0.2496748E+000  0.5220263E+02  0.7957747E-01  0.1433811E+00
         13   -1    0    0    0    0  0.00000000000E+00  0.00000000000E+00  0.99999944180E+02  0.10000000000E+03  0.10566000000E+00 0. -1.
         22   -1    0    0    0    0 -0.00000000000E+00 -0.00000000000E+00 -0.26410114796E+02  0.26410114796E+02  0.00000000000E+00 0.  1.
         13    1    1    2    0    0  0.14865783648E+02  0.20305236171E+01 -0.16491693614E+02  0.22295776998E+02  0.10566000000E+00 0.  1.
        996    1    1    2    0    0 -0.14865783648E+02 -0.20305236171E+01  0.90081522998E+02  0.10411433780E+03  0.50000000000E+02 0.  0.
<mgrwt>
<rscale>  0 0.52202630E+02</rscale>
<asrwt>0</asrwt>
<pdfrwt beam="1">  1       13 0.10000000E+01 0.52202630E+02</pdfrwt>
<pdfrwt beam="2">  1       22 0.26410135E+00 0.52202630E+02</pdfrwt>
<totfact> 0.26471383E-01</totfact>
</mgrwt>
</event>
<event>
 4    1  0.2496748E+000  0.6873654E+02  0.7957747E-01  0.1364443E+00
         13   -1    0    0    0    0  0.00000000000E+00  0.00000000000E+00  0.99999944182E+02  0.10000000000E+03  0.10566000000E+00 0.  1.
         22   -1    0    0    0    0 -0.00000000000E+00 -0.00000000000E+00 -0.70391612426E+02  0.70391612426E+02  0.00000000000E+00 0. -1.
         13    1    1    2    0    0  0.41986015895E+02 -0.21491557371E+02 -0.47605632853E+02  0.67015073023E+02  0.10566000000E+00 0. -1.
        996    1    1    2    0    0 -0.41986015895E+02  0.21491557371E+02  0.77213964608E+02  0.10337653941E+03  0.50000000000E+02 0.  0.
<mgrwt>
<rscale>  0 0.68736545E+02</rscale>
<asrwt>0</asrwt>
<pdfrwt beam="1">  1       13 0.10000000E+01 0.68736545E+02</pdfrwt>
<pdfrwt beam="2">  1       22 0.70391621E+00 0.68736545E+02</pdfrwt>
<totfact> 0.72605600E-02</totfact>
</mgrwt>
</event>
<event>
 4    1  0.2496748E+000  0.5718189E+02  0.7957747E-01  0.1410054E+00
         13   -1    0    0    0    0  0.00000000000E+00  0.00000000000E+00  0.99999944177E+02  0.99999999997E+02  0.10566000000E+00 0.  1.
         22   -1    0    0    0    0 -0.00000000000E+00 -0.00000000000E+00 -0.38534966169E+02  0.38534966169E+02  0.00000000000E+00 0. -1.
         13    1    1    2    0    0 -0.22137990415E+02  0.16723572601E+02 -0.23337436643E+02  0.36254870200E+02  0.10566000000E+00 0. -1.
        996    1    1    2    0    0  0.22137990415E+02 -0.16723572601E+02  0.84802414651E+02  0.10228009597E+03  0.50000000000E+02 0.  0.
<mgrwt>
<rscale>  0 0.57181890E+02</rscale>
<asrwt>0</asrwt>
<pdfrwt beam="1">  1       13 0.10000000E+01 0.57181890E+02</pdfrwt>
<pdfrwt beam="2">  1       22 0.38534983E+00 0.57181890E+02</pdfrwt>
<totfact> 0.13310937E-01</totfact>
</mgrwt>
</event>
<event>
 4    1  0.2496748E+000  0.5524573E+02  0.7957747E-01  0.1418940E+00
         13   -1    0    0    0    0  0.00000000000E+00  0.00000000000E+00  0.99999944184E+02  0.10000000000E+03  0.10566000000E+00 0.  1.
         22   -1    0    0    0    0 -0.00000000000E+00 -0.00000000000E+00 -0.15501294846E+02  0.15501294846E+02  0.00000000000E+00 0. -1.
         13    1    1    2    0    0  0.23298527089E+02 -0.30445737270E+01  0.25459885082E+02  0.34645457222E+02  0.10566000000E+00 0. -1.
        996    1    1    2    0    0 -0.23298527089E+02  0.30445737270E+01  0.59038764256E+02  0.80855837628E+02  0.50000000000E+02 0.  0.
<mgrwt>
<rscale>  0 0.55245731E+02</rscale>
<asrwt>0</asrwt>
<pdfrwt beam="1">  1       13 0.10000000E+01 0.55245731E+02</pdfrwt>
<pdfrwt beam="2">  1       22 0.15501318E+00 0.55245731E+02</pdfrwt>
<totfact> 0.71708603E-01</totfact>
</mgrwt>
</event>
<event>
 4    1  0.2496748E+000  0.5232283E+02  0.7957747E-01  0.1433201E+00
         13   -1    0    0    0    0  0.00000000000E+00  0.00000000000E+00  0.99999944170E+02  0.99999999990E+02  0.10566000000E+00 0.  1.
         22   -1    0    0    0    0 -0.00000000000E+00 -0.00000000000E+00 -0.21151904783E+02  0.21151904783E+02  0.00000000000E+00 0. -1.
         13    1    1    2    0    0  0.17746256360E+01 -0.15314358077E+02 -0.97613445351E+01  0.18247571636E+02  0.10566000000E+00 0. -1.
        996    1    1    2    0    0 -0.17746256360E+01  0.15314358077E+02  0.88609383921E+02  0.10290433314E+03  0.50000000000E+02 0.  0.
<mgrwt>
<rscale>  0 0.52322833E+02</rscale>
<asrwt>0</asrwt>
<pdfrwt beam="1">  1       13 0.10000000E+01 0.52322833E+02</pdfrwt>
<pdfrwt beam="2">  1       22 0.21151927E+00 0.52322833E+02</pdfrwt>
<totfact> 0.40795922E-01</totfact>
</mgrwt>
</event>
<event>
 4    1  0.2496748E+000  0.5319629E+02  0.7957747E-01  0.1428826E+00
         13   -1    0    0    0    0  0.00000000000E+00  0.00000000000E+00  0.99999944186E+02  0.10000000001E+03  0.10566000000E+00 0. -1.
         22   -1    0    0    0    0 -0.00000000000E+00 -0.00000000000E+00 -0.78570757147E+02  0.78570757147E+02  0.00000000000E+00 0.  1.
         13    1    1    2    0    0  0.66928133861E+01  0.16883482649E+02 -0.70258778276E+02  0.72568263216E+02  0.10566000000E+00 0.  1.
        996    1    1    2    0    0 -0.66928133861E+01 -0.16883482649E+02  0.91687965315E+02  0.10600249394E+03  0.50000000000E+02 0.  0.
<mgrwt>
<rscale>  0 0.53196294E+02</rscale>
<asrwt>0</asrwt>
<pdfrwt beam="1">  1       13 0.10000000E+01 0.53196294E+02</pdfrwt>
<pdfrwt beam="2">  1       22 0.78570763E+00 0.53196294E+02</pdfrwt>
<totfact> 0.35214779E-02</totfact>
</mgrwt>
</event>
<event>
 4    1  0.2496748E+000  0.5202460E+02  0.7957747E-01  0.1434718E+00
         13   -1    0    0    0    0  0.00000000000E+00  0.00000000000E+00  0.99999944176E+02  0.99999999996E+02  0.10566000000E+00 0. -1.
         22   -1    0    0    0    0 -0.00000000000E+00 -0.00000000000E+00 -0.11247811293E+02  0.11247811293E+02  0.00000000000E+00 0. -1.
         13    1    1    2    0    0  0.13417211198E+01  0.14309393336E+02  0.13187317632E+02  0.19505780260E+02  0.10566000000E+00 0.  1.
        996    1    1    2    0    0 -0.13417211198E+01 -0.14309393336E+02  0.75564815252E+02  0.91742031029E+02  0.50000000000E+02 0.  0.
<mgrwt>
<rscale>  0 0.52024600E+02</rscale>
<asrwt>0</asrwt>
<pdfrwt beam="1">  1       13 0.10000000E+01 0.52024600E+02</pdfrwt>
<pdfrwt beam="2">  1       22 0.11247836E+00 0.52024600E+02</pdfrwt>
<totfact> 0.11856932E+00</totfact>
</mgrwt>
</event>
<event>
 4    1  0.2496748E+000  0.5196683E+02  0.7957747E-01  0.1435013E+00
         13   -1    0    0    0    0  0.00000000000E+00  0.00000000000E+00  0.99999944179E+02  0.99999999999E+02  0.10566000000E+00 0. -1.
         22   -1    0    0    0    0 -0.00000000000E+00 -0.00000000000E+00 -0.12383027271E+02  0.12383027271E+02  0.00000000000E+00 0.  1.
         13    1    1    2    0    0 -0.14134739357E+02  0.87181627496E+00  0.54759680248E+01  0.15183817378E+02  0.10566000000E+00 0.  1.
        996    1    1    2    0    0  0.14134739357E+02 -0.87181627496E+00  0.82140948883E+02  0.97199209892E+02  0.50000000000E+02 0.  0.
<mgrwt>
<rscale>  0 0.51966825E+02</rscale>
<asrwt>0</asrwt>
<pdfrwt beam="1">  1       13 0.10000000E+01 0.51966825E+02</pdfrwt>
<pdfrwt beam="2">  1       22 0.12383052E+00 0.51966825E+02</pdfrwt>
<totfact> 0.10240861E+00</totfact>
</mgrwt>
</event>
<event>
 4    1  0.2496748E+000  0.5182116E+02  0.7957747E-01  0.1435759E+00
         13   -1    0    0    0    0  0.00000000000E+00  0.00000000000E+00  0.99999944182E+02  0.10000000000E+03  0.10566000000E+00 0. -1.
         22   -1    0    0    0    0 -0.00000000000E+00 -0.00000000000E+00 -0.15181483635E+02  0.15181483635E+02  0.00000000000E+00 0. -1.
         13    1    1    2    0    0 -0.10217068679E+02 -0.90024521256E+01 -0.23047537196E+01  0.13811433322E+02  0.10566000000E+00 0.  1.
        996    1    1    2    0    0  0.10217068679E+02  0.90024521256E+01  0.87123214267E+02  0.10137005032E+03  0.50000000000E+02 0.  0.
<mgrwt>
<rscale>  0 0.51821160E+02</rscale>
<asrwt>0</asrwt>
<pdfrwt beam="1">  1       13 0.10000000E+01 0.51821160E+02</pdfrwt>
<pdfrwt beam="2">  1       22 0.15181507E+00 0.51821160E+02</pdfrwt>
<totfact> 0.73769278E-01</totfact>
</mgrwt>
</event>
<event>
 4    1  0.2496748E+000  0.5227964E+02  0.7957747E-01  0.1433420E+00
         13   -1    0    0    0    0  0.00000000000E+00  0.00000000000E+00  0.99999944178E+02  0.99999999998E+02  0.10566000000E+00 0. -1.
         22   -1    0    0    0    0 -0.00000000000E+00 -0.00000000000E+00 -0.11421720293E+02  0.11421720293E+02  0.00000000000E+00 0.  1.
         13    1    1    2    0    0  0.60653850208E+01  0.14013260934E+02  0.18400227574E+02  0.23911083545E+02  0.10566000000E+00 0.  1.
        996    1    1    2    0    0 -0.60653850208E+01 -0.14013260934E+02  0.70177996311E+02  0.87510636746E+02  0.50000000000E+02 0.  0.
<mgrwt>
<rscale>  0 0.52279636E+02</rscale>
<asrwt>0</asrwt>
<pdfrwt beam="1">  1       13 0.10000000E+01 0.52279636E+02</pdfrwt>
<pdfrwt beam="2">  1       22 0.11421745E+00 0.52279636E+02</pdfrwt>
<totfact> 0.11593586E+00</totfact>
</mgrwt>
</event>
<event>
 4    1  0.2496748E+000  0.5326914E+02  0.7957747E-01  0.1428466E+00
         13   -1    0    0    0    0  0.00000000000E+00  0.00000000000E+00  0.99999944182E+02  0.10000000000E+03  0.10566000000E+00 0. -1.
         22   -1    0    0    0    0 -0.00000000000E+00 -0.00000000000E+00 -0.19545079730E+02  0.19545079730E+02  0.00000000000E+00 0.  1.
         13    1    1    2    0    0 -0.18125764652E+02 -0.30095966093E+01 -0.48233037602E+01  0.18996748121E+02  0.10566000000E+00 0.  1.
        996    1    1    2    0    0  0.18125764652E+02  0.30095966093E+01  0.85278168212E+02  0.10054833161E+03  0.50000000000E+02 0.  0.
<mgrwt>
<rscale>  0 0.53269138E+02</rscale>
<asrwt>0</asrwt>
<pdfrwt beam="1">  1       13 0.10000000E+01 0.53269138E+02</pdfrwt>
<pdfrwt beam="2">  1       22 0.19545102E+00 0.53269138E+02</pdfrwt>
<totfact> 0.47394304E-01</totfact>
</mgrwt>
</event>
<event>
 4    1  0.2496748E+000  0.5336156E+02  0.7957747E-01  0.1428010E+00
         13   -1    0    0    0    0  0.00000000000E+00  0.00000000000E+00  0.99999944180E+02  0.10000000000E+03  0.10566000000E+00 0.  1.
         22   -1    0    0    0    0 -0.00000000000E+00 -0.00000000000E+00 -0.14443780287E+02  0.14443780287E+02  0.00000000000E+00 0.  1.
         13    1    1    2    0    0 -0.15415134089E+02 -0.10479956554E+02  0.79564776211E+01  0.20267524480E+02  0.10566000000E+00 0. -1.
        996    1    1    2    0    0  0.15415134089E+02  0.10479956554E+02  0.77599686272E+02  0.94176255808E+02  0.50000000000E+02 0.  0.
<mgrwt>
<rscale>  0 0.53361558E+02</rscale>
<asrwt>0</asrwt>
<pdfrwt beam="1">  1       13 0.10000000E+01 0.53361558E+02</pdfrwt>
<pdfrwt beam="2">  1       22 0.14443804E+00 0.53361558E+02</pdfrwt>
<totfact> 0.80367908E-01</totfact>
</mgrwt>
</event>
<event>
 4    1  0.2496748E+000  0.5276756E+02  0.7957747E-01  0.1430961E+00
         13   -1    0    0    0    0  0.00000000000E+00  0.00000000000E+00  0.99999944172E+02  0.99999999992E+02  0.10566000000E+00 0.  1.
         22   -1    0    0    0    0 -0.00000000000E+00 -0.00000000000E+00 -0.29244137814E+02  0.29244137814E+02  0.00000000000E+00 0. -1.
         13    1    1    2    0    0 -0.15589411504E+02  0.64331730946E+01 -0.18826559214E+02  0.25275797969E+02  0.10566000000E+00 0. -1.
        996    1    1    2    0    0  0.15589411504E+02 -0.64331730946E+01  0.89582365571E+02  0.10396833984E+03  0.50000000000E+02 0.  0.
<mgrwt>
<rscale>  0 0.52767561E+02</rscale>
<asrwt>0</asrwt>
<pdfrwt beam="1">  1       13 0.10000000E+01 0.52767561E+02</pdfrwt>
<pdfrwt beam="2">  1       22 0.29244158E+00 0.52767561E+02</pdfrwt>
<totfact> 0.21745280E-01</totfact>
</mgrwt>
</event>
<event>
 4    1  0.2496748E+000  0.5244001E+02  0.7957747E-01  0.1432608E+00
         13   -1    0    0    0    0  0.00000000000E+00  0.00000000000E+00  0.99999944183E+02  0.10000000000E+03  0.10566000000E+00 0. -1.
         22   -1    0    0    0    0 -0.00000000000E+00 -0.00000000000E+00 -0.11737491008E+02  0.11737491008E+02  0.00000000000E+00 0.  1.
         13    1    1    2    0    0 -0.15752164800E+02  0.13503606046E+01  0.16446311453E+02  0.22813296432E+02  0.10566000000E+00 0.  1.
        996    1    1    2    0    0  0.15752164800E+02 -0.13503606046E+01  0.71816141722E+02  0.88924194579E+02  0.50000000000E+02 0.  0.
<mgrwt>
<rscale>  0 0.52440005E+02</rscale>
<asrwt>0</asrwt>
<pdfrwt beam="1">  1       13 0.10000000E+01 0.52440005E+02</pdfrwt>
<pdfrwt beam="2">  1       22 0.11737516E+00 0.52440005E+02</pdfrwt>
<totfact> 0.11129240E+00</totfact>
</mgrwt>
</event>
<event>
 4    1  0.2496748E+000  0.5616836E+02  0.7957747E-01  0.1414653E+00
         13   -1    0    0    0    0  0.00000000000E+00  0.00000000000E+00  0.99999944178E+02  0.99999999998E+02  0.10566000000E+00 0.  1.
         22   -1    0    0    0    0 -0.00000000000E+00 -0.00000000000E+00 -0.38977130225E+02  0.38977130225E+02  0.00000000000E+00 0. -1.
         13    1    1    2    0    0  0.12426604921E+02  0.22371053794E+02 -0.25302137761E+02  0.35987413037E+02  0.10566000000E+00 0. -1.
        996    1    1    2    0    0 -0.12426604921E+02 -0.22371053794E+02  0.86324951714E+02  0.10298971719E+03  0.50000000000E+02 0.  0.
<mgrwt>
<rscale>  0 0.56168359E+02</rscale>
<asrwt>0</asrwt>
<pdfrwt beam="1">  1       13 0.10000000E+01 0.56168359E+02</pdfrwt>
<pdfrwt beam="2">  1       22 0.38977147E+00 0.56168359E+02</pdfrwt>
<totfact> 0.13024434E-01</totfact>
</mgrwt>
</event>
<event>
 4    1  0.2496748E+000  0.5306905E+02  0.7957747E-01  0.1429458E+00
         13   -1    0    0    0    0  0.00000000000E+00  0.00000000000E+00  0.99999944177E+02  0.99999999997E+02  0.10566000000E+00 0.  1.
         22   -1    0    0    0    0 -0.00000000000E+00 -0.00000000000E+00 -0.12783837494E+02  0.12783837494E+02  0.00000000000E+00 0.  1.
         13    1    1    2    0    0  0.15146853240E+02 -0.93218779501E+01  0.15668869241E+02  0.23703358389E+02  0.10566000000E+00 0. -1.
        996    1    1    2    0    0 -0.15146853240E+02  0.93218779501E+01  0.71547237441E+02  0.89080479102E+02  0.50000000000E+02 0.  0.
<mgrwt>
<rscale>  0 0.53069055E+02</rscale>
<asrwt>0</asrwt>
<pdfrwt beam="1">  1       13 0.10000000E+01 0.53069055E+02</pdfrwt>
<pdfrwt beam="2">  1       22 0.12783862E+00 0.53069055E+02</pdfrwt>
<totfact> 0.97684730E-01</totfact>
</mgrwt>
</event>
<event>
 4    1  0.2496748E+000  0.6062598E+02  0.7957747E-01  0.1395223E+00
         13   -1    0    0    0    0  0.00000000000E+00  0.00000000000E+00  0.99999944172E+02  0.99999999992E+02  0.10566000000E+00 0.  1.
         22   -1    0    0    0    0 -0.00000000000E+00 -0.00000000000E+00 -0.51807255800E+02  0.51807255800E+02  0.00000000000E+00 0. -1.
         13    1    1    2    0    0 -0.32514215410E+02 -0.10878205096E+02 -0.34916347917E+02  0.48935386641E+02  0.10566000000E+00 0. -1.
        996    1    1    2    0    0  0.32514215410E+02  0.10878205096E+02  0.83109036289E+02  0.10287186915E+03  0.50000000000E+02 0.  0.
<mgrwt>
<rscale>  0 0.60625981E+02</rscale>
<asrwt>0</asrwt>
<pdfrwt beam="1">  1       13 0.10000000E+01 0.60625981E+02</pdfrwt>
<pdfrwt beam="2">  1       22 0.51807269E+00 0.60625981E+02</pdfrwt>
<totfact> 0.67145281E-02</totfact>
</mgrwt>
</event>
<event>
 4    1  0.2496748E+000  0.7822496E+02  0.7957747E-01  0.1334166E+00
         13   -1    0    0    0    0  0.00000000000E+00  0.00000000000E+00  0.99999944177E+02  0.99999999997E+02  0.10566000000E+00 0.  1.
         22   -1    0    0    0    0 -0.00000000000E+00 -0.00000000000E+00 -0.88364657956E+02  0.88364657956E+02  0.00000000000E+00 0. -1.
         13    1    1    2    0    0  0.57959847131E+02 -0.16118334295E+02 -0.58051586932E+02  0.83601091435E+02  0.10566000000E+00 0. -1.
        996    1    1    2    0    0 -0.57959847131E+02  0.16118334295E+02  0.69686873152E+02  0.10476356652E+03  0.50000000000E+02 0.  0.
<mgrwt>
<rscale>  0 0.78224961E+02</rscale>
<asrwt>0</asrwt>
<pdfrwt beam="1">  1       13 0.10000000E+01 0.78224961E+02</pdfrwt>
<pdfrwt beam="2">  1       22 0.88364661E+00 0.78224961E+02</pdfrwt>
<totfact> 0.12899569E-02</totfact>
</mgrwt>
</event>
<event>
 4    1  0.2496748E+000  0.5126090E+02  0.7957747E-01  0.1438657E+00
         13   -1    0    0    0    0  0.00000000000E+00  0.00000000000E+00  0.99999944182E+02  0.10000000000E+03  0.10566000000E+00 0. -1.
         22   -1    0    0    0    0 -0.00000000000E+00 -0.00000000000E+00 -0.10132368524E+02  0.10132368524E+02  0.00000000000E+00 0. -1.
         13    1    1    2    0    0 -0.37133953434E+01  0.10671950339E+02  0.92762263187E+01  0.14619827898E+02  0.10566000000E+00 0.  1.
        996    1    1    2    0    0  0.37133953434E+01 -0.10671950339E+02  0.80591349339E+02  0.95512540628E+02  0.50000000000E+02 0.  0.
<mgrwt>
<rscale>  0 0.51260900E+02</rscale>
<asrwt>0</asrwt>
<pdfrwt beam="1">  1       13 0.10000000E+01 0.51260900E+02</pdfrwt>
<pdfrwt beam="2">  1       22 0.10132394E+00 0.51260900E+02</pdfrwt>
<totfact> 0.13806800E+00</totfact>
</mgrwt>
</event>
<event>
 4    1  0.2496748E+000  0.5687043E+02  0.7957747E-01  0.1411455E+00
         13   -1    0    0    0    0  0.00000000000E+00  0.00000000000E+00  0.99999944173E+02  0.99999999993E+02  0.10566000000E+00 0.  1.
         22   -1    0    0    0    0 -0.00000000000E+00 -0.00000000000E+00 -0.35034939578E+02  0.35034939578E+02  0.00000000000E+00 0. -1.
         13    1    1    2    0    0 -0.19099695871E+02  0.19221023517E+02 -0.19375698361E+02  0.33311784377E+02  0.10566000000E+00 0. -1.
        996    1    1    2    0    0  0.19099695871E+02 -0.19221023517E+02  0.84340702956E+02  0.10172315519E+03  0.50000000000E+02 0.  0.
<mgrwt>
<rscale>  0 0.56870433E+02</rscale>
<asrwt>0</asrwt>
<pdfrwt beam="1">  1       13 0.10000000E+01 0.56870433E+02</pdfrwt>
<pdfrwt beam="2">  1       22 0.35034958E+00 0.56870433E+02</pdfrwt>
<totfact> 0.15762746E-01</totfact>
</mgrwt>
</event>
<event>
 4    1  0.2496748E+000  0.5111017E+02  0.7957747E-01  0.1439444E+00
         13   -1    0    0    0    0  0.00000000000E+00  0.00000000000E+00  0.99999944173E+02  0.99999999993E+02  0.10566000000E+00 0. -1.
         22   -1    0    0    0    0 -0.00000000000E+00 -0.00000000000E+00 -0.11931072689E+02  0.11931072689E+02  0.00000000000E+00 0.  1.
         13    1    1    2    0    0 -0.18298447082E+00  0.10593193296E+02  0.58505266530E+00  0.10611440909E+02  0.10566000000E+00 0.  1.
        996    1    1    2    0    0  0.18298447082E+00 -0.10593193296E+02  0.87483818818E+02  0.10131963177E+03  0.50000000000E+02 0.  0.
<mgrwt>
<rscale>  0 0.51110168E+02</rscale>
<asrwt>0</asrwt>
<pdfrwt beam="1">  1       13 0.10000000E+01 0.51110168E+02</pdfrwt>
<pdfrwt beam="2">  1       22 0.11931097E+00 0.51110168E+02</pdfrwt>
<totfact> 0.10822787E+00</totfact>
</mgrwt>
</event>
<event>
 4    1  0.2496748E+000  0.5450107E+02  0.7957747E-01  0.1422473E+00
         13   -1    0    0    0    0  0.00000000000E+00  0.00000000000E+00  0.99999944186E+02  0.10000000001E+03  0.10566000000E+00 0.  1.
         22   -1    0    0    0    0 -0.00000000000E+00 -0.00000000000E+00 -0.19130917590E+02  0.19130917590E+02  0.00000000000E+00 0. -1.
         13    1    1    2    0    0 -0.20521999531E+02 -0.70152658465E+01  0.93538733489E-01  0.21688391669E+02  0.10566000000E+00 0. -1.
        996    1    1    2    0    0  0.20521999531E+02  0.70152658465E+01  0.80775487862E+02  0.97442525927E+02  0.50000000000E+02 0.  0.
<mgrwt>
<rscale>  0 0.54501068E+02</rscale>
<asrwt>0</asrwt>
<pdfrwt beam="1">  1       13 0.10000000E+01 0.54501068E+02</pdfrwt>
<pdfrwt beam="2">  1       22 0.19130940E+00 0.54501068E+02</pdfrwt>
<totfact> 0.49410884E-01</totfact>
</mgrwt>
</event>
<event>
 4    1  0.2496748E+000  0.5367283E+02  0.7957747E-01  0.1426481E+00
         13   -1    0    0    0    0  0.00000000000E+00  0.00000000000E+00  0.99999944180E+02  0.10000000000E+03  0.10566000000E+00 0.  1.
         22   -1    0    0    0    0 -0.00000000000E+00 -0.00000000000E+00 -0.65206206219E+02  0.65206206219E+02  0.00000000000E+00 0. -1.
         13    1    1    2    0    0  0.61108773595E+01  0.18531868692E+02 -0.56239272173E+02  0.59528479553E+02  0.10566000000E+00 0. -1.
        996    1    1    2    0    0 -0.61108773595E+01 -0.18531868692E+02  0.91033010134E+02  0.10567772667E+03  0.50000000000E+02 0.  0.
<mgrwt>
<rscale>  0 0.53672833E+02</rscale>
<asrwt>0</asrwt>
<pdfrwt beam="1">  1       13 0.10000000E+01 0.53672833E+02</pdfrwt>
<pdfrwt beam="2">  1       22 0.65206216E+00 0.53672833E+02</pdfrwt>
<totfact> 0.86746096E-02</totfact>
</mgrwt>
</event>
<event>
 4    1  0.2496748E+000  0.5984918E+02  0.7957747E-01  0.1398466E+00
         13   -1    0    0    0    0  0.00000000000E+00  0.00000000000E+00  0.99999944175E+02  0.99999999996E+02  0.10566000000E+00 0. -1.
         22   -1    0    0    0    0 -0.00000000000E+00 -0.00000000000E+00 -0.33771579863E+02  0.33771579863E+02  0.00000000000E+00 0.  1.
         13    1    1    2    0    0 -0.12891951766E+02  0.30260902223E+02 -0.12229337950E+02  0.35092627351E+02  0.10566000000E+00 0.  1.
        996    1    1    2    0    0  0.12891951766E+02 -0.30260902223E+02  0.78457702262E+02  0.98678952507E+02  0.50000000000E+02 0.  0.
<mgrwt>
<rscale>  0 0.59849182E+02</rscale>
<asrwt>0</asrwt>
<pdfrwt beam="1">  1       13 0.10000000E+01 0.59849182E+02</pdfrwt>
<pdfrwt beam="2">  1       22 0.33771598E+00 0.59849182E+02</pdfrwt>
<totfact> 0.16861089E-01</totfact>
</mgrwt>
</event>
<event>
 4    1  0.2496748E+000  0.5101381E+02  0.7957747E-01  0.1439949E+00
         13   -1    0    0    0    0  0.00000000000E+00  0.00000000000E+00  0.99999944182E+02  0.10000000000E+03  0.10566000000E+00 0.  1.
         22   -1    0    0    0    0 -0.00000000000E+00 -0.00000000000E+00 -0.12265652941E+02  0.12265652941E+02  0.00000000000E+00 0.  1.
         13    1    1    2    0    0 -0.99596851005E+01  0.17927219266E+01  0.43759119991E+02  0.44914150617E+02  0.10566000000E+00 0. -1.
        996    1    1    2    0    0  0.99596851005E+01 -0.17927219266E+01  0.43975171250E+02  0.67351502327E+02  0.50000000000E+02 0.  0.
<mgrwt>
<rscale>  0 0.51013814E+02</rscale>
<asrwt>0</asrwt>
<pdfrwt beam="1">  1       13 0.10000000E+01 0.51013814E+02</pdfrwt>
<pdfrwt beam="2">  1       22 0.12265677E+00 0.51013814E+02</pdfrwt>
<totfact> 0.10370602E+00</totfact>
</mgrwt>
</event>
<event>
 4    1  0.2496748E+000  0.5773742E+02  0.7957747E-01  0.1407580E+00
         13   -1    0    0    0    0  0.00000000000E+00  0.00000000000E+00  0.99999944179E+02  0.99999999999E+02  0.10566000000E+00 0. -1.
         22   -1    0    0    0    0 -0.00000000000E+00 -0.00000000000E+00 -0.68369042552E+02  0.68369042552E+02  0.00000000000E+00 0.  1.
         13    1    1    2    0    0  0.24355559568E+02 -0.15505358065E+02 -0.56244867394E+02  0.63222667476E+02  0.10566000000E+00 0.  1.
        996    1    1    2    0    0 -0.24355559568E+02  0.15505358065E+02  0.87875769021E+02  0.10514637508E+03  0.50000000000E+02 0.  0.
<mgrwt>
<rscale>  0 0.57737418E+02</rscale>
<asrwt>0</asrwt>
<pdfrwt beam="1">  1       13 0.10000000E+01 0.57737418E+02</pdfrwt>
<pdfrwt beam="2">  1       22 0.68369051E+00 0.57737418E+02</pdfrwt>
<totfact> 0.82104509E-02</totfact>
</mgrwt>
</event>
<event>
 4    1  0.2496748E+000  0.5347131E+02  0.7957747E-01  0.1427470E+00
         13   -1    0    0    0    0  0.00000000000E+00  0.00000000000E+00  0.99999944172E+02  0.99999999992E+02  0.10566000000E+00 0.  1.
         22   -1    0    0    0    0 -0.00000000000E+00 -0.00000000000E+00 -0.19800462523E+02  0.19800462523E+02  0.00000000000E+00 0. -1.
         13    1    1    2    0    0  0.16718899403E+02 -0.89252135659E+01 -0.46438558161E+01  0.19513010924E+02  0.10566000000E+00 0. -1.
        996    1    1    2    0    0 -0.16718899403E+02  0.89252135659E+01  0.84843337464E+02  0.10028745159E+03  0.50000000000E+02 0.  0.
<mgrwt>
<rscale>  0 0.53471310E+02</rscale>
<asrwt>0</asrwt>
<pdfrwt beam="1">  1       13 0.10000000E+01 0.53471310E+02</pdfrwt>
<pdfrwt beam="2">  1       22 0.19800485E+00 0.53471310E+02</pdfrwt>
<totfact> 0.46282711E-01</totfact>
</mgrwt>
</event>
<event>
 4    1  0.2496748E+000  0.5667146E+02  0.7957747E-01  0.1412356E+00
         13   -1    0    0    0    0  0.00000000000E+00  0.00000000000E+00  0.99999944178E+02  0.99999999998E+02  0.10566000000E+00 0.  1.
         22   -1    0    0    0    0 -0.00000000000E+00 -0.00000000000E+00 -0.17873050986E+02  0.17873050986E+02  0.00000000000E+00 0.  1.
         13    1    1    2    0    0  0.59725058320E+01  0.25999677517E+02  0.17435815491E+02  0.31869623198E+02  0.10566000000E+00 0. -1.
        996    1    1    2    0    0 -0.59725058320E+01 -0.25999677517E+02  0.64691077701E+02  0.86003427786E+02  0.50000000000E+02 0.  0.
<mgrwt>
<rscale>  0 0.56671457E+02</rscale>
<asrwt>0</asrwt>
<pdfrwt beam="1">  1       13 0.10000000E+01 0.56671457E+02</pdfrwt>
<pdfrwt beam="2">  1       22 0.17873074E+00 0.56671457E+02</pdfrwt>
<totfact> 0.56112836E-01</totfact>
</mgrwt>
</event>
<event>
 4    1  0.2496748E+000  0.5102670E+02  0.7957747E-01  0.1439881E+00
         13   -1    0    0    0    0  0.00000000000E+00  0.00000000000E+00  0.99999944182E+02  0.10000000000E+03  0.10566000000E+00 0. -1.
         22   -1    0    0    0    0 -0.00000000000E+00 -0.00000000000E+00 -0.24894123193E+02  0.24894123193E+02  0.00000000000E+00 0. -1.
         13    1    1    2    0    0 -0.10176495584E+02 -0.40354539020E+00 -0.16873395458E+02  0.19709047404E+02  0.10566000000E+00 0.  1.
        996    1    1    2    0    0  0.10176495584E+02  0.40354539020E+00  0.91979216446E+02  0.10518507579E+03  0.50000000000E+02 0.  0.
<mgrwt>
<rscale>  0 0.51026698E+02</rscale>
<asrwt>0</asrwt>
<pdfrwt beam="1">  1       13 0.10000000E+01 0.51026698E+02</pdfrwt>
<pdfrwt beam="2">  1       22 0.24894144E+00 0.51026698E+02</pdfrwt>
<totfact> 0.29680461E-01</totfact>
</mgrwt>
</event>
<event>
 4    1  0.2496748E+000  0.5127067E+02  0.7957747E-01  0.1438606E+00
         13   -1    0    0    0    0  0.00000000000E+00  0.00000000000E+00  0.99999944176E+02  0.99999999996E+02  0.10566000000E+00 0.  1.
         22   -1    0    0    0    0 -0.00000000000E+00 -0.00000000000E+00 -0.98518790466E+01  0.98518790466E+01  0.00000000000E+00 0.  1.
         13    1    1    2    0    0  0.86587022912E+01  0.73285798696E+01  0.13449963399E+02  0.17595280269E+02  0.10566000000E+00 0. -1.
        996    1    1    2    0    0 -0.86587022912E+01 -0.73285798696E+01  0.76698101730E+02  0.92256598773E+02  0.50000000000E+02 0.  0.
<mgrwt>
<rscale>  0 0.51270666E+02</rscale>
<asrwt>0</asrwt>
<pdfrwt beam="1">  1       13 0.10000000E+01 0.51270666E+02</pdfrwt>
<pdfrwt beam="2">  1       22 0.98519042E-01 0.51270666E+02</pdfrwt>
<totfact> 0.14379842E+00</totfact>
</mgrwt>
</event>
<event>
 4    1  0.2496748E+000  0.5235296E+02  0.7957747E-01  0.1433048E+00
         13   -1    0    0    0    0  0.00000000000E+00  0.00000000000E+00  0.99999944184E+02  0.10000000000E+03  0.10566000000E+00 0.  1.
         22   -1    0    0    0    0 -0.00000000000E+00 -0.00000000000E+00 -0.12586632856E+02  0.12586632856E+02  0.00000000000E+00 0.  1.
         13    1    1    2    0    0 -0.15517359785E+02  0.20980297599E+00  0.36033022886E+02  0.39232924621E+02  0.10566000000E+00 0. -1.
        996    1    1    2    0    0  0.15517359785E+02 -0.20980297599E+00  0.51380288443E+02  0.73353708239E+02  0.50000000000E+02 0.  0.
<mgrwt>
<rscale>  0 0.52352960E+02</rscale>
<asrwt>0</asrwt>
<pdfrwt beam="1">  1       13 0.10000000E+01 0.52352960E+02</pdfrwt>
<pdfrwt beam="2">  1       22 0.12586657E+00 0.52352960E+02</pdfrwt>
<totfact> 0.99931986E-01</totfact>
</mgrwt>
</event>
<event>
 4    1  0.2496748E+000  0.5480560E+02  0.7957747E-01  0.1421020E+00
         13   -1    0    0    0    0  0.00000000000E+00  0.00000000000E+00  0.99999944179E+02  0.99999999999E+02  0.10566000000E+00 0. -1.
         22   -1    0    0    0    0 -0.00000000000E+00 -0.00000000000E+00 -0.15795624951E+02  0.15795624951E+02  0.00000000000E+00 0. -1.
         13    1    1    2    0    0  0.18467969561E+02  0.12750986725E+02  0.12979331206E+02  0.25925426993E+02  0.10566000000E+00 0.  1.
        996    1    1    2    0    0 -0.18467969561E+02 -0.12750986725E+02  0.71224988022E+02  0.89870197957E+02  0.50000000000E+02 0.  0.
<mgrwt>
<rscale>  0 0.54805598E+02</rscale>
<asrwt>0</asrwt>
<pdfrwt beam="1">  1       13 0.10000000E+01 0.54805598E+02</pdfrwt>
<pdfrwt beam="2">  1       22 0.15795648E+00 0.54805598E+02</pdfrwt>
<totfact> 0.69398635E-01</totfact>
</mgrwt>
</event>
<event>
 4    1  0.2496748E+000  0.5402048E+02  0.7957747E-01  0.1424789E+00
         13   -1    0    0    0    0  0.00000000000E+00  0.00000000000E+00  0.99999944174E+02  0.99999999994E+02  0.10566000000E+00 0.  1.
         22   -1    0    0    0    0 -0.00000000000E+00 -0.00000000000E+00 -0.16151190390E+02  0.16151190390E+02  0.00000000000E+00 0. -1.
         13    1    1    2    0    0  0.19477937765E+02  0.62307363215E+01  0.58473434249E+01  0.21270042874E+02  0.10566000000E+00 0. -1.
        996    1    1    2    0    0 -0.19477937765E+02 -0.62307363215E+01  0.78001410359E+02  0.94881147510E+02  0.50000000000E+02 0.  0.
<mgrwt>
<rscale>  0 0.54020479E+02</rscale>
<asrwt>0</asrwt>
<pdfrwt beam="1">  1       13 0.10000000E+01 0.54020479E+02</pdfrwt>
<pdfrwt beam="2">  1       22 0.16151214E+00 0.54020479E+02</pdfrwt>
<totfact> 0.66706734E-01</totfact>
</mgrwt>
</event>
<event>
 4    1  0.2496748E+000  0.5495364E+02  0.7957747E-01  0.1420318E+00
         13   -1    0    0    0    0  0.00000000000E+00  0.00000000000E+00  0.99999944177E+02  0.99999999997E+02  0.10566000000E+00 0. -1.
         22   -1    0    0    0    0 -0.00000000000E+00 -0.00000000000E+00 -0.25000560588E+02  0.25000560588E+02  0.00000000000E+00 0.  1.
         13    1    1    2    0    0  0.12898440991E+02 -0.18802457565E+02 -0.90901958092E+01  0.24546792344E+02  0.10566000000E+00 0.  1.
        996    1    1    2    0    0 -0.12898440991E+02  0.18802457565E+02  0.84089579399E+02  0.10045376824E+03  0.50000000000E+02 0.  0.
<mgrwt>
<rscale>  0 0.54953637E+02</rscale>
<asrwt>0</asrwt>
<pdfrwt beam="1">  1       13 0.10000000E+01 0.54953637E+02</pdfrwt>
<pdfrwt beam="2">  1       22 0.25000582E+00 0.54953637E+02</pdfrwt>
<totfact> 0.29611023E-01</totfact>
</mgrwt>
</event>
<event>
 4    1  0.2496748E+000  0.5102461E+02  0.7957747E-01  0.1439892E+00
         13   -1    0    0    0    0  0.00000000000E+00  0.00000000000E+00  0.99999944178E+02  0.99999999998E+02  0.10566000000E+00 0.  1.
         22   -1    0    0    0    0 -0.00000000000E+00 -0.00000000000E+00 -0.66072994317E+02  0.66072994317E+02  0.00000000000E+00 0. -1.
         13    1    1    2    0    0 -0.10080600696E+02 -0.13755925015E+01 -0.59101121668E+02  0.59970530359E+02  0.10566000000E+00 0. -1.
        996    1    1    2    0    0  0.10080600696E+02  0.13755925015E+01  0.93028071529E+02  0.10610246396E+03  0.50000000000E+02 0.  0.
<mgrwt>
<rscale>  0 0.51024609E+02</rscale>
<asrwt>0</asrwt>
<pdfrwt beam="1">  1       13 0.10000000E+01 0.51024609E+02</pdfrwt>
<pdfrwt beam="2">  1       22 0.66073004E+00 0.51024609E+02</pdfrwt>
<totfact> 0.87254438E-02</totfact>
</mgrwt>
</event>
<event>
 4    1  0.2496748E+000  0.5598644E+02  0.7957747E-01  0.1415491E+00
         13   -1    0    0    0    0  0.00000000000E+00  0.00000000000E+00  0.99999944180E+02  0.10000000000E+03  0.10566000000E+00 0. -1.
         22   -1    0    0    0    0 -0.00000000000E+00 -0.00000000000E+00 -0.29740897104E+02  0.29740897104E+02  0.00000000000E+00 0.  1.
         13    1    1    2    0    0  0.94933856682E+01 -0.23331458277E+02 -0.13816912384E+02  0.28729767639E+02  0.10566000000E+00 0.  1.
        996    1    1    2    0    0 -0.94933856682E+01  0.23331458277E+02  0.84075959460E+02  0.10101112947E+03  0.50000000000E+02 0.  0.
<mgrwt>
<rscale>  0 0.55986439E+02</rscale>
<asrwt>0</asrwt>
<pdfrwt beam="1">  1       13 0.10000000E+01 0.55986439E+02</pdfrwt>
<pdfrwt beam="2">  1       22 0.29740917E+00 0.55986439E+02</pdfrwt>
<totfact> 0.21150334E-01</totfact>
</mgrwt>
</event>
<event>
 4    1  0.2496748E+000  0.5138569E+02  0.7957747E-01  0.1438008E+00
         13   -1    0    0    0    0  0.00000000000E+00  0.00000000000E+00  0.99999944178E+02  0.99999999999E+02  0.10566000000E+00 0. -1.
         22   -1    0    0    0    0 -0.00000000000E+00 -0.00000000000E+00 -0.12141373649E+02  0.12141373649E+02  0.00000000000E+00 0. -1.
         13    1    1    2    0    0  0.41126163438E+01 -0.11116430385E+02  0.40717839662E+02  0.42408044856E+02  0.10566000000E+00 0.  1.
        996    1    1    2    0    0 -0.41126163438E+01  0.11116430385E+02  0.47140730867E+02  0.69733328792E+02  0.50000000000E+02 0.  0.
<mgrwt>
<rscale>  0 0.51385685E+02</rscale>
<asrwt>0</asrwt>
<pdfrwt beam="1">  1       13 0.10000000E+01 0.51385685E+02</pdfrwt>
<pdfrwt beam="2">  1       22 0.12141398E+00 0.51385685E+02</pdfrwt>
<totfact> 0.10543370E+00</totfact>
</mgrwt>
</event>
<event>
 4    1  0.2496748E+000  0.5334058E+02  0.7957747E-01  0.1428113E+00
         13   -1    0    0    0    0  0.00000000000E+00  0.00000000000E+00  0.99999944178E+02  0.99999999998E+02  0.10566000000E+00 0.  1.
         22   -1    0    0    0    0 -0.00000000000E+00 -0.00000000000E+00 -0.16398080845E+02  0.16398080845E+02  0.00000000000E+00 0. -1.
         13    1    1    2    0    0  0.99130015813E+01 -0.15714636579E+02  0.16999771351E+01  0.18657933687E+02  0.10566000000E+00 0. -1.
        996    1    1    2    0    0 -0.99130015813E+01  0.15714636579E+02  0.81901886198E+02  0.97740147156E+02  0.50000000000E+02 0.  0.
<mgrwt>
<rscale>  0 0.53340579E+02</rscale>
<asrwt>0</asrwt>
<pdfrwt beam="1">  1       13 0.10000000E+01 0.53340579E+02</pdfrwt>
<pdfrwt beam="2">  1       22 0.16398104E+00 0.53340579E+02</pdfrwt>
<totfact> 0.64901632E-01</totfact>
</mgrwt>
</event>
<event>
 4    1  0.2496748E+000  0.5161602E+02  0.7957747E-01  0.1436815E+00
         13   -1    0    0    0    0  0.00000000000E+00  0.00000000000E+00  0.99999944185E+02  0.10000000001E+03  0.10566000000E+00 0.  1.
         22   -1    0    0    0    0 -0.00000000000E+00 -0.00000000000E+00 -0.64281020909E+02  0.64281020909E+02  0.00000000000E+00 0. -1.
         13    1    1    2    0    0 -0.43868489724E+01  0.12040319792E+02 -0.56859553785E+02  0.58285793854E+02  0.10566000000E+00 0. -1.
        996    1    1    2    0    0  0.43868489724E+01 -0.12040319792E+02  0.92578477061E+02  0.10599522706E+03  0.50000000000E+02 0.  0.
<mgrwt>
<rscale>  0 0.51616022E+02</rscale>
<asrwt>0</asrwt>
<pdfrwt beam="1">  1       13 0.10000000E+01 0.51616022E+02</pdfrwt>
<pdfrwt beam="2">  1       22 0.64281031E+00 0.51616022E+02</pdfrwt>
<totfact> 0.84377680E-02</totfact>
</mgrwt>
</event>
<event>
 4    1  0.2496748E+000  0.5156647E+02  0.7957747E-01  0.1437071E+00
         13   -1    0    0    0    0  0.00000000000E+00  0.00000000000E+00  0.99999944178E+02  0.99999999998E+02  0.10566000000E+00 0. -1.
         22   -1    0    0    0    0 -0.00000000000E+00 -0.00000000000E+00 -0.13944273403E+02  0.13944273403E+02  0.00000000000E+00 0.  1.
         13    1    1    2    0    0  0.11636225587E+02  0.48681557584E+01 -0.11152173334E+01  0.12663157590E+02  0.10566000000E+00 0.  1.
        996    1    1    2    0    0 -0.11636225587E+02 -0.48681557584E+01  0.87170888108E+02  0.10128111581E+03  0.50000000000E+02 0.  0.
<mgrwt>
<rscale>  0 0.51566469E+02</rscale>
<asrwt>0</asrwt>
<pdfrwt beam="1">  1       13 0.10000000E+01 0.51566469E+02</pdfrwt>
<pdfrwt beam="2">  1       22 0.13944297E+00 0.51566469E+02</pdfrwt>
<totfact> 0.84796206E-01</totfact>
</mgrwt>
</event>
<event>
 4    1  0.2496748E+000  0.5102474E+02  0.7957747E-01  0.1439891E+00
         13   -1    0    0    0    0  0.00000000000E+00  0.00000000000E+00  0.99999944179E+02  0.99999999999E+02  0.10566000000E+00 0. -1.
         22   -1    0    0    0    0 -0.00000000000E+00 -0.00000000000E+00 -0.13603295884E+02  0.13603295884E+02  0.00000000000E+00 0.  1.
         13    1    1    2    0    0  0.10162820199E+02 -0.49141843083E+00 -0.30534089746E+01  0.10623505865E+02  0.10566000000E+00 0.  1.
        996    1    1    2    0    0 -0.10162820199E+02  0.49141843083E+00  0.89450057269E+02  0.10297979002E+03  0.50000000000E+02 0.  0.
<mgrwt>
<rscale>  0 0.51024743E+02</rscale>
<asrwt>0</asrwt>
<pdfrwt beam="1">  1       13 0.10000000E+01 0.51024743E+02</pdfrwt>
<pdfrwt beam="2">  1       22 0.13603320E+00 0.51024743E+02</pdfrwt>
<totfact> 0.88141182E-01</totfact>
</mgrwt>
</event>
<event>
 4    1  0.2496748E+000  0.5583778E+02  0.7957747E-01  0.1416178E+00
         13   -1    0    0    0    0  0.00000000000E+00  0.00000000000E+00  0.99999944182E+02  0.10000000000E+03  0.10566000000E+00 0. -1.
         22   -1    0    0    0    0 -0.00000000000E+00 -0.00000000000E+00 -0.16698013963E+02  0.16698013963E+02  0.00000000000E+00 0. -1.
         13    1    1    2    0    0 -0.24799420099E+02 -0.16872257939E+01  0.17508961652E+02  0.30404487667E+02  0.10566000000E+00 0.  1.
        996    1    1    2    0    0  0.24799420099E+02  0.16872257939E+01  0.65792968566E+02  0.86293526298E+02  0.50000000000E+02 0.  0.
<mgrwt>
<rscale>  0 0.55837783E+02</rscale>
<asrwt>0</asrwt>
<pdfrwt beam="1">  1       13 0.10000000E+01 0.55837783E+02</pdfrwt>
<pdfrwt beam="2">  1       22 0.16698037E+00 0.55837783E+02</pdfrwt>
<totfact> 0.63184840E-01</totfact>
</mgrwt>
</event>
<event>
 4    1  0.2496748E+000  0.5671678E+02  0.7957747E-01  0.1412150E+00
         13   -1    0    0    0    0  0.00000000000E+00  0.00000000000E+00  0.99999944180E+02  0.10000000000E+03  0.10566000000E+00 0.  1.
         22   -1    0    0    0    0 -0.00000000000E+00 -0.00000000000E+00 -0.20293044338E+02  0.20293044338E+02  0.00000000000E+00 0. -1.
         13    1    1    2    0    0 -0.11880966546E+02 -0.23992419779E+02  0.62582996403E+01  0.27494927739E+02  0.10566000000E+00 0. -1.
        996    1    1    2    0    0  0.11880966546E+02  0.23992419779E+02  0.73448600201E+02  0.92798116600E+02  0.50000000000E+02 0.  0.
<mgrwt>
<rscale>  0 0.56716784E+02</rscale>
<asrwt>0</asrwt>
<pdfrwt beam="1">  1       13 0.10000000E+01 0.56716784E+02</pdfrwt>
<pdfrwt beam="2">  1       22 0.20293067E+00 0.56716784E+02</pdfrwt>
<totfact> 0.44446975E-01</totfact>
</mgrwt>
</event>
<event>
 4    1  0.2496748E+000  0.6706707E+02  0.7957747E-01  0.1370360E+00
         13   -1    0    0    0    0  0.00000000000E+00  0.00000000000E+00  0.99999944180E+02  0.10000000000E+03  0.10566000000E+00 0.  1.
         22   -1    0    0    0    0 -0.00000000000E+00 -0.00000000000E+00 -0.79986185535E+02  0.79986185535E+02  0.00000000000E+00 0. -1.
         13    1    1    2    0    0  0.26061400570E+02  0.36315219357E+02 -0.60485469654E+02  0.75209673314E+02  0.10566000000E+00 0. -1.
        996    1    1    2    0    0 -0.26061400570E+02 -0.36315219357E+02  0.80499228299E+02  0.10477651222E+03  0.50000000000E+02 0.  0.
<mgrwt>
<rscale>  0 0.67067069E+02</rscale>
<asrwt>0</asrwt>
<pdfrwt beam="1">  1       13 0.10000000E+01 0.67067069E+02</pdfrwt>
<pdfrwt beam="2">  1       22 0.79986191E+00 0.67067069E+02</pdfrwt>
<totfact> 0.30911166E-02</totfact>
</mgrwt>
</event>
<event>
 4    1  0.2496748E+000  0.6339603E+02  0.7957747E-01  0.1384109E+00
         13   -1    0    0    0    0  0.00000000000E+00  0.00000000000E+00  0.99999944177E+02  0.99999999997E+02  0.10566000000E+00 0.  1.
         22   -1    0    0    0    0 -0.00000000000E+00 -0.00000000000E+00 -0.42376222543E+02  0.42376222543E+02  0.00000000000E+00 0. -1.
         13    1    1    2    0    0  0.16856151065E+02 -0.35141522853E+02 -0.18640315102E+02  0.43203344411E+02  0.10566000000E+00 0. -1.
        996    1    1    2    0    0 -0.16856151065E+02  0.35141522853E+02  0.76264036736E+02  0.99172878129E+02  0.50000000000E+02 0.  0.
<mgrwt>
<rscale>  0 0.63396029E+02</rscale>
<asrwt>0</asrwt>
<pdfrwt beam="1">  1       13 0.10000000E+01 0.63396029E+02</pdfrwt>
<pdfrwt beam="2">  1       22 0.42376239E+00 0.63396029E+02</pdfrwt>
<totfact> 0.11108773E-01</totfact>
</mgrwt>
</event>
<event>
 4    1  0.2496748E+000  0.5239041E+02  0.7957747E-01  0.1432859E+00
         13   -1    0    0    0    0  0.00000000000E+00  0.00000000000E+00  0.99999944180E+02  0.10000000000E+03  0.10566000000E+00 0. -1.
         22   -1    0    0    0    0 -0.00000000000E+00 -0.00000000000E+00 -0.11930900421E+02  0.11930900421E+02  0.00000000000E+00 0. -1.
         13    1    1    2    0    0  0.74655335000E+01 -0.13748501503E+02  0.29186524856E+02  0.33115251490E+02  0.10566000000E+00 0.  1.
        996    1    1    2    0    0 -0.74655335000E+01  0.13748501503E+02  0.58882518903E+02  0.78815648931E+02  0.50000000000E+02 0.  0.
<mgrwt>
<rscale>  0 0.52390414E+02</rscale>
<asrwt>0</asrwt>
<pdfrwt beam="1">  1       13 0.10000000E+01 0.52390414E+02</pdfrwt>
<pdfrwt beam="2">  1       22 0.11930925E+00 0.52390414E+02</pdfrwt>
<totfact> 0.10854267E+00</totfact>
</mgrwt>
</event>
<event>
 4    1  0.2496748E+000  0.5235230E+02  0.7957747E-01  0.1433052E+00
         13   -1    0    0    0    0  0.00000000000E+00  0.00000000000E+00  0.99999944184E+02  0.10000000000E+03  0.10566000000E+00 0.  1.
         22   -1    0    0    0    0 -0.00000000000E+00 -0.00000000000E+00 -0.79662178232E+02  0.79662178232E+02  0.00000000000E+00 0. -1.
         13    1    1    2    0    0  0.41706148743E+01  0.14945558099E+02 -0.71925761754E+02  0.73580500836E+02  0.10566000000E+00 0. -1.
        996    1    1    2    0    0 -0.41706148743E+01 -0.14945558099E+02  0.92263527706E+02  0.10608167740E+03  0.50000000000E+02 0.  0.
<mgrwt>
<rscale>  0 0.52352304E+02</rscale>
<asrwt>0</asrwt>
<pdfrwt beam="1">  1       13 0.10000000E+01 0.52352304E+02</pdfrwt>
<pdfrwt beam="2">  1       22 0.79662184E+00 0.52352304E+02</pdfrwt>
<totfact> 0.31864867E-02</totfact>
</mgrwt>
</event>
<event>
 4    1  0.2496748E+000  0.5168895E+02  0.7957747E-01  0.1436439E+00
         13   -1    0    0    0    0  0.00000000000E+00  0.00000000000E+00  0.99999944183E+02  0.10000000000E+03  0.10566000000E+00 0. -1.
         22   -1    0    0    0    0 -0.00000000000E+00 -0.00000000000E+00 -0.25805716511E+02  0.25805716511E+02  0.00000000000E+00 0.  1.
         13    1    1    2    0    0  0.12817788010E+02 -0.27298459952E+01 -0.16708336544E+02  0.21235051748E+02  0.10566000000E+00 0.  1.
        996    1    1    2    0    0 -0.12817788010E+02  0.27298459952E+01  0.90902564216E+02  0.10457066477E+03  0.50000000000E+02 0.  0.
<mgrwt>
<rscale>  0 0.51688952E+02</rscale>
<asrwt>0</asrwt>
<pdfrwt beam="1">  1       13 0.10000000E+01 0.51688952E+02</pdfrwt>
<pdfrwt beam="2">  1       22 0.25805737E+00 0.51688952E+02</pdfrwt>
<totfact> 0.27682251E-01</totfact>
</mgrwt>
</event>
<event>
 4    1  0.2496748E+000  0.5237252E+02  0.7957747E-01  0.1432949E+00
         13   -1    0    0    0    0  0.00000000000E+00  0.00000000000E+00  0.99999944175E+02  0.99999999995E+02  0.10566000000E+00 0.  1.
         22   -1    0    0    0    0 -0.00000000000E+00 -0.00000000000E+00 -0.13580594779E+02  0.13580594779E+02  0.00000000000E+00 0. -1.
         13    1    1    2    0    0  0.15083022380E+02  0.39221474435E+01  0.42744256561E+01  0.16160528562E+02  0.10566000000E+00 0. -1.
        996    1    1    2    0    0 -0.15083022380E+02 -0.39221474435E+01  0.82144923739E+02  0.97420066212E+02  0.50000000000E+02 0.  0.
<mgrwt>
<rscale>  0 0.52372520E+02</rscale>
<asrwt>0</asrwt>
<pdfrwt beam="1">  1       13 0.10000000E+01 0.52372520E+02</pdfrwt>
<pdfrwt beam="2">  1       22 0.13580619E+00 0.52372520E+02</pdfrwt>
<totfact> 0.88632591E-01</totfact>
</mgrwt>
</event>
<event>
 4    1  0.2496748E+000  0.5345402E+02  0.7957747E-01  0.1427555E+00
         13   -1    0    0    0    0  0.00000000000E+00  0.00000000000E+00  0.99999944177E+02  0.99999999997E+02  0.10566000000E+00 0. -1.
         22   -1    0    0    0    0 -0.00000000000E+00 -0.00000000000E+00 -0.68748002644E+02  0.68748002644E+02  0.00000000000E+00 0.  1.
         13    1    1    2    0    0 -0.17722308403E+02 -0.65766358822E+01 -0.60046771829E+02  0.62952031943E+02  0.10566000000E+00 0.  1.
        996    1    1    2    0    0  0.17722308403E+02  0.65766358822E+01  0.91298713361E+02  0.10579597070E+03  0.50000000000E+02 0.  0.
<mgrwt>
<rscale>  0 0.53454021E+02</rscale>
<asrwt>0</asrwt>
<pdfrwt beam="1">  1       13 0.10000000E+01 0.53454021E+02</pdfrwt>
<pdfrwt beam="2">  1       22 0.68748011E+00 0.53454021E+02</pdfrwt>
<totfact> 0.80555544E-02</totfact>
</mgrwt>
</event>
<event>
 4    1  0.2496748E+000  0.5102506E+02  0.7957747E-01  0.1439890E+00
         13   -1    0    0    0    0  0.00000000000E+00  0.00000000000E+00  0.99999944176E+02  0.99999999997E+02  0.10566000000E+00 0. -1.
         22   -1    0    0    0    0 -0.00000000000E+00 -0.00000000000E+00 -0.12151483355E+02  0.12151483355E+02  0.00000000000E+00 0. -1.
         13    1    1    2    0    0 -0.73730290080E+01 -0.70139063479E+01 -0.43182336907E+00  0.10185974399E+02  0.10566000000E+00 0.  1.
        996    1    1    2    0    0  0.73730290080E+01  0.70139063479E+01  0.88280284191E+02  0.10196550895E+03  0.50000000000E+02 0.  0.
<mgrwt>
<rscale>  0 0.51025057E+02</rscale>
<asrwt>0</asrwt>
<pdfrwt beam="1">  1       13 0.10000000E+01 0.51025057E+02</pdfrwt>
<pdfrwt beam="2">  1       22 0.12151508E+00 0.51025057E+02</pdfrwt>
<totfact> 0.10521306E+00</totfact>
</mgrwt>
</event>
<event>
 4    1  0.2496748E+000  0.5152859E+02  0.7957747E-01  0.1437267E+00
         13   -1    0    0    0    0  0.00000000000E+00  0.00000000000E+00  0.99999944177E+02  0.99999999998E+02  0.10566000000E+00 0. -1.
         22   -1    0    0    0    0 -0.00000000000E+00 -0.00000000000E+00 -0.24252713501E+02  0.24252713501E+02  0.00000000000E+00 0.  1.
         13    1    1    2    0    0  0.12209123409E+02  0.24764225722E+01 -0.15242098412E+02  0.19685733190E+02  0.10566000000E+00 0.  1.
        996    1    1    2    0    0 -0.12209123409E+02 -0.24764225722E+01  0.90989329088E+02  0.10456698031E+03  0.50000000000E+02 0.  0.
<mgrwt>
<rscale>  0 0.51528588E+02</rscale>
<asrwt>0</asrwt>
<pdfrwt beam="1">  1       13 0.10000000E+01 0.51528588E+02</pdfrwt>
<pdfrwt beam="2">  1       22 0.24252735E+00 0.51528588E+02</pdfrwt>
<totfact> 0.31266668E-01</totfact>
</mgrwt>
</event>
<event>
 4    1  0.2496748E+000  0.5165098E+02  0.7957747E-01  0.1436635E+00
         13   -1    0    0    0    0  0.00000000000E+00  0.00000000000E+00  0.99999944177E+02  0.99999999997E+02  0.10566000000E+00 0.  1.
         22   -1    0    0    0    0 -0.00000000000E+00 -0.00000000000E+00 -0.17418652000E+02  0.17418652000E+02  0.00000000000E+00 0. -1.
         13    1    1    2    0    0 -0.89083640689E+01  0.94055717914E+01 -0.64634424758E+01  0.14477948190E+02  0.10566000000E+00 0. -1.
        996    1    1    2    0    0  0.89083640689E+01 -0.94055717914E+01  0.89044734652E+02  0.10294070381E+03  0.50000000000E+02 0.  0.
<mgrwt>
<rscale>  0 0.51650980E+02</rscale>
<asrwt>0</asrwt>
<pdfrwt beam="1">  1       13 0.10000000E+01 0.51650980E+02</pdfrwt>
<pdfrwt beam="2">  1       22 0.17418675E+00 0.51650980E+02</pdfrwt>
<totfact> 0.58209862E-01</totfact>
</mgrwt>
</event>
<event>
 4    1  0.2496748E+000  0.5289925E+02  0.7957747E-01  0.1430303E+00
         13   -1    0    0    0    0  0.00000000000E+00  0.00000000000E+00  0.99999944184E+02  0.10000000000E+03  0.10566000000E+00 0.  1.
         22   -1    0    0    0    0 -0.00000000000E+00 -0.00000000000E+00 -0.14006768320E+02  0.14006768320E+02  0.00000000000E+00 0.  1.
         13    1    1    2    0    0  0.13365679659E+02  0.10940244028E+02  0.63634279132E+01  0.18407463458E+02  0.10566000000E+00 0. -1.
        996    1    1    2    0    0 -0.13365679659E+02 -0.10940244028E+02  0.79629747950E+02  0.95599304865E+02  0.50000000000E+02 0.  0.
<mgrwt>
<rscale>  0 0.52899247E+02</rscale>
<asrwt>0</asrwt>
<pdfrwt beam="1">  1       13 0.10000000E+01 0.52899247E+02</pdfrwt>
<pdfrwt beam="2">  1       22 0.14006792E+00 0.52899247E+02</pdfrwt>
<totfact> 0.84419508E-01</totfact>
</mgrwt>
</event>
<event>
 4    1  0.2496748E+000  0.5201772E+02  0.7957747E-01  0.1434753E+00
         13   -1    0    0    0    0  0.00000000000E+00  0.00000000000E+00  0.99999944174E+02  0.99999999994E+02  0.10566000000E+00 0. -1.
         22   -1    0    0    0    0 -0.00000000000E+00 -0.00000000000E+00 -0.11170709664E+02  0.11170709664E+02  0.00000000000E+00 0. -1.
         13    1    1    2    0    0 -0.14346628759E+02 -0.13040552864E+00  0.25057638317E+02  0.28874541805E+02  0.10566000000E+00 0.  1.
        996    1    1    2    0    0  0.14346628759E+02  0.13040552864E+00  0.63771596193E+02  0.82296167853E+02  0.50000000000E+02 0.  0.
<mgrwt>
<rscale>  0 0.52017716E+02</rscale>
<asrwt>0</asrwt>
<pdfrwt beam="1">  1       13 0.10000000E+01 0.52017716E+02</pdfrwt>
<pdfrwt beam="2">  1       22 0.11170734E+00 0.52017716E+02</pdfrwt>
<totfact> 0.11979422E+00</totfact>
</mgrwt>
</event>
<event>
 4    1  0.2496748E+000  0.5751339E+02  0.7957747E-01  0.1408573E+00
         13   -1    0    0    0    0  0.00000000000E+00  0.00000000000E+00  0.99999944174E+02  0.99999999994E+02  0.10566000000E+00 0.  1.
         22   -1    0    0    0    0 -0.00000000000E+00 -0.00000000000E+00 -0.20513334773E+02  0.20513334773E+02  0.00000000000E+00 0. -1.
         13    1    1    2    0    0  0.21077632457E+02 -0.19066290634E+02  0.95895865834E+01  0.29996022460E+02  0.10566000000E+00 0. -1.
        996    1    1    2    0    0 -0.21077632457E+02  0.19066290634E+02  0.69897022817E+02  0.90517312307E+02  0.50000000000E+02 0.  0.
<mgrwt>
<rscale>  0 0.57513390E+02</rscale>
<asrwt>0</asrwt>
<pdfrwt beam="1">  1       13 0.10000000E+01 0.57513390E+02</pdfrwt>
<pdfrwt beam="2">  1       22 0.20513357E+00 0.57513390E+02</pdfrwt>
<totfact> 0.43608286E-01</totfact>
</mgrwt>
</event>
<event>
 4    1  0.2496748E+000  0.5676876E+02  0.7957747E-01  0.1411915E+00
         13   -1    0    0    0    0  0.00000000000E+00  0.00000000000E+00  0.99999944175E+02  0.99999999996E+02  0.10566000000E+00 0. -1.
         22   -1    0    0    0    0 -0.00000000000E+00 -0.00000000000E+00 -0.18249145755E+02  0.18249145755E+02  0.00000000000E+00 0.  1.
         13    1    1    2    0    0 -0.24886969232E+02  0.10165202490E+02  0.15609687397E+02  0.31086429256E+02  0.10566000000E+00 0.  1.
        996    1    1    2    0    0  0.24886969232E+02 -0.10165202490E+02  0.66141111024E+02  0.87162716495E+02  0.50000000000E+02 0.  0.
<mgrwt>
<rscale>  0 0.56768764E+02</rscale>
<asrwt>0</asrwt>
<pdfrwt beam="1">  1       13 0.10000000E+01 0.56768764E+02</pdfrwt>
<pdfrwt beam="2">  1       22 0.18249169E+00 0.56768764E+02</pdfrwt>
<totfact> 0.54058486E-01</totfact>
</mgrwt>
</event>
<event>
 4    1  0.2496748E+000  0.5343760E+02  0.7957747E-01  0.1427635E+00
         13   -1    0    0    0    0  0.00000000000E+00  0.00000000000E+00  0.99999944182E+02  0.10000000000E+03  0.10566000000E+00 0.  1.
         22   -1    0    0    0    0 -0.00000000000E+00 -0.00000000000E+00 -0.13072841397E+02  0.13072841397E+02  0.00000000000E+00 0.  1.
         13    1    1    2    0    0 -0.20814814104E+01 -0.18741526016E+02  0.21570897324E+02  0.28651215291E+02  0.10566000000E+00 0. -1.
        996    1    1    2    0    0  0.20814814104E+01  0.18741526016E+02  0.65356205462E+02  0.84421626107E+02  0.50000000000E+02 0.  0.
<mgrwt>
<rscale>  0 0.53437603E+02</rscale>
<asrwt>0</asrwt>
<pdfrwt beam="1">  1       13 0.10000000E+01 0.53437603E+02</pdfrwt>
<pdfrwt beam="2">  1       22 0.13072866E+00 0.53437603E+02</pdfrwt>
<totfact> 0.94382088E-01</totfact>
</mgrwt>
</event>
<event>
 4    1  0.2496748E+000  0.5791097E+02  0.7957747E-01  0.1406814E+00
         13   -1    0    0    0    0  0.00000000000E+00  0.00000000000E+00  0.99999944177E+02  0.99999999997E+02  0.10566000000E+00 0. -1.
         22   -1    0    0    0    0 -0.00000000000E+00 -0.00000000000E+00 -0.27850211223E+02  0.27850211223E+02  0.00000000000E+00 0.  1.
         13    1    1    2    0    0  0.22654006937E+02 -0.18452000228E+02 -0.67413263575E+01  0.29985613014E+02  0.10566000000E+00 0.  1.
        996    1    1    2    0    0 -0.22654006937E+02  0.18452000228E+02  0.78891059311E+02  0.97864598206E+02  0.50000000000E+02 0.  0.
<mgrwt>
<rscale>  0 0.57910969E+02</rscale>
<asrwt>0</asrwt>
<pdfrwt beam="1">  1       13 0.10000000E+01 0.57910969E+02</pdfrwt>
<pdfrwt beam="2">  1       22 0.27850231E+00 0.57910969E+02</pdfrwt>
<totfact> 0.24048760E-01</totfact>
</mgrwt>
</event>
<event>
 4    1  0.2496748E+000  0.5313073E+02  0.7957747E-01  0.1429151E+00
         13   -1    0    0    0    0  0.00000000000E+00  0.00000000000E+00  0.99999944180E+02  0.10000000000E+03  0.10566000000E+00 0. -1.
         22   -1    0    0    0    0 -0.00000000000E+00 -0.00000000000E+00 -0.16446805243E+02  0.16446805243E+02  0.00000000000E+00 0. -1.
         13    1    1    2    0    0 -0.10154500004E+02  0.14824323506E+02  0.65154308586E+00  0.17980826182E+02  0.10566000000E+00 0.  1.
        996    1    1    2    0    0  0.10154500004E+02 -0.14824323506E+02  0.82901595852E+02  0.98465979061E+02  0.50000000000E+02 0.  0.
<mgrwt>
<rscale>  0 0.53130730E+02</rscale>
<asrwt>0</asrwt>
<pdfrwt beam="1">  1       13 0.10000000E+01 0.53130730E+02</pdfrwt>
<pdfrwt beam="2">  1       22 0.16446829E+00 0.53130730E+02</pdfrwt>
<totfact> 0.64543606E-01</totfact>
</mgrwt>
</event>
<event>
 4    1  0.2496748E+000  0.5203681E+02  0.7957747E-01  0.1434655E+00
         13   -1    0    0    0    0  0.00000000000E+00  0.00000000000E+00  0.99999944178E+02  0.99999999998E+02  0.10566000000E+00 0. -1.
         22   -1    0    0    0    0 -0.00000000000E+00 -0.00000000000E+00 -0.11832143640E+02  0.11832143640E+02  0.00000000000E+00 0.  1.
         13    1    1    2    0    0 -0.12902436949E+02 -0.64309517404E+01  0.86859802889E+01  0.16831144855E+02  0.10566000000E+00 0.  1.
        996    1    1    2    0    0  0.12902436949E+02  0.64309517404E+01  0.79481820249E+02  0.95000998783E+02  0.50000000000E+02 0.  0.
<mgrwt>
<rscale>  0 0.52036814E+02</rscale>
<asrwt>0</asrwt>
<pdfrwt beam="1">  1       13 0.10000000E+01 0.52036814E+02</pdfrwt>
<pdfrwt beam="2">  1       22 0.11832168E+00 0.52036814E+02</pdfrwt>
<totfact> 0.10984208E+00</totfact>
</mgrwt>
</event>
<event>
 4    1  0.2496748E+000  0.5108269E+02  0.7957747E-01  0.1439588E+00
         13   -1    0    0    0    0  0.00000000000E+00  0.00000000000E+00  0.99999944178E+02  0.99999999998E+02  0.10566000000E+00 0.  1.
         22   -1    0    0    0    0 -0.00000000000E+00 -0.00000000000E+00 -0.19416110458E+02  0.19416110458E+02  0.00000000000E+00 0. -1.
         13    1    1    2    0    0  0.13190979952E+01  0.10377936740E+02 -0.10603225456E+02  0.14895675366E+02  0.10566000000E+00 0. -1.
        996    1    1    2    0    0 -0.13190979952E+01 -0.10377936740E+02  0.91187059176E+02  0.10452043509E+03  0.50000000000E+02 0.  0.
<mgrwt>
<rscale>  0 0.51082694E+02</rscale>
<asrwt>0</asrwt>
<pdfrwt beam="1">  1       13 0.10000000E+01 0.51082694E+02</pdfrwt>
<pdfrwt beam="2">  1       22 0.19416133E+00 0.51082694E+02</pdfrwt>
<totfact> 0.47787893E-01</totfact>
</mgrwt>
</event>
<event>
 4    1  0.2496748E+000  0.5123672E+02  0.7957747E-01  0.1438783E+00
         13   -1    0    0    0    0  0.00000000000E+00  0.00000000000E+00  0.99999944179E+02  0.99999999999E+02  0.10566000000E+00 0. -1.
         22   -1    0    0    0    0 -0.00000000000E+00 -0.00000000000E+00 -0.10048180099E+02  0.10048180099E+02  0.00000000000E+00 0. -1.
         13    1    1    2    0    0  0.10218896422E+02  0.45580847117E+01  0.95630251000E+01  0.14719531019E+02  0.10566000000E+00 0.  1.
        996    1    1    2    0    0 -0.10218896422E+02 -0.45580847117E+01  0.80388738980E+02  0.95328649078E+02  0.50000000000E+02 0.  0.
<mgrwt>
<rscale>  0 0.51236725E+02</rscale>
<asrwt>0</asrwt>
<pdfrwt beam="1">  1       13 0.10000000E+01 0.51236725E+02</pdfrwt>
<pdfrwt beam="2">  1       22 0.10048205E+00 0.51236725E+02</pdfrwt>
<totfact> 0.13974206E+00</totfact>
</mgrwt>
</event>
<event>
 4    1  0.2496748E+000  0.5126999E+02  0.7957747E-01  0.1438610E+00
         13   -1    0    0    0    0  0.00000000000E+00  0.00000000000E+00  0.99999944175E+02  0.99999999995E+02  0.10566000000E+00 0.  1.
         22   -1    0    0    0    0 -0.00000000000E+00 -0.00000000000E+00 -0.36605570063E+02  0.36605570063E+02  0.00000000000E+00 0. -1.
         13    1    1    2    0    0 -0.24936742466E+01 -0.11063161582E+02 -0.28889585126E+02  0.31035967009E+02  0.10566000000E+00 0. -1.
        996    1    1    2    0    0  0.24936742466E+01  0.11063161582E+02  0.92283959237E+02  0.10556960305E+03  0.50000000000E+02 0.  0.
<mgrwt>
<rscale>  0 0.51269991E+02</rscale>
<asrwt>0</asrwt>
<pdfrwt beam="1">  1       13 0.10000000E+01 0.51269991E+02</pdfrwt>
<pdfrwt beam="2">  1       22 0.36605588E+00 0.51269991E+02</pdfrwt>
<totfact> 0.14518534E-01</totfact>
</mgrwt>
</event>
<event>
 4    1  0.2496748E+000  0.5244524E+02  0.7957747E-01  0.1432582E+00
         13   -1    0    0    0    0  0.00000000000E+00  0.00000000000E+00  0.99999944170E+02  0.99999999990E+02  0.10566000000E+00 0.  1.
         22   -1    0    0    0    0 -0.00000000000E+00 -0.00000000000E+00 -0.19493510029E+02  0.19493510029E+02  0.00000000000E+00 0. -1.
         13    1    1    2    0    0 -0.15550503019E+02  0.29469722895E+01 -0.71327654946E+01  0.17360596115E+02  0.10566000000E+00 0. -1.
        996    1    1    2    0    0  0.15550503019E+02 -0.29469722895E+01  0.87639199635E+02  0.10213291390E+03  0.50000000000E+02 0.  0.
<mgrwt>
<rscale>  0 0.52445236E+02</rscale>
<asrwt>0</asrwt>
<pdfrwt beam="1">  1       13 0.10000000E+01 0.52445236E+02</pdfrwt>
<pdfrwt beam="2">  1       22 0.19493533E+00 0.52445236E+02</pdfrwt>
<totfact> 0.47556470E-01</totfact>
</mgrwt>
</event>
<event>
 4    1  0.2496748E+000  0.5133576E+02  0.7957747E-01  0.1438267E+00
         13   -1    0    0    0    0  0.00000000000E+00  0.00000000000E+00  0.99999944177E+02  0.99999999997E+02  0.10566000000E+00 0.  1.
         22   -1    0    0    0    0 -0.00000000000E+00 -0.00000000000E+00 -0.10806076856E+02  0.10806076856E+02  0.00000000000E+00 0.  1.
         13    1    1    2    0    0  0.67595013136E+01  0.94693910082E+01  0.61093743138E+01  0.13141379023E+02  0.10566000000E+00 0. -1.
        996    1    1    2    0    0 -0.67595013136E+01 -0.94693910082E+01  0.83084493007E+02  0.97664697831E+02  0.50000000000E+02 0.  0.
<mgrwt>
<rscale>  0 0.51335760E+02</rscale>
<asrwt>0</asrwt>
<pdfrwt beam="1">  1       13 0.10000000E+01 0.51335760E+02</pdfrwt>
<pdfrwt beam="2">  1       22 0.10806102E+00 0.51335760E+02</pdfrwt>
<totfact> 0.12565540E+00</totfact>
</mgrwt>
</event>
<event>
 4    1  0.2496748E+000  0.6179895E+02  0.7957747E-01  0.1390434E+00
         13   -1    0    0    0    0  0.00000000000E+00  0.00000000000E+00  0.99999944178E+02  0.99999999999E+02  0.10566000000E+00 0.  1.
         22   -1    0    0    0    0 -0.00000000000E+00 -0.00000000000E+00 -0.26977537018E+02  0.26977537018E+02  0.00000000000E+00 0. -1.
         13    1    1    2    0    0  0.30818435406E+01  0.36188567742E+02  0.78399232671E+01  0.37156234413E+02  0.10566000000E+00 0. -1.
        996    1    1    2    0    0 -0.30818435406E+01 -0.36188567742E+02  0.65182483894E+02  0.89821302604E+02  0.50000000000E+02 0.  0.
<mgrwt>
<rscale>  0 0.61798950E+02</rscale>
<asrwt>0</asrwt>
<pdfrwt beam="1">  1       13 0.10000000E+01 0.61798950E+02</pdfrwt>
<pdfrwt beam="2">  1       22 0.26977557E+00 0.61798950E+02</pdfrwt>
<totfact> 0.25720099E-01</totfact>
</mgrwt>
</event>
<event>
 4    1  0.2496748E+000  0.5244723E+02  0.7957747E-01  0.1432572E+00
         13   -1    0    0    0    0  0.00000000000E+00  0.00000000000E+00  0.99999944176E+02  0.99999999996E+02  0.10566000000E+00 0. -1.
         22   -1    0    0    0    0 -0.00000000000E+00 -0.00000000000E+00 -0.72516539195E+02  0.72516539195E+02  0.00000000000E+00 0.  1.
         13    1    1    2    0    0  0.14930677976E+02  0.52712691245E+01 -0.64617533089E+02  0.66529303089E+02  0.10566000000E+00 0.  1.
        996    1    1    2    0    0 -0.14930677976E+02 -0.52712691245E+01  0.92100938070E+02  0.10598723610E+03  0.50000000000E+02 0.  0.
<mgrwt>
<rscale>  0 0.52447225E+02</rscale>
<asrwt>0</asrwt>
<pdfrwt beam="1">  1       13 0.10000000E+01 0.52447225E+02</pdfrwt>
<pdfrwt beam="2">  1       22 0.72516547E+00 0.52447225E+02</pdfrwt>
<totfact> 0.61293359E-02</totfact>
</mgrwt>
</event>
<event>
 4    1  0.2496748E+000  0.5303472E+02  0.7957747E-01  0.1429628E+00
         13   -1    0    0    0    0  0.00000000000E+00  0.00000000000E+00  0.99999944178E+02  0.99999999998E+02  0.10566000000E+00 0.  1.
         22   -1    0    0    0    0 -0.00000000000E+00 -0.00000000000E+00 -0.16577624695E+02  0.16577624695E+02  0.00000000000E+00 0. -1.
         13    1    1    2    0    0 -0.17067159571E+02  0.46253161068E+01 -0.48805594996E-01  0.17683184977E+02  0.10566000000E+00 0. -1.
        996    1    1    2    0    0  0.17067159571E+02 -0.46253161068E+01  0.83471125077E+02  0.98894439715E+02  0.50000000000E+02 0.  0.
<mgrwt>
<rscale>  0 0.53034720E+02</rscale>
<asrwt>0</asrwt>
<pdfrwt beam="1">  1       13 0.10000000E+01 0.53034720E+02</pdfrwt>
<pdfrwt beam="2">  1       22 0.16577648E+00 0.53034720E+02</pdfrwt>
<totfact> 0.63651994E-01</totfact>
</mgrwt>
</event>
<event>
 4    1  0.2496748E+000  0.5971266E+02  0.7957747E-01  0.1399042E+00
         13   -1    0    0    0    0  0.00000000000E+00  0.00000000000E+00  0.99999944190E+02  0.10000000001E+03  0.10566000000E+00 0. -1.
         22   -1    0    0    0    0 -0.00000000000E+00 -0.00000000000E+00 -0.27228104059E+02  0.27228104059E+02  0.00000000000E+00 0.  1.
         13    1    1    2    0    0 -0.87737587091E+01  0.31442380616E+02 -0.57422860609E+00  0.32648783181E+02  0.10566000000E+00 0.  1.
        996    1    1    2    0    0  0.87737587091E+01 -0.31442380616E+02  0.73346068737E+02  0.94579320889E+02  0.50000000000E+02 0.  0.
<mgrwt>
<rscale>  0 0.59712663E+02</rscale>
<asrwt>0</asrwt>
<pdfrwt beam="1">  1       13 0.10000000E+01 0.59712663E+02</pdfrwt>
<pdfrwt beam="2">  1       22 0.27228124E+00 0.59712663E+02</pdfrwt>
<totfact> 0.25191816E-01</totfact>
</mgrwt>
</event>
<event>
 4    1  0.2496748E+000  0.5372541E+02  0.7957747E-01  0.1426224E+00
         13   -1    0    0    0    0  0.00000000000E+00  0.00000000000E+00  0.99999944171E+02  0.99999999991E+02  0.10566000000E+00 0. -1.
         22   -1    0    0    0    0 -0.00000000000E+00 -0.00000000000E+00 -0.21467734674E+02  0.21467734674E+02  0.00000000000E+00 0. -1.
         13    1    1    2    0    0  0.18623226389E+02 -0.62924654087E+01 -0.66550764284E+01  0.20753816236E+02  0.10566000000E+00 0.  1.
        996    1    1    2    0    0 -0.18623226389E+02  0.62924654087E+01  0.85187285925E+02  0.10071391843E+03  0.50000000000E+02 0.  0.
<mgrwt>
<rscale>  0 0.53725410E+02</rscale>
<asrwt>0</asrwt>
<pdfrwt beam="1">  1       13 0.10000000E+01 0.53725410E+02</pdfrwt>
<pdfrwt beam="2">  1       22 0.21467757E+00 0.53725410E+02</pdfrwt>
<totfact> 0.39754460E-01</totfact>
</mgrwt>
</event>
<event>
 4    1  0.2496748E+000  0.5211620E+02  0.7957747E-01  0.1434250E+00
         13   -1    0    0    0    0  0.00000000000E+00  0.00000000000E+00  0.99999944183E+02  0.10000000000E+03  0.10566000000E+00 0.  1.
         22   -1    0    0    0    0 -0.00000000000E+00 -0.00000000000E+00 -0.11162718174E+02  0.11162718174E+02  0.00000000000E+00 0.  1.
         13    1    1    2    0    0  0.30389898100E+01  0.14382720527E+02  0.19012661269E+02  0.24033113851E+02  0.10566000000E+00 0. -1.
        996    1    1    2    0    0 -0.30389898100E+01 -0.14382720527E+02  0.69824564741E+02  0.87129604326E+02  0.50000000000E+02 0.  0.
<mgrwt>
<rscale>  0 0.52116198E+02</rscale>
<asrwt>0</asrwt>
<pdfrwt beam="1">  1       13 0.10000000E+01 0.52116198E+02</pdfrwt>
<pdfrwt beam="2">  1       22 0.11162743E+00 0.52116198E+02</pdfrwt>
<totfact> 0.11994955E+00</totfact>
</mgrwt>
</event>
<event>
 4    1  0.2496748E+000  0.5208779E+02  0.7957747E-01  0.1434395E+00
         13   -1    0    0    0    0  0.00000000000E+00  0.00000000000E+00  0.99999944179E+02  0.10000000000E+03  0.10566000000E+00 0.  1.
         22   -1    0    0    0    0 -0.00000000000E+00 -0.00000000000E+00 -0.15718588549E+02  0.15718588549E+02  0.00000000000E+00 0.  1.
         13    1    1    2    0    0  0.12517201551E+02  0.75137901062E+01  0.52967663629E+02  0.54942897001E+02  0.10566000000E+00 0. -1.
        996    1    1    2    0    0 -0.12517201551E+02 -0.75137901062E+01  0.31313692001E+02  0.60775691548E+02  0.50000000000E+02 0.  0.
<mgrwt>
<rscale>  0 0.52087785E+02</rscale>
<asrwt>0</asrwt>
<pdfrwt beam="1">  1       13 0.10000000E+01 0.52087785E+02</pdfrwt>
<pdfrwt beam="2">  1       22 0.15718612E+00 0.52087785E+02</pdfrwt>
<totfact> 0.69609205E-01</totfact>
</mgrwt>
</event>
<event>
 4    1  0.2496748E+000  0.5192364E+02  0.7957747E-01  0.1435234E+00
         13   -1    0    0    0    0  0.00000000000E+00  0.00000000000E+00  0.99999944181E+02  0.10000000000E+03  0.10566000000E+00 0.  1.
         22   -1    0    0    0    0 -0.00000000000E+00 -0.00000000000E+00 -0.11034921002E+02  0.11034921002E+02  0.00000000000E+00 0. -1.
         13    1    1    2    0    0 -0.13216511017E+02  0.46247925501E+01  0.24933817682E+02  0.28596700820E+02  0.10566000000E+00 0. -1.
        996    1    1    2    0    0  0.13216511017E+02 -0.46247925501E+01  0.64031205497E+02  0.82438220183E+02  0.50000000000E+02 0.  0.
<mgrwt>
<rscale>  0 0.51923645E+02</rscale>
<asrwt>0</asrwt>
<pdfrwt beam="1">  1       13 0.10000000E+01 0.51923645E+02</pdfrwt>
<pdfrwt beam="2">  1       22 0.11034946E+00 0.51923645E+02</pdfrwt>
<totfact> 0.12197393E+00</totfact>
</mgrwt>
</event>
<event>
 4    1  0.2496748E+000  0.5347377E+02  0.7957747E-01  0.1427458E+00
         13   -1    0    0    0    0  0.00000000000E+00  0.00000000000E+00  0.99999944185E+02  0.10000000000E+03  0.10566000000E+00 0. -1.
         22   -1    0    0    0    0 -0.00000000000E+00 -0.00000000000E+00 -0.13587230824E+02  0.13587230824E+02  0.00000000000E+00 0.  1.
         13    1    1    2    0    0  0.14823803926E+01  0.18900955937E+02  0.32674506544E+02  0.37776687638E+02  0.10566000000E+00 0.  1.
        996    1    1    2    0    0 -0.14823803926E+01 -0.18900955937E+02  0.53738206817E+02  0.75810543191E+02  0.50000000000E+02 0.  0.
<mgrwt>
<rscale>  0 0.53473765E+02</rscale>
<asrwt>0</asrwt>
<pdfrwt beam="1">  1       13 0.10000000E+01 0.53473765E+02</pdfrwt>
<pdfrwt beam="2">  1       22 0.13587255E+00 0.53473765E+02</pdfrwt>
<totfact> 0.88767114E-01</totfact>
</mgrwt>
</event>
<event>
 4    1  0.2496748E+000  0.5234734E+02  0.7957747E-01  0.1433077E+00
         13   -1    0    0    0    0  0.00000000000E+00  0.00000000000E+00  0.99999944169E+02  0.99999999990E+02  0.10566000000E+00 0.  1.
         22   -1    0    0    0    0 -0.00000000000E+00 -0.00000000000E+00 -0.49056936375E+02  0.49056936375E+02  0.00000000000E+00 0.  1.
         13    1    1    2    0    0  0.13281676414E+02  0.79900519856E+01 -0.40680770217E+02  0.43533666152E+02  0.10566000000E+00 0. -1.
        996    1    1    2    0    0 -0.13281676414E+02 -0.79900519856E+01  0.91623778012E+02  0.10552327021E+03  0.50000000000E+02 0.  0.
<mgrwt>
<rscale>  0 0.52347339E+02</rscale>
<asrwt>0</asrwt>
<pdfrwt beam="1">  1       13 0.10000000E+01 0.52347339E+02</pdfrwt>
<pdfrwt beam="2">  1       22 0.49056951E+00 0.52347339E+02</pdfrwt>
<totfact> 0.77583282E-02</totfact>
</mgrwt>
</event>
<event>
 4    1  0.2496748E+000  0.5276830E+02  0.7957747E-01  0.1430957E+00
         13   -1    0    0    0    0  0.00000000000E+00  0.00000000000E+00  0.99999944180E+02  0.10000000000E+03  0.10566000000E+00 0.  1.
         22   -1    0    0    0    0 -0.00000000000E+00 -0.00000000000E+00 -0.12649894295E+02  0.12649894295E+02  0.00000000000E+00 0.  1.
         13    1    1    2    0    0  0.59504242290E+01 -0.15782465922E+02  0.32022473906E+02  0.36193145458E+02  0.10566000000E+00 0. -1.
        996    1    1    2    0    0 -0.59504242290E+01  0.15782465922E+02  0.55327575980E+02  0.76456748838E+02  0.50000000000E+02 0.  0.
<mgrwt>
<rscale>  0 0.52768303E+02</rscale>
<asrwt>0</asrwt>
<pdfrwt beam="1">  1       13 0.10000000E+01 0.52768303E+02</pdfrwt>
<pdfrwt beam="2">  1       22 0.12649919E+00 0.52768303E+02</pdfrwt>
<totfact> 0.99243095E-01</totfact>
</mgrwt>
</event>
<event>
 4    1  0.2496748E+000  0.5109219E+02  0.7957747E-01  0.1439538E+00
         13   -1    0    0    0    0  0.00000000000E+00  0.00000000000E+00  0.99999944175E+02  0.99999999995E+02  0.10566000000E+00 0.  1.
         22   -1    0    0    0    0 -0.00000000000E+00 -0.00000000000E+00 -0.11388704875E+02  0.11388704875E+02  0.00000000000E+00 0. -1.
         13    1    1    2    0    0 -0.10413431799E+02  0.14043081132E+01  0.18042130043E+01  0.10661988169E+02  0.10566000000E+00 0. -1.
        996    1    1    2    0    0  0.10413431799E+02 -0.14043081132E+01  0.86807026296E+02  0.10072671670E+03  0.50000000000E+02 0.  0.
<mgrwt>
<rscale>  0 0.51092188E+02</rscale>
<asrwt>0</asrwt>
<pdfrwt beam="1">  1       13 0.10000000E+01 0.51092188E+02</pdfrwt>
<pdfrwt beam="2">  1       22 0.11388730E+00 0.51092188E+02</pdfrwt>
<totfact> 0.11612506E+00</totfact>
</mgrwt>
</event>
<event>
 4    1  0.2496748E+000  0.5621461E+02  0.7957747E-01  0.1414441E+00
         13   -1    0    0    0    0  0.00000000000E+00  0.00000000000E+00  0.99999944168E+02  0.99999999988E+02  0.10566000000E+00 0.  1.
         22   -1    0    0    0    0 -0.00000000000E+00 -0.00000000000E+00 -0.32907818020E+02  0.32907818020E+02  0.00000000000E+00 0. -1.
         13    1    1    2    0    0 -0.12370914151E+02 -0.22517612423E+02 -0.17682021303E+02  0.31188899108E+02  0.10566000000E+00 0. -1.
        996    1    1    2    0    0  0.12370914151E+02  0.22517612423E+02  0.84774147451E+02  0.10171891890E+03  0.50000000000E+02 0.  0.
<mgrwt>
<rscale>  0 0.56214610E+02</rscale>
<asrwt>0</asrwt>
<pdfrwt beam="1">  1       13 0.10000000E+01 0.56214610E+02</pdfrwt>
<pdfrwt beam="2">  1       22 0.32907837E+00 0.56214610E+02</pdfrwt>
<totfact> 0.17587028E-01</totfact>
</mgrwt>
</event>
<event>
 4    1  0.2496748E+000  0.5994974E+02  0.7957747E-01  0.1398043E+00
         13   -1    0    0    0    0  0.00000000000E+00  0.00000000000E+00  0.99999944186E+02  0.10000000001E+03  0.10566000000E+00 0. -1.
         22   -1    0    0    0    0 -0.00000000000E+00 -0.00000000000E+00 -0.21642157256E+02  0.21642157256E+02  0.00000000000E+00 0.  1.
         13    1    1    2    0    0  0.32287327762E+02 -0.71763661349E+01  0.28982659030E+02  0.43977010510E+02  0.10566000000E+00 0.  1.
        996    1    1    2    0    0 -0.32287327762E+02  0.71763661349E+01  0.49375127900E+02  0.77665146752E+02  0.50000000000E+02 0.  0.
<mgrwt>
<rscale>  0 0.59949744E+02</rscale>
<asrwt>0</asrwt>
<pdfrwt beam="1">  1       13 0.10000000E+01 0.59949744E+02</pdfrwt>
<pdfrwt beam="2">  1       22 0.21642179E+00 0.59949744E+02</pdfrwt>
<totfact> 0.39527068E-01</totfact>
</mgrwt>
</event>
<event>
 4    1  0.2496748E+000  0.5588032E+02  0.7957747E-01  0.1415981E+00
         13   -1    0    0    0    0  0.00000000000E+00  0.00000000000E+00  0.99999944179E+02  0.99999999999E+02  0.10566000000E+00 0.  1.
         22   -1    0    0    0    0 -0.00000000000E+00 -0.00000000000E+00 -0.19921763939E+02  0.19921763939E+02  0.00000000000E+00 0. -1.
         13    1    1    2    0    0  0.34751409492E+01 -0.24708987529E+02  0.36106966171E+01  0.25212278030E+02  0.10566000000E+00 0. -1.
        996    1    1    2    0    0 -0.34751409492E+01  0.24708987529E+02  0.76467483623E+02  0.94709485908E+02  0.50000000000E+02 0.  0.
<mgrwt>
<rscale>  0 0.55880325E+02</rscale>
<asrwt>0</asrwt>
<pdfrwt beam="1">  1       13 0.10000000E+01 0.55880325E+02</pdfrwt>
<pdfrwt beam="2">  1       22 0.19921786E+00 0.55880325E+02</pdfrwt>
<totfact> 0.45947590E-01</totfact>
</mgrwt>
</event>
<event>
 4    1  0.2496748E+000  0.5168237E+02  0.7957747E-01  0.1436473E+00
         13   -1    0    0    0    0  0.00000000000E+00  0.00000000000E+00  0.99999944178E+02  0.99999999999E+02  0.10566000000E+00 0. -1.
         22   -1    0    0    0    0 -0.00000000000E+00 -0.00000000000E+00 -0.15214603035E+02  0.15214603035E+02  0.00000000000E+00 0.  1.
         13    1    1    2    0    0  0.59628964525E+01  0.11640931641E+02 -0.29317217765E+01  0.13404237397E+02  0.10566000000E+00 0.  1.
        996    1    1    2    0    0 -0.59628964525E+01 -0.11640931641E+02  0.87717062920E+02  0.10181036564E+03  0.50000000000E+02 0.  0.
<mgrwt>
<rscale>  0 0.51682371E+02</rscale>
<asrwt>0</asrwt>
<pdfrwt beam="1">  1       13 0.10000000E+01 0.51682371E+02</pdfrwt>
<pdfrwt beam="2">  1       22 0.15214627E+00 0.51682371E+02</pdfrwt>
<totfact> 0.73479894E-01</totfact>
</mgrwt>
</event>
<event>
 4    1  0.2496748E+000  0.5115483E+02  0.7957747E-01  0.1439210E+00
         13   -1    0    0    0    0  0.00000000000E+00  0.00000000000E+00  0.99999944174E+02  0.99999999995E+02  0.10566000000E+00 0. -1.
         22   -1    0    0    0    0 -0.00000000000E+00 -0.00000000000E+00 -0.25291460765E+02  0.25291460765E+02  0.00000000000E+00 0.  1.
         13    1    1    2    0    0 -0.10175219695E+02  0.36443386341E+01 -0.17078894507E+02  0.20211781256E+02  0.10566000000E+00 0.  1.
        996    1    1    2    0    0  0.10175219695E+02 -0.36443386341E+01  0.91787377916E+02  0.10507967950E+03  0.50000000000E+02 0.  0.
<mgrwt>
<rscale>  0 0.51154827E+02</rscale>
<asrwt>0</asrwt>
<pdfrwt beam="1">  1       13 0.10000000E+01 0.51154827E+02</pdfrwt>
<pdfrwt beam="2">  1       22 0.25291482E+00 0.51154827E+02</pdfrwt>
<totfact> 0.28776393E-01</totfact>
</mgrwt>
</event>
<event>
 4    1  0.2496748E+000  0.5104366E+02  0.7957747E-01  0.1439792E+00
         13   -1    0    0    0    0  0.00000000000E+00  0.00000000000E+00  0.99999944181E+02  0.10000000000E+03  0.10566000000E+00 0. -1.
         22   -1    0    0    0    0 -0.00000000000E+00 -0.00000000000E+00 -0.17643692290E+02  0.17643692290E+02  0.00000000000E+00 0. -1.
         13    1    1    2    0    0 -0.13244905719E+01  0.10183386576E+02 -0.85660594136E+01  0.13373263452E+02  0.10566000000E+00 0.  1.
        996    1    1    2    0    0  0.13244905719E+01 -0.10183386576E+02  0.90922311305E+02  0.10427042884E+03  0.50000000000E+02 0.  0.
<mgrwt>
<rscale>  0 0.51043664E+02</rscale>
<asrwt>0</asrwt>
<pdfrwt beam="1">  1       13 0.10000000E+01 0.51043664E+02</pdfrwt>
<pdfrwt beam="2">  1       22 0.17643715E+00 0.51043664E+02</pdfrwt>
<totfact> 0.56832723E-01</totfact>
</mgrwt>
</event>
<event>
 4    1  0.2496748E+000  0.5300315E+02  0.7957747E-01  0.1429785E+00
         13   -1    0    0    0    0  0.00000000000E+00  0.00000000000E+00  0.99999944176E+02  0.99999999997E+02  0.10566000000E+00 0.  1.
         22   -1    0    0    0    0 -0.00000000000E+00 -0.00000000000E+00 -0.18597496649E+02  0.18597496649E+02  0.00000000000E+00 0.  1.
         13    1    1    2    0    0  0.17278195583E+02  0.32860904961E+01 -0.40437355081E+01  0.18047088249E+02  0.10566000000E+00 0. -1.
        996    1    1    2    0    0 -0.17278195583E+02 -0.32860904961E+01  0.85446183036E+02  0.10055040840E+03  0.50000000000E+02 0.  0.
<mgrwt>
<rscale>  0 0.53003155E+02</rscale>
<asrwt>0</asrwt>
<pdfrwt beam="1">  1       13 0.10000000E+01 0.53003155E+02</pdfrwt>
<pdfrwt beam="2">  1       22 0.18597519E+00 0.53003155E+02</pdfrwt>
<totfact> 0.51892424E-01</totfact>
</mgrwt>
</event>
<event>
 4    1  0.2496748E+000  0.5189231E+02  0.7957747E-01  0.1435394E+00
         13   -1    0    0    0    0  0.00000000000E+00  0.00000000000E+00  0.99999944179E+02  0.99999999999E+02  0.10566000000E+00 0.  1.
         22   -1    0    0    0    0 -0.00000000000E+00 -0.00000000000E+00 -0.10994688136E+02  0.10994688136E+02  0.00000000000E+00 0.  1.
         13    1    1    2    0    0  0.54183672247E+00 -0.13875097685E+02  0.13422815014E+02  0.19313079758E+02  0.10566000000E+00 0. -1.
        996    1    1    2    0    0 -0.54183672247E+00  0.13875097685E+02  0.75582441029E+02  0.91681608377E+02  0.50000000000E+02 0.  0.
<mgrwt>
<rscale>  0 0.51892311E+02</rscale>
<asrwt>0</asrwt>
<pdfrwt beam="1">  1       13 0.10000000E+01 0.51892311E+02</pdfrwt>
<pdfrwt beam="2">  1       22 0.10994713E+00 0.51892311E+02</pdfrwt>
<totfact> 0.12263000E+00</totfact>
</mgrwt>
</event>
<event>
 4    1  0.2496748E+000  0.7579252E+02  0.7957747E-01  0.1341434E+00
         13   -1    0    0    0    0  0.00000000000E+00  0.00000000000E+00  0.99999944189E+02  0.10000000001E+03  0.10566000000E+00 0. -1.
         22   -1    0    0    0    0 -0.00000000000E+00 -0.00000000000E+00 -0.49585428662E+02  0.49585428662E+02  0.00000000000E+00 0.  1.
         13    1    1    2    0    0 -0.43709668102E+02  0.36523567504E+02 -0.27160433025E+01  0.57025381402E+02  0.10566000000E+00 0.  1.
        996    1    1    2    0    0  0.43709668102E+02 -0.36523567504E+02  0.53130558829E+02  0.92560047268E+02  0.50000000000E+02 0.  0.
<mgrwt>
<rscale>  0 0.75792520E+02</rscale>
<asrwt>0</asrwt>
<pdfrwt beam="1">  1       13 0.10000000E+01 0.75792520E+02</pdfrwt>
<pdfrwt beam="2">  1       22 0.49585443E+00 0.75792520E+02</pdfrwt>
<totfact> 0.75999995E-02</totfact>
</mgrwt>
</event>
<event>
 4    1  0.2496748E+000  0.5461203E+02  0.7957747E-01  0.1421943E+00
         13   -1    0    0    0    0  0.00000000000E+00  0.00000000000E+00  0.99999944176E+02  0.99999999997E+02  0.10566000000E+00 0.  1.
         22   -1    0    0    0    0 -0.00000000000E+00 -0.00000000000E+00 -0.52053112077E+02  0.52053112077E+02  0.00000000000E+00 0. -1.
         13    1    1    2    0    0  0.11090254530E+02  0.18959973070E+02 -0.41671288235E+02  0.47106069158E+02  0.10566000000E+00 0. -1.
        996    1    1    2    0    0 -0.11090254530E+02 -0.18959973070E+02  0.89618120334E+02  0.10494704292E+03  0.50000000000E+02 0.  0.
<mgrwt>
<rscale>  0 0.54612035E+02</rscale>
<asrwt>0</asrwt>
<pdfrwt beam="1">  1       13 0.10000000E+01 0.54612035E+02</pdfrwt>
<pdfrwt beam="2">  1       22 0.52053125E+00 0.54612035E+02</pdfrwt>
<totfact> 0.66188565E-02</totfact>
</mgrwt>
</event>
<event>
 4    1  0.2496748E+000  0.5150769E+02  0.7957747E-01  0.1437375E+00
         13   -1    0    0    0    0  0.00000000000E+00  0.00000000000E+00  0.99999944180E+02  0.10000000000E+03  0.10566000000E+00 0. -1.
         22   -1    0    0    0    0 -0.00000000000E+00 -0.00000000000E+00 -0.11742786462E+02  0.11742786462E+02  0.00000000000E+00 0. -1.
         13    1    1    2    0    0  0.87761187380E+01  0.87190780164E+01  0.37259333404E+02  0.39259542424E+02  0.10566000000E+00 0.  1.
        996    1    1    2    0    0 -0.87761187380E+01 -0.87190780164E+01  0.50997824313E+02  0.72483244038E+02  0.50000000000E+02 0.  0.
<mgrwt>
<rscale>  0 0.51507694E+02</rscale>
<asrwt>0</asrwt>
<pdfrwt beam="1">  1       13 0.10000000E+01 0.51507694E+02</pdfrwt>
<pdfrwt beam="2">  1       22 0.11742811E+00 0.51507694E+02</pdfrwt>
<totfact> 0.11098259E+00</totfact>
</mgrwt>
</event>
<event>
 4    1  0.2496748E+000  0.5189186E+02  0.7957747E-01  0.1435397E+00
         13   -1    0    0    0    0  0.00000000000E+00  0.00000000000E+00  0.99999944181E+02  0.10000000000E+03  0.10566000000E+00 0.  1.
         22   -1    0    0    0    0 -0.00000000000E+00 -0.00000000000E+00 -0.12868699074E+02  0.12868699074E+02  0.00000000000E+00 0.  1.
         13    1    1    2    0    0  0.12468804782E+02 -0.61068833799E+01  0.32915657761E+01  0.14269221654E+02  0.10566000000E+00 0. -1.
        996    1    1    2    0    0 -0.12468804782E+02  0.61068833799E+01  0.83839679332E+02  0.98599477421E+02  0.50000000000E+02 0.  0.
<mgrwt>
<rscale>  0 0.51891860E+02</rscale>
<asrwt>0</asrwt>
<pdfrwt beam="1">  1       13 0.10000000E+01 0.51891860E+02</pdfrwt>
<pdfrwt beam="2">  1       22 0.12868723E+00 0.51891860E+02</pdfrwt>
<totfact> 0.96431323E-01</totfact>
</mgrwt>
</event>
<event>
 4    1  0.2496748E+000  0.5395156E+02  0.7957747E-01  0.1425123E+00
         13   -1    0    0    0    0  0.00000000000E+00  0.00000000000E+00  0.99999944177E+02  0.99999999997E+02  0.10566000000E+00 0.  1.
         22   -1    0    0    0    0 -0.00000000000E+00 -0.00000000000E+00 -0.14141574657E+02  0.14141574657E+02  0.00000000000E+00 0.  1.
         13    1    1    2    0    0 -0.75700296331E+01  0.18800673905E+02  0.32213851067E+02  0.38059349082E+02  0.10566000000E+00 0. -1.
        996    1    1    2    0    0  0.75700296331E+01 -0.18800673905E+02  0.53644518454E+02  0.76082225572E+02  0.50000000000E+02 0.  0.
<mgrwt>
<rscale>  0 0.53951559E+02</rscale>
<asrwt>0</asrwt>
<pdfrwt beam="1">  1       13 0.10000000E+01 0.53951559E+02</pdfrwt>
<pdfrwt beam="2">  1       22 0.14141599E+00 0.53951559E+02</pdfrwt>
<totfact> 0.83293945E-01</totfact>
</mgrwt>
</event>
<event>
 4    1  0.2496748E+000  0.5113043E+02  0.7957747E-01  0.1439338E+00
         13   -1    0    0    0    0  0.00000000000E+00  0.00000000000E+00  0.99999944177E+02  0.99999999997E+02  0.10566000000E+00 0. -1.
         22   -1    0    0    0    0 -0.00000000000E+00 -0.00000000000E+00 -0.33687943059E+02  0.33687943059E+02  0.00000000000E+00 0.  1.
         13    1    1    2    0    0 -0.93031903836E+01  0.52698824099E+01 -0.26027043093E+02  0.28137859694E+02  0.10566000000E+00 0.  1.
        996    1    1    2    0    0  0.93031903836E+01 -0.52698824099E+01  0.92339044212E+02  0.10555008336E+03  0.50000000000E+02 0.  0.
<mgrwt>
<rscale>  0 0.51130431E+02</rscale>
<asrwt>0</asrwt>
<pdfrwt beam="1">  1       13 0.10000000E+01 0.51130431E+02</pdfrwt>
<pdfrwt beam="2">  1       22 0.33687962E+00 0.51130431E+02</pdfrwt>
<totfact> 0.16782135E-01</totfact>
</mgrwt>
</event>
<event>
 4    1  0.2496748E+000  0.7808774E+02  0.7957747E-01  0.1334567E+00
         13   -1    0    0    0    0  0.00000000000E+00  0.00000000000E+00  0.99999944163E+02  0.99999999984E+02  0.10566000000E+00 0.  1.
         22   -1    0    0    0    0 -0.00000000000E+00 -0.00000000000E+00 -0.67735884203E+02  0.67735884203E+02  0.00000000000E+00 0. -1.
         13    1    1    2    0    0 -0.59979624768E+02 -0.37340334593E+00 -0.30741111038E+02  0.67399717278E+02  0.10566000000E+00 0. -1.
        996    1    1    2    0    0  0.59979624768E+02  0.37340334593E+00  0.63005170998E+02  0.10033616691E+03  0.50000000000E+02 0.  0.
<mgrwt>
<rscale>  0 0.78087738E+02</rscale>
<asrwt>0</asrwt>
<pdfrwt beam="1">  1       13 0.10000000E+01 0.78087738E+02</pdfrwt>
<pdfrwt beam="2">  1       22 0.67735893E+00 0.78087738E+02</pdfrwt>
<totfact> 0.84337916E-02</totfact>
</mgrwt>
</event>
<event>
 4    1  0.2496748E+000  0.5208367E+02  0.7957747E-01  0.1434416E+00
         13   -1    0    0    0    0  0.00000000000E+00  0.00000000000E+00  0.99999944179E+02  0.10000000000E+03  0.10566000000E+00 0.  1.
         22   -1    0    0    0    0 -0.00000000000E+00 -0.00000000000E+00 -0.11125330547E+02  0.11125330547E+02  0.00000000000E+00 0.  1.
         13    1    1    2    0    0  0.13155955360E+02  0.62951855604E+01  0.17866402266E+02  0.23063564699E+02  0.10566000000E+00 0. -1.
        996    1    1    2    0    0 -0.13155955360E+02 -0.62951855604E+01  0.71008211367E+02  0.88061765847E+02  0.50000000000E+02 0.  0.
<mgrwt>
<rscale>  0 0.52083668E+02</rscale>
<asrwt>0</asrwt>
<pdfrwt beam="1">  1       13 0.10000000E+01 0.52083668E+02</pdfrwt>
<pdfrwt beam="2">  1       22 0.11125355E+00 0.52083668E+02</pdfrwt>
<totfact> 0.12054324E+00</totfact>
</mgrwt>
</event>
<event>
 4    1  0.2496748E+000  0.5172269E+02  0.7957747E-01  0.1436265E+00
         13   -1    0    0    0    0  0.00000000000E+00  0.00000000000E+00  0.99999944185E+02  0.10000000001E+03  0.10566000000E+00 0.  1.
         22   -1    0    0    0    0 -0.00000000000E+00 -0.00000000000E+00 -0.11977342325E+02  0.11977342325E+02  0.00000000000E+00 0.  1.
         13    1    1    2    0    0  0.41939841748E+01  0.12555749301E+02  0.49791131405E+01  0.14143517083E+02  0.10566000000E+00 0. -1.
        996    1    1    2    0    0 -0.41939841748E+01 -0.12555749301E+02  0.83043488720E+02  0.97833825248E+02  0.50000000000E+02 0.  0.
<mgrwt>
<rscale>  0 0.51722687E+02</rscale>
<asrwt>0</asrwt>
<pdfrwt beam="1">  1       13 0.10000000E+01 0.51722687E+02</pdfrwt>
<pdfrwt beam="2">  1       22 0.11977367E+00 0.51722687E+02</pdfrwt>
<totfact> 0.10773845E+00</totfact>
</mgrwt>
</event>
<event>
 4    1  0.2496748E+000  0.5114868E+02  0.7957747E-01  0.1439243E+00
         13   -1    0    0    0    0  0.00000000000E+00  0.00000000000E+00  0.99999944180E+02  0.10000000000E+03  0.10566000000E+00 0. -1.
         22   -1    0    0    0    0 -0.00000000000E+00 -0.00000000000E+00 -0.15253286114E+02  0.15253286114E+02  0.00000000000E+00 0. -1.
         13    1    1    2    0    0  0.29354634077E+01 -0.10371606051E+02 -0.50555592609E+01  0.11906174909E+02  0.10566000000E+00 0.  1.
        996    1    1    2    0    0 -0.29354634077E+01  0.10371606051E+02  0.89802217327E+02  0.10334711120E+03  0.50000000000E+02 0.  0.
<mgrwt>
<rscale>  0 0.51148677E+02</rscale>
<asrwt>0</asrwt>
<pdfrwt beam="1">  1       13 0.10000000E+01 0.51148677E+02</pdfrwt>
<pdfrwt beam="2">  1       22 0.15253310E+00 0.51148677E+02</pdfrwt>
<totfact> 0.73087873E-01</totfact>
</mgrwt>
</event>
<event>
 4    1  0.2496748E+000  0.6198385E+02  0.7957747E-01  0.1389690E+00
         13   -1    0    0    0    0  0.00000000000E+00  0.00000000000E+00  0.99999944177E+02  0.99999999997E+02  0.10566000000E+00 0.  1.
         22   -1    0    0    0    0 -0.00000000000E+00 -0.00000000000E+00 -0.41642929279E+02  0.41642929279E+02  0.00000000000E+00 0. -1.
         13    1    1    2    0    0  0.33774119185E+02  0.14188263898E+02 -0.19997221166E+02  0.41736051293E+02  0.10566000000E+00 0. -1.
        996    1    1    2    0    0 -0.33774119185E+02 -0.14188263898E+02  0.78354236063E+02  0.99906877983E+02  0.50000000000E+02 0.  0.
<mgrwt>
<rscale>  0 0.61983852E+02</rscale>
<asrwt>0</asrwt>
<pdfrwt beam="1">  1       13 0.10000000E+01 0.61983852E+02</pdfrwt>
<pdfrwt beam="2">  1       22 0.41642946E+00 0.61983852E+02</pdfrwt>
<totfact> 0.11506971E-01</totfact>
</mgrwt>
</event>
<event>
 4    1  0.2496748E+000  0.5175441E+02  0.7957747E-01  0.1436102E+00
         13   -1    0    0    0    0  0.00000000000E+00  0.00000000000E+00  0.99999944182E+02  0.10000000000E+03  0.10566000000E+00 0.  1.
         22   -1    0    0    0    0 -0.00000000000E+00 -0.00000000000E+00 -0.25118955022E+02  0.25118955022E+02  0.00000000000E+00 0. -1.
         13    1    1    2    0    0 -0.81079767368E+01  0.10619800561E+02 -0.15809881998E+02  0.20699830520E+02  0.10566000000E+00 0. -1.
        996    1    1    2    0    0  0.81079767368E+01 -0.10619800561E+02  0.90690871158E+02  0.10441912450E+03  0.50000000000E+02 0.  0.
<mgrwt>
<rscale>  0 0.51754415E+02</rscale>
<asrwt>0</asrwt>
<pdfrwt beam="1">  1       13 0.10000000E+01 0.51754415E+02</pdfrwt>
<pdfrwt beam="2">  1       22 0.25118976E+00 0.51754415E+02</pdfrwt>
<totfact> 0.29194031E-01</totfact>
</mgrwt>
</event>
<event>
 4    1  0.2496748E+000  0.5313000E+02  0.7957747E-01  0.1429155E+00
         13   -1    0    0    0    0  0.00000000000E+00  0.00000000000E+00  0.99999944186E+02  0.10000000001E+03  0.10566000000E+00 0. -1.
         22   -1    0    0    0    0 -0.00000000000E+00 -0.00000000000E+00 -0.63868645854E+02  0.63868645854E+02  0.00000000000E+00 0.  1.
         13    1    1    2    0    0  0.99200896863E+01 -0.14979617597E+02 -0.55286732235E+02  0.58132874073E+02  0.10566000000E+00 0.  1.
        996    1    1    2    0    0 -0.99200896863E+01  0.14979617597E+02  0.91418030567E+02  0.10573577179E+03  0.50000000000E+02 0.  0.
<mgrwt>
<rscale>  0 0.53130002E+02</rscale>
<asrwt>0</asrwt>
<pdfrwt beam="1">  1       13 0.10000000E+01 0.53130002E+02</pdfrwt>
<pdfrwt beam="2">  1       22 0.63868656E+00 0.53130002E+02</pdfrwt>
<totfact> 0.82839862E-02</totfact>
</mgrwt>
</event>
<event>
 4    1  0.2496748E+000  0.5117960E+02  0.7957747E-01  0.1439081E+00
         13   -1    0    0    0    0  0.00000000000E+00  0.00000000000E+00  0.99999944180E+02  0.10000000000E+03  0.10566000000E+00 0.  1.
         22   -1    0    0    0    0 -0.00000000000E+00 -0.00000000000E+00 -0.11389078634E+02  0.11389078634E+02  0.00000000000E+00 0. -1.
         13    1    1    2    0    0 -0.58295766205E+00  0.10909249653E+02  0.24853198726E+01  0.11204443160E+02  0.10566000000E+00 0. -1.
        996    1    1    2    0    0  0.58295766205E+00 -0.10909249653E+02  0.86125545674E+02  0.10018463547E+03  0.50000000000E+02 0.  0.
<mgrwt>
<rscale>  0 0.51179601E+02</rscale>
<asrwt>0</asrwt>
<pdfrwt beam="1">  1       13 0.10000000E+01 0.51179601E+02</pdfrwt>
<pdfrwt beam="2">  1       22 0.11389103E+00 0.51179601E+02</pdfrwt>
<totfact> 0.11614290E+00</totfact>
</mgrwt>
</event>
<event>
 4    1  0.2496748E+000  0.5288957E+02  0.7957747E-01  0.1430351E+00
         13   -1    0    0    0    0  0.00000000000E+00  0.00000000000E+00  0.99999944178E+02  0.99999999999E+02  0.10566000000E+00 0. -1.
         22   -1    0    0    0    0 -0.00000000000E+00 -0.00000000000E+00 -0.23252232605E+02  0.23252232605E+02  0.00000000000E+00 0.  1.
         13    1    1    2    0    0  0.15373393938E+02 -0.78080607214E+01 -0.11246410862E+02  0.20586402666E+02  0.10566000000E+00 0.  1.
        996    1    1    2    0    0 -0.15373393938E+02  0.78080607214E+01  0.87994122436E+02  0.10266582994E+03  0.50000000000E+02 0.  0.
<mgrwt>
<rscale>  0 0.52889574E+02</rscale>
<asrwt>0</asrwt>
<pdfrwt beam="1">  1       13 0.10000000E+01 0.52889574E+02</pdfrwt>
<pdfrwt beam="2">  1       22 0.23252254E+00 0.52889574E+02</pdfrwt>
<totfact> 0.34026696E-01</totfact>
</mgrwt>
</event>
<event>
 4    1  0.2496748E+000  0.5214440E+02  0.7957747E-01  0.1434107E+00
         13   -1    0    0    0    0  0.00000000000E+00  0.00000000000E+00  0.99999944179E+02  0.99999999999E+02  0.10566000000E+00 0. -1.
         22   -1    0    0    0    0 -0.00000000000E+00 -0.00000000000E+00 -0.15780506421E+02  0.15780506421E+02  0.00000000000E+00 0.  1.
         13    1    1    2    0    0 -0.70674127290E+01 -0.13003448428E+02 -0.20850640701E+01  0.14946459444E+02  0.10566000000E+00 0.  1.
        996    1    1    2    0    0  0.70674127290E+01  0.13003448428E+02  0.86304501828E+02  0.10083404698E+03  0.50000000000E+02 0.  0.
<mgrwt>
<rscale>  0 0.52144396E+02</rscale>
<asrwt>0</asrwt>
<pdfrwt beam="1">  1       13 0.10000000E+01 0.52144396E+02</pdfrwt>
<pdfrwt beam="2">  1       22 0.15780530E+00 0.52144396E+02</pdfrwt>
<totfact> 0.69153695E-01</totfact>
</mgrwt>
</event>
<event>
 4    1  0.2496748E+000  0.5316532E+02  0.7957747E-01  0.1428980E+00
         13   -1    0    0    0    0  0.00000000000E+00  0.00000000000E+00  0.99999944173E+02  0.99999999993E+02  0.10566000000E+00 0.  1.
         22   -1    0    0    0    0 -0.00000000000E+00 -0.00000000000E+00 -0.18981945536E+02  0.18981945536E+02  0.00000000000E+00 0. -1.
         13    1    1    2    0    0 -0.74539819322E+01 -0.16461756090E+02 -0.41878432547E+01  0.18549944889E+02  0.10566000000E+00 0. -1.
        996    1    1    2    0    0  0.74539819322E+01  0.16461756090E+02  0.85205841891E+02  0.10043200064E+03  0.50000000000E+02 0.  0.
<mgrwt>
<rscale>  0 0.53165320E+02</rscale>
<asrwt>0</asrwt>
<pdfrwt beam="1">  1       13 0.10000000E+01 0.53165320E+02</pdfrwt>
<pdfrwt beam="2">  1       22 0.18981968E+00 0.53165320E+02</pdfrwt>
<totfact> 0.50006112E-01</totfact>
</mgrwt>
</event>
<event>
 4    1  0.2496748E+000  0.5689967E+02  0.7957747E-01  0.1411323E+00
         13   -1    0    0    0    0  0.00000000000E+00  0.00000000000E+00  0.99999944178E+02  0.99999999999E+02  0.10566000000E+00 0. -1.
         22   -1    0    0    0    0 -0.00000000000E+00 -0.00000000000E+00 -0.21716923689E+02  0.21716923689E+02  0.00000000000E+00 0.  1.
         13    1    1    2    0    0  0.25495114969E+02 -0.93579750741E+01  0.29617112573E+01  0.27319507360E+02  0.10566000000E+00 0.  1.
        996    1    1    2    0    0 -0.25495114969E+02  0.93579750741E+01  0.75321309233E+02  0.94397416327E+02  0.50000000000E+02 0.  0.
<mgrwt>
<rscale>  0 0.56899671E+02</rscale>
<asrwt>0</asrwt>
<pdfrwt beam="1">  1       13 0.10000000E+01 0.56899671E+02</pdfrwt>
<pdfrwt beam="2">  1       22 0.21716946E+00 0.56899671E+02</pdfrwt>
<totfact> 0.39084949E-01</totfact>
</mgrwt>
</event>
<event>
 4    1  0.2496748E+000  0.5103178E+02  0.7957747E-01  0.1439855E+00
         13   -1    0    0    0    0  0.00000000000E+00  0.00000000000E+00  0.99999944184E+02  0.10000000000E+03  0.10566000000E+00 0.  1.
         22   -1    0    0    0    0 -0.00000000000E+00 -0.00000000000E+00 -0.18985187882E+02  0.18985187882E+02  0.00000000000E+00 0. -1.
         13    1    1    2    0    0  0.35267892799E+01  0.95814828755E+01 -0.10220921188E+02  0.14447195253E+02  0.10566000000E+00 0. -1.
        996    1    1    2    0    0 -0.35267892799E+01 -0.95814828755E+01  0.91235677489E+02  0.10453799263E+03  0.50000000000E+02 0.  0.
<mgrwt>
<rscale>  0 0.51031785E+02</rscale>
<asrwt>0</asrwt>
<pdfrwt beam="1">  1       13 0.10000000E+01 0.51031785E+02</pdfrwt>
<pdfrwt beam="2">  1       22 0.18985211E+00 0.51031785E+02</pdfrwt>
<totfact> 0.49794749E-01</totfact>
</mgrwt>
</event>
<event>
 4    1  0.2496748E+000  0.5140488E+02  0.7957747E-01  0.1437908E+00
         13   -1    0    0    0    0  0.00000000000E+00  0.00000000000E+00  0.99999944174E+02  0.99999999995E+02  0.10566000000E+00 0.  1.
         22   -1    0    0    0    0 -0.00000000000E+00 -0.00000000000E+00 -0.10056224692E+02  0.10056224692E+02  0.00000000000E+00 0.  1.
         13    1    1    2    0    0 -0.16485118230E+01  0.11821340302E+02  0.14830756395E+02  0.19037441453E+02  0.10566000000E+00 0. -1.
        996    1    1    2    0    0  0.16485118230E+01 -0.11821340302E+02  0.75112963087E+02  0.91018783234E+02  0.50000000000E+02 0.  0.
<mgrwt>
<rscale>  0 0.51404880E+02</rscale>
<asrwt>0</asrwt>
<pdfrwt beam="1">  1       13 0.10000000E+01 0.51404880E+02</pdfrwt>
<pdfrwt beam="2">  1       22 0.10056250E+00 0.51404880E+02</pdfrwt>
<totfact> 0.13963689E+00</totfact>
</mgrwt>
</event>
<event>
 4    1  0.2496748E+000  0.5145879E+02  0.7957747E-01  0.1437628E+00
         13   -1    0    0    0    0  0.00000000000E+00  0.00000000000E+00  0.99999944191E+02  0.10000000001E+03  0.10566000000E+00 0.  1.
         22   -1    0    0    0    0 -0.00000000000E+00 -0.00000000000E+00 -0.20341804774E+02  0.20341804774E+02  0.00000000000E+00 0. -1.
         13    1    1    2    0    0  0.51755602741E+01  0.11010016456E+02 -0.10801910167E+02  0.16269582472E+02  0.10566000000E+00 0. -1.
        996    1    1    2    0    0 -0.51755602741E+01 -0.11010016456E+02  0.90460049583E+02  0.10407222231E+03  0.50000000000E+02 0.  0.
<mgrwt>
<rscale>  0 0.51458788E+02</rscale>
<asrwt>0</asrwt>
<pdfrwt beam="1">  1       13 0.10000000E+01 0.51458788E+02</pdfrwt>
<pdfrwt beam="2">  1       22 0.20341827E+00 0.51458788E+02</pdfrwt>
<totfact> 0.43851433E-01</totfact>
</mgrwt>
</event>
<event>
 4    1  0.2496748E+000  0.5282058E+02  0.7957747E-01  0.1430696E+00
         13   -1    0    0    0    0  0.00000000000E+00  0.00000000000E+00  0.99999944186E+02  0.10000000001E+03  0.10566000000E+00 0. -1.
         22   -1    0    0    0    0 -0.00000000000E+00 -0.00000000000E+00 -0.49954303900E+02  0.49954303900E+02  0.00000000000E+00 0.  1.
         13    1    1    2    0    0  0.16897620766E+02  0.21176794685E+01 -0.41167534446E+02  0.44550995615E+02  0.10566000000E+00 0.  1.
        996    1    1    2    0    0 -0.16897620766E+02 -0.21176794685E+01  0.91213174733E+02  0.10540330829E+03  0.50000000000E+02 0.  0.
<mgrwt>
<rscale>  0 0.52820585E+02</rscale>
<asrwt>0</asrwt>
<pdfrwt beam="1">  1       13 0.10000000E+01 0.52820585E+02</pdfrwt>
<pdfrwt beam="2">  1       22 0.49954318E+00 0.52820585E+02</pdfrwt>
<totfact> 0.73825688E-02</totfact>
</mgrwt>
</event>
<event>
 4    1  0.2496748E+000  0.5109857E+02  0.7957747E-01  0.1439505E+00
         13   -1    0    0    0    0  0.00000000000E+00  0.00000000000E+00  0.99999944173E+02  0.99999999993E+02  0.10566000000E+00 0.  1.
         22   -1    0    0    0    0 -0.00000000000E+00 -0.00000000000E+00 -0.53233168467E+02  0.53233168467E+02  0.00000000000E+00 0. -1.
         13    1    1    2    0    0 -0.10194993384E+02 -0.26694414785E+01 -0.46071412717E+02  0.47261506977E+02  0.10566000000E+00 0. -1.
        996    1    1    2    0    0  0.10194993384E+02  0.26694414785E+01  0.92838188423E+02  0.10597166148E+03  0.50000000000E+02 0.  0.
<mgrwt>
<rscale>  0 0.51098570E+02</rscale>
<asrwt>0</asrwt>
<pdfrwt beam="1">  1       13 0.10000000E+01 0.51098570E+02</pdfrwt>
<pdfrwt beam="2">  1       22 0.53233182E+00 0.51098570E+02</pdfrwt>
<totfact> 0.62465043E-02</totfact>
</mgrwt>
</event>
<event>
 4    1  0.2496748E+000  0.5566738E+02  0.7957747E-01  0.1416969E+00
         13   -1    0    0    0    0  0.00000000000E+00  0.00000000000E+00  0.99999944183E+02  0.10000000000E+03  0.10566000000E+00 0.  1.
         22   -1    0    0    0    0 -0.00000000000E+00 -0.00000000000E+00 -0.24031367148E+02  0.24031367148E+02  0.00000000000E+00 0. -1.
         13    1    1    2    0    0  0.14787357960E+02  0.19498479940E+02 -0.57647121998E+01  0.25141593947E+02  0.10566000000E+00 0. -1.
        996    1    1    2    0    0 -0.14787357960E+02 -0.19498479940E+02  0.81733289234E+02  0.98889773205E+02  0.50000000000E+02 0.  0.
<mgrwt>
<rscale>  0 0.55667375E+02</rscale>
<asrwt>0</asrwt>
<pdfrwt beam="1">  1       13 0.10000000E+01 0.55667375E+02</pdfrwt>
<pdfrwt beam="2">  1       22 0.24031388E+00 0.55667375E+02</pdfrwt>
<totfact> 0.32040318E-01</totfact>
</mgrwt>
</event>
<event>
 4    1  0.2496748E+000  0.5131311E+02  0.7957747E-01  0.1438385E+00
         13   -1    0    0    0    0  0.00000000000E+00  0.00000000000E+00  0.99999944185E+02  0.10000000001E+03  0.10566000000E+00 0.  1.
         22   -1    0    0    0    0 -0.00000000000E+00 -0.00000000000E+00 -0.11880243661E+02  0.11880243661E+02  0.00000000000E+00 0.  1.
         13    1    1    2    0    0  0.10747273897E+02  0.41870082565E+01  0.21087020746E+01  0.11725729096E+02  0.10566000000E+00 0. -1.
        996    1    1    2    0    0 -0.10747273897E+02 -0.41870082565E+01  0.86010998450E+02  0.10015451457E+03  0.50000000000E+02 0.  0.
<mgrwt>
<rscale>  0 0.51313107E+02</rscale>
<asrwt>0</asrwt>
<pdfrwt beam="1">  1       13 0.10000000E+01 0.51313107E+02</pdfrwt>
<pdfrwt beam="2">  1       22 0.11880268E+00 0.51313107E+02</pdfrwt>
<totfact> 0.10898614E+00</totfact>
</mgrwt>
</event>
<event>
 4    1  0.2496748E+000  0.5472710E+02  0.7957747E-01  0.1421394E+00
         13   -1    0    0    0    0  0.00000000000E+00  0.00000000000E+00  0.99999944172E+02  0.99999999992E+02  0.10566000000E+00 0.  1.
         22   -1    0    0    0    0 -0.00000000000E+00 -0.00000000000E+00 -0.19913543234E+02  0.19913543234E+02  0.00000000000E+00 0. -1.
         13    1    1    2    0    0 -0.18619300203E+02  0.12181037106E+02 -0.78620908196E+00  0.22263990967E+02  0.10566000000E+00 0. -1.
        996    1    1    2    0    0  0.18619300203E+02 -0.12181037106E+02  0.80872610020E+02  0.97649552259E+02  0.50000000000E+02 0.  0.
<mgrwt>
<rscale>  0 0.54727105E+02</rscale>
<asrwt>0</asrwt>
<pdfrwt beam="1">  1       13 0.10000000E+01 0.54727105E+02</pdfrwt>
<pdfrwt beam="2">  1       22 0.19913566E+00 0.54727105E+02</pdfrwt>
<totfact> 0.45893815E-01</totfact>
</mgrwt>
</event>
<event>
 4    1  0.2496748E+000  0.5110526E+02  0.7957747E-01  0.1439470E+00
         13   -1    0    0    0    0  0.00000000000E+00  0.00000000000E+00  0.99999944187E+02  0.10000000001E+03  0.10566000000E+00 0. -1.
         22   -1    0    0    0    0 -0.00000000000E+00 -0.00000000000E+00 -0.20685764365E+02  0.20685764365E+02  0.00000000000E+00 0. -1.
         13    1    1    2    0    0  0.56621249306E+01  0.89268098375E+01 -0.12031370368E+02  0.16016011663E+02  0.10566000000E+00 0.  1.
        996    1    1    2    0    0 -0.56621249306E+01 -0.89268098375E+01  0.91345550190E+02  0.10466975271E+03  0.50000000000E+02 0.  0.
<mgrwt>
<rscale>  0 0.51105260E+02</rscale>
<asrwt>0</asrwt>
<pdfrwt beam="1">  1       13 0.10000000E+01 0.51105260E+02</pdfrwt>
<pdfrwt beam="2">  1       22 0.20685787E+00 0.51105260E+02</pdfrwt>
<totfact> 0.42462882E-01</totfact>
</mgrwt>
</event>
<event>
 4    1  0.2496748E+000  0.5210528E+02  0.7957747E-01  0.1434306E+00
         13   -1    0    0    0    0  0.00000000000E+00  0.00000000000E+00  0.99999944177E+02  0.99999999997E+02  0.10566000000E+00 0.  1.
         22   -1    0    0    0    0 -0.00000000000E+00 -0.00000000000E+00 -0.11263663150E+02  0.11263663150E+02  0.00000000000E+00 0.  1.
         13    1    1    2    0    0 -0.14217555385E+02  0.35807109289E+01  0.15002554531E+02  0.20977325339E+02  0.10566000000E+00 0. -1.
        996    1    1    2    0    0  0.14217555385E+02 -0.35807109289E+01  0.73733726495E+02  0.90286337808E+02  0.50000000000E+02 0.  0.
<mgrwt>
<rscale>  0 0.52105282E+02</rscale>
<asrwt>0</asrwt>
<pdfrwt beam="1">  1       13 0.10000000E+01 0.52105282E+02</pdfrwt>
<pdfrwt beam="2">  1       22 0.11263688E+00 0.52105282E+02</pdfrwt>
<totfact> 0.11834122E+00</totfact>
</mgrwt>
</event>
<event>
 4    1  0.2496748E+000  0.5132766E+02  0.7957747E-01  0.1438309E+00
         13   -1    0    0    0    0  0.00000000000E+00  0.00000000000E+00  0.99999944181E+02  0.10000000000E+03  0.10566000000E+00 0.  1.
         22   -1    0    0    0    0 -0.00000000000E+00 -0.00000000000E+00 -0.12108262504E+02  0.12108262504E+02  0.00000000000E+00 0.  1.
         13    1    1    2    0    0 -0.92278221919E+01 -0.70268021512E+01  0.16052630201E+01  0.11709683355E+02  0.10566000000E+00 0. -1.
        996    1    1    2    0    0  0.92278221919E+01  0.70268021512E+01  0.86286418656E+02  0.10039857915E+03  0.50000000000E+02 0.  0.
<mgrwt>
<rscale>  0 0.51327660E+02</rscale>
<asrwt>0</asrwt>
<pdfrwt beam="1">  1       13 0.10000000E+01 0.51327660E+02</pdfrwt>
<pdfrwt beam="2">  1       22 0.12108287E+00 0.51327660E+02</pdfrwt>
<totfact> 0.10586323E+00</totfact>
</mgrwt>
</event>
<event>
 4    1  0.2496748E+000  0.5651654E+02  0.7957747E-01  0.1413060E+00
         13   -1    0    0    0    0  0.00000000000E+00  0.00000000000E+00  0.99999944181E+02  0.10000000000E+03  0.10566000000E+00 0. -1.
         22   -1    0    0    0    0 -0.00000000000E+00 -0.00000000000E+00 -0.31382994136E+02  0.31382994136E+02  0.00000000000E+00 0.  1.
         13    1    1    2    0    0 -0.26069385589E+02 -0.38087580804E+01 -0.15106085834E+02  0.30369795791E+02  0.10566000000E+00 0.  1.
        996    1    1    2    0    0  0.26069385589E+02  0.38087580804E+01  0.83723035879E+02  0.10101319835E+03  0.50000000000E+02 0.  0.
<mgrwt>
<rscale>  0 0.56516542E+02</rscale>
<asrwt>0</asrwt>
<pdfrwt beam="1">  1       13 0.10000000E+01 0.56516542E+02</pdfrwt>
<pdfrwt beam="2">  1       22 0.31383013E+00 0.56516542E+02</pdfrwt>
<totfact> 0.19157976E-01</totfact>
</mgrwt>
</event>
<event>
 4    1  0.2496748E+000  0.5177335E+02  0.7957747E-01  0.1436005E+00
         13   -1    0    0    0    0  0.00000000000E+00  0.00000000000E+00  0.99999944179E+02  0.99999999999E+02  0.10566000000E+00 0.  1.
         22   -1    0    0    0    0 -0.00000000000E+00 -0.00000000000E+00 -0.11094567948E+02  0.11094567948E+02  0.00000000000E+00 0.  1.
         13    1    1    2    0    0  0.38158427714E+01 -0.12880957979E+02  0.28704558559E+02  0.31692942126E+02  0.10566000000E+00 0. -1.
        996    1    1    2    0    0 -0.38158427714E+01  0.12880957979E+02  0.60200817672E+02  0.79401625820E+02  0.50000000000E+02 0.  0.
<mgrwt>
<rscale>  0 0.51773350E+02</rscale>
<asrwt>0</asrwt>
<pdfrwt beam="1">  1       13 0.10000000E+01 0.51773350E+02</pdfrwt>
<pdfrwt beam="2">  1       22 0.11094593E+00 0.51773350E+02</pdfrwt>
<totfact> 0.12095577E+00</totfact>
</mgrwt>
</event>
<event>
 4    1  0.2496748E+000  0.5152448E+02  0.7957747E-01  0.1437288E+00
         13   -1    0    0    0    0  0.00000000000E+00  0.00000000000E+00  0.99999944183E+02  0.10000000000E+03  0.10566000000E+00 0.  1.
         22   -1    0    0    0    0 -0.00000000000E+00 -0.00000000000E+00 -0.11158603111E+02  0.11158603111E+02  0.00000000000E+00 0.  1.
         13    1    1    2    0    0 -0.29328819013E+01 -0.12090073755E+02  0.65299270349E+01  0.14050722073E+02  0.10566000000E+00 0. -1.
        996    1    1    2    0    0  0.29328819013E+01  0.12090073755E+02  0.82311414037E+02  0.97107881041E+02  0.50000000000E+02 0.  0.
<mgrwt>
<rscale>  0 0.51524477E+02</rscale>
<asrwt>0</asrwt>
<pdfrwt beam="1">  1       13 0.10000000E+01 0.51524477E+02</pdfrwt>
<pdfrwt beam="2">  1       22 0.11158628E+00 0.51524477E+02</pdfrwt>
<totfact> 0.11985196E+00</totfact>
</mgrwt>
</event>
<event>
 4    1  0.2496748E+000  0.5130257E+02  0.7957747E-01  0.1438440E+00
         13   -1    0    0    0    0  0.00000000000E+00  0.00000000000E+00  0.99999944178E+02  0.99999999998E+02  0.10566000000E+00 0. -1.
         22   -1    0    0    0    0 -0.00000000000E+00 -0.00000000000E+00 -0.10466085046E+02  0.10466085046E+02  0.00000000000E+00 0. -1.
         13    1    1    2    0    0 -0.89356195772E+01 -0.72186303391E+01  0.28541100814E+02  0.30766207451E+02  0.10566000000E+00 0.  1.
        996    1    1    2    0    0  0.89356195772E+01  0.72186303391E+01  0.60992758318E+02  0.79699877593E+02  0.50000000000E+02 0.  0.
<mgrwt>
<rscale>  0 0.51302572E+02</rscale>
<asrwt>0</asrwt>
<pdfrwt beam="1">  1       13 0.10000000E+01 0.51302572E+02</pdfrwt>
<pdfrwt beam="2">  1       22 0.10466110E+00 0.51302572E+02</pdfrwt>
<totfact> 0.13170291E+00</totfact>
</mgrwt>
</event>
<event>
 4    1  0.2496748E+000  0.5235382E+02  0.7957747E-01  0.1433044E+00
         13   -1    0    0    0    0  0.00000000000E+00  0.00000000000E+00  0.99999944181E+02  0.10000000000E+03  0.10566000000E+00 0.  1.
         22   -1    0    0    0    0 -0.00000000000E+00 -0.00000000000E+00 -0.16606690502E+02  0.16606690502E+02  0.00000000000E+00 0. -1.
         13    1    1    2    0    0  0.10114679796E+02  0.11773534661E+02 -0.27871193209E+01  0.15770290547E+02  0.10566000000E+00 0. -1.
        996    1    1    2    0    0 -0.10114679796E+02 -0.11773534661E+02  0.86180373000E+02  0.10083639996E+03  0.50000000000E+02 0.  0.
<mgrwt>
<rscale>  0 0.52353824E+02</rscale>
<asrwt>0</asrwt>
<pdfrwt beam="1">  1       13 0.10000000E+01 0.52353824E+02</pdfrwt>
<pdfrwt beam="2">  1       22 0.16606714E+00 0.52353824E+02</pdfrwt>
<totfact> 0.63375390E-01</totfact>
</mgrwt>
</event>
<event>
 4    1  0.2496748E+000  0.5199359E+02  0.7957747E-01  0.1434876E+00
         13   -1    0    0    0    0  0.00000000000E+00  0.00000000000E+00  0.99999944187E+02  0.10000000001E+03  0.10566000000E+00 0. -1.
         22   -1    0    0    0    0 -0.00000000000E+00 -0.00000000000E+00 -0.22880335390E+02  0.22880335390E+02  0.00000000000E+00 0.  1.
         13    1    1    2    0    0  0.79758959003E+01  0.11820244119E+02 -0.12701315349E+02  0.19096273513E+02  0.10566000000E+00 0.  1.
        996    1    1    2    0    0 -0.79758959003E+01 -0.11820244119E+02  0.89820924146E+02  0.10378406188E+03  0.50000000000E+02 0.  0.
<mgrwt>
<rscale>  0 0.51993587E+02</rscale>
<asrwt>0</asrwt>
<pdfrwt beam="1">  1       13 0.10000000E+01 0.51993587E+02</pdfrwt>
<pdfrwt beam="2">  1       22 0.22880357E+00 0.51993587E+02</pdfrwt>
<totfact> 0.35059251E-01</totfact>
</mgrwt>
</event>
<event>
 4    1  0.2496748E+000  0.7060742E+02  0.7957747E-01  0.1358040E+00
         13   -1    0    0    0    0  0.00000000000E+00  0.00000000000E+00  0.99999944190E+02  0.10000000001E+03  0.10566000000E+00 0.  1.
         22   -1    0    0    0    0 -0.00000000000E+00 -0.00000000000E+00 -0.67679534826E+02  0.67679534826E+02  0.00000000000E+00 0. -1.
         13    1    1    2    0    0 -0.18812588199E+02 -0.46168106937E+02 -0.41984583907E+02  0.65177634376E+02  0.10566000000E+00 0. -1.
        996    1    1    2    0    0  0.18812588199E+02  0.46168106937E+02  0.74304993272E+02  0.10250190046E+03  0.50000000000E+02 0.  0.
<mgrwt>
<rscale>  0 0.70607419E+02</rscale>
<asrwt>0</asrwt>
<pdfrwt beam="1">  1       13 0.10000000E+01 0.70607419E+02</pdfrwt>
<pdfrwt beam="2">  1       22 0.67679544E+00 0.70607419E+02</pdfrwt>
<totfact> 0.84516627E-02</totfact>
</mgrwt>
</event>
<event>
 4    1  0.2496748E+000  0.5512503E+02  0.7957747E-01  0.1419509E+00
         13   -1    0    0    0    0  0.00000000000E+00  0.00000000000E+00  0.99999944180E+02  0.10000000000E+03  0.10566000000E+00 0. -1.
         22   -1    0    0    0    0 -0.00000000000E+00 -0.00000000000E+00 -0.31121013902E+02  0.31121013902E+02  0.00000000000E+00 0.  1.
         13    1    1    2    0    0  0.89777906955E+01  0.21404855505E+02 -0.17209775488E+02  0.28895606956E+02  0.10566000000E+00 0.  1.
        996    1    1    2    0    0 -0.89777906955E+01 -0.21404855505E+02  0.86088705765E+02  0.10222540695E+03  0.50000000000E+02 0.  0.
<mgrwt>
<rscale>  0 0.55125027E+02</rscale>
<asrwt>0</asrwt>
<pdfrwt beam="1">  1       13 0.10000000E+01 0.55125027E+02</pdfrwt>
<pdfrwt beam="2">  1       22 0.31121033E+00 0.55125027E+02</pdfrwt>
<totfact> 0.19421918E-01</totfact>
</mgrwt>
</event>
<event>
 4    1  0.2496748E+000  0.5606160E+02  0.7957747E-01  0.1415144E+00
         13   -1    0    0    0    0  0.00000000000E+00  0.00000000000E+00  0.99999944173E+02  0.99999999993E+02  0.10566000000E+00 0.  1.
         22   -1    0    0    0    0 -0.00000000000E+00 -0.00000000000E+00 -0.16599893713E+02  0.16599893713E+02  0.00000000000E+00 0. -1.
         13    1    1    2    0    0  0.39965384260E+01  0.25038582070E+02  0.23783607008E+02  0.34764551455E+02  0.10566000000E+00 0. -1.
        996    1    1    2    0    0 -0.39965384260E+01 -0.25038582070E+02  0.59616443452E+02  0.81835342251E+02  0.50000000000E+02 0.  0.
<mgrwt>
<rscale>  0 0.56061599E+02</rscale>
<asrwt>0</asrwt>
<pdfrwt beam="1">  1       13 0.10000000E+01 0.56061599E+02</pdfrwt>
<pdfrwt beam="2">  1       22 0.16599917E+00 0.56061599E+02</pdfrwt>
<totfact> 0.63862144E-01</totfact>
</mgrwt>
</event>
<event>
 4    1  0.2496748E+000  0.6316774E+02  0.7957747E-01  0.1384999E+00
         13   -1    0    0    0    0  0.00000000000E+00  0.00000000000E+00  0.99999944179E+02  0.99999999999E+02  0.10566000000E+00 0.  1.
         22   -1    0    0    0    0 -0.00000000000E+00 -0.00000000000E+00 -0.26624914816E+02  0.26624914816E+02  0.00000000000E+00 0. -1.
         13    1    1    2    0    0 -0.38295659503E+02  0.48585895691E+01  0.17880458829E+02  0.42542747929E+02  0.10566000000E+00 0. -1.
        996    1    1    2    0    0  0.38295659503E+02 -0.48585895691E+01  0.55494570535E+02  0.84082166886E+02  0.50000000000E+02 0.  0.
<mgrwt>
<rscale>  0 0.63167740E+02</rscale>
<asrwt>0</asrwt>
<pdfrwt beam="1">  1       13 0.10000000E+01 0.63167740E+02</pdfrwt>
<pdfrwt beam="2">  1       22 0.26624935E+00 0.63167740E+02</pdfrwt>
<totfact> 0.26439646E-01</totfact>
</mgrwt>
</event>
<event>
 4    1  0.2496748E+000  0.6132033E+02  0.7957747E-01  0.1392373E+00
         13   -1    0    0    0    0  0.00000000000E+00  0.00000000000E+00  0.99999944178E+02  0.99999999998E+02  0.10566000000E+00 0.  1.
         22   -1    0    0    0    0 -0.00000000000E+00 -0.00000000000E+00 -0.38202571870E+02  0.38202571870E+02  0.00000000000E+00 0. -1.
         13    1    1    2    0    0 -0.21402472333E+02  0.28321662433E+02 -0.16171561657E+02  0.39009139382E+02  0.10566000000E+00 0. -1.
        996    1    1    2    0    0  0.21402472333E+02 -0.28321662433E+02  0.77968933964E+02  0.99193432486E+02  0.50000000000E+02 0.  0.
<mgrwt>
<rscale>  0 0.61320326E+02</rscale>
<asrwt>0</asrwt>
<pdfrwt beam="1">  1       13 0.10000000E+01 0.61320326E+02</pdfrwt>
<pdfrwt beam="2">  1       22 0.38202589E+00 0.61320326E+02</pdfrwt>
<totfact> 0.13565468E-01</totfact>
</mgrwt>
</event>
<event>
 4    1  0.2496748E+000  0.5764563E+02  0.7957747E-01  0.1407986E+00
         13   -1    0    0    0    0  0.00000000000E+00  0.00000000000E+00  0.99999944187E+02  0.10000000001E+03  0.10566000000E+00 0.  1.
         22   -1    0    0    0    0 -0.00000000000E+00 -0.00000000000E+00 -0.37808331836E+02  0.37808331836E+02  0.00000000000E+00 0. -1.
         13    1    1    2    0    0 -0.10144424119E+02 -0.26834842757E+02 -0.21734406277E+02  0.35991856117E+02  0.10566000000E+00 0. -1.
        996    1    1    2    0    0  0.10144424119E+02  0.26834842757E+02  0.83926018628E+02  0.10181647573E+03  0.50000000000E+02 0.  0.
<mgrwt>
<rscale>  0 0.57645625E+02</rscale>
<asrwt>0</asrwt>
<pdfrwt beam="1">  1       13 0.10000000E+01 0.57645625E+02</pdfrwt>
<pdfrwt beam="2">  1       22 0.37808349E+00 0.57645625E+02</pdfrwt>
<totfact> 0.13784143E-01</totfact>
</mgrwt>
</event>
<event>
 4    1  0.2496748E+000  0.5333337E+02  0.7957747E-01  0.1428149E+00
         13   -1    0    0    0    0  0.00000000000E+00  0.00000000000E+00  0.99999944179E+02  0.10000000000E+03  0.10566000000E+00 0. -1.
         22   -1    0    0    0    0 -0.00000000000E+00 -0.00000000000E+00 -0.21321393249E+02  0.21321393249E+02  0.00000000000E+00 0. -1.
         13    1    1    2    0    0  0.12901426948E+02 -0.13341723353E+02 -0.74646929333E+01  0.20004529586E+02  0.10566000000E+00 0.  1.
        996    1    1    2    0    0 -0.12901426948E+02  0.13341723353E+02  0.86143243863E+02  0.10131686366E+03  0.50000000000E+02 0.  0.
<mgrwt>
<rscale>  0 0.53333370E+02</rscale>
<asrwt>0</asrwt>
<pdfrwt beam="1">  1       13 0.10000000E+01 0.53333370E+02</pdfrwt>
<pdfrwt beam="2">  1       22 0.21321415E+00 0.53333370E+02</pdfrwt>
<totfact> 0.40250344E-01</totfact>
</mgrwt>
</event>
<event>
 4    1  0.2496748E+000  0.7939680E+02  0.7957747E-01  0.1330772E+00
         13   -1    0    0    0    0  0.00000000000E+00  0.00000000000E+00  0.99999944177E+02  0.99999999998E+02  0.10566000000E+00 0.  1.
         22   -1    0    0    0    0 -0.00000000000E+00 -0.00000000000E+00 -0.56506802216E+02  0.56506802216E+02  0.00000000000E+00 0. -1.
         13    1    1    2    0    0  0.30086411137E+02 -0.53839208622E+02 -0.75229355539E+01  0.62132586004E+02  0.10566000000E+00 0. -1.
        996    1    1    2    0    0 -0.30086411137E+02  0.53839208622E+02  0.51016077515E+02  0.94374216210E+02  0.50000000000E+02 0.  0.
<mgrwt>
<rscale>  0 0.79396804E+02</rscale>
<asrwt>0</asrwt>
<pdfrwt beam="1">  1       13 0.10000000E+01 0.79396804E+02</pdfrwt>
<pdfrwt beam="2">  1       22 0.56506814E+00 0.79396804E+02</pdfrwt>
<totfact> 0.58372249E-02</totfact>
</mgrwt>
</event>
<event>
 4    1  0.2496748E+000  0.5214877E+02  0.7957747E-01  0.1434085E+00
         13   -1    0    0    0    0  0.00000000000E+00  0.00000000000E+00  0.99999944179E+02  0.99999999999E+02  0.10566000000E+00 0. -1.
         22   -1    0    0    0    0 -0.00000000000E+00 -0.00000000000E+00 -0.32635015028E+02  0.32635015028E+02  0.00000000000E+00 0.  1.
         13    1    1    2    0    0  0.60870212334E+00  0.14802829999E+02 -0.23551621904E+02  0.27824168498E+02  0.10566000000E+00 0.  1.
        996    1    1    2    0    0 -0.60870212334E+00 -0.14802829999E+02  0.90916551056E+02  0.10481084653E+03  0.50000000000E+02 0.  0.
<mgrwt>
<rscale>  0 0.52148771E+02</rscale>
<asrwt>0</asrwt>
<pdfrwt beam="1">  1       13 0.10000000E+01 0.52148771E+02</pdfrwt>
<pdfrwt beam="2">  1       22 0.32635034E+00 0.52148771E+02</pdfrwt>
<totfact> 0.17767958E-01</totfact>
</mgrwt>
</event>
<event>
 4    1  0.2496748E+000  0.5217958E+02  0.7957747E-01  0.1433928E+00
         13   -1    0    0    0    0  0.00000000000E+00  0.00000000000E+00  0.99999944186E+02  0.10000000001E+03  0.10566000000E+00 0.  1.
         22   -1    0    0    0    0 -0.00000000000E+00 -0.00000000000E+00 -0.11362475437E+02  0.11362475437E+02  0.00000000000E+00 0.  1.
         13    1    1    2    0    0 -0.13514982200E+02  0.63287895333E+01  0.24409489624E+02  0.28610184700E+02  0.10566000000E+00 0. -1.
        996    1    1    2    0    0  0.13514982200E+02 -0.63287895333E+01  0.64227979125E+02  0.82752290744E+02  0.50000000000E+02 0.  0.
<mgrwt>
<rscale>  0 0.52179578E+02</rscale>
<asrwt>0</asrwt>
<pdfrwt beam="1">  1       13 0.10000000E+01 0.52179578E+02</pdfrwt>
<pdfrwt beam="2">  1       22 0.11362500E+00 0.52179578E+02</pdfrwt>
<totfact> 0.11681980E+00</totfact>
</mgrwt>
</event>
<event>
 4    1  0.2496748E+000  0.5239421E+02  0.7957747E-01  0.1432840E+00
         13   -1    0    0    0    0  0.00000000000E+00  0.00000000000E+00  0.99999944169E+02  0.99999999989E+02  0.10566000000E+00 0. -1.
         22   -1    0    0    0    0 -0.00000000000E+00 -0.00000000000E+00 -0.16909102480E+02  0.16909102480E+02  0.00000000000E+00 0.  1.
         13    1    1    2    0    0 -0.13571590641E+02 -0.78080134183E+01 -0.31771842185E+01  0.15976821012E+02  0.10566000000E+00 0.  1.
        996    1    1    2    0    0  0.13571590641E+02  0.78080134183E+01  0.86268025907E+02  0.10093228146E+03  0.50000000000E+02 0.  0.
<mgrwt>
<rscale>  0 0.52394209E+02</rscale>
<asrwt>0</asrwt>
<pdfrwt beam="1">  1       13 0.10000000E+01 0.52394209E+02</pdfrwt>
<pdfrwt beam="2">  1       22 0.16909126E+00 0.52394209E+02</pdfrwt>
<totfact> 0.61418493E-01</totfact>
</mgrwt>
</event>
<event>
 4    1  0.2496748E+000  0.5139400E+02  0.7957747E-01  0.1437965E+00
         13   -1    0    0    0    0  0.00000000000E+00  0.00000000000E+00  0.99999944175E+02  0.99999999996E+02  0.10566000000E+00 0. -1.
         22   -1    0    0    0    0 -0.00000000000E+00 -0.00000000000E+00 -0.10017907952E+02  0.10017907952E+02  0.00000000000E+00 0. -1.
         13    1    1    2    0    0 -0.11802290307E+02 -0.14314093789E+01  0.17974964641E+02  0.21551183428E+02  0.10566000000E+00 0.  1.
        996    1    1    2    0    0  0.11802290307E+02  0.14314093789E+01  0.72007071583E+02  0.88466724520E+02  0.50000000000E+02 0.  0.
<mgrwt>
<rscale>  0 0.51393998E+02</rscale>
<asrwt>0</asrwt>
<pdfrwt beam="1">  1       13 0.10000000E+01 0.51393998E+02</pdfrwt>
<pdfrwt beam="2">  1       22 0.10017933E+00 0.51393998E+02</pdfrwt>
<totfact> 0.14040805E+00</totfact>
</mgrwt>
</event>
<event>
 4    1  0.2496748E+000  0.5325561E+02  0.7957747E-01  0.1428533E+00
         13   -1    0    0    0    0  0.00000000000E+00  0.00000000000E+00  0.99999944179E+02  0.99999999999E+02  0.10566000000E+00 0.  1.
         22   -1    0    0    0    0 -0.00000000000E+00 -0.00000000000E+00 -0.64070474943E+02  0.64070474943E+02  0.00000000000E+00 0. -1.
         13    1    1    2    0    0  0.83807412075E+01 -0.16307147303E+02 -0.55396047008E+02  0.58351461545E+02  0.10566000000E+00 0. -1.
        996    1    1    2    0    0 -0.83807412075E+01  0.16307147303E+02  0.91325516244E+02  0.10571901340E+03  0.50000000000E+02 0.  0.
<mgrwt>
<rscale>  0 0.53255609E+02</rscale>
<asrwt>0</asrwt>
<pdfrwt beam="1">  1       13 0.10000000E+01 0.53255609E+02</pdfrwt>
<pdfrwt beam="2">  1       22 0.64070485E+00 0.53255609E+02</pdfrwt>
<totfact> 0.83627433E-02</totfact>
</mgrwt>
</event>
<event>
 4    1  0.2496748E+000  0.5290854E+02  0.7957747E-01  0.1430257E+00
         13   -1    0    0    0    0  0.00000000000E+00  0.00000000000E+00  0.99999944183E+02  0.10000000000E+03  0.10566000000E+00 0. -1.
         22   -1    0    0    0    0 -0.00000000000E+00 -0.00000000000E+00 -0.15724658118E+02  0.15724658118E+02  0.00000000000E+00 0.  1.
         13    1    1    2    0    0 -0.14617107850E+02  0.92549204366E+01  0.13436864662E+01  0.17353099192E+02  0.10566000000E+00 0.  1.
        996    1    1    2    0    0  0.14617107850E+02 -0.92549204366E+01  0.82931599598E+02  0.98371558929E+02  0.50000000000E+02 0.  0.
<mgrwt>
<rscale>  0 0.52908538E+02</rscale>
<asrwt>0</asrwt>
<pdfrwt beam="1">  1       13 0.10000000E+01 0.52908538E+02</pdfrwt>
<pdfrwt beam="2">  1       22 0.15724682E+00 0.52908538E+02</pdfrwt>
<totfact> 0.69676954E-01</totfact>
</mgrwt>
</event>
<event>
 4    1  0.2496748E+000  0.5686526E+02  0.7957747E-01  0.1411478E+00
         13   -1    0    0    0    0  0.00000000000E+00  0.00000000000E+00  0.99999944188E+02  0.10000000001E+03  0.10566000000E+00 0.  1.
         22   -1    0    0    0    0 -0.00000000000E+00 -0.00000000000E+00 -0.17625337865E+02  0.17625337865E+02  0.00000000000E+00 0. -1.
         13    1    1    2    0    0  0.69059536497E+01  0.26190952246E+02  0.25594626104E+02  0.37265992873E+02  0.10566000000E+00 0. -1.
        996    1    1    2    0    0 -0.69059536497E+01 -0.26190952246E+02  0.56779980218E+02  0.80359345001E+02  0.50000000000E+02 0.  0.
<mgrwt>
<rscale>  0 0.56865263E+02</rscale>
<asrwt>0</asrwt>
<pdfrwt beam="1">  1       13 0.10000000E+01 0.56865263E+02</pdfrwt>
<pdfrwt beam="2">  1       22 0.17625361E+00 0.56865263E+02</pdfrwt>
<totfact> 0.57548991E-01</totfact>
</mgrwt>
</event>
<event>
 4    1  0.2496748E+000  0.5406982E+02  0.7957747E-01  0.1424550E+00
         13   -1    0    0    0    0  0.00000000000E+00  0.00000000000E+00  0.99999944174E+02  0.99999999994E+02  0.10566000000E+00 0. -1.
         22   -1    0    0    0    0 -0.00000000000E+00 -0.00000000000E+00 -0.14454899931E+02  0.14454899931E+02  0.00000000000E+00 0. -1.
         13    1    1    2    0    0  0.19448333130E+02 -0.67311375597E+01  0.14503499865E+02  0.25177540522E+02  0.10566000000E+00 0.  1.
        996    1    1    2    0    0 -0.19448333130E+02  0.67311375597E+01  0.71041544378E+02  0.89277359403E+02  0.50000000000E+02 0.  0.
<mgrwt>
<rscale>  0 0.54069824E+02</rscale>
<asrwt>0</asrwt>
<pdfrwt beam="1">  1       13 0.10000000E+01 0.54069824E+02</pdfrwt>
<pdfrwt beam="2">  1       22 0.14454924E+00 0.54069824E+02</pdfrwt>
<totfact> 0.80380364E-01</totfact>
</mgrwt>
</event>
<event>
 4    1  0.2496748E+000  0.5410144E+02  0.7957747E-01  0.1424397E+00
         13   -1    0    0    0    0  0.00000000000E+00  0.00000000000E+00  0.99999944168E+02  0.99999999989E+02  0.10566000000E+00 0.  1.
         22   -1    0    0    0    0 -0.00000000000E+00 -0.00000000000E+00 -0.31882205396E+02  0.31882205396E+02  0.00000000000E+00 0. -1.
         13    1    1    2    0    0 -0.27553867696E+01  0.20478620181E+02 -0.19821654235E+02  0.28633462617E+02  0.10566000000E+00 0. -1.
        996    1    1    2    0    0  0.27553867696E+01 -0.20478620181E+02  0.87939393007E+02  0.10324874277E+03  0.50000000000E+02 0.  0.
<mgrwt>
<rscale>  0 0.54101442E+02</rscale>
<asrwt>0</asrwt>
<pdfrwt beam="1">  1       13 0.10000000E+01 0.54101442E+02</pdfrwt>
<pdfrwt beam="2">  1       22 0.31882224E+00 0.54101442E+02</pdfrwt>
<totfact> 0.18566640E-01</totfact>
</mgrwt>
</event>
<event>
 4    1  0.2496748E+000  0.5191170E+02  0.7957747E-01  0.1435295E+00
         13   -1    0    0    0    0  0.00000000000E+00  0.00000000000E+00  0.99999944181E+02  0.10000000000E+03  0.10566000000E+00 0. -1.
         22   -1    0    0    0    0 -0.00000000000E+00 -0.00000000000E+00 -0.10903860920E+02  0.10903860920E+02  0.00000000000E+00 0. -1.
         13    1    1    2    0    0  0.17367162759E+01 -0.13849495753E+02  0.15740576825E+02  0.21038099697E+02  0.10566000000E+00 0.  1.
        996    1    1    2    0    0 -0.17367162759E+01  0.13849495753E+02  0.73355506435E+02  0.89865761224E+02  0.50000000000E+02 0.  0.
<mgrwt>
<rscale>  0 0.51911701E+02</rscale>
<asrwt>0</asrwt>
<pdfrwt beam="1">  1       13 0.10000000E+01 0.51911701E+02</pdfrwt>
<pdfrwt beam="2">  1       22 0.10903886E+00 0.51911701E+02</pdfrwt>
<totfact> 0.12415642E+00</totfact>
</mgrwt>
</event>
<event>
 4    1  0.2496748E+000  0.5399638E+02  0.7957747E-01  0.1424906E+00
         13   -1    0    0    0    0  0.00000000000E+00  0.00000000000E+00  0.99999944180E+02  0.10000000000E+03  0.10566000000E+00 0.  1.
         22   -1    0    0    0    0 -0.00000000000E+00 -0.00000000000E+00 -0.13858576861E+02  0.13858576861E+02  0.00000000000E+00 0. -1.
         13    1    1    2    0    0  0.17012350859E+02 -0.11233400264E+02  0.25866533498E+02  0.32934754933E+02  0.10566000000E+00 0. -1.
        996    1    1    2    0    0 -0.17012350859E+02  0.11233400264E+02  0.60274833821E+02  0.80923821928E+02  0.50000000000E+02 0.  0.
<mgrwt>
<rscale>  0 0.53996383E+02</rscale>
<asrwt>0</asrwt>
<pdfrwt beam="1">  1       13 0.10000000E+01 0.53996383E+02</pdfrwt>
<pdfrwt beam="2">  1       22 0.13858601E+00 0.53996383E+02</pdfrwt>
<totfact> 0.86078503E-01</totfact>
</mgrwt>
</event>
<event>
 4    1  0.2496748E+000  0.5133262E+02  0.7957747E-01  0.1438283E+00
         13   -1    0    0    0    0  0.00000000000E+00  0.00000000000E+00  0.99999944184E+02  0.10000000000E+03  0.10566000000E+00 0. -1.
         22   -1    0    0    0    0 -0.00000000000E+00 -0.00000000000E+00 -0.11201706181E+02  0.11201706181E+02  0.00000000000E+00 0. -1.
         13    1    1    2    0    0 -0.39806192659E+01  0.10917553076E+02  0.44151164422E+01  0.12431520910E+02  0.10566000000E+00 0.  1.
        996    1    1    2    0    0  0.39806192659E+01 -0.10917553076E+02  0.84383121561E+02  0.98770185275E+02  0.50000000000E+02 0.  0.
<mgrwt>
<rscale>  0 0.51332624E+02</rscale>
<asrwt>0</asrwt>
<pdfrwt beam="1">  1       13 0.10000000E+01 0.51332624E+02</pdfrwt>
<pdfrwt beam="2">  1       22 0.11201731E+00 0.51332624E+02</pdfrwt>
<totfact> 0.11911016E+00</totfact>
</mgrwt>
</event>
<event>
 4    1  0.2496748E+000  0.5131174E+02  0.7957747E-01  0.1438392E+00
         13   -1    0    0    0    0  0.00000000000E+00  0.00000000000E+00  0.99999944181E+02  0.10000000000E+03  0.10566000000E+00 0.  1.
         22   -1    0    0    0    0 -0.00000000000E+00 -0.00000000000E+00 -0.10026668630E+02  0.10026668630E+02  0.00000000000E+00 0. -1.
         13    1    1    2    0    0  0.10903146714E+02  0.37437621054E+01  0.11632233412E+02  0.16377251941E+02  0.10566000000E+00 0. -1.
        996    1    1    2    0    0 -0.10903146714E+02 -0.37437621054E+01  0.78341042139E+02  0.93649416690E+02  0.50000000000E+02 0.  0.
<mgrwt>
<rscale>  0 0.51311737E+02</rscale>
<asrwt>0</asrwt>
<pdfrwt beam="1">  1       13 0.10000000E+01 0.51311737E+02</pdfrwt>
<pdfrwt beam="2">  1       22 0.10026694E+00 0.51311737E+02</pdfrwt>
<totfact> 0.14020236E+00</totfact>
</mgrwt>
</event>
<event>
 4    1  0.2496748E+000  0.6122443E+02  0.7957747E-01  0.1392764E+00
         13   -1    0    0    0    0  0.00000000000E+00  0.00000000000E+00  0.99999944179E+02  0.10000000000E+03  0.10566000000E+00 0.  1.
         22   -1    0    0    0    0 -0.00000000000E+00 -0.00000000000E+00 -0.37067016879E+02  0.37067016879E+02  0.00000000000E+00 0. -1.
         13    1    1    2    0    0 -0.51330407416E+01  0.34958297217E+02 -0.14638115972E+02  0.38245473651E+02  0.10566000000E+00 0. -1.
        996    1    1    2    0    0  0.51330407416E+01 -0.34958297217E+02  0.77571043272E+02  0.98821543227E+02  0.50000000000E+02 0.  0.
<mgrwt>
<rscale>  0 0.61224429E+02</rscale>
<asrwt>0</asrwt>
<pdfrwt beam="1">  1       13 0.10000000E+01 0.61224429E+02</pdfrwt>
<pdfrwt beam="2">  1       22 0.37067034E+00 0.61224429E+02</pdfrwt>
<totfact> 0.14323065E-01</totfact>
</mgrwt>
</event>
<event>
 4    1  0.2496748E+000  0.5121633E+02  0.7957747E-01  0.1438889E+00
         13   -1    0    0    0    0  0.00000000000E+00  0.00000000000E+00  0.99999944182E+02  0.10000000000E+03  0.10566000000E+00 0. -1.
         22   -1    0    0    0    0 -0.00000000000E+00 -0.00000000000E+00 -0.26521790902E+02  0.26521790902E+02  0.00000000000E+00 0.  1.
         13    1    1    2    0    0  0.11078895904E+02  0.60890678300E+00 -0.18310965247E+02  0.21410635540E+02  0.10566000000E+00 0.  1.
        996    1    1    2    0    0 -0.11078895904E+02 -0.60890678300E+00  0.91789118527E+02  0.10511115536E+03  0.50000000000E+02 0.  0.
<mgrwt>
<rscale>  0 0.51216332E+02</rscale>
<asrwt>0</asrwt>
<pdfrwt beam="1">  1       13 0.10000000E+01 0.51216332E+02</pdfrwt>
<pdfrwt beam="2">  1       22 0.26521811E+00 0.51216332E+02</pdfrwt>
<totfact> 0.26214025E-01</totfact>
</mgrwt>
</event>
<event>
 4    1  0.2496748E+000  0.5223051E+02  0.7957747E-01  0.1433669E+00
         13   -1    0    0    0    0  0.00000000000E+00  0.00000000000E+00  0.99999944180E+02  0.10000000000E+03  0.10566000000E+00 0. -1.
         22   -1    0    0    0    0 -0.00000000000E+00 -0.00000000000E+00 -0.15445056928E+02  0.15445056928E+02  0.00000000000E+00 0. -1.
         13    1    1    2    0    0 -0.12744954440E+02  0.80988826614E+01 -0.10792055645E+01  0.15139405957E+02  0.10566000000E+00 0.  1.
        996    1    1    2    0    0  0.12744954440E+02 -0.80988826614E+01  0.85634092817E+02  0.10030565097E+03  0.50000000000E+02 0.  0.
<mgrwt>
<rscale>  0 0.52230506E+02</rscale>
<asrwt>0</asrwt>
<pdfrwt beam="1">  1       13 0.10000000E+01 0.52230506E+02</pdfrwt>
<pdfrwt beam="2">  1       22 0.15445081E+00 0.52230506E+02</pdfrwt>
<totfact> 0.71727426E-01</totfact>
</mgrwt>
</event>
<event>
 4    1  0.2496748E+000  0.5230009E+02  0.7957747E-01  0.1433316E+00
         13   -1    0    0    0    0  0.00000000000E+00  0.00000000000E+00  0.99999944181E+02  0.10000000000E+03  0.10566000000E+00 0. -1.
         22   -1    0    0    0    0 -0.00000000000E+00 -0.00000000000E+00 -0.13554207477E+02  0.13554207477E+02  0.00000000000E+00 0. -1.
         13    1    1    2    0    0 -0.65175988754E+01  0.13885963589E+02  0.42696379159E+02  0.45368392491E+02  0.10566000000E+00 0.  1.
        996    1    1    2    0    0  0.65175988754E+01 -0.13885963589E+02  0.43749357545E+02  0.68185814988E+02  0.50000000000E+02 0.  0.
<mgrwt>
<rscale>  0 0.52300087E+02</rscale>
<asrwt>0</asrwt>
<pdfrwt beam="1">  1       13 0.10000000E+01 0.52300087E+02</pdfrwt>
<pdfrwt beam="2">  1       22 0.13554232E+00 0.52300087E+02</pdfrwt>
<totfact> 0.88895362E-01</totfact>
</mgrwt>
</event>
<event>
 4    1  0.2496748E+000  0.6522714E+02  0.7957747E-01  0.1377119E+00
         13   -1    0    0    0    0  0.00000000000E+00  0.00000000000E+00  0.99999944179E+02  0.99999999999E+02  0.10566000000E+00 0. -1.
         22   -1    0    0    0    0 -0.00000000000E+00 -0.00000000000E+00 -0.28788511233E+02  0.28788511233E+02  0.00000000000E+00 0.  1.
         13    1    1    2    0    0 -0.38866410611E+02 -0.15619901359E+02  0.24089093454E+02  0.48320542006E+02  0.10566000000E+00 0.  1.
        996    1    1    2    0    0  0.38866410611E+02  0.15619901359E+02  0.47122339491E+02  0.80467969226E+02  0.50000000000E+02 0.  0.
<mgrwt>
<rscale>  0 0.65227135E+02</rscale>
<asrwt>0</asrwt>
<pdfrwt beam="1">  1       13 0.10000000E+01 0.65227135E+02</pdfrwt>
<pdfrwt beam="2">  1       22 0.28788531E+00 0.65227135E+02</pdfrwt>
<totfact> 0.22747400E-01</totfact>
</mgrwt>
</event>
<event>
 4    1  0.2496748E+000  0.5212061E+02  0.7957747E-01  0.1434228E+00
         13   -1    0    0    0    0  0.00000000000E+00  0.00000000000E+00  0.99999944184E+02  0.10000000000E+03  0.10566000000E+00 0.  1.
         22   -1    0    0    0    0 -0.00000000000E+00 -0.00000000000E+00 -0.63496267940E+02  0.63496267940E+02  0.00000000000E+00 0. -1.
         13    1    1    2    0    0 -0.14713720701E+02 -0.25284166704E+00 -0.55683443174E+02  0.57595264680E+02  0.10566000000E+00 0. -1.
        996    1    1    2    0    0  0.14713720701E+02  0.25284166704E+00  0.92187119418E+02  0.10590100326E+03  0.50000000000E+02 0.  0.
<mgrwt>
<rscale>  0 0.52120605E+02</rscale>
<asrwt>0</asrwt>
<pdfrwt beam="1">  1       13 0.10000000E+01 0.52120605E+02</pdfrwt>
<pdfrwt beam="2">  1       22 0.63496278E+00 0.52120605E+02</pdfrwt>
<totfact> 0.81229316E-02</totfact>
</mgrwt>
</event>
<event>
 4    1  0.2496748E+000  0.5606030E+02  0.7957747E-01  0.1415150E+00
         13   -1    0    0    0    0  0.00000000000E+00  0.00000000000E+00  0.99999944176E+02  0.99999999996E+02  0.10566000000E+00 0.  1.
         22   -1    0    0    0    0 -0.00000000000E+00 -0.00000000000E+00 -0.43543970635E+02  0.43543970635E+02  0.00000000000E+00 0. -1.
         13    1    1    2    0    0  0.11350867724E+02  0.22669698666E+02 -0.30761952409E+02  0.39863094658E+02  0.10566000000E+00 0. -1.
        996    1    1    2    0    0 -0.11350867724E+02 -0.22669698666E+02  0.87217925950E+02  0.10368087597E+03  0.50000000000E+02 0.  0.
<mgrwt>
<rscale>  0 0.56060302E+02</rscale>
<asrwt>0</asrwt>
<pdfrwt beam="1">  1       13 0.10000000E+01 0.56060302E+02</pdfrwt>
<pdfrwt beam="2">  1       22 0.43543986E+00 0.56060302E+02</pdfrwt>
<totfact> 0.10435071E-01</totfact>
</mgrwt>
</event>
<event>
 4    1  0.2496748E+000  0.5410345E+02  0.7957747E-01  0.1424387E+00
         13   -1    0    0    0    0  0.00000000000E+00  0.00000000000E+00  0.99999944178E+02  0.99999999998E+02  0.10566000000E+00 0. -1.
         22   -1    0    0    0    0 -0.00000000000E+00 -0.00000000000E+00 -0.37912345169E+02  0.37912345169E+02  0.00000000000E+00 0.  1.
         13    1    1    2    0    0 -0.20499176214E+02  0.26394342746E+01 -0.26805773643E+02  0.33848833117E+02  0.10566000000E+00 0.  1.
        996    1    1    2    0    0  0.20499176214E+02 -0.26394342746E+01  0.88893372652E+02  0.10406351205E+03  0.50000000000E+02 0.  0.
<mgrwt>
<rscale>  0 0.54103446E+02</rscale>
<asrwt>0</asrwt>
<pdfrwt beam="1">  1       13 0.10000000E+01 0.54103446E+02</pdfrwt>
<pdfrwt beam="2">  1       22 0.37912363E+00 0.54103446E+02</pdfrwt>
<totfact> 0.13676076E-01</totfact>
</mgrwt>
</event>
<event>
 4    1  0.2496748E+000  0.5874174E+02  0.7957747E-01  0.1403189E+00
         13   -1    0    0    0    0  0.00000000000E+00  0.00000000000E+00  0.99999944173E+02  0.99999999994E+02  0.10566000000E+00 0. -1.
         22   -1    0    0    0    0 -0.00000000000E+00 -0.00000000000E+00 -0.22876118117E+02  0.22876118117E+02  0.00000000000E+00 0.  1.
         13    1    1    2    0    0 -0.14865726229E+02  0.27011149202E+02  0.74028911694E+01  0.31708137114E+02  0.10566000000E+00 0.  1.
        996    1    1    2    0    0  0.14865726229E+02 -0.27011149202E+02  0.69720934887E+02  0.91167980997E+02  0.50000000000E+02 0.  0.
<mgrwt>
<rscale>  0 0.58741740E+02</rscale>
<asrwt>0</asrwt>
<pdfrwt beam="1">  1       13 0.10000000E+01 0.58741740E+02</pdfrwt>
<pdfrwt beam="2">  1       22 0.22876140E+00 0.58741740E+02</pdfrwt>
<totfact> 0.35442921E-01</totfact>
</mgrwt>
</event>
<event>
 4    1  0.2496748E+000  0.5186736E+02  0.7957747E-01  0.1435522E+00
         13   -1    0    0    0    0  0.00000000000E+00  0.00000000000E+00  0.99999944179E+02  0.99999999999E+02  0.10566000000E+00 0. -1.
         22   -1    0    0    0    0 -0.00000000000E+00 -0.00000000000E+00 -0.29878878617E+02  0.29878878617E+02  0.00000000000E+00 0.  1.
         13    1    1    2    0    0  0.13391928031E+02  0.32983051720E+01 -0.20944683577E+02  0.25078147610E+02  0.10566000000E+00 0.  1.
        996    1    1    2    0    0 -0.13391928031E+02 -0.32983051720E+01  0.91065749139E+02  0.10480073101E+03  0.50000000000E+02 0.  0.
<mgrwt>
<rscale>  0 0.51867355E+02</rscale>
<asrwt>0</asrwt>
<pdfrwt beam="1">  1       13 0.10000000E+01 0.51867355E+02</pdfrwt>
<pdfrwt beam="2">  1       22 0.29878898E+00 0.51867355E+02</pdfrwt>
<totfact> 0.20856853E-01</totfact>
</mgrwt>
</event>
<event>
 4    1  0.2496748E+000  0.5335260E+02  0.7957747E-01  0.1428054E+00
         13   -1    0    0    0    0  0.00000000000E+00  0.00000000000E+00  0.99999944185E+02  0.10000000001E+03  0.10566000000E+00 0. -1.
         22   -1    0    0    0    0 -0.00000000000E+00 -0.00000000000E+00 -0.14628315042E+02  0.14628315042E+02  0.00000000000E+00 0. -1.
         13    1    1    2    0    0 -0.12184794276E+02 -0.14072326756E+02  0.71430756419E+01  0.19938261848E+02  0.10566000000E+00 0.  1.
        996    1    1    2    0    0  0.12184794276E+02  0.14072326756E+02  0.78228553501E+02  0.94690053199E+02  0.50000000000E+02 0.  0.
<mgrwt>
<rscale>  0 0.53352597E+02</rscale>
<asrwt>0</asrwt>
<pdfrwt beam="1">  1       13 0.10000000E+01 0.53352597E+02</pdfrwt>
<pdfrwt beam="2">  1       22 0.14628339E+00 0.53352597E+02</pdfrwt>
<totfact> 0.78704910E-01</totfact>
</mgrwt>
</event>
<event>
 4    1  0.2496748E+000  0.7226496E+02  0.7957747E-01  0.1352556E+00
         13   -1    0    0    0    0  0.00000000000E+00  0.00000000000E+00  0.99999944176E+02  0.99999999996E+02  0.10566000000E+00 0.  1.
         22   -1    0    0    0    0 -0.00000000000E+00 -0.00000000000E+00 -0.47075286058E+02  0.47075286058E+02  0.00000000000E+00 0. -1.
         13    1    1    2    0    0  0.37679553127E+02 -0.36089822567E+02 -0.77103583284E+01  0.52741679973E+02  0.10566000000E+00 0. -1.
        996    1    1    2    0    0 -0.37679553127E+02  0.36089822567E+02  0.60635016446E+02  0.94333606081E+02  0.50000000000E+02 0.  0.
<mgrwt>
<rscale>  0 0.72264957E+02</rscale>
<asrwt>0</asrwt>
<pdfrwt beam="1">  1       13 0.10000000E+01 0.72264957E+02</pdfrwt>
<pdfrwt beam="2">  1       22 0.47075301E+00 0.72264957E+02</pdfrwt>
<totfact> 0.87309644E-02</totfact>
</mgrwt>
</event>
<event>
 4    1  0.2496748E+000  0.5253917E+02  0.7957747E-01  0.1432108E+00
         13   -1    0    0    0    0  0.00000000000E+00  0.00000000000E+00  0.99999944176E+02  0.99999999996E+02  0.10566000000E+00 0. -1.
         22   -1    0    0    0    0 -0.00000000000E+00 -0.00000000000E+00 -0.27449061704E+02  0.27449061704E+02  0.00000000000E+00 0.  1.
         13    1    1    2    0    0 -0.11759506268E+02 -0.11048886423E+02 -0.17116327686E+02  0.23523259050E+02  0.10566000000E+00 0.  1.
        996    1    1    2    0    0  0.11759506268E+02  0.11048886423E+02  0.89667210158E+02  0.10392580265E+03  0.50000000000E+02 0.  0.
<mgrwt>
<rscale>  0 0.52539165E+02</rscale>
<asrwt>0</asrwt>
<pdfrwt beam="1">  1       13 0.10000000E+01 0.52539165E+02</pdfrwt>
<pdfrwt beam="2">  1       22 0.27449082E+00 0.52539165E+02</pdfrwt>
<totfact> 0.24558804E-01</totfact>
</mgrwt>
</event>
<event>
 4    1  0.2496748E+000  0.5132772E+02  0.7957747E-01  0.1438309E+00
         13   -1    0    0    0    0  0.00000000000E+00  0.00000000000E+00  0.99999944174E+02  0.99999999994E+02  0.10566000000E+00 0.  1.
         22   -1    0    0    0    0 -0.00000000000E+00 -0.00000000000E+00 -0.10270408502E+02  0.10270408502E+02  0.00000000000E+00 0.  1.
         13    1    1    2    0    0 -0.77407944997E+01 -0.86379705691E+01  0.93407812887E+01  0.14892810150E+02  0.10566000000E+00 0. -1.
        996    1    1    2    0    0  0.77407944997E+01  0.86379705691E+01  0.80388754384E+02  0.95377598347E+02  0.50000000000E+02 0.  0.
<mgrwt>
<rscale>  0 0.51327716E+02</rscale>
<asrwt>0</asrwt>
<pdfrwt beam="1">  1       13 0.10000000E+01 0.51327716E+02</pdfrwt>
<pdfrwt beam="2">  1       22 0.10270434E+00 0.51327716E+02</pdfrwt>
<totfact> 0.13539654E+00</totfact>
</mgrwt>
</event>
<event>
 4    1  0.2496748E+000  0.5154668E+02  0.7957747E-01  0.1437173E+00
         13   -1    0    0    0    0  0.00000000000E+00  0.00000000000E+00  0.99999944184E+02  0.10000000000E+03  0.10566000000E+00 0.  1.
         22   -1    0    0    0    0 -0.00000000000E+00 -0.00000000000E+00 -0.39427027864E+02  0.39427027864E+02  0.00000000000E+00 0. -1.
         13    1    1    2    0    0  0.54754580674E+01  0.11272966072E+02 -0.31502955958E+02  0.33904392094E+02  0.10566000000E+00 0. -1.
        996    1    1    2    0    0 -0.54754580674E+01 -0.11272966072E+02  0.92075872278E+02  0.10552263577E+03  0.50000000000E+02 0.  0.
<mgrwt>
<rscale>  0 0.51546682E+02</rscale>
<asrwt>0</asrwt>
<pdfrwt beam="1">  1       13 0.10000000E+01 0.51546682E+02</pdfrwt>
<pdfrwt beam="2">  1       22 0.39427045E+00 0.51546682E+02</pdfrwt>
<totfact> 0.12703307E-01</totfact>
</mgrwt>
</event>
<event>
 4    1  0.2496748E+000  0.6260436E+02  0.7957747E-01  0.1387216E+00
         13   -1    0    0    0    0  0.00000000000E+00  0.00000000000E+00  0.99999944180E+02  0.10000000000E+03  0.10566000000E+00 0.  1.
         22   -1    0    0    0    0 -0.00000000000E+00 -0.00000000000E+00 -0.76820423830E+02  0.76820423830E+02  0.00000000000E+00 0. -1.
         13    1    1    2    0    0 -0.35909084976E+02  0.11394881420E+02 -0.61131420592E+02  0.71807850921E+02  0.10566000000E+00 0. -1.
        996    1    1    2    0    0  0.35909084976E+02 -0.11394881420E+02  0.84310940942E+02  0.10501257291E+03  0.50000000000E+02 0.  0.
<mgrwt>
<rscale>  0 0.62604359E+02</rscale>
<asrwt>0</asrwt>
<pdfrwt beam="1">  1       13 0.10000000E+01 0.62604359E+02</pdfrwt>
<pdfrwt beam="2">  1       22 0.76820430E+00 0.62604359E+02</pdfrwt>
<totfact> 0.41395564E-02</totfact>
</mgrwt>
</event>
<event>
 4    1  0.2496748E+000  0.5968893E+02  0.7957747E-01  0.1399142E+00
         13   -1    0    0    0    0  0.00000000000E+00  0.00000000000E+00  0.99999944181E+02  0.10000000000E+03  0.10566000000E+00 0. -1.
         22   -1    0    0    0    0 -0.00000000000E+00 -0.00000000000E+00 -0.23448587156E+02  0.23448587156E+02  0.00000000000E+00 0.  1.
         13    1    1    2    0    0  0.31655321929E+02 -0.77915603709E+01  0.10107035244E+02  0.34131087661E+02  0.10566000000E+00 0.  1.
        996    1    1    2    0    0 -0.31655321929E+02  0.77915603709E+01  0.66444321781E+02  0.89317499497E+02  0.50000000000E+02 0.  0.
<mgrwt>
<rscale>  0 0.59688925E+02</rscale>
<asrwt>0</asrwt>
<pdfrwt beam="1">  1       13 0.10000000E+01 0.59688925E+02</pdfrwt>
<pdfrwt beam="2">  1       22 0.23448609E+00 0.59688925E+02</pdfrwt>
<totfact> 0.33818170E-01</totfact>
</mgrwt>
</event>
<event>
 4    1  0.2496748E+000  0.5542376E+02  0.7957747E-01  0.1418105E+00
         13   -1    0    0    0    0  0.00000000000E+00  0.00000000000E+00  0.99999944169E+02  0.99999999989E+02  0.10566000000E+00 0. -1.
         22   -1    0    0    0    0 -0.00000000000E+00 -0.00000000000E+00 -0.21277347578E+02  0.21277347578E+02  0.00000000000E+00 0.  1.
         13    1    1    2    0    0 -0.20688630438E+02  0.11990575384E+02 -0.12861749339E+01  0.23946998506E+02  0.10566000000E+00 0.  1.
        996    1    1    2    0    0  0.20688630438E+02 -0.11990575384E+02  0.80008771525E+02  0.97330349061E+02  0.50000000000E+02 0.  0.
<mgrwt>
<rscale>  0 0.55423761E+02</rscale>
<asrwt>0</asrwt>
<pdfrwt beam="1">  1       13 0.10000000E+01 0.55423761E+02</pdfrwt>
<pdfrwt beam="2">  1       22 0.21277370E+00 0.55423761E+02</pdfrwt>
<totfact> 0.40549465E-01</totfact>
</mgrwt>
</event>
<event>
 4    1  0.2496748E+000  0.5559185E+02  0.7957747E-01  0.1417321E+00
         13   -1    0    0    0    0  0.00000000000E+00  0.00000000000E+00  0.99999944178E+02  0.99999999998E+02  0.10566000000E+00 0.  1.
         22   -1    0    0    0    0 -0.00000000000E+00 -0.00000000000E+00 -0.17618643967E+02  0.17618643967E+02  0.00000000000E+00 0. -1.
         13    1    1    2    0    0 -0.43256946697E+01  0.23911126248E+02  0.98176800068E+01  0.26207853738E+02  0.10566000000E+00 0. -1.
        996    1    1    2    0    0  0.43256946697E+01 -0.23911126248E+02  0.72563620204E+02  0.91410790227E+02  0.50000000000E+02 0.  0.
<mgrwt>
<rscale>  0 0.55591848E+02</rscale>
<asrwt>0</asrwt>
<pdfrwt beam="1">  1       13 0.10000000E+01 0.55591848E+02</pdfrwt>
<pdfrwt beam="2">  1       22 0.17618667E+00 0.55591848E+02</pdfrwt>
<totfact> 0.57459691E-01</totfact>
</mgrwt>
</event>
<event>
 4    1  0.2496748E+000  0.5457610E+02  0.7957747E-01  0.1422114E+00
         13   -1    0    0    0    0  0.00000000000E+00  0.00000000000E+00  0.99999944178E+02  0.99999999998E+02  0.10566000000E+00 0. -1.
         22   -1    0    0    0    0 -0.00000000000E+00 -0.00000000000E+00 -0.32167560014E+02  0.32167560014E+02  0.00000000000E+00 0.  1.
         13    1    1    2    0    0  0.21840367362E+02 -0.12445915708E+01 -0.19420056092E+02  0.29252357125E+02  0.10566000000E+00 0.  1.
        996    1    1    2    0    0 -0.21840367362E+02  0.12445915708E+01  0.87252440256E+02  0.10291520289E+03  0.50000000000E+02 0.  0.
<mgrwt>
<rscale>  0 0.54576100E+02</rscale>
<asrwt>0</asrwt>
<pdfrwt beam="1">  1       13 0.10000000E+01 0.54576100E+02</pdfrwt>
<pdfrwt beam="2">  1       22 0.32167579E+00 0.54576100E+02</pdfrwt>
<totfact> 0.18281891E-01</totfact>
</mgrwt>
</event>
<event>
 4    1  0.2496748E+000  0.5168740E+02  0.7957747E-01  0.1436447E+00
         13   -1    0    0    0    0  0.00000000000E+00  0.00000000000E+00  0.99999944179E+02  0.99999999999E+02  0.10566000000E+00 0.  1.
         22   -1    0    0    0    0 -0.00000000000E+00 -0.00000000000E+00 -0.15983557539E+02  0.15983557539E+02  0.00000000000E+00 0.  1.
         13    1    1    2    0    0  0.55087106147E+01 -0.11884515215E+02 -0.41860592037E+01  0.13752158021E+02  0.10566000000E+00 0. -1.
        996    1    1    2    0    0 -0.55087106147E+01  0.11884515215E+02  0.88202445844E+02  0.10223139952E+03  0.50000000000E+02 0.  0.
<mgrwt>
<rscale>  0 0.51687403E+02</rscale>
<asrwt>0</asrwt>
<pdfrwt beam="1">  1       13 0.10000000E+01 0.51687403E+02</pdfrwt>
<pdfrwt beam="2">  1       22 0.15983581E+00 0.51687403E+02</pdfrwt>
<totfact> 0.67601322E-01</totfact>
</mgrwt>
</event>
<event>
 4    1  0.2496748E+000  0.6338413E+02  0.7957747E-01  0.1384155E+00
         13   -1    0    0    0    0  0.00000000000E+00  0.00000000000E+00  0.99999944176E+02  0.99999999996E+02  0.10566000000E+00 0. -1.
         22   -1    0    0    0    0 -0.00000000000E+00 -0.00000000000E+00 -0.27264968438E+02  0.27264968438E+02  0.00000000000E+00 0.  1.
         13    1    1    2    0    0  0.36587835333E+02 -0.13374539142E+02  0.15710366060E+02  0.42004461160E+02  0.10566000000E+00 0.  1.
        996    1    1    2    0    0 -0.36587835333E+02  0.13374539142E+02  0.57024609678E+02  0.85260507274E+02  0.50000000000E+02 0.  0.
<mgrwt>
<rscale>  0 0.63384130E+02</rscale>
<asrwt>0</asrwt>
<pdfrwt beam="1">  1       13 0.10000000E+01 0.63384130E+02</pdfrwt>
<pdfrwt beam="2">  1       22 0.27264989E+00 0.63384130E+02</pdfrwt>
<totfact> 0.25237886E-01</totfact>
</mgrwt>
</event>
<event>
 4    1  0.2496748E+000  0.5135987E+02  0.7957747E-01  0.1438142E+00
         13   -1    0    0    0    0  0.00000000000E+00  0.00000000000E+00  0.99999944177E+02  0.99999999997E+02  0.10566000000E+00 0.  1.
         22   -1    0    0    0    0 -0.00000000000E+00 -0.00000000000E+00 -0.27844367364E+02  0.27844367364E+02  0.00000000000E+00 0. -1.
         13    1    1    2    0    0  0.11156858928E+02 -0.36552732137E+01 -0.19510383834E+02  0.22770655783E+02  0.10566000000E+00 0. -1.
        996    1    1    2    0    0 -0.11156858928E+02  0.36552732137E+01  0.91665960647E+02  0.10507371158E+03  0.50000000000E+02 0.  0.
<mgrwt>
<rscale>  0 0.51359873E+02</rscale>
<asrwt>0</asrwt>
<pdfrwt beam="1">  1       13 0.10000000E+01 0.51359873E+02</pdfrwt>
<pdfrwt beam="2">  1       22 0.27844388E+00 0.51359873E+02</pdfrwt>
<totfact> 0.23845143E-01</totfact>
</mgrwt>
</event>
<event>
 4    1  0.2496748E+000  0.5176630E+02  0.7957747E-01  0.1436041E+00
         13   -1    0    0    0    0  0.00000000000E+00  0.00000000000E+00  0.99999944183E+02  0.10000000000E+03  0.10566000000E+00 0. -1.
         22   -1    0    0    0    0 -0.00000000000E+00 -0.00000000000E+00 -0.11691737411E+02  0.11691737411E+02  0.00000000000E+00 0. -1.
         13    1    1    2    0    0  0.84792580299E+01  0.10385205389E+02  0.65469318735E+01  0.14920582720E+02  0.10566000000E+00 0.  1.
        996    1    1    2    0    0 -0.84792580299E+01 -0.10385205389E+02  0.81761274899E+02  0.96771154694E+02  0.50000000000E+02 0.  0.
<mgrwt>
<rscale>  0 0.51766305E+02</rscale>
<asrwt>0</asrwt>
<pdfrwt beam="1">  1       13 0.10000000E+01 0.51766305E+02</pdfrwt>
<pdfrwt beam="2">  1       22 0.11691762E+00 0.51766305E+02</pdfrwt>
<totfact> 0.11178431E+00</totfact>
</mgrwt>
</event>
