<event>
 5    1  0.1344348E-008  0.3757055E+03  0.7957747E-01  0.3470074E+00
         13   -1    0    0    0    0  0.00000000000E+00  0.00000000000E+00  0.14999999963E+04  0.15000000000E+04  0.10566000000E+00 0. -1.
        994   -1    0    0    0    0 -0.00000000000E+00 -0.00000000000E+00  0.11368683772E-12  0.17120000000E+03  0.17120000000E+03 0.  0.
         13    1    1    2    0    0 -0.25944189131E+02 -0.32030808783E+02  0.17590782562E+03  0.18067276480E+03  0.10566000000E+00 0. -1.
        994    1    1    2    0    0 -0.39942052483E+02  0.36965376870E+01  0.11792877609E+02  0.17623150658E+03  0.17120000000E+03 0.  0.
        998    1    1    2    0    0  0.65886241614E+02  0.28334271096E+02  0.13122992930E+04  0.13142957286E+04  0.10000000000E+02 0. -1.
</event>
<event>
 5    1  0.1344348E-008  0.3824619E+03  0.7957747E-01  0.3440509E+00
         13   -1    0    0    0    0  0.00000000000E+00  0.00000000000E+00  0.14999999963E+04  0.15000000000E+04  0.10566000000E+00 0. -1.
        994   -1    0    0    0    0 -0.00000000000E+00 -0.00000000000E+00  0.11368683772E-12  0.17120000000E+03  0.17120000000E+03 0.  0.
         13    1    1    2    0    0 -0.11759086794E+02 -0.20444864829E+02  0.90418757174E+02  0.93444269129E+02  0.10566000000E+00 0. -1.
        994    1    1    2    0    0  0.21624428096E+02  0.14974235308E+02  0.51930296678E+01  0.17328661567E+03  0.17120000000E+03 0.  0.
        998    1    1    2    0    0 -0.98653413022E+01  0.54706295209E+01  0.14043882094E+04  0.14044691152E+04  0.10000000000E+02 0. -1.
</event>
<event>
 5    1  0.1344348E-008  0.3790602E+03  0.7957747E-01  0.3455261E+00
         13   -1    0    0    0    0  0.00000000000E+00  0.00000000000E+00  0.14999999963E+04  0.15000000000E+04  0.10566000000E+00 0.  1.
        994   -1    0    0    0    0 -0.00000000000E+00 -0.00000000000E+00  0.11368683772E-12  0.17120000000E+03  0.17120000000E+03 0.  0.
         13    1    1    2    0    0 -0.17244529632E+02 -0.63100251395E+00  0.30208444293E+02  0.34789843878E+02  0.10566000000E+00 0.  1.
        994    1    1    2    0    0  0.14534298242E+02 -0.16534429029E+01  0.53261612129E+01  0.17190633407E+03  0.17120000000E+03 0.  0.
        998    1    1    2    0    0  0.27102313907E+01  0.22844454168E+01  0.14644653908E+04  0.14645038221E+04  0.10000000000E+02 0.  1.
</event>
<event>
 5    1  0.1344348E-008  0.3818628E+03  0.7957747E-01  0.3443087E+00
         13   -1    0    0    0    0  0.00000000000E+00  0.00000000000E+00  0.14999999963E+04  0.15000000000E+04  0.10566000000E+00 0.  1.
        994   -1    0    0    0    0 -0.00000000000E+00 -0.00000000000E+00  0.11368683772E-12  0.17120000000E+03  0.17120000000E+03 0.  0.
         13    1    1    2    0    0  0.12589065316E+02  0.20569035740E+01  0.24439601342E+02  0.27568472856E+02  0.10566000000E+00 0.  1.
        994    1    1    2    0    0 -0.68987759441E+01  0.49265788027E+01  0.34345539552E+01  0.17144416132E+03  0.17120000000E+03 0.  0.
        998    1    1    2    0    0 -0.56902893719E+01 -0.69834823767E+01  0.14721258410E+04  0.14721873658E+04  0.10000000000E+02 0.  1.
</event>
<event>
 5    1  0.1344348E-008  0.3801542E+03  0.7957747E-01  0.3450487E+00
         13   -1    0    0    0    0  0.00000000000E+00  0.00000000000E+00  0.14999999963E+04  0.15000000000E+04  0.10566000000E+00 0.  1.
        994   -1    0    0    0    0 -0.00000000000E+00 -0.00000000000E+00  0.11368683772E-12  0.17120000000E+03  0.17120000000E+03 0.  0.
         13    1    1    2    0    0 -0.28140770100E+02 -0.22522535566E+02  0.19806028537E+03  0.20131332632E+03  0.10566000000E+00 0.  1.
        994    1    1    2    0    0 -0.28592069952E+01 -0.86304880826E+01  0.43315465923E+01  0.17149595530E+03  0.17120000000E+03 0.  0.
        998    1    1    2    0    0  0.30999977095E+02  0.31153023649E+02  0.12976081643E+04  0.12983907184E+04  0.10000000000E+02 0.  1.
</event>
<event>
 5    1  0.1344348E-008  0.3796099E+03  0.7957747E-01  0.3452859E+00
         13   -1    0    0    0    0  0.00000000000E+00  0.00000000000E+00  0.14999999963E+04  0.15000000000E+04  0.10566000000E+00 0.  1.
        994   -1    0    0    0    0 -0.00000000000E+00 -0.00000000000E+00  0.11368683772E-12  0.17120000000E+03  0.17120000000E+03 0.  0.
         13    1    1    2    0    0 -0.36303086922E+02 -0.73221947863E+02  0.25042418389E+03  0.26342295042E+03  0.10566000000E+00 0.  1.
        994    1    1    2    0    0  0.57493034600E+01  0.37153169030E+01  0.16282914225E+02  0.17210877771E+03  0.17120000000E+03 0.  0.
        998    1    1    2    0    0  0.30553783462E+02  0.69506630960E+02  0.12332928982E+04  0.12356682719E+04  0.10000000000E+02 0.  1.
</event>
<event>
 5    1  0.1344348E-008  0.3852309E+03  0.7957747E-01  0.3428693E+00
         13   -1    0    0    0    0  0.00000000000E+00  0.00000000000E+00  0.14999999963E+04  0.15000000000E+04  0.10566000000E+00 0.  1.
        994   -1    0    0    0    0 -0.00000000000E+00 -0.00000000000E+00  0.11368683772E-12  0.17120000000E+03  0.17120000000E+03 0.  0.
         13    1    1    2    0    0  0.45114476069E+02  0.55539339636E+02  0.13030645695E+03  0.14865973929E+03  0.10566000000E+00 0.  1.
        994    1    1    2    0    0 -0.32422252174E+02 -0.25139364214E+02  0.25474943111E+02  0.17788086686E+03  0.17120000000E+03 0.  0.
        998    1    1    2    0    0 -0.12692223895E+02 -0.30399975422E+02  0.13442185962E+04  0.13446593938E+04  0.10000000000E+02 0.  1.
</event>
<event>
 5    1  0.1344348E-008  0.3808288E+03  0.7957747E-01  0.3447558E+00
         13   -1    0    0    0    0  0.00000000000E+00  0.00000000000E+00  0.14999999963E+04  0.15000000000E+04  0.10566000000E+00 0.  1.
        994   -1    0    0    0    0 -0.00000000000E+00 -0.00000000000E+00  0.11368683772E-12  0.17120000000E+03  0.17120000000E+03 0.  0.
         13    1    1    2    0    0 -0.10698067912E+03 -0.14796735384E+03  0.10352132692E+04  0.10511925263E+04  0.10566000000E+00 0.  1.
        994    1    1    2    0    0  0.99602094573E+02  0.15508741714E+03  0.12678598430E+03  0.28170340788E+03  0.17120000000E+03 0.  0.
        998    1    1    2    0    0  0.73785845458E+01 -0.71200633029E+01  0.33800074282E+03  0.33830406583E+03  0.10000000000E+02 0.  1.
</event>
<event>
 5    1  0.1344348E-008  0.3857909E+03  0.7957747E-01  0.3426325E+00
         13   -1    0    0    0    0  0.00000000000E+00  0.00000000000E+00  0.14999999963E+04  0.15000000000E+04  0.10566000000E+00 0. -1.
        994   -1    0    0    0    0 -0.00000000000E+00 -0.00000000000E+00  0.11368683772E-12  0.17120000000E+03  0.17120000000E+03 0.  0.
         13    1    1    2    0    0 -0.85201650631E+01 -0.74173150278E+01  0.51445343371E+02  0.52671095427E+02  0.10566000000E+00 0. -1.
        994    1    1    2    0    0  0.57693615484E+01  0.73668930146E+01  0.15252246044E+01  0.17146230768E+03  0.17120000000E+03 0.  0.
        998    1    1    2    0    0  0.27508035147E+01  0.50422013234E-01  0.14470294283E+04  0.14470665969E+04  0.10000000000E+02 0. -1.
</event>
<event>
 5    1  0.1344348E-008  0.3833252E+03  0.7957747E-01  0.3436806E+00
         13   -1    0    0    0    0  0.00000000000E+00  0.00000000000E+00  0.14999999963E+04  0.15000000000E+04  0.10566000000E+00 0.  1.
        994   -1    0    0    0    0 -0.00000000000E+00 -0.00000000000E+00  0.11368683772E-12  0.17120000000E+03  0.17120000000E+03 0.  0.
         13    1    1    2    0    0 -0.15734251156E+03 -0.90327145498E+02  0.10845981243E+04  0.10996675687E+04  0.10566000000E+00 0.  1.
        994    1    1    2    0    0  0.15976242410E+03  0.97227548679E+02  0.12829587651E+03  0.28415928685E+03  0.17120000000E+03 0.  0.
        998    1    1    2    0    0 -0.24199125389E+01 -0.69004031804E+01  0.28710599544E+03  0.28737314446E+03  0.10000000000E+02 0. -1.
</event>
<event>
 5    1  0.1344348E-008  0.3844425E+03  0.7957747E-01  0.3432040E+00
         13   -1    0    0    0    0  0.00000000000E+00  0.00000000000E+00  0.14999999963E+04  0.15000000000E+04  0.10566000000E+00 0. -1.
        994   -1    0    0    0    0 -0.00000000000E+00 -0.00000000000E+00  0.11368683772E-12  0.17120000000E+03  0.17120000000E+03 0.  0.
         13    1    1    2    0    0  0.11676781108E+02 -0.16491065372E+02  0.99889036517E+02  0.10191238018E+03  0.10566000000E+00 0. -1.
        994    1    1    2    0    0 -0.10141829840E+02  0.19813409333E+02  0.35411134924E+01  0.17267717680E+03  0.17120000000E+03 0.  0.
        998    1    1    2    0    0 -0.15349512679E+01 -0.33223439604E+01  0.13965698463E+04  0.13966104430E+04  0.10000000000E+02 0. -1.
</event>
<event>
 5    1  0.1344348E-008  0.3823583E+03  0.7957747E-01  0.3440954E+00
         13   -1    0    0    0    0  0.00000000000E+00  0.00000000000E+00  0.14999999963E+04  0.15000000000E+04  0.10566000000E+00 0.  1.
        994   -1    0    0    0    0 -0.00000000000E+00 -0.00000000000E+00  0.11368683772E-12  0.17120000000E+03  0.17120000000E+03 0.  0.
         13    1    1    2    0    0 -0.17981124396E+02 -0.18000099519E+02  0.10212873808E+03  0.10525024809E+03  0.10566000000E+00 0.  1.
        994    1    1    2    0    0  0.40039455640E+02 -0.15068152680E+01  0.82910603245E+01  0.17602161851E+03  0.17120000000E+03 0.  0.
        998    1    1    2    0    0 -0.22058331244E+02  0.19506914787E+02  0.13895801979E+04  0.13899281334E+04  0.10000000000E+02 0.  1.
</event>
<event>
 5    1  0.1344348E-008  0.3752640E+03  0.7957747E-01  0.3472043E+00
         13   -1    0    0    0    0  0.00000000000E+00  0.00000000000E+00  0.14999999963E+04  0.15000000000E+04  0.10566000000E+00 0. -1.
        994   -1    0    0    0    0 -0.00000000000E+00 -0.00000000000E+00  0.11368683772E-12  0.17120000000E+03  0.17120000000E+03 0.  0.
         13    1    1    2    0    0 -0.62413669441E+02 -0.41050385092E+02  0.40691153040E+03  0.41371198313E+03  0.10566000000E+00 0. -1.
        994    1    1    2    0    0  0.30037766693E+02  0.41377071462E+02  0.15474189072E+02  0.17934107170E+03  0.17120000000E+03 0.  0.
        998    1    1    2    0    0  0.32375902748E+02 -0.32668637015E+00  0.10776142768E+04  0.10781469452E+04  0.10000000000E+02 0. -1.
</event>
<event>
 5    1  0.1344348E-008  0.3837798E+03  0.7957747E-01  0.3434864E+00
         13   -1    0    0    0    0  0.00000000000E+00  0.00000000000E+00  0.14999999963E+04  0.15000000000E+04  0.10566000000E+00 0. -1.
        994   -1    0    0    0    0 -0.00000000000E+00 -0.00000000000E+00  0.11368683772E-12  0.17120000000E+03  0.17120000000E+03 0.  0.
         13    1    1    2    0    0  0.12344372818E+02 -0.10940486582E+02  0.65596247340E+02  0.67638425588E+02  0.10566000000E+00 0. -1.
        994    1    1    2    0    0  0.32772204719E+01 -0.28840351519E+01  0.23000993145E+01  0.17127109590E+03  0.17120000000E+03 0.  0.
        998    1    1    2    0    0 -0.15621593290E+02  0.13824521734E+02  0.14321036496E+04  0.14322904785E+04  0.10000000000E+02 0. -1.
</event>
<event>
 5    1  0.1344348E-008  0.3816080E+03  0.7957747E-01  0.3444187E+00
         13   -1    0    0    0    0  0.00000000000E+00  0.00000000000E+00  0.14999999963E+04  0.15000000000E+04  0.10566000000E+00 0. -1.
        994   -1    0    0    0    0 -0.00000000000E+00 -0.00000000000E+00  0.11368683772E-12  0.17120000000E+03  0.17120000000E+03 0.  0.
         13    1    1    2    0    0 -0.11471598928E+02 -0.62748343869E+01  0.24323859881E+02  0.27615800769E+02  0.10566000000E+00 0. -1.
        994    1    1    2    0    0  0.77937989869E+01  0.74480357232E+01  0.37101669870E+01  0.17157920002E+03  0.17120000000E+03 0.  0.
        998    1    1    2    0    0  0.36777999414E+01 -0.11732013363E+01  0.14719659694E+04  0.14720049992E+04  0.10000000000E+02 0. -1.
</event>
<event>
 5    1  0.1404929E-008  0.3860921E+03  0.7957747E-01  0.3425054E+00
         13   -1    0    0    0    0  0.00000000000E+00  0.00000000000E+00  0.14999999963E+04  0.15000000000E+04  0.10566000000E+00 0.  1.
        994   -1    0    0    0    0 -0.00000000000E+00 -0.00000000000E+00  0.11368683772E-12  0.17120000000E+03  0.17120000000E+03 0.  0.
         13    1    1    2    0    0 -0.11703965712E+02  0.24045573712E+01  0.72111473099E+02  0.73094735967E+02  0.10566000000E+00 0.  1.
        994    1    1    2    0    0 -0.31824175844E+01 -0.57292166322E+01  0.12296505425E+01  0.17132980986E+03  0.17120000000E+03 0.  0.
        998    1    1    2    0    0  0.14886383297E+02  0.33246592610E+01  0.14266588726E+04  0.14267754542E+04  0.10000000000E+02 0.  1.
</event>
<event>
 5    1  0.1344348E-008  0.3750119E+03  0.7957747E-01  0.3473170E+00
         13   -1    0    0    0    0  0.00000000000E+00  0.00000000000E+00  0.14999999963E+04  0.15000000000E+04  0.10566000000E+00 0. -1.
        994   -1    0    0    0    0 -0.00000000000E+00 -0.00000000000E+00  0.11368683772E-12  0.17120000000E+03  0.17120000000E+03 0.  0.
         13    1    1    2    0    0  0.84342248405E+01  0.71999857619E+01  0.60522700976E+01  0.12633965371E+02  0.10566000000E+00 0. -1.
        994    1    1    2    0    0 -0.10690402035E+02 -0.10468131131E+02  0.74339145837E+01  0.17201328307E+03  0.17120000000E+03 0.  0.
        998    1    1    2    0    0  0.22561771946E+01  0.32681453695E+01  0.14865138116E+04  0.14865527516E+04  0.10000000000E+02 0. -1.
</event>
<event>
 5    1  0.1344348E-008  0.3692551E+03  0.7957747E-01  0.3499321E+00
         13   -1    0    0    0    0  0.00000000000E+00  0.00000000000E+00  0.14999999963E+04  0.15000000000E+04  0.10566000000E+00 0. -1.
        994   -1    0    0    0    0 -0.00000000000E+00 -0.00000000000E+00  0.11368683772E-12  0.17120000000E+03  0.17120000000E+03 0.  0.
         13    1    1    2    0    0 -0.25559967589E+01 -0.12195945540E+02  0.35827610015E+01  0.12966169344E+02  0.10566000000E+00 0. -1.
        994    1    1    2    0    0  0.18565029430E+01  0.94613884884E+01  0.99812722346E+01  0.17176155062E+03  0.17120000000E+03 0.  0.
        998    1    1    2    0    0  0.69949381592E+00  0.27345570512E+01  0.14864359630E+04  0.14864722800E+04  0.10000000000E+02 0. -1.
</event>
<event>
 5    1  0.1344348E-008  0.3793856E+03  0.7957747E-01  0.3453838E+00
         13   -1    0    0    0    0  0.00000000000E+00  0.00000000000E+00  0.14999999963E+04  0.15000000000E+04  0.10566000000E+00 0. -1.
        994   -1    0    0    0    0 -0.00000000000E+00 -0.00000000000E+00  0.11368683772E-12  0.17120000000E+03  0.17120000000E+03 0.  0.
         13    1    1    2    0    0 -0.37731493508E+02  0.41340537977E+02  0.29760143846E+03  0.30281897732E+03  0.10566000000E+00 0. -1.
        994    1    1    2    0    0  0.58060727125E+02 -0.17983312538E+02  0.16919987222E+02  0.18245594956E+03  0.17120000000E+03 0.  0.
        998    1    1    2    0    0 -0.20329233617E+02 -0.23357225439E+02  0.11854785706E+04  0.11859250731E+04  0.10000000000E+02 0. -1.
</event>
<event>
 5    1  0.1344348E-008  0.3831495E+03  0.7957747E-01  0.3437559E+00
         13   -1    0    0    0    0  0.00000000000E+00  0.00000000000E+00  0.14999999963E+04  0.15000000000E+04  0.10566000000E+00 0.  1.
        994   -1    0    0    0    0 -0.00000000000E+00 -0.00000000000E+00  0.11368683772E-12  0.17120000000E+03  0.17120000000E+03 0.  0.
         13    1    1    2    0    0 -0.14192539925E+02  0.71461221121E+01  0.51240528558E+02  0.53647909388E+02  0.10566000000E+00 0.  1.
        994    1    1    2    0    0  0.15814723434E+01  0.38131045094E+01  0.26080787682E+01  0.17126962047E+03  0.17120000000E+03 0.  0.
        998    1    1    2    0    0  0.12611067581E+02 -0.10959226622E+02  0.14461513890E+04  0.14462824701E+04  0.10000000000E+02 0.  1.
</event>
<event>
 5    1  0.1344348E-008  0.3840820E+03  0.7957747E-01  0.3433575E+00
         13   -1    0    0    0    0  0.00000000000E+00  0.00000000000E+00  0.14999999963E+04  0.15000000000E+04  0.10566000000E+00 0.  1.
        994   -1    0    0    0    0 -0.00000000000E+00 -0.00000000000E+00  0.11368683772E-12  0.17120000000E+03  0.17120000000E+03 0.  0.
         13    1    1    2    0    0 -0.38361374738E+01 -0.10489347734E+02  0.29240222155E+02  0.31300864562E+02  0.10566000000E+00 0.  1.
        994    1    1    2    0    0  0.30660271083E+01  0.77614853655E+01  0.23163449887E+01  0.17141892145E+03  0.17120000000E+03 0.  0.
        998    1    1    2    0    0  0.77011036546E+00  0.27278623681E+01  0.14684434291E+04  0.14684802140E+04  0.10000000000E+02 0.  1.
</event>
<event>
 5    1  0.1344348E-008  0.3852851E+03  0.7957747E-01  0.3428464E+00
         13   -1    0    0    0    0  0.00000000000E+00  0.00000000000E+00  0.14999999963E+04  0.15000000000E+04  0.10566000000E+00 0. -1.
        994   -1    0    0    0    0 -0.00000000000E+00 -0.00000000000E+00  0.11368683772E-12  0.17120000000E+03  0.17120000000E+03 0.  0.
         13    1    1    2    0    0  0.54600692527E+00  0.24423112396E+03  0.10561592085E+04  0.10840301772E+04  0.10566000000E+00 0. -1.
        994    1    1    2    0    0  0.18349366895E+01 -0.25968611928E+03  0.26865981636E+03  0.41100825352E+03  0.17120000000E+03 0.  0.
        998    1    1    2    0    0 -0.23809436148E+01  0.15454995315E+02  0.17518097137E+03  0.17616156931E+03  0.10000000000E+02 0.  1.
</event>
<event>
 5    1  0.1344348E-008  0.3791444E+03  0.7957747E-01  0.3454893E+00
         13   -1    0    0    0    0  0.00000000000E+00  0.00000000000E+00  0.14999999963E+04  0.15000000000E+04  0.10566000000E+00 0.  1.
        994   -1    0    0    0    0 -0.00000000000E+00 -0.00000000000E+00  0.11368683772E-12  0.17120000000E+03  0.17120000000E+03 0.  0.
         13    1    1    2    0    0  0.14550343239E+02 -0.28636453230E+02  0.12563891007E+03  0.12968001322E+03  0.10566000000E+00 0.  1.
        994    1    1    2    0    0  0.20362993402E+02  0.84488318181E+01  0.61967525893E+01  0.17272485056E+03  0.17120000000E+03 0.  0.
        998    1    1    2    0    0 -0.34913336641E+02  0.20187621412E+02  0.13681643336E+04  0.13687951362E+04  0.10000000000E+02 0.  1.
</event>
<event>
 5    1  0.1344348E-008  0.3849743E+03  0.7957747E-01  0.3429781E+00
         13   -1    0    0    0    0  0.00000000000E+00  0.00000000000E+00  0.14999999963E+04  0.15000000000E+04  0.10566000000E+00 0.  1.
        994   -1    0    0    0    0 -0.00000000000E+00 -0.00000000000E+00  0.11368683772E-12  0.17120000000E+03  0.17120000000E+03 0.  0.
         13    1    1    2    0    0  0.63094052159E+01 -0.91252844304E+01  0.37025429925E+02  0.38651947367E+02  0.10566000000E+00 0.  1.
        994    1    1    2    0    0 -0.58890456290E+01  0.68554348217E+01  0.19115948566E+01  0.17144903628E+03  0.17120000000E+03 0.  0.
        998    1    1    2    0    0 -0.42035958684E+00  0.22698496087E+01  0.14610629715E+04  0.14610990164E+04  0.10000000000E+02 0.  0.
</event>
<event>
 5    1  0.1344348E-008  0.3847251E+03  0.7957747E-01  0.3430839E+00
         13   -1    0    0    0    0  0.00000000000E+00  0.00000000000E+00  0.14999999963E+04  0.15000000000E+04  0.10566000000E+00 0.  1.
        994   -1    0    0    0    0 -0.00000000000E+00 -0.00000000000E+00  0.11368683772E-12  0.17120000000E+03  0.17120000000E+03 0.  0.
         13    1    1    2    0    0 -0.72838524876E+01 -0.13244463140E+02  0.63078342842E+02  0.64864156594E+02  0.10566000000E+00 0.  1.
        994    1    1    2    0    0  0.10263405995E+02  0.10065236829E+02  0.24471745093E+01  0.17181989163E+03  0.17120000000E+03 0.  0.
        998    1    1    2    0    0 -0.29795535073E+01  0.31792263111E+01  0.14344744789E+04  0.14345159518E+04  0.10000000000E+02 0.  1.
</event>
<event>
 5    1  0.1344348E-008  0.3714030E+03  0.7957747E-01  0.3489468E+00
         13   -1    0    0    0    0  0.00000000000E+00  0.00000000000E+00  0.14999999963E+04  0.15000000000E+04  0.10566000000E+00 0.  1.
        994   -1    0    0    0    0 -0.00000000000E+00 -0.00000000000E+00  0.11368683772E-12  0.17120000000E+03  0.17120000000E+03 0.  0.
         13    1    1    2    0    0  0.81239759103E+02  0.33360863047E+02  0.37223324962E+03  0.38245319835E+03  0.10566000000E+00 0.  1.
        994    1    1    2    0    0 -0.29962193053E+02 -0.11660916489E+02  0.15322911108E+02  0.17486549571E+03  0.17120000000E+03 0.  0.
        998    1    1    2    0    0 -0.51277566049E+02 -0.21699946558E+02  0.11124438356E+04  0.11138813059E+04  0.10000000000E+02 0.  1.
</event>
<event>
 5    1  0.1344348E-008  0.3839595E+03  0.7957747E-01  0.3434097E+00
         13   -1    0    0    0    0  0.00000000000E+00  0.00000000000E+00  0.14999999963E+04  0.15000000000E+04  0.10566000000E+00 0.  1.
        994   -1    0    0    0    0 -0.00000000000E+00 -0.00000000000E+00  0.11368683772E-12  0.17120000000E+03  0.17120000000E+03 0.  0.
         13    1    1    2    0    0  0.12773156158E+02 -0.12166058215E+01  0.37911862899E+02  0.40024419552E+02  0.10566000000E+00 0.  1.
        994    1    1    2    0    0 -0.75217688670E+01  0.43052401455E+01  0.23954858884E+01  0.17143596604E+03  0.17120000000E+03 0.  0.
        998    1    1    2    0    0 -0.52513872911E+01 -0.30886343240E+01  0.14596926475E+04  0.14597396144E+04  0.10000000000E+02 0.  1.
</event>
<event>
 5    1  0.1344348E-008  0.3856986E+03  0.7957747E-01  0.3426715E+00
         13   -1    0    0    0    0  0.00000000000E+00  0.00000000000E+00  0.14999999963E+04  0.15000000000E+04  0.10566000000E+00 0.  1.
        994   -1    0    0    0    0 -0.00000000000E+00 -0.00000000000E+00  0.11368683772E-12  0.17120000000E+03  0.17120000000E+03 0.  0.
         13    1    1    2    0    0  0.25130944704E+02 -0.19696858100E+02  0.17943616283E+02  0.36626699689E+02  0.10566000000E+00 0.  1.
        994    1    1    2    0    0 -0.16152267724E+02  0.26973850733E+02  0.23160159338E+02  0.17559703117E+03  0.17120000000E+03 0.  0.
        998    1    1    2    0    0 -0.89786769807E+01 -0.72769926326E+01  0.14588962207E+04  0.14589762691E+04  0.10000000000E+02 0.  1.
</event>
<event>
 5    1  0.1344348E-008  0.3831350E+03  0.7957747E-01  0.3437621E+00
         13   -1    0    0    0    0  0.00000000000E+00  0.00000000000E+00  0.14999999963E+04  0.15000000000E+04  0.10566000000E+00 0.  1.
        994   -1    0    0    0    0 -0.00000000000E+00 -0.00000000000E+00  0.11368683772E-12  0.17120000000E+03  0.17120000000E+03 0.  0.
         13    1    1    2    0    0  0.20416550593E+02 -0.14671538633E+02  0.11359277386E+03  0.11634181975E+03  0.10566000000E+00 0.  1.
        994    1    1    2    0    0 -0.22281042424E+02  0.15184329671E+02  0.49680478855E+01  0.17338145869E+03  0.17120000000E+03 0.  0.
        998    1    1    2    0    0  0.18644918309E+01 -0.51279103817E+00  0.13814391745E+04  0.13814767216E+04  0.10000000000E+02 0.  1.
</event>
<event>
 5    1  0.1344348E-008  0.3813765E+03  0.7957747E-01  0.3445187E+00
         13   -1    0    0    0    0  0.00000000000E+00  0.00000000000E+00  0.14999999963E+04  0.15000000000E+04  0.10566000000E+00 0.  1.
        994   -1    0    0    0    0 -0.00000000000E+00 -0.00000000000E+00  0.11368683772E-12  0.17120000000E+03  0.17120000000E+03 0.  0.
         13    1    1    2    0    0  0.34193201302E+01 -0.19391194360E+02  0.53764875133E+02  0.57257166634E+02  0.10566000000E+00 0.  1.
        994    1    1    2    0    0 -0.16791078220E+01  0.18894606110E+02  0.46382306582E+01  0.17231012369E+03  0.17120000000E+03 0.  0.
        998    1    1    2    0    0 -0.17402123082E+01  0.49658824973E+00  0.14415968905E+04  0.14416327097E+04  0.10000000000E+02 0.  0.
</event>
<event>
 5    1  0.1344348E-008  0.3850303E+03  0.7957747E-01  0.3429544E+00
         13   -1    0    0    0    0  0.00000000000E+00  0.00000000000E+00  0.14999999963E+04  0.15000000000E+04  0.10566000000E+00 0.  1.
        994   -1    0    0    0    0 -0.00000000000E+00 -0.00000000000E+00  0.11368683772E-12  0.17120000000E+03  0.17120000000E+03 0.  0.
         13    1    1    2    0    0  0.17497811035E+02 -0.11605161856E+02  0.12703312102E+03  0.12875666263E+03  0.10566000000E+00 0.  1.
        994    1    1    2    0    0 -0.18075039648E+02  0.11238815368E+02  0.31061621552E+01  0.17254595409E+03  0.17120000000E+03 0.  0.
        998    1    1    2    0    0  0.57722861340E+00  0.36634648750E+00  0.13698607131E+04  0.13698973833E+04  0.10000000000E+02 0.  1.
</event>
<event>
 5    1  0.1344348E-008  0.3807248E+03  0.7957747E-01  0.3448009E+00
         13   -1    0    0    0    0  0.00000000000E+00  0.00000000000E+00  0.14999999963E+04  0.15000000000E+04  0.10566000000E+00 0. -1.
        994   -1    0    0    0    0 -0.00000000000E+00 -0.00000000000E+00  0.11368683772E-12  0.17120000000E+03  0.17120000000E+03 0.  0.
         13    1    1    2    0    0  0.70896434684E+01  0.73639373975E+01  0.12301704640E+02  0.15994802893E+02  0.10566000000E+00 0. -1.
        994    1    1    2    0    0 -0.62726656690E+01 -0.11189578713E+01  0.39031438619E+01  0.17136298589E+03  0.17120000000E+03 0.  0.
        998    1    1    2    0    0 -0.81697779934E+00 -0.62449795261E+01  0.14837951478E+04  0.14838422112E+04  0.10000000000E+02 0. -1.
</event>
<event>
 5    1  0.1344348E-008  0.3852961E+03  0.7957747E-01  0.3428418E+00
         13   -1    0    0    0    0  0.00000000000E+00  0.00000000000E+00  0.14999999963E+04  0.15000000000E+04  0.10566000000E+00 0.  1.
        994   -1    0    0    0    0 -0.00000000000E+00 -0.00000000000E+00  0.11368683772E-12  0.17120000000E+03  0.17120000000E+03 0.  0.
         13    1    1    2    0    0  0.39135717152E+01  0.13225108127E+02  0.76588888585E+02  0.77820874753E+02  0.10566000000E+00 0.  1.
        994    1    1    2    0    0 -0.14796962428E+01  0.15388999699E+02  0.22688801233E+01  0.17191160121E+03  0.17120000000E+03 0.  0.
        998    1    1    2    0    0 -0.24338754723E+01 -0.28614107826E+02  0.14211422276E+04  0.14214675240E+04  0.10000000000E+02 0.  1.
</event>
<event>
 5    1  0.1344348E-008  0.2641994E+03  0.7957747E-01  0.4190192E+00
         13   -1    0    0    0    0  0.00000000000E+00  0.00000000000E+00  0.14999999963E+04  0.15000000000E+04  0.10566000000E+00 0.  1.
        994   -1    0    0    0    0 -0.00000000000E+00 -0.00000000000E+00  0.11368683772E-12  0.17120000000E+03  0.17120000000E+03 0.  0.
         13    1    1    2    0    0  0.17045451510E+03 -0.10656802977E+03  0.27945244937E+03  0.34424579781E+03  0.10566000000E+00 0.  1.
        994    1    1    2    0    0 -0.16814513404E+03  0.10347643521E+03  0.26789846515E+03  0.37424482144E+03  0.17120000000E+03 0.  0.
        998    1    1    2    0    0 -0.23093810570E+01  0.30915945611E+01  0.95264908176E+03  0.95270938076E+03  0.10000000000E+02 0.  0.
</event>
<event>
 5    1  0.1344348E-008  0.3862183E+03  0.7957747E-01  0.3424522E+00
         13   -1    0    0    0    0  0.00000000000E+00  0.00000000000E+00  0.14999999963E+04  0.15000000000E+04  0.10566000000E+00 0.  1.
        994   -1    0    0    0    0 -0.00000000000E+00 -0.00000000000E+00  0.11368683772E-12  0.17120000000E+03  0.17120000000E+03 0.  0.
         13    1    1    2    0    0 -0.27235784034E+01  0.99637140438E+01  0.52315223366E+02  0.53325296405E+02  0.10566000000E+00 0.  1.
        994    1    1    2    0    0 -0.67609143240E+01 -0.10515575621E+02  0.15385844538E+01  0.17166273485E+03  0.17120000000E+03 0.  0.
        998    1    1    2    0    0  0.94844927273E+01  0.55186157682E+00  0.14461461885E+04  0.14462119687E+04  0.10000000000E+02 0.  1.
</event>
<event>
 5    1  0.1344348E-008  0.3626133E+03  0.7957747E-01  0.3530543E+00
         13   -1    0    0    0    0  0.00000000000E+00  0.00000000000E+00  0.14999999963E+04  0.15000000000E+04  0.10566000000E+00 0.  1.
        994   -1    0    0    0    0 -0.00000000000E+00 -0.00000000000E+00  0.11368683772E-12  0.17120000000E+03  0.17120000000E+03 0.  0.
         13    1    1    2    0    0 -0.16182476316E+03  0.14742966231E+03  0.12494222188E+04  0.12684552224E+04  0.10566000000E+00 0.  1.
        994    1    1    2    0    0  0.14627930007E+03 -0.98194560665E+02  0.14621785648E+03  0.28588268035E+03  0.17120000000E+03 0.  0.
        998    1    1    2    0    0  0.15545463086E+02 -0.49235101646E+02  0.10435992105E+03  0.11686209727E+03  0.10000000000E+02 0.  1.
</event>
<event>
 5    1  0.1344348E-008  0.3696616E+03  0.7957747E-01  0.3497448E+00
         13   -1    0    0    0    0  0.00000000000E+00  0.00000000000E+00  0.14999999963E+04  0.15000000000E+04  0.10566000000E+00 0. -1.
        994   -1    0    0    0    0 -0.00000000000E+00 -0.00000000000E+00  0.11368683772E-12  0.17120000000E+03  0.17120000000E+03 0.  0.
         13    1    1    2    0    0 -0.37160413783E+02  0.24899535266E+02  0.12784480903E+03  0.13544441505E+03  0.10566000000E+00 0. -1.
        994    1    1    2    0    0 -0.41436028324E+02 -0.18993321414E+02  0.16672989761E+02  0.17794695639E+03  0.17120000000E+03 0.  0.
        998    1    1    2    0    0  0.78596442107E+02 -0.59062138521E+01  0.13554821975E+04  0.13578086286E+04  0.10000000000E+02 0. -1.
</event>
<event>
 5    1  0.1344348E-008  0.3837792E+03  0.7957747E-01  0.3434866E+00
         13   -1    0    0    0    0  0.00000000000E+00  0.00000000000E+00  0.14999999963E+04  0.15000000000E+04  0.10566000000E+00 0. -1.
        994   -1    0    0    0    0 -0.00000000000E+00 -0.00000000000E+00  0.11368683772E-12  0.17120000000E+03  0.17120000000E+03 0.  0.
         13    1    1    2    0    0  0.16701348775E+02  0.16777429080E+02  0.12258724879E+03  0.12485216020E+03  0.10566000000E+00 0. -1.
        994    1    1    2    0    0 -0.86072001466E+01 -0.15191797335E+02  0.32447333469E+01  0.17211868840E+03  0.17120000000E+03 0.  0.
        998    1    1    2    0    0 -0.80941486284E+01 -0.15856317444E+01  0.13741680141E+04  0.13742291514E+04  0.10000000000E+02 0. -1.
</event>
<event>
 5    1  0.1344348E-008  0.3844400E+03  0.7957747E-01  0.3432051E+00
         13   -1    0    0    0    0  0.00000000000E+00  0.00000000000E+00  0.14999999963E+04  0.15000000000E+04  0.10566000000E+00 0.  1.
        994   -1    0    0    0    0 -0.00000000000E+00 -0.00000000000E+00  0.11368683772E-12  0.17120000000E+03  0.17120000000E+03 0.  0.
         13    1    1    2    0    0 -0.22379266131E+01 -0.12196023824E+02  0.41847212928E+02  0.43645752446E+02  0.10566000000E+00 0.  1.
        994    1    1    2    0    0 -0.20325454619E+02  0.25863213738E+01  0.32927567521E+01  0.17245316875E+03  0.17120000000E+03 0.  0.
        998    1    1    2    0    0  0.22563381232E+02  0.96097024507E+01  0.14548600266E+04  0.14551010788E+04  0.10000000000E+02 0.  1.
</event>
<event>
 5    1  0.1344348E-008  0.3811421E+03  0.7957747E-01  0.3446200E+00
         13   -1    0    0    0    0  0.00000000000E+00  0.00000000000E+00  0.14999999963E+04  0.15000000000E+04  0.10566000000E+00 0. -1.
        994   -1    0    0    0    0 -0.00000000000E+00 -0.00000000000E+00  0.11368683772E-12  0.17120000000E+03  0.17120000000E+03 0.  0.
         13    1    1    2    0    0 -0.47540611104E+02 -0.14415123452E+02  0.23258175916E+03  0.23782807098E+03  0.10566000000E+00 0. -1.
        994    1    1    2    0    0  0.65394677184E+02  0.59966918905E+02  0.30236093290E+02  0.19518236730E+03  0.17120000000E+03 0.  0.
        998    1    1    2    0    0 -0.17854066080E+02 -0.45551795453E+02  0.12371821438E+04  0.12381895617E+04  0.10000000000E+02 0. -1.
</event>
<event>
 5    1  0.1344348E-008  0.3806261E+03  0.7957747E-01  0.3448437E+00
         13   -1    0    0    0    0  0.00000000000E+00  0.00000000000E+00  0.14999999963E+04  0.15000000000E+04  0.10566000000E+00 0.  1.
        994   -1    0    0    0    0 -0.00000000000E+00 -0.00000000000E+00  0.11368683772E-12  0.17120000000E+03  0.17120000000E+03 0.  0.
         13    1    1    2    0    0 -0.21453673255E+02  0.43739215278E+00  0.59370560957E+02  0.63129439095E+02  0.10566000000E+00 0.  1.
        994    1    1    2    0    0  0.12162880718E+02  0.48773282200E+01  0.43904918035E+01  0.17175692247E+03  0.17120000000E+03 0.  0.
        998    1    1    2    0    0  0.92907925370E+01 -0.53147203728E+01  0.14362389435E+04  0.14363136384E+04  0.10000000000E+02 0.  1.
</event>
<event>
 5    1  0.1344348E-008  0.3795130E+03  0.7957747E-01  0.3453282E+00
         13   -1    0    0    0    0  0.00000000000E+00  0.00000000000E+00  0.14999999963E+04  0.15000000000E+04  0.10566000000E+00 0. -1.
        994   -1    0    0    0    0 -0.00000000000E+00 -0.00000000000E+00  0.11368683772E-12  0.17120000000E+03  0.17120000000E+03 0.  0.
         13    1    1    2    0    0  0.13442165212E+02  0.29339036168E+02  0.11219542404E+03  0.11674457241E+03  0.10566000000E+00 0. -1.
        994    1    1    2    0    0 -0.12785433908E+02 -0.24914311766E+02  0.70093067072E+01  0.17361670608E+03  0.17120000000E+03 0.  0.
        998    1    1    2    0    0 -0.65673130359E+00 -0.44247244018E+01  0.13807952655E+04  0.13808387215E+04  0.10000000000E+02 0. -1.
</event>
<event>
 5    1  0.1344348E-008  0.3816386E+03  0.7957747E-01  0.3444054E+00
         13   -1    0    0    0    0  0.00000000000E+00  0.00000000000E+00  0.14999999963E+04  0.15000000000E+04  0.10566000000E+00 0. -1.
        994   -1    0    0    0    0 -0.00000000000E+00 -0.00000000000E+00  0.11368683772E-12  0.17120000000E+03  0.17120000000E+03 0.  0.
         13    1    1    2    0    0 -0.22540453994E+02  0.52383756065E+01  0.83013092304E+02  0.86178287887E+02  0.10566000000E+00 0. -1.
        994    1    1    2    0    0  0.67042122004E+01 -0.20016922219E+01  0.34710403298E+01  0.17137806556E+03  0.17120000000E+03 0.  0.
        998    1    1    2    0    0  0.15836241793E+02 -0.32366833846E+01  0.14135158636E+04  0.14136436466E+04  0.10000000000E+02 0. -1.
</event>
<event>
 5    1  0.1344348E-008  0.3858263E+03  0.7957747E-01  0.3426175E+00
         13   -1    0    0    0    0  0.00000000000E+00  0.00000000000E+00  0.14999999963E+04  0.15000000000E+04  0.10566000000E+00 0. -1.
        994   -1    0    0    0    0 -0.00000000000E+00 -0.00000000000E+00  0.11368683772E-12  0.17120000000E+03  0.17120000000E+03 0.  0.
         13    1    1    2    0    0  0.89718671407E+01  0.50340575098E+01  0.47929065356E+02  0.49020838476E+02  0.10566000000E+00 0. -1.
        994    1    1    2    0    0  0.20082786230E+01  0.11466928096E+02  0.16650857644E+01  0.17160342693E+03  0.17120000000E+03 0.  0.
        998    1    1    2    0    0 -0.10980145764E+02 -0.16500985605E+02  0.14504058452E+04  0.14505757346E+04  0.10000000000E+02 0. -1.
</event>
<event>
 5    1  0.1344348E-008  0.3798170E+03  0.7957747E-01  0.3451956E+00
         13   -1    0    0    0    0  0.00000000000E+00  0.00000000000E+00  0.14999999963E+04  0.15000000000E+04  0.10566000000E+00 0.  1.
        994   -1    0    0    0    0 -0.00000000000E+00 -0.00000000000E+00  0.11368683772E-12  0.17120000000E+03  0.17120000000E+03 0.  0.
         13    1    1    2    0    0 -0.53451656809E+01  0.17116621168E+02  0.36477624808E+02  0.40646989950E+02  0.10566000000E+00 0.  1.
        994    1    1    2    0    0  0.83776743165E+01 -0.93507957611E+01  0.47529767888E+01  0.17172551819E+03  0.17120000000E+03 0.  0.
        998    1    1    2    0    0 -0.30325086356E+01 -0.77658254067E+01  0.14587693947E+04  0.14588274919E+04  0.10000000000E+02 0.  1.
</event>
<event>
 5    1  0.1344348E-008  0.3772512E+03  0.7957747E-01  0.3463215E+00
         13   -1    0    0    0    0  0.00000000000E+00  0.00000000000E+00  0.14999999963E+04  0.15000000000E+04  0.10566000000E+00 0.  1.
        994   -1    0    0    0    0 -0.00000000000E+00 -0.00000000000E+00  0.11368683772E-12  0.17120000000E+03  0.17120000000E+03 0.  0.
         13    1    1    2    0    0 -0.26216668529E+02 -0.42075095082E+02  0.83623498622E+02  0.97213826283E+02  0.10566000000E+00 0.  1.
        994    1    1    2    0    0 -0.66294344167E+00  0.10958424918E+02  0.15258070865E+02  0.17222884572E+03  0.17120000000E+03 0.  0.
        998    1    1    2    0    0  0.26879611971E+02  0.31116670164E+02  0.14011184268E+04  0.14017573280E+04  0.10000000000E+02 0.  1.
</event>
<event>
 5    1  0.1344348E-008  0.3750925E+03  0.7957747E-01  0.3472809E+00
         13   -1    0    0    0    0  0.00000000000E+00  0.00000000000E+00  0.14999999963E+04  0.15000000000E+04  0.10566000000E+00 0.  1.
        994   -1    0    0    0    0 -0.00000000000E+00 -0.00000000000E+00  0.11368683772E-12  0.17120000000E+03  0.17120000000E+03 0.  0.
         13    1    1    2    0    0  0.48753103001E+02  0.57037704476E+02  0.37212883098E+03  0.37961828564E+03  0.10566000000E+00 0.  1.
        994    1    1    2    0    0 -0.31785505070E+02 -0.48851968953E+02  0.18262977191E+02  0.18176856037E+03  0.17120000000E+03 0.  0.
        998    1    1    2    0    0 -0.16967597931E+02 -0.81857355236E+01  0.11096081881E+04  0.11098131540E+04  0.10000000000E+02 0.  1.
</event>
<event>
 5    1  0.1344348E-008  0.3818936E+03  0.7957747E-01  0.3442955E+00
         13   -1    0    0    0    0  0.00000000000E+00  0.00000000000E+00  0.14999999963E+04  0.15000000000E+04  0.10566000000E+00 0.  1.
        994   -1    0    0    0    0 -0.00000000000E+00 -0.00000000000E+00  0.11368683772E-12  0.17120000000E+03  0.17120000000E+03 0.  0.
         13    1    1    2    0    0 -0.23038801730E+02  0.16175211179E+02  0.11220448307E+03  0.11568180940E+03  0.10566000000E+00 0.  1.
        994    1    1    2    0    0  0.28860869819E+02 -0.16321228986E+02  0.68410589592E+01  0.17451524979E+03  0.17120000000E+03 0.  0.
        998    1    1    2    0    0 -0.58220680888E+01  0.14601780676E+00  0.13809544543E+04  0.13810029408E+04  0.10000000000E+02 0.  1.
</event>
<event>
 5    1  0.1344348E-008  0.3846267E+03  0.7957747E-01  0.3431257E+00
         13   -1    0    0    0    0  0.00000000000E+00  0.00000000000E+00  0.14999999963E+04  0.15000000000E+04  0.10566000000E+00 0. -1.
        994   -1    0    0    0    0 -0.00000000000E+00 -0.00000000000E+00  0.11368683772E-12  0.17120000000E+03  0.17120000000E+03 0.  0.
         13    1    1    2    0    0 -0.12493949481E+02  0.13650564141E+02  0.10111331227E+03  0.10279275148E+03  0.10566000000E+00 0. -1.
        994    1    1    2    0    0  0.10195998257E+02  0.57830563794E+01  0.22681340844E+01  0.17161581091E+03  0.17120000000E+03 0.  0.
        998    1    1    2    0    0  0.22979512236E+01 -0.19433620521E+02  0.13966185499E+04  0.13967914376E+04  0.10000000000E+02 0. -1.
</event>
<event>
 5    1  0.1344348E-008  0.3849648E+03  0.7957747E-01  0.3429822E+00
         13   -1    0    0    0    0  0.00000000000E+00  0.00000000000E+00  0.14999999963E+04  0.15000000000E+04  0.10566000000E+00 0. -1.
        994   -1    0    0    0    0 -0.00000000000E+00 -0.00000000000E+00  0.11368683772E-12  0.17120000000E+03  0.17120000000E+03 0.  0.
         13    1    1    2    0    0 -0.12660690447E+02 -0.13999474262E+02  0.10665137274E+03  0.10830884006E+03  0.10566000000E+00 0. -1.
        994    1    1    2    0    0  0.82373528058E+01  0.11032995365E+02  0.22714110549E+01  0.17176780920E+03  0.17120000000E+03 0.  0.
        998    1    1    2    0    0  0.44233376407E+01  0.29664788964E+01  0.13910772125E+04  0.13911233507E+04  0.10000000000E+02 0. -1.
</event>
<event>
 5    1  0.1344348E-008  0.3763393E+03  0.7957747E-01  0.3467254E+00
         13   -1    0    0    0    0  0.00000000000E+00  0.00000000000E+00  0.14999999963E+04  0.15000000000E+04  0.10566000000E+00 0. -1.
        994   -1    0    0    0    0 -0.00000000000E+00 -0.00000000000E+00  0.11368683772E-12  0.17120000000E+03  0.17120000000E+03 0.  0.
         13    1    1    2    0    0  0.25300903190E+01  0.16554765018E+02  0.20667334530E+02  0.26600967697E+02  0.10566000000E+00 0. -1.
        994    1    1    2    0    0 -0.91777803790E+00 -0.15282308302E+02  0.67861160878E+01  0.17201709983E+03  0.17120000000E+03 0.  0.
        998    1    1    2    0    0 -0.16123122811E+01 -0.12724567164E+01  0.14725465457E+04  0.14725819325E+04  0.10000000000E+02 0. -1.
</event>
<event>
 5    1  0.1344348E-008  0.3807358E+03  0.7957747E-01  0.3447961E+00
         13   -1    0    0    0    0  0.00000000000E+00  0.00000000000E+00  0.14999999963E+04  0.15000000000E+04  0.10566000000E+00 0. -1.
        994   -1    0    0    0    0 -0.00000000000E+00 -0.00000000000E+00  0.11368683772E-12  0.17120000000E+03  0.17120000000E+03 0.  0.
         13    1    1    2    0    0  0.16190446156E+01 -0.19824602589E+02  0.51236154982E+02  0.54961722268E+02  0.10566000000E+00 0. -1.
        994    1    1    2    0    0 -0.28848290408E+01  0.12662618971E+02  0.43248373536E+01  0.17174634895E+03  0.17120000000E+03 0.  0.
        998    1    1    2    0    0  0.12657844252E+01  0.71619836175E+01  0.14444390039E+04  0.14444919288E+04  0.10000000000E+02 0. -1.
</event>
<event>
 5    1  0.1344348E-008  0.3860238E+03  0.7957747E-01  0.3425342E+00
         13   -1    0    0    0    0  0.00000000000E+00  0.00000000000E+00  0.14999999963E+04  0.15000000000E+04  0.10566000000E+00 0. -1.
        994   -1    0    0    0    0 -0.00000000000E+00 -0.00000000000E+00  0.11368683772E-12  0.17120000000E+03  0.17120000000E+03 0.  0.
         13    1    1    2    0    0  0.43465603158E+01 -0.12417996639E+02  0.75746571219E+02  0.76880774206E+02  0.10566000000E+00 0. -1.
        994    1    1    2    0    0 -0.14172709962E+02  0.82554339913E+01  0.20049629991E+01  0.17199557487E+03  0.17120000000E+03 0.  0.
        998    1    1    2    0    0  0.98261496459E+01  0.41625626477E+01  0.14222484621E+04  0.14223236509E+04  0.10000000000E+02 0. -1.
</event>
<event>
 5    1  0.1344348E-008  0.3840734E+03  0.7957747E-01  0.3433612E+00
         13   -1    0    0    0    0  0.00000000000E+00  0.00000000000E+00  0.14999999963E+04  0.15000000000E+04  0.10566000000E+00 0.  1.
        994   -1    0    0    0    0 -0.00000000000E+00 -0.00000000000E+00  0.11368683772E-12  0.17120000000E+03  0.17120000000E+03 0.  0.
         13    1    1    2    0    0  0.34904654095E+01  0.13341733018E+02  0.44695283082E+02  0.46774615792E+02  0.10566000000E+00 0.  1.
        994    1    1    2    0    0 -0.48725434186E+01 -0.98131477277E+01  0.24869368003E+01  0.17156824998E+03  0.17120000000E+03 0.  0.
        998    1    1    2    0    0  0.13820780090E+01 -0.35285852899E+01  0.14528177764E+04  0.14528571342E+04  0.10000000000E+02 0.  1.
</event>
<event>
 5    1  0.1344348E-008  0.3727712E+03  0.7957747E-01  0.3483251E+00
         13   -1    0    0    0    0  0.00000000000E+00  0.00000000000E+00  0.14999999963E+04  0.15000000000E+04  0.10566000000E+00 0. -1.
        994   -1    0    0    0    0 -0.00000000000E+00 -0.00000000000E+00  0.11368683772E-12  0.17120000000E+03  0.17120000000E+03 0.  0.
         13    1    1    2    0    0 -0.42904008137E+02  0.27343995166E+02  0.13492372775E+03  0.14419733513E+03  0.10566000000E+00 0. -1.
        994    1    1    2    0    0  0.67491936953E+02 -0.27562216011E+02  0.26256002979E+02  0.18791927788E+03  0.17120000000E+03 0.  0.
        998    1    1    2    0    0 -0.24587928816E+02  0.21822084537E+00  0.13388202656E+04  0.13390833870E+04  0.10000000000E+02 0. -1.
</event>
<event>
 5    1  0.1344348E-008  0.2877929E+03  0.7957747E-01  0.3987215E+00
         13   -1    0    0    0    0  0.00000000000E+00  0.00000000000E+00  0.14999999963E+04  0.15000000000E+04  0.10566000000E+00 0.  1.
        994   -1    0    0    0    0 -0.00000000000E+00 -0.00000000000E+00  0.11368683772E-12  0.17120000000E+03  0.17120000000E+03 0.  0.
         13    1    1    2    0    0 -0.12848915649E+03  0.16552868950E+03  0.47229802818E+03  0.51669589603E+03  0.10566000000E+00 0.  1.
        994    1    1    2    0    0  0.14115342738E+03 -0.15882982220E+03  0.23074832488E+03  0.35735896786E+03  0.17120000000E+03 0.  0.
        998    1    1    2    0    0 -0.12664270884E+02 -0.66988673023E+01  0.79695364322E+03  0.79714513611E+03  0.10000000000E+02 0. -1.
</event>
<event>
 5    1  0.1344348E-008  0.3750956E+03  0.7957747E-01  0.3472795E+00
         13   -1    0    0    0    0  0.00000000000E+00  0.00000000000E+00  0.14999999963E+04  0.15000000000E+04  0.10566000000E+00 0. -1.
        994   -1    0    0    0    0 -0.00000000000E+00 -0.00000000000E+00  0.11368683772E-12  0.17120000000E+03  0.17120000000E+03 0.  0.
         13    1    1    2    0    0  0.31177289427E+02 -0.99018871744E+02  0.49944214052E+03  0.51011687212E+03  0.10566000000E+00 0. -1.
        994    1    1    2    0    0 -0.39820934482E+02  0.10168769210E+03  0.48300915440E+02  0.20873071643E+03  0.17120000000E+03 0.  0.
        998    1    1    2    0    0  0.86436450552E+01 -0.26688203569E+01  0.95225694032E+03  0.95235241145E+03  0.10000000000E+02 0. -1.
</event>
<event>
 5    1  0.1344348E-008  0.3832796E+03  0.7957747E-01  0.3437002E+00
         13   -1    0    0    0    0  0.00000000000E+00  0.00000000000E+00  0.14999999963E+04  0.15000000000E+04  0.10566000000E+00 0.  1.
        994   -1    0    0    0    0 -0.00000000000E+00 -0.00000000000E+00  0.11368683772E-12  0.17120000000E+03  0.17120000000E+03 0.  0.
         13    1    1    2    0    0 -0.37919480425E+01 -0.14016921772E+02  0.41216241659E+02  0.43699458880E+02  0.10566000000E+00 0.  1.
        994    1    1    2    0    0  0.23644169282E+01  0.12031502477E+02  0.29840881376E+01  0.17166447594E+03  0.17120000000E+03 0.  0.
        998    1    1    2    0    0  0.14275311142E+01  0.19854192950E+01  0.14557996665E+04  0.14558360652E+04  0.10000000000E+02 0.  1.
</event>
<event>
 5    1  0.1344348E-008  0.3803120E+03  0.7957747E-01  0.3449801E+00
         13   -1    0    0    0    0  0.00000000000E+00  0.00000000000E+00  0.14999999963E+04  0.15000000000E+04  0.10566000000E+00 0. -1.
        994   -1    0    0    0    0 -0.00000000000E+00 -0.00000000000E+00  0.11368683772E-12  0.17120000000E+03  0.17120000000E+03 0.  0.
         13    1    1    2    0    0  0.28089791921E+02 -0.71165739959E+01  0.10271312395E+03  0.10672243921E+03  0.10566000000E+00 0. -1.
        994    1    1    2    0    0 -0.21627640629E+02 -0.22013140503E+01  0.55555699723E+01  0.17266413924E+03  0.17120000000E+03 0.  0.
        998    1    1    2    0    0 -0.64621512920E+01  0.93178880462E+01  0.13917313024E+04  0.13918134215E+04  0.10000000000E+02 0. -1.
</event>
<event>
 5    1  0.1382236E-008  0.3860721E+03  0.7957747E-01  0.3425138E+00
         13   -1    0    0    0    0  0.00000000000E+00  0.00000000000E+00  0.14999999963E+04  0.15000000000E+04  0.10566000000E+00 0. -1.
        994   -1    0    0    0    0 -0.00000000000E+00 -0.00000000000E+00  0.11368683772E-12  0.17120000000E+03  0.17120000000E+03 0.  0.
         13    1    1    2    0    0  0.65999516435E+01 -0.98125970644E+01  0.66780586367E+02  0.67819645402E+02  0.10566000000E+00 0. -1.
        994    1    1    2    0    0 -0.26367395926E+01  0.22654766514E+01  0.11384139511E+01  0.17123907488E+03  0.17120000000E+03 0.  0.
        998    1    1    2    0    0 -0.39632120508E+01  0.75471204130E+01  0.14320809960E+04  0.14321412797E+04  0.10000000000E+02 0. -1.
</event>
<event>
 5    1  0.1344348E-008  0.3811117E+03  0.7957747E-01  0.3446332E+00
         13   -1    0    0    0    0  0.00000000000E+00  0.00000000000E+00  0.14999999963E+04  0.15000000000E+04  0.10566000000E+00 0.  1.
        994   -1    0    0    0    0 -0.00000000000E+00 -0.00000000000E+00  0.11368683772E-12  0.17120000000E+03  0.17120000000E+03 0.  0.
         13    1    1    2    0    0  0.63746501615E+02  0.60733403770E+01  0.33239035991E+03  0.33850238472E+03  0.10566000000E+00 0.  1.
        994    1    1    2    0    0 -0.93832545080E+02  0.48137924983E+01  0.33556838618E+02  0.19814949037E+03  0.17120000000E+03 0.  0.
        998    1    1    2    0    0  0.30086043464E+02 -0.10887132875E+02  0.11340527977E+04  0.11345481249E+04  0.10000000000E+02 0.  1.
</event>
<event>
 5    1  0.1344348E-008  0.3713603E+03  0.7957747E-01  0.3489663E+00
         13   -1    0    0    0    0  0.00000000000E+00  0.00000000000E+00  0.14999999963E+04  0.15000000000E+04  0.10566000000E+00 0. -1.
        994   -1    0    0    0    0 -0.00000000000E+00 -0.00000000000E+00  0.11368683772E-12  0.17120000000E+03  0.17120000000E+03 0.  0.
         13    1    1    2    0    0 -0.89535977156E+01 -0.63654638308E+02  0.20128331209E+03  0.21129851580E+03  0.10566000000E+00 0. -1.
        994    1    1    2    0    0  0.10896153353E+02  0.68587476440E+02  0.25345538637E+02  0.18648003757E+03  0.17120000000E+03 0.  0.
        998    1    1    2    0    0 -0.19425556370E+01 -0.49328381318E+01  0.12733711456E+04  0.12734214466E+04  0.10000000000E+02 0. -1.
</event>
<event>
 5    1  0.1344348E-008  0.3846405E+03  0.7957747E-01  0.3431199E+00
         13   -1    0    0    0    0  0.00000000000E+00  0.00000000000E+00  0.14999999963E+04  0.15000000000E+04  0.10566000000E+00 0.  1.
        994   -1    0    0    0    0 -0.00000000000E+00 -0.00000000000E+00  0.11368683772E-12  0.17120000000E+03  0.17120000000E+03 0.  0.
         13    1    1    2    0    0 -0.10431504057E+02 -0.69694227426E+01  0.46940675639E+02  0.48588345555E+02  0.10566000000E+00 0.  1.
        994    1    1    2    0    0  0.56914528883E+01 -0.20871746952E+02  0.33512248421E+01  0.17259401254E+03  0.17120000000E+03 0.  0.
        998    1    1    2    0    0  0.47400511685E+01  0.27841169695E+02  0.14497080958E+04  0.14500176419E+04  0.10000000000E+02 0.  1.
</event>
<event>
 5    1  0.1344348E-008  0.3794046E+03  0.7957747E-01  0.3453755E+00
         13   -1    0    0    0    0  0.00000000000E+00  0.00000000000E+00  0.14999999963E+04  0.15000000000E+04  0.10566000000E+00 0. -1.
        994   -1    0    0    0    0 -0.00000000000E+00 -0.00000000000E+00  0.11368683772E-12  0.17120000000E+03  0.17120000000E+03 0.  0.
         13    1    1    2    0    0  0.23341976839E+02  0.31814275701E+02  0.20355318302E+03  0.20734248359E+03  0.10566000000E+00 0. -1.
        994    1    1    2    0    0 -0.56333174508E+01  0.18830419400E+01  0.45521865479E+01  0.17136348069E+03  0.17120000000E+03 0.  0.
        998    1    1    2    0    0 -0.17708659388E+02 -0.33697317641E+02  0.12918946267E+04  0.12924940357E+04  0.10000000000E+02 0. -1.
</event>
<event>
 5    1  0.1344348E-008  0.3849844E+03  0.7957747E-01  0.3429738E+00
         13   -1    0    0    0    0  0.00000000000E+00  0.00000000000E+00  0.14999999963E+04  0.15000000000E+04  0.10566000000E+00 0. -1.
        994   -1    0    0    0    0 -0.00000000000E+00 -0.00000000000E+00  0.11368683772E-12  0.17120000000E+03  0.17120000000E+03 0.  0.
         13    1    1    2    0    0  0.74807499425E+00  0.10554450523E+02  0.32709456615E+02  0.34378419948E+02  0.10566000000E+00 0. -1.
        994    1    1    2    0    0 -0.39145640553E+01 -0.15314108072E+02  0.24599870377E+01  0.17194573927E+03  0.17120000000E+03 0.  0.
        998    1    1    2    0    0  0.31664890610E+01  0.47596575498E+01  0.14648305526E+04  0.14648758408E+04  0.10000000000E+02 0. -1.
</event>
<event>
 5    1  0.1344348E-008  0.3783327E+03  0.7957747E-01  0.3458450E+00
         13   -1    0    0    0    0  0.00000000000E+00  0.00000000000E+00  0.14999999963E+04  0.15000000000E+04  0.10566000000E+00 0. -1.
        994   -1    0    0    0    0 -0.00000000000E+00 -0.00000000000E+00  0.11368683772E-12  0.17120000000E+03  0.17120000000E+03 0.  0.
         13    1    1    2    0    0 -0.17813675046E+02  0.28459679481E+01  0.31392169581E+02  0.36206436268E+02  0.10566000000E+00 0. -1.
        994    1    1    2    0    0  0.35424425565E+01 -0.59306653273E+01  0.51375842888E+01  0.17141632496E+03  0.17120000000E+03 0.  0.
        998    1    1    2    0    0  0.14271232489E+02  0.30846973792E+01  0.14634702424E+04  0.14635772388E+04  0.10000000000E+02 0. -1.
</event>
<event>
 5    1  0.1344348E-008  0.3855665E+03  0.7957747E-01  0.3427273E+00
         13   -1    0    0    0    0  0.00000000000E+00  0.00000000000E+00  0.14999999963E+04  0.15000000000E+04  0.10566000000E+00 0. -1.
        994   -1    0    0    0    0 -0.00000000000E+00 -0.00000000000E+00  0.11368683772E-12  0.17120000000E+03  0.17120000000E+03 0.  0.
         13    1    1    2    0    0  0.86309977871E+01 -0.12623380056E+02  0.82505494096E+02  0.83910735707E+02  0.10566000000E+00 0. -1.
        994    1    1    2    0    0 -0.83920843930E+01  0.14922296946E+02  0.23118803650E+01  0.17206942441E+03  0.17120000000E+03 0.  0.
        998    1    1    2    0    0 -0.23891339415E+00 -0.22989168907E+01  0.14151826218E+04  0.14152198399E+04  0.10000000000E+02 0. -1.
</event>
<event>
 5    1  0.1344348E-008  0.2969581E+03  0.7957747E-01  0.3917977E+00
         13   -1    0    0    0    0  0.00000000000E+00  0.00000000000E+00  0.14999999963E+04  0.15000000000E+04  0.10566000000E+00 0. -1.
        994   -1    0    0    0    0 -0.00000000000E+00 -0.00000000000E+00  0.11368683772E-12  0.17120000000E+03  0.17120000000E+03 0.  0.
         13    1    1    2    0    0  0.39495040761E+02 -0.17950761888E+03  0.62461323477E+03  0.65109488378E+03  0.10566000000E+00 0. -1.
        994    1    1    2    0    0 -0.48522648271E+02  0.17348288386E+03  0.14131459030E+03  0.28588461277E+03  0.17120000000E+03 0.  0.
        998    1    1    2    0    0  0.90276075100E+01  0.60247350180E+01  0.73407217121E+03  0.73422050344E+03  0.10000000000E+02 0.  1.
</event>
<event>
 5    1  0.1344348E-008  0.3809340E+03  0.7957747E-01  0.3447102E+00
         13   -1    0    0    0    0  0.00000000000E+00  0.00000000000E+00  0.14999999963E+04  0.15000000000E+04  0.10566000000E+00 0.  1.
        994   -1    0    0    0    0 -0.00000000000E+00 -0.00000000000E+00  0.11368683772E-12  0.17120000000E+03  0.17120000000E+03 0.  0.
         13    1    1    2    0    0 -0.24024528414E+02 -0.28647508376E+01  0.74415771991E+02  0.78250259092E+02  0.10566000000E+00 0.  1.
        994    1    1    2    0    0  0.26988004013E+02  0.16915392970E+01  0.61031025661E+01  0.17342981729E+03  0.17120000000E+03 0.  0.
        998    1    1    2    0    0 -0.29634755986E+01  0.11732115406E+01  0.14194811217E+04  0.14195199236E+04  0.10000000000E+02 0.  1.
</event>
<event>
 5    1  0.1344348E-008  0.3841364E+03  0.7957747E-01  0.3433343E+00
         13   -1    0    0    0    0  0.00000000000E+00  0.00000000000E+00  0.14999999963E+04  0.15000000000E+04  0.10566000000E+00 0. -1.
        994   -1    0    0    0    0 -0.00000000000E+00 -0.00000000000E+00  0.11368683772E-12  0.17120000000E+03  0.17120000000E+03 0.  0.
         13    1    1    2    0    0 -0.79938793548E+01  0.10911453879E+02  0.50412248141E+02  0.52195477386E+02  0.10566000000E+00 0. -1.
        994    1    1    2    0    0 -0.19806308665E+02  0.70618489356E+01  0.35190778400E+01  0.17252241443E+03  0.17120000000E+03 0.  0.
        998    1    1    2    0    0  0.27800188020E+02 -0.17973302815E+02  0.14460686703E+04  0.14464821082E+04  0.10000000000E+02 0. -1.
</event>
<event>
 5    1  0.1344348E-008  0.3832859E+03  0.7957747E-01  0.3436975E+00
         13   -1    0    0    0    0  0.00000000000E+00  0.00000000000E+00  0.14999999963E+04  0.15000000000E+04  0.10566000000E+00 0.  1.
        994   -1    0    0    0    0 -0.00000000000E+00 -0.00000000000E+00  0.11368683772E-12  0.17120000000E+03  0.17120000000E+03 0.  0.
         13    1    1    2    0    0  0.83656606115E+01  0.22071926288E+02  0.12705738940E+03  0.12923136451E+03  0.10566000000E+00 0.  1.
        994    1    1    2    0    0  0.14459273263E+00  0.31483256211E+01  0.25164124870E+01  0.17124749690E+03  0.17120000000E+03 0.  0.
        998    1    1    2    0    0 -0.85102533441E+01 -0.25220251909E+02  0.13704261944E+04  0.13707211386E+04  0.10000000000E+02 0.  1.
</event>
<event>
 5    1  0.1344348E-008  0.3856218E+03  0.7957747E-01  0.3427039E+00
         13   -1    0    0    0    0  0.00000000000E+00  0.00000000000E+00  0.14999999963E+04  0.15000000000E+04  0.10566000000E+00 0.  1.
        994   -1    0    0    0    0 -0.00000000000E+00 -0.00000000000E+00  0.11368683772E-12  0.17120000000E+03  0.17120000000E+03 0.  0.
         13    1    1    2    0    0  0.13657637963E+02  0.67478511427E+01  0.87040683113E+02  0.88363772274E+02  0.10566000000E+00 0.  1.
        994    1    1    2    0    0 -0.10964404022E+02 -0.42816076600E+01  0.17766050396E+01  0.17161336383E+03  0.17120000000E+03 0.  0.
        998    1    1    2    0    0 -0.26932339411E+01 -0.24662434826E+01  0.14111827081E+04  0.14112228639E+04  0.10000000000E+02 0.  1.
</event>
<event>
 5    1  0.1344348E-008  0.3835862E+03  0.7957747E-01  0.3435691E+00
         13   -1    0    0    0    0  0.00000000000E+00  0.00000000000E+00  0.14999999963E+04  0.15000000000E+04  0.10566000000E+00 0.  1.
        994   -1    0    0    0    0 -0.00000000000E+00 -0.00000000000E+00  0.11368683772E-12  0.17120000000E+03  0.17120000000E+03 0.  0.
         13    1    1    2    0    0 -0.18974487962E+01  0.11609404964E+02  0.30132027822E+02  0.32347006975E+02  0.10566000000E+00 0.  1.
        994    1    1    2    0    0  0.63772169220E-01  0.27404091934E+01  0.23585340270E+01  0.17123818672E+03  0.17120000000E+03 0.  0.
        998    1    1    2    0    0  0.18336766270E+01 -0.14349814157E+02  0.14675094344E+04  0.14676148063E+04  0.10000000000E+02 0.  1.
</event>
<event>
 5    1  0.1344348E-008  0.3844813E+03  0.7957747E-01  0.3431875E+00
         13   -1    0    0    0    0  0.00000000000E+00  0.00000000000E+00  0.14999999963E+04  0.15000000000E+04  0.10566000000E+00 0. -1.
        994   -1    0    0    0    0 -0.00000000000E+00 -0.00000000000E+00  0.11368683772E-12  0.17120000000E+03  0.17120000000E+03 0.  0.
         13    1    1    2    0    0  0.21014005847E+01  0.11042083056E+02  0.33974030686E+02  0.35785323916E+02  0.10566000000E+00 0. -1.
        994    1    1    2    0    0 -0.54678227873E+01 -0.44596606134E+00  0.19870549537E+01  0.17129939976E+03  0.17120000000E+03 0.  0.
        998    1    1    2    0    0  0.33664222026E+01 -0.10596116995E+02  0.14640389106E+04  0.14641152763E+04  0.10000000000E+02 0. -1.
</event>
<event>
 5    1  0.1344348E-008  0.3808685E+03  0.7957747E-01  0.3447385E+00
         13   -1    0    0    0    0  0.00000000000E+00  0.00000000000E+00  0.14999999963E+04  0.15000000000E+04  0.10566000000E+00 0. -1.
        994   -1    0    0    0    0 -0.00000000000E+00 -0.00000000000E+00  0.11368683772E-12  0.17120000000E+03  0.17120000000E+03 0.  0.
         13    1    1    2    0    0  0.90559659702E+01 -0.72994784171E+01  0.16662784980E+02  0.20321232053E+02  0.10566000000E+00 0. -1.
        994    1    1    2    0    0 -0.96552280972E+01  0.46540234578E+01  0.40784032195E+01  0.17158367270E+03  0.17120000000E+03 0.  0.
        998    1    1    2    0    0  0.59926212703E+00  0.26454549593E+01  0.14792588081E+04  0.14792950952E+04  0.10000000000E+02 0. -1.
</event>
<event>
 5    1  0.1344348E-008  0.3851206E+03  0.7957747E-01  0.3429161E+00
         13   -1    0    0    0    0  0.00000000000E+00  0.00000000000E+00  0.14999999963E+04  0.15000000000E+04  0.10566000000E+00 0.  1.
        994   -1    0    0    0    0 -0.00000000000E+00 -0.00000000000E+00  0.11368683772E-12  0.17120000000E+03  0.17120000000E+03 0.  0.
         13    1    1    2    0    0 -0.67025420352E+01  0.18054961702E+02  0.10661177232E+03  0.10833737523E+03  0.10566000000E+00 0.  1.
        994    1    1    2    0    0  0.10787342737E+02 -0.22639002153E+02  0.36403977588E+01  0.17306525844E+03  0.17120000000E+03 0.  0.
        998    1    1    2    0    0 -0.40848007016E+01  0.45840404509E+01  0.13897478262E+04  0.13897973663E+04  0.10000000000E+02 0.  1.
</event>
<event>
 5    1  0.1344348E-008  0.3718264E+03  0.7957747E-01  0.3487539E+00
         13   -1    0    0    0    0  0.00000000000E+00  0.00000000000E+00  0.14999999963E+04  0.15000000000E+04  0.10566000000E+00 0.  1.
        994   -1    0    0    0    0 -0.00000000000E+00 -0.00000000000E+00  0.11368683772E-12  0.17120000000E+03  0.17120000000E+03 0.  0.
         13    1    1    2    0    0 -0.48860869980E+02 -0.38863021974E+02  0.20961634320E+03  0.21871612102E+03  0.10566000000E+00 0.  1.
        994    1    1    2    0    0  0.42131319179E+02  0.34423170307E+02  0.18557630341E+02  0.18059299088E+03  0.17120000000E+03 0.  0.
        998    1    1    2    0    0  0.67295508007E+01  0.44398516666E+01  0.12718260227E+04  0.12718908881E+04  0.10000000000E+02 0. -1.
</event>
<event>
 5    1  0.1344348E-008  0.3793048E+03  0.7957747E-01  0.3454191E+00
         13   -1    0    0    0    0  0.00000000000E+00  0.00000000000E+00  0.14999999963E+04  0.15000000000E+04  0.10566000000E+00 0.  1.
        994   -1    0    0    0    0 -0.00000000000E+00 -0.00000000000E+00  0.11368683772E-12  0.17120000000E+03  0.17120000000E+03 0.  0.
         13    1    1    2    0    0 -0.11287417778E+02  0.10421329233E+02  0.24187937141E+02  0.28654447652E+02  0.10566000000E+00 0.  1.
        994    1    1    2    0    0  0.92838094220E+01 -0.11707424914E+02  0.52328729156E+01  0.17193043906E+03  0.17120000000E+03 0.  0.
        998    1    1    2    0    0  0.20036083563E+01  0.12860956807E+01  0.14705791862E+04  0.14706151133E+04  0.10000000000E+02 0.  1.
</event>
<event>
 5    1  0.1344348E-008  0.3695839E+03  0.7957747E-01  0.3497806E+00
         13   -1    0    0    0    0  0.00000000000E+00  0.00000000000E+00  0.14999999963E+04  0.15000000000E+04  0.10566000000E+00 0.  1.
        994   -1    0    0    0    0 -0.00000000000E+00 -0.00000000000E+00  0.11368683772E-12  0.17120000000E+03  0.17120000000E+03 0.  0.
         13    1    1    2    0    0 -0.14863765971E+02  0.32348298063E+02  0.55852358040E+02  0.66233231758E+02  0.10566000000E+00 0.  1.
        994    1    1    2    0    0 -0.25977864801E+01 -0.22010529856E+02  0.12435568502E+02  0.17307598124E+03  0.17120000000E+03 0.  0.
        998    1    1    2    0    0  0.17461552451E+02 -0.10337768207E+02  0.14317120697E+04  0.14318907870E+04  0.10000000000E+02 0.  1.
</event>
<event>
 5    1  0.1344348E-008  0.3828577E+03  0.7957747E-01  0.3438809E+00
         13   -1    0    0    0    0  0.00000000000E+00  0.00000000000E+00  0.14999999963E+04  0.15000000000E+04  0.10566000000E+00 0. -1.
        994   -1    0    0    0    0 -0.00000000000E+00 -0.00000000000E+00  0.11368683772E-12  0.17120000000E+03  0.17120000000E+03 0.  0.
         13    1    1    2    0    0 -0.59053138032E+01 -0.20072744568E+02  0.81553356875E+02  0.84194708784E+02  0.10566000000E+00 0. -1.
        994    1    1    2    0    0  0.22285361450E+01  0.10390828741E+02  0.30715806402E+01  0.17155701764E+03  0.17120000000E+03 0.  0.
        998    1    1    2    0    0  0.36767776582E+01  0.96819158271E+01  0.14153750588E+04  0.14154482736E+04  0.10000000000E+02 0. -1.
</event>
<event>
 5    1  0.1344348E-008  0.3770198E+03  0.7957747E-01  0.3464238E+00
         13   -1    0    0    0    0  0.00000000000E+00  0.00000000000E+00  0.14999999963E+04  0.15000000000E+04  0.10566000000E+00 0. -1.
        994   -1    0    0    0    0 -0.00000000000E+00 -0.00000000000E+00  0.11368683772E-12  0.17120000000E+03  0.17120000000E+03 0.  0.
         13    1    1    2    0    0 -0.13449266009E+02  0.25491655939E+02  0.71181438768E+02  0.76795284151E+02  0.10566000000E+00 0. -1.
        994    1    1    2    0    0 -0.20037612271E+01 -0.22917510006E+02  0.74339606251E+01  0.17289861507E+03  0.17120000000E+03 0.  0.
        998    1    1    2    0    0  0.15453027236E+02 -0.25741459324E+01  0.14213845969E+04  0.14215061008E+04  0.10000000000E+02 0. -1.
</event>
<event>
 5    1  0.1344348E-008  0.3811866E+03  0.7957747E-01  0.3446008E+00
         13   -1    0    0    0    0  0.00000000000E+00  0.00000000000E+00  0.14999999963E+04  0.15000000000E+04  0.10566000000E+00 0.  1.
        994   -1    0    0    0    0 -0.00000000000E+00 -0.00000000000E+00  0.11368683772E-12  0.17120000000E+03  0.17120000000E+03 0.  0.
         13    1    1    2    0    0  0.47625048325E+02 -0.84888247817E+02  0.23849621140E+03  0.25759389329E+03  0.10566000000E+00 0.  1.
        994    1    1    2    0    0 -0.42532107376E+02  0.78366645974E+02  0.46521875911E+02  0.19855486974E+03  0.17120000000E+03 0.  0.
        998    1    1    2    0    0 -0.50929409489E+01  0.65216018436E+01  0.12149819090E+04  0.12150512370E+04  0.10000000000E+02 0.  1.
</event>
<event>
 5    1  0.1344348E-008  0.3782849E+03  0.7957747E-01  0.3458661E+00
         13   -1    0    0    0    0  0.00000000000E+00  0.00000000000E+00  0.14999999963E+04  0.15000000000E+04  0.10566000000E+00 0. -1.
        994   -1    0    0    0    0 -0.00000000000E+00 -0.00000000000E+00  0.11368683772E-12  0.17120000000E+03  0.17120000000E+03 0.  0.
         13    1    1    2    0    0  0.26552017197E+01  0.13726780689E+02  0.17278810505E+02  0.22227079447E+02  0.10566000000E+00 0. -1.
        994    1    1    2    0    0 -0.37508213155E+01 -0.12071159069E+02  0.55387958239E+01  0.17175534868E+03  0.17120000000E+03 0.  0.
        998    1    1    2    0    0  0.10956195958E+01 -0.16556216199E+01  0.14771823900E+04  0.14772175719E+04  0.10000000000E+02 0.  0.
</event>
<event>
 5    1  0.1344348E-008  0.3779949E+03  0.7957747E-01  0.3459936E+00
         13   -1    0    0    0    0  0.00000000000E+00  0.00000000000E+00  0.14999999963E+04  0.15000000000E+04  0.10566000000E+00 0.  1.
        994   -1    0    0    0    0 -0.00000000000E+00 -0.00000000000E+00  0.11368683772E-12  0.17120000000E+03  0.17120000000E+03 0.  0.
         13    1    1    2    0    0 -0.31281356618E+02  0.43713365063E+02  0.26742045367E+03  0.27276930136E+03  0.10566000000E+00 0.  1.
        994    1    1    2    0    0  0.22531883423E+02 -0.28125693385E+02  0.95317409160E+01  0.17521139941E+03  0.17120000000E+03 0.  0.
        998    1    1    2    0    0  0.87494731947E+01 -0.15587671677E+02  0.12230478017E+04  0.12232192992E+04  0.10000000000E+02 0.  1.
</event>
<event>
 5    1  0.1344348E-008  0.3838964E+03  0.7957747E-01  0.3434366E+00
         13   -1    0    0    0    0  0.00000000000E+00  0.00000000000E+00  0.14999999963E+04  0.15000000000E+04  0.10566000000E+00 0. -1.
        994   -1    0    0    0    0 -0.00000000000E+00 -0.00000000000E+00  0.11368683772E-12  0.17120000000E+03  0.17120000000E+03 0.  0.
         13    1    1    2    0    0  0.46189651567E+01  0.24077032001E+02  0.14284090629E+03  0.14492954834E+03  0.10566000000E+00 0. -1.
        994    1    1    2    0    0  0.11059422570E+02 -0.12875310414E+02  0.31304492343E+01  0.17206778943E+03  0.17120000000E+03 0.  0.
        998    1    1    2    0    0 -0.15678387727E+02 -0.11201721587E+02  0.13540286408E+04  0.13542026622E+04  0.10000000000E+02 0. -1.
</event>
<event>
 5    1  0.1344348E-008  0.3861725E+03  0.7957747E-01  0.3424715E+00
         13   -1    0    0    0    0  0.00000000000E+00  0.00000000000E+00  0.14999999963E+04  0.15000000000E+04  0.10566000000E+00 0.  1.
        994   -1    0    0    0    0 -0.00000000000E+00 -0.00000000000E+00  0.11368683772E-12  0.17120000000E+03  0.17120000000E+03 0.  0.
         13    1    1    2    0    0  0.10383271317E+02  0.52234901807E+01  0.65347715305E+02  0.66373430170E+02  0.10566000000E+00 0.  1.
        994    1    1    2    0    0 -0.41981382060E+01 -0.89755132046E+01  0.13708439687E+01  0.17149199228E+03  0.17120000000E+03 0.  0.
        998    1    1    2    0    0 -0.61851331112E+01  0.37520230240E+01  0.14332814370E+04  0.14333345776E+04  0.10000000000E+02 0.  1.
</event>
<event>
 5    1  0.1344348E-008  0.3793417E+03  0.7957747E-01  0.3454030E+00
         13   -1    0    0    0    0  0.00000000000E+00  0.00000000000E+00  0.14999999963E+04  0.15000000000E+04  0.10566000000E+00 0.  1.
        994   -1    0    0    0    0 -0.00000000000E+00 -0.00000000000E+00  0.11368683772E-12  0.17120000000E+03  0.17120000000E+03 0.  0.
         13    1    1    2    0    0  0.45025006790E+02  0.20376909845E+02  0.25707562027E+03  0.26178303114E+03  0.10566000000E+00 0.  1.
        994    1    1    2    0    0 -0.14244397762E+02 -0.65750635895E+02  0.19781359842E+02  0.18500484098E+03  0.17120000000E+03 0.  0.
        998    1    1    2    0    0 -0.30780609028E+02  0.45373726050E+02  0.12231430162E+04  0.12244121279E+04  0.10000000000E+02 0.  1.
</event>
<event>
 5    1  0.1344348E-008  0.3837427E+03  0.7957747E-01  0.3435022E+00
         13   -1    0    0    0    0  0.00000000000E+00  0.00000000000E+00  0.14999999963E+04  0.15000000000E+04  0.10566000000E+00 0.  1.
        994   -1    0    0    0    0 -0.00000000000E+00 -0.00000000000E+00  0.11368683772E-12  0.17120000000E+03  0.17120000000E+03 0.  0.
         13    1    1    2    0    0 -0.14977760202E+02 -0.21157802335E+02  0.14514577852E+03  0.14744251113E+03  0.10566000000E+00 0.  1.
        994    1    1    2    0    0  0.11981457332E+02  0.14016532742E+02  0.33792502312E+01  0.17222333710E+03  0.17120000000E+03 0.  0.
        998    1    1    2    0    0  0.29963028699E+01  0.71412695931E+01  0.13514749675E+04  0.13515341518E+04  0.10000000000E+02 0.  1.
</event>
<event>
 5    1  0.1344348E-008  0.3719206E+03  0.7957747E-01  0.3487111E+00
         13   -1    0    0    0    0  0.00000000000E+00  0.00000000000E+00  0.14999999963E+04  0.15000000000E+04  0.10566000000E+00 0. -1.
        994   -1    0    0    0    0 -0.00000000000E+00 -0.00000000000E+00  0.11368683772E-12  0.17120000000E+03  0.17120000000E+03 0.  0.
         13    1    1    2    0    0  0.15211991318E+02 -0.47079387788E+01  0.11586643841E+02  0.19693421413E+02  0.10566000000E+00 0. -1.
        994    1    1    2    0    0 -0.14080382954E+02  0.29775669674E+01  0.89804144700E+01  0.17203839959E+03  0.17120000000E+03 0.  0.
        998    1    1    2    0    0 -0.11316083636E+01  0.17303718115E+01  0.14794329380E+04  0.14794681790E+04  0.10000000000E+02 0. -1.
</event>
<event>
 5    1  0.1344348E-008  0.3798794E+03  0.7957747E-01  0.3451684E+00
         13   -1    0    0    0    0  0.00000000000E+00  0.00000000000E+00  0.14999999963E+04  0.15000000000E+04  0.10566000000E+00 0.  1.
        994   -1    0    0    0    0 -0.00000000000E+00 -0.00000000000E+00  0.11368683772E-12  0.17120000000E+03  0.17120000000E+03 0.  0.
         13    1    1    2    0    0  0.76193716767E+01  0.90652969384E+01  0.14727868125E+02  0.18898563355E+02  0.10566000000E+00 0.  1.
        994    1    1    2    0    0 -0.16370752512E+02 -0.38374517902E+01  0.51400921418E+01  0.17210051749E+03  0.17120000000E+03 0.  0.
        998    1    1    2    0    0  0.87513808351E+01 -0.52278451482E+01  0.14801320360E+04  0.14802009192E+04  0.10000000000E+02 0.  1.
</event>
<event>
 5    1  0.1344348E-008  0.3826870E+03  0.7957747E-01  0.3439542E+00
         13   -1    0    0    0    0  0.00000000000E+00  0.00000000000E+00  0.14999999963E+04  0.15000000000E+04  0.10566000000E+00 0. -1.
        994   -1    0    0    0    0 -0.00000000000E+00 -0.00000000000E+00  0.11368683772E-12  0.17120000000E+03  0.17120000000E+03 0.  0.
         13    1    1    2    0    0  0.17734283382E+02  0.59980241726E+01  0.59882309944E+02  0.62740603354E+02  0.10566000000E+00 0. -1.
        994    1    1    2    0    0 -0.21426151685E+02  0.14019169283E+01  0.43120585623E+01  0.17259513086E+03  0.17120000000E+03 0.  0.
        998    1    1    2    0    0  0.36918683031E+01 -0.73999411008E+01  0.14358056278E+04  0.14358642658E+04  0.10000000000E+02 0. -1.
</event>
<event>
 5    1  0.1344348E-008  0.3811872E+03  0.7957747E-01  0.3446006E+00
         13   -1    0    0    0    0  0.00000000000E+00  0.00000000000E+00  0.14999999963E+04  0.15000000000E+04  0.10566000000E+00 0.  1.
        994   -1    0    0    0    0 -0.00000000000E+00 -0.00000000000E+00  0.11368683772E-12  0.17120000000E+03  0.17120000000E+03 0.  0.
         13    1    1    2    0    0  0.17474808908E+02  0.25975417786E+02  0.13603913121E+03  0.13959494139E+03  0.10566000000E+00 0.  1.
        994    1    1    2    0    0 -0.22413337773E+02 -0.95269204513E+01  0.55125750499E+01  0.17301141120E+03  0.17120000000E+03 0.  0.
        998    1    1    2    0    0  0.49385288656E+01 -0.16448497334E+02  0.13584482900E+04  0.13585936474E+04  0.10000000000E+02 0.  1.
</event>
<event>
 5    1  0.1344348E-008  0.3745563E+03  0.7957747E-01  0.3475210E+00
         13   -1    0    0    0    0  0.00000000000E+00  0.00000000000E+00  0.14999999963E+04  0.15000000000E+04  0.10566000000E+00 0. -1.
        994   -1    0    0    0    0 -0.00000000000E+00 -0.00000000000E+00  0.11368683772E-12  0.17120000000E+03  0.17120000000E+03 0.  0.
         13    1    1    2    0    0 -0.86835992130E+01 -0.15171517586E+02  0.53928813732E+01  0.18294102183E+02  0.10566000000E+00 0. -1.
        994    1    1    2    0    0  0.20289491425E+02  0.58461483942E+01  0.14954082725E+02  0.17314417548E+03  0.17120000000E+03 0.  0.
        998    1    1    2    0    0 -0.11605892212E+02  0.93253691918E+01  0.14796530322E+04  0.14797617223E+04  0.10000000000E+02 0. -1.
</event>
<event>
 5    1  0.1344348E-008  0.3712264E+03  0.7957747E-01  0.3490274E+00
         13   -1    0    0    0    0  0.00000000000E+00  0.00000000000E+00  0.14999999963E+04  0.15000000000E+04  0.10566000000E+00 0. -1.
        994   -1    0    0    0    0 -0.00000000000E+00 -0.00000000000E+00  0.11368683772E-12  0.17120000000E+03  0.17120000000E+03 0.  0.
         13    1    1    2    0    0 -0.26214990781E+02  0.13318071559E+02  0.45403903579E+02  0.54093644691E+02  0.10566000000E+00 0. -1.
        994    1    1    2    0    0  0.27107944242E+02 -0.12270725704E+02  0.11684079339E+02  0.17415903382E+03  0.17120000000E+03 0.  0.
        998    1    1    2    0    0 -0.89295346054E+00 -0.10473458548E+01  0.14429120134E+04  0.14429473215E+04  0.10000000000E+02 0. -1.
</event>
<event>
 5    1  0.1344348E-008  0.3848938E+03  0.7957747E-01  0.3430123E+00
         13   -1    0    0    0    0  0.00000000000E+00  0.00000000000E+00  0.14999999963E+04  0.15000000000E+04  0.10566000000E+00 0. -1.
        994   -1    0    0    0    0 -0.00000000000E+00 -0.00000000000E+00  0.11368683772E-12  0.17120000000E+03  0.17120000000E+03 0.  0.
         13    1    1    2    0    0 -0.10309013313E+02 -0.82138559829E+01  0.51358790192E+02  0.53023388044E+02  0.10566000000E+00 0. -1.
        994    1    1    2    0    0 -0.18487369898E+01  0.17695594632E+02  0.27249666317E+01  0.17214359512E+03  0.17120000000E+03 0.  0.
        998    1    1    2    0    0  0.12157750303E+02 -0.94817386489E+01  0.14459162395E+04  0.14460330168E+04  0.10000000000E+02 0. -1.
</event>
<event>
 5    1  0.1344348E-008  0.3803051E+03  0.7957747E-01  0.3449831E+00
         13   -1    0    0    0    0  0.00000000000E+00  0.00000000000E+00  0.14999999963E+04  0.15000000000E+04  0.10566000000E+00 0. -1.
        994   -1    0    0    0    0 -0.00000000000E+00 -0.00000000000E+00  0.11368683772E-12  0.17120000000E+03  0.17120000000E+03 0.  0.
         13    1    1    2    0    0  0.19558514579E+02 -0.14843683116E+02  0.11886217787E+02  0.27279365064E+02  0.10566000000E+00 0. -1.
        994    1    1    2    0    0 -0.18826314402E+02 -0.37157406477E+02  0.22815527339E+02  0.17766567271E+03  0.17120000000E+03 0.  0.
        998    1    1    2    0    0 -0.73220017644E+00  0.52001089593E+02  0.14652982512E+04  0.14662549622E+04  0.10000000000E+02 0. -1.
</event>
<event>
 5    1  0.1344348E-008  0.3704285E+03  0.7957747E-01  0.3493924E+00
         13   -1    0    0    0    0  0.00000000000E+00  0.00000000000E+00  0.14999999963E+04  0.15000000000E+04  0.10566000000E+00 0.  1.
        994   -1    0    0    0    0 -0.00000000000E+00 -0.00000000000E+00  0.11368683772E-12  0.17120000000E+03  0.17120000000E+03 0.  0.
         13    1    1    2    0    0 -0.42693902950E+02  0.37896490227E+01  0.93795062263E+02  0.10312446682E+03  0.10566000000E+00 0.  1.
        994    1    1    2    0    0  0.39726454825E+02 -0.25687500945E+01  0.14536667527E+02  0.17636763987E+03  0.17120000000E+03 0.  0.
        998    1    1    2    0    0  0.29674481250E+01 -0.12208989282E+01  0.13916682665E+04  0.13917078933E+04  0.10000000000E+02 0.  1.
</event>
<event>
 5    1  0.1344348E-008  0.3124743E+03  0.7957747E-01  0.3810801E+00
         13   -1    0    0    0    0  0.00000000000E+00  0.00000000000E+00  0.14999999963E+04  0.15000000000E+04  0.10566000000E+00 0. -1.
        994   -1    0    0    0    0 -0.00000000000E+00 -0.00000000000E+00  0.11368683772E-12  0.17120000000E+03  0.17120000000E+03 0.  0.
         13    1    1    2    0    0 -0.85201724026E+02 -0.14522325156E+03  0.89365308967E+03  0.90937615012E+03  0.10566000000E+00 0. -1.
        994    1    1    2    0    0  0.75643030693E+02  0.55526922006E+02  0.54681275163E+02  0.20274266698E+03  0.17120000000E+03 0.  0.
        998    1    1    2    0    0  0.95586933333E+01  0.89696329556E+02  0.55166563144E+03  0.55908118290E+03  0.10000000000E+02 0.  1.
</event>
<event>
 5    1  0.1344348E-008  0.3015006E+03  0.7957747E-01  0.3885364E+00
         13   -1    0    0    0    0  0.00000000000E+00  0.00000000000E+00  0.14999999963E+04  0.15000000000E+04  0.10566000000E+00 0.  1.
        994   -1    0    0    0    0 -0.00000000000E+00 -0.00000000000E+00  0.11368683772E-12  0.17120000000E+03  0.17120000000E+03 0.  0.
         13    1    1    2    0    0 -0.27953837279E+02 -0.18696187279E+03  0.72346677561E+03  0.74775687591E+03  0.10566000000E+00 0.  1.
        994    1    1    2    0    0  0.67642368564E+02  0.13203602453E+03  0.10721016560E+03  0.25062414371E+03  0.17120000000E+03 0.  0.
        998    1    1    2    0    0 -0.39688531285E+02  0.54925848257E+02  0.66932305506E+03  0.67281898038E+03  0.10000000000E+02 0.  1.
</event>
<event>
 5    1  0.1344348E-008  0.3805965E+03  0.7957747E-01  0.3448565E+00
         13   -1    0    0    0    0  0.00000000000E+00  0.00000000000E+00  0.14999999963E+04  0.15000000000E+04  0.10566000000E+00 0. -1.
        994   -1    0    0    0    0 -0.00000000000E+00 -0.00000000000E+00  0.11368683772E-12  0.17120000000E+03  0.17120000000E+03 0.  0.
         13    1    1    2    0    0  0.78731634903E+01  0.54811051932E+02  0.83119929474E+02  0.99875782635E+02  0.10566000000E+00 0. -1.
        994    1    1    2    0    0 -0.92955522113E+01 -0.49640669226E+02  0.25976208109E+02  0.18037407441E+03  0.17120000000E+03 0.  0.
        998    1    1    2    0    0  0.14223887211E+01 -0.51703827055E+01  0.13909038587E+04  0.13909501430E+04  0.10000000000E+02 0. -1.
</event>
<event>
 5    1  0.1344348E-008  0.3853635E+03  0.7957747E-01  0.3428132E+00
         13   -1    0    0    0    0  0.00000000000E+00  0.00000000000E+00  0.14999999963E+04  0.15000000000E+04  0.10566000000E+00 0.  1.
        994   -1    0    0    0    0 -0.00000000000E+00 -0.00000000000E+00  0.11368683772E-12  0.17120000000E+03  0.17120000000E+03 0.  0.
         13    1    1    2    0    0 -0.10040181298E+02 -0.87748597461E+01  0.62802665987E+02  0.64202721307E+02  0.10566000000E+00 0.  1.
        994    1    1    2    0    0  0.21680255518E+01  0.63061856086E+01  0.15958403650E+01  0.17133725520E+03  0.17120000000E+03 0.  0.
        998    1    1    2    0    0  0.78721557466E+01  0.24686741374E+01  0.14356014899E+04  0.14356600235E+04  0.10000000000E+02 0.  1.
</event>
<event>
 5    1  0.1344348E-008  0.3836021E+03  0.7957747E-01  0.3435623E+00
         13   -1    0    0    0    0  0.00000000000E+00  0.00000000000E+00  0.14999999963E+04  0.15000000000E+04  0.10566000000E+00 0. -1.
        994   -1    0    0    0    0 -0.00000000000E+00 -0.00000000000E+00  0.11368683772E-12  0.17120000000E+03  0.17120000000E+03 0.  0.
         13    1    1    2    0    0 -0.33826573082E+01  0.13334066914E+02  0.43974091032E+02  0.46075715481E+02  0.10566000000E+00 0. -1.
        994    1    1    2    0    0 -0.64058681470E+01  0.10152696748E+02  0.28020105775E+01  0.17164324531E+03  0.17120000000E+03 0.  0.
        998    1    1    2    0    0  0.97885254552E+01 -0.23486763662E+02  0.14532238947E+04  0.14534810392E+04  0.10000000000E+02 0. -1.
</event>
<event>
 5    1  0.1344348E-008  0.3858839E+03  0.7957747E-01  0.3425932E+00
         13   -1    0    0    0    0  0.00000000000E+00  0.00000000000E+00  0.14999999963E+04  0.15000000000E+04  0.10566000000E+00 0.  1.
        994   -1    0    0    0    0 -0.00000000000E+00 -0.00000000000E+00  0.11368683772E-12  0.17120000000E+03  0.17120000000E+03 0.  0.
         13    1    1    2    0    0  0.94954177301E+01 -0.78150487859E+01  0.65622466567E+02  0.66764940109E+02  0.10566000000E+00 0.  1.
        994    1    1    2    0    0  0.83659297422E+00  0.89741280167E+01  0.14583699149E+01  0.17144329005E+03  0.17120000000E+03 0.  0.
        998    1    1    2    0    0 -0.10332010704E+02 -0.11590792308E+01  0.14329191598E+04  0.14329917698E+04  0.10000000000E+02 0.  1.
</event>
<event>
 5    1  0.1344348E-008  0.3859268E+03  0.7957747E-01  0.3425751E+00
         13   -1    0    0    0    0  0.00000000000E+00  0.00000000000E+00  0.14999999963E+04  0.15000000000E+04  0.10566000000E+00 0.  1.
        994   -1    0    0    0    0 -0.00000000000E+00 -0.00000000000E+00  0.11368683772E-12  0.17120000000E+03  0.17120000000E+03 0.  0.
         13    1    1    2    0    0  0.94990027593E+01 -0.89643199797E+01  0.75038018136E+02  0.76166301052E+02  0.10566000000E+00 0.  1.
        994    1    1    2    0    0 -0.82137289319E+01  0.45180443494E+00  0.13926084566E+01  0.17140317625E+03  0.17120000000E+03 0.  0.
        998    1    1    2    0    0 -0.12852738274E+01  0.85125155448E+01  0.14235693697E+04  0.14236305227E+04  0.10000000000E+02 0.  1.
</event>
<event>
 5    1  0.1344348E-008  0.3811985E+03  0.7957747E-01  0.3445956E+00
         13   -1    0    0    0    0  0.00000000000E+00  0.00000000000E+00  0.14999999963E+04  0.15000000000E+04  0.10566000000E+00 0.  1.
        994   -1    0    0    0    0 -0.00000000000E+00 -0.00000000000E+00  0.11368683772E-12  0.17120000000E+03  0.17120000000E+03 0.  0.
         13    1    1    2    0    0  0.12490091101E+02  0.73753244121E+00  0.20317863445E+02  0.23861539532E+02  0.10566000000E+00 0.  1.
        994    1    1    2    0    0 -0.16347382471E+02  0.28705905800E+01  0.44471677506E+01  0.17206014793E+03  0.17120000000E+03 0.  0.
        998    1    1    2    0    0  0.38572913700E+01 -0.36081230212E+01  0.14752349651E+04  0.14752783125E+04  0.10000000000E+02 0.  1.
</event>
<event>
 5    1  0.1344348E-008  0.3810927E+03  0.7957747E-01  0.3446414E+00
         13   -1    0    0    0    0  0.00000000000E+00  0.00000000000E+00  0.14999999963E+04  0.15000000000E+04  0.10566000000E+00 0.  1.
        994   -1    0    0    0    0 -0.00000000000E+00 -0.00000000000E+00  0.11368683772E-12  0.17120000000E+03  0.17120000000E+03 0.  0.
         13    1    1    2    0    0  0.17474593944E+02 -0.12090744482E+02  0.65351505646E+02  0.68719560460E+02  0.10566000000E+00 0.  1.
        994    1    1    2    0    0 -0.15012422753E+01 -0.31369343086E+00  0.35903993993E+01  0.17124451261E+03  0.17120000000E+03 0.  0.
        998    1    1    2    0    0 -0.15973351669E+02  0.12404437913E+02  0.14310580912E+04  0.14312359269E+04  0.10000000000E+02 0.  1.
</event>
<event>
 5    1  0.1344348E-008  0.3751864E+03  0.7957747E-01  0.3472390E+00
         13   -1    0    0    0    0  0.00000000000E+00  0.00000000000E+00  0.14999999963E+04  0.15000000000E+04  0.10566000000E+00 0. -1.
        994   -1    0    0    0    0 -0.00000000000E+00 -0.00000000000E+00  0.11368683772E-12  0.17120000000E+03  0.17120000000E+03 0.  0.
         13    1    1    2    0    0  0.13035867841E+02 -0.10469025812E+02  0.18299128756E+02  0.24787166621E+02  0.10566000000E+00 0. -1.
        994    1    1    2    0    0 -0.17241614855E+02  0.71469650195E+00  0.75952731093E+01  0.17223504942E+03  0.17120000000E+03 0.  0.
        998    1    1    2    0    0  0.42057470143E+01  0.97543293101E+01  0.14741055944E+04  0.14741777840E+04  0.10000000000E+02 0. -1.
</event>
<event>
 5    1  0.1344348E-008  0.3835057E+03  0.7957747E-01  0.3436034E+00
         13   -1    0    0    0    0  0.00000000000E+00  0.00000000000E+00  0.14999999963E+04  0.15000000000E+04  0.10566000000E+00 0.  1.
        994   -1    0    0    0    0 -0.00000000000E+00 -0.00000000000E+00  0.11368683772E-12  0.17120000000E+03  0.17120000000E+03 0.  0.
         13    1    1    2    0    0 -0.23227695167E+02  0.49605644876E+01  0.13075149024E+03  0.13289129538E+03  0.10566000000E+00 0.  1.
        994    1    1    2    0    0  0.19074845217E+01  0.18961413186E+01  0.23977527494E+01  0.17123791364E+03  0.17120000000E+03 0.  0.
        998    1    1    2    0    0  0.21320210646E+02 -0.68567058062E+01  0.13668507533E+04  0.13670707910E+04  0.10000000000E+02 0.  1.
</event>
<event>
 5    1  0.1344348E-008  0.3861691E+03  0.7957747E-01  0.3424729E+00
         13   -1    0    0    0    0  0.00000000000E+00  0.00000000000E+00  0.14999999963E+04  0.15000000000E+04  0.10566000000E+00 0. -1.
        994   -1    0    0    0    0 -0.00000000000E+00 -0.00000000000E+00  0.11368683772E-12  0.17120000000E+03  0.17120000000E+03 0.  0.
         13    1    1    2    0    0  0.11493381501E+02 -0.31929210586E+01  0.70536214658E+02  0.71537831289E+02  0.10566000000E+00 0. -1.
        994    1    1    2    0    0 -0.68832288564E+01 -0.67836636411E+01  0.13568335337E+01  0.17147792257E+03  0.17120000000E+03 0.  0.
        998    1    1    2    0    0 -0.46101526443E+01  0.99765846997E+01  0.14281069481E+04  0.14281842461E+04  0.10000000000E+02 0. -1.
</event>
<event>
 5    1  0.1344348E-008  0.3802326E+03  0.7957747E-01  0.3450146E+00
         13   -1    0    0    0    0  0.00000000000E+00  0.00000000000E+00  0.14999999963E+04  0.15000000000E+04  0.10566000000E+00 0.  1.
        994   -1    0    0    0    0 -0.00000000000E+00 -0.00000000000E+00  0.11368683772E-12  0.17120000000E+03  0.17120000000E+03 0.  0.
         13    1    1    2    0    0 -0.41624422654E+01 -0.36284798673E+02  0.14613917185E+03  0.15063393128E+03  0.10566000000E+00 0.  1.
        994    1    1    2    0    0  0.48958311804E+01  0.40441702734E+02  0.95790328660E+01  0.17624045606E+03  0.17120000000E+03 0.  0.
        998    1    1    2    0    0 -0.73338891497E+00 -0.41569040612E+01  0.13442817916E+04  0.13443256127E+04  0.10000000000E+02 0.  1.
</event>
<event>
 5    1  0.1344348E-008  0.3736321E+03  0.7957747E-01  0.3479363E+00
         13   -1    0    0    0    0  0.00000000000E+00  0.00000000000E+00  0.14999999963E+04  0.15000000000E+04  0.10566000000E+00 0.  1.
        994   -1    0    0    0    0 -0.00000000000E+00 -0.00000000000E+00  0.11368683772E-12  0.17120000000E+03  0.17120000000E+03 0.  0.
         13    1    1    2    0    0 -0.42478319537E+02 -0.36844224663E+02  0.21197844368E+03  0.21930977240E+03  0.10566000000E+00 0.  1.
        994    1    1    2    0    0 -0.66093108524E+01  0.60941893953E+02  0.20325450734E+02  0.18297584916E+03  0.17120000000E+03 0.  0.
        998    1    1    2    0    0  0.49087630390E+02 -0.24097669290E+02  0.12676961019E+04  0.12689143784E+04  0.10000000000E+02 0.  1.
</event>
<event>
 5    1  0.1344348E-008  0.3843304E+03  0.7957747E-01  0.3432517E+00
         13   -1    0    0    0    0  0.00000000000E+00  0.00000000000E+00  0.14999999963E+04  0.15000000000E+04  0.10566000000E+00 0.  1.
        994   -1    0    0    0    0 -0.00000000000E+00 -0.00000000000E+00  0.11368683772E-12  0.17120000000E+03  0.17120000000E+03 0.  0.
         13    1    1    2    0    0 -0.17751744939E+02 -0.62273144479E+01  0.87828587240E+02  0.89820798227E+02  0.10566000000E+00 0.  1.
        994    1    1    2    0    0  0.13603716917E+02  0.77820795214E+01  0.27728618907E+01  0.17193821750E+03  0.17120000000E+03 0.  0.
        998    1    1    2    0    0  0.41480280219E+01 -0.15547650735E+01  0.14093985471E+04  0.14094409843E+04  0.10000000000E+02 0.  1.
</event>
<event>
 5    1  0.1344348E-008  0.3834877E+03  0.7957747E-01  0.3436111E+00
         13   -1    0    0    0    0  0.00000000000E+00  0.00000000000E+00  0.14999999963E+04  0.15000000000E+04  0.10566000000E+00 0.  1.
        994   -1    0    0    0    0 -0.00000000000E+00 -0.00000000000E+00  0.11368683772E-12  0.17120000000E+03  0.17120000000E+03 0.  0.
         13    1    1    2    0    0  0.16633783046E+02 -0.54370664162E+01  0.59281321147E+02  0.61810441113E+02  0.10566000000E+00 0.  1.
        994    1    1    2    0    0 -0.23141550006E+02  0.11178238156E+02  0.45686623907E+01  0.17317851201E+03  0.17120000000E+03 0.  0.
        998    1    1    2    0    0  0.65077669597E+01 -0.57411717398E+01  0.14361500127E+04  0.14362110469E+04  0.10000000000E+02 0.  1.
</event>
<event>
 5    1  0.1344348E-008  0.3893240E+03  0.7957747E-01  0.3411538E+00
         13   -1    0    0    0    0  0.00000000000E+00  0.00000000000E+00  0.14999999963E+04  0.15000000000E+04  0.10566000000E+00 0. -1.
        994   -1    0    0    0    0 -0.00000000000E+00 -0.00000000000E+00  0.11368683772E-12  0.17120000000E+03  0.17120000000E+03 0.  0.
         13    1    1    2    0    0 -0.27988104304E+02  0.81901538322E+01  0.10408412349E+02  0.30963830738E+02  0.10566000000E+00 0. -1.
        994    1    1    2    0    0  0.30475463774E+02 -0.10025123480E+02  0.25417700375E+02  0.17602487462E+03  0.17120000000E+03 0.  0.
        998    1    1    2    0    0 -0.24873594702E+01  0.18349696480E+01  0.14641738836E+04  0.14642112946E+04  0.10000000000E+02 0. -1.
</event>
<event>
 5    1  0.1344348E-008  0.3722282E+03  0.7957747E-01  0.3485713E+00
         13   -1    0    0    0    0  0.00000000000E+00  0.00000000000E+00  0.14999999963E+04  0.15000000000E+04  0.10566000000E+00 0.  1.
        994   -1    0    0    0    0 -0.00000000000E+00 -0.00000000000E+00  0.11368683772E-12  0.17120000000E+03  0.17120000000E+03 0.  0.
         13    1    1    2    0    0 -0.49191062415E+02 -0.78640317490E+01  0.15024702465E+03  0.15829018668E+03  0.10566000000E+00 0.  1.
        994    1    1    2    0    0  0.29762437736E+02  0.26599097518E+01  0.11178923794E+02  0.17414731166E+03  0.17120000000E+03 0.  0.
        998    1    1    2    0    0  0.19428624679E+02  0.52041219972E+01  0.13385740478E+04  0.13387625017E+04  0.10000000000E+02 0.  1.
</event>
<event>
 5    1  0.1344348E-008  0.3846259E+03  0.7957747E-01  0.3431260E+00
         13   -1    0    0    0    0  0.00000000000E+00  0.00000000000E+00  0.14999999963E+04  0.15000000000E+04  0.10566000000E+00 0.  1.
        994   -1    0    0    0    0 -0.00000000000E+00 -0.00000000000E+00  0.11368683772E-12  0.17120000000E+03  0.17120000000E+03 0.  0.
         13    1    1    2    0    0 -0.13845249404E+02 -0.67224654696E+01  0.63780327419E+02  0.65611156085E+02  0.10566000000E+00 0.  1.
        994    1    1    2    0    0  0.12756441793E+02  0.44417770617E+01  0.24169793259E+01  0.17174905525E+03  0.17120000000E+03 0.  0.
        998    1    1    2    0    0  0.10888076112E+01  0.22806884080E+01  0.14338026895E+04  0.14338397887E+04  0.10000000000E+02 0.  1.
</event>
<event>
 5    1  0.1344348E-008  0.3726115E+03  0.7957747E-01  0.3483974E+00
         13   -1    0    0    0    0  0.00000000000E+00  0.00000000000E+00  0.14999999963E+04  0.15000000000E+04  0.10566000000E+00 0.  1.
        994   -1    0    0    0    0 -0.00000000000E+00 -0.00000000000E+00  0.11368683772E-12  0.17120000000E+03  0.17120000000E+03 0.  0.
         13    1    1    2    0    0  0.41228311164E+02 -0.44821883034E+02  0.27643699143E+03  0.28306571010E+03  0.10566000000E+00 0.  1.
        994    1    1    2    0    0 -0.10633706035E+02  0.30952443831E+01  0.83308203139E+01  0.17176000352E+03  0.17120000000E+03 0.  0.
        998    1    1    2    0    0 -0.30594605129E+02  0.41726638651E+02  0.12152321845E+04  0.12163742864E+04  0.10000000000E+02 0.  1.
</event>
<event>
 5    1  0.1344348E-008  0.3728036E+03  0.7957747E-01  0.3483105E+00
         13   -1    0    0    0    0  0.00000000000E+00  0.00000000000E+00  0.14999999963E+04  0.15000000000E+04  0.10566000000E+00 0.  1.
        994   -1    0    0    0    0 -0.00000000000E+00 -0.00000000000E+00  0.11368683772E-12  0.17120000000E+03  0.17120000000E+03 0.  0.
         13    1    1    2    0    0 -0.18466332217E+02 -0.61365140587E+01  0.20827989066E+02  0.28504008892E+02  0.10566000000E+00 0.  1.
        994    1    1    2    0    0  0.12341219774E+02  0.11447340796E+02  0.87819239502E+01  0.17224955589E+03  0.17120000000E+03 0.  0.
        998    1    1    2    0    0  0.61251124432E+01 -0.53108267373E+01  0.14703900833E+04  0.14704464352E+04  0.10000000000E+02 0.  1.
</event>
<event>
 5    1  0.1344348E-008  0.3760841E+03  0.7957747E-01  0.3468389E+00
         13   -1    0    0    0    0  0.00000000000E+00  0.00000000000E+00  0.14999999963E+04  0.15000000000E+04  0.10566000000E+00 0. -1.
        994   -1    0    0    0    0 -0.00000000000E+00 -0.00000000000E+00  0.11368683772E-12  0.17120000000E+03  0.17120000000E+03 0.  0.
         13    1    1    2    0    0  0.24587875429E+02 -0.22138717173E+02  0.85369955077E+02  0.91557232429E+02  0.10566000000E+00 0. -1.
        994    1    1    2    0    0 -0.18525242027E+02  0.17775647873E+02  0.83587542891E+01  0.17331608991E+03  0.17120000000E+03 0.  0.
        998    1    1    2    0    0 -0.60626334021E+01  0.43630692996E+01  0.14062712869E+04  0.14063266777E+04  0.10000000000E+02 0. -1.
</event>
<event>
 5    1  0.1344348E-008  0.3857013E+03  0.7957747E-01  0.3426703E+00
         13   -1    0    0    0    0  0.00000000000E+00  0.00000000000E+00  0.14999999963E+04  0.15000000000E+04  0.10566000000E+00 0.  1.
        994   -1    0    0    0    0 -0.00000000000E+00 -0.00000000000E+00  0.11368683772E-12  0.17120000000E+03  0.17120000000E+03 0.  0.
         13    1    1    2    0    0 -0.13111480110E+02 -0.67461291136E+01  0.83697315684E+02  0.84986310577E+02  0.10566000000E+00 0.  1.
        994    1    1    2    0    0  0.93864522799E+01  0.82424082228E+01  0.17945423443E+01  0.17166450758E+03  0.17120000000E+03 0.  0.
        998    1    1    2    0    0  0.37250278297E+01 -0.14962791092E+01  0.14145081383E+04  0.14145491818E+04  0.10000000000E+02 0.  1.
</event>
<event>
 5    1  0.1344348E-008  0.3838061E+03  0.7957747E-01  0.3434751E+00
         13   -1    0    0    0    0  0.00000000000E+00  0.00000000000E+00  0.14999999963E+04  0.15000000000E+04  0.10566000000E+00 0.  1.
        994   -1    0    0    0    0 -0.00000000000E+00 -0.00000000000E+00  0.11368683772E-12  0.17120000000E+03  0.17120000000E+03 0.  0.
         13    1    1    2    0    0  0.13602432164E+02  0.67509676407E+01  0.53114632838E+02  0.55242891945E+02  0.10566000000E+00 0.  1.
        994    1    1    2    0    0 -0.65278472855E+01  0.59367198416E+01  0.24811080723E+01  0.17144519045E+03  0.17120000000E+03 0.  0.
        998    1    1    2    0    0 -0.70745848785E+01 -0.12687687482E+02  0.14444042554E+04  0.14445119176E+04  0.10000000000E+02 0.  1.
</event>
<event>
 5    1  0.1344348E-008  0.3856259E+03  0.7957747E-01  0.3427022E+00
         13   -1    0    0    0    0  0.00000000000E+00  0.00000000000E+00  0.14999999963E+04  0.15000000000E+04  0.10566000000E+00 0. -1.
        994   -1    0    0    0    0 -0.00000000000E+00 -0.00000000000E+00  0.11368683772E-12  0.17120000000E+03  0.17120000000E+03 0.  0.
         13    1    1    2    0    0  0.15333328105E+02  0.63314268562E+01  0.98260410556E+02  0.99650977734E+02  0.10566000000E+00 0. -1.
        994    1    1    2    0    0 -0.17249218130E+02 -0.61879804464E+01  0.24226656303E+01  0.17219505201E+03  0.17120000000E+03 0.  0.
        998    1    1    2    0    0  0.19158900245E+01 -0.14344640977E+00  0.13993169201E+04  0.13993539703E+04  0.10000000000E+02 0. -1.
</event>
<event>
 5    1  0.1344348E-008  0.3709456E+03  0.7957747E-01  0.3491556E+00
         13   -1    0    0    0    0  0.00000000000E+00  0.00000000000E+00  0.14999999963E+04  0.15000000000E+04  0.10566000000E+00 0. -1.
        994   -1    0    0    0    0 -0.00000000000E+00 -0.00000000000E+00  0.11368683772E-12  0.17120000000E+03  0.17120000000E+03 0.  0.
         13    1    1    2    0    0  0.67838708775E+01  0.22172920799E+02  0.18153572895E+02  0.29448645023E+02  0.10566000000E+00 0. -1.
        994    1    1    2    0    0 -0.10733688203E+02 -0.25793416102E+02  0.14182270289E+02  0.17404335427E+03  0.17120000000E+03 0.  0.
        998    1    1    2    0    0  0.39498173255E+01  0.36204953031E+01  0.14676641531E+04  0.14677080007E+04  0.10000000000E+02 0. -1.
</event>
<event>
 5    1  0.1344348E-008  0.3751382E+03  0.7957747E-01  0.3472605E+00
         13   -1    0    0    0    0  0.00000000000E+00  0.00000000000E+00  0.14999999963E+04  0.15000000000E+04  0.10566000000E+00 0.  1.
        994   -1    0    0    0    0 -0.00000000000E+00 -0.00000000000E+00  0.11368683772E-12  0.17120000000E+03  0.17120000000E+03 0.  0.
         13    1    1    2    0    0 -0.17542466485E+02 -0.61993127570E+01  0.23717516293E+02  0.30144673695E+02  0.10566000000E+00 0.  1.
        994    1    1    2    0    0  0.10772731685E+02 -0.74200703464E+01  0.71893697886E+01  0.17184945804E+03  0.17120000000E+03 0.  0.
        998    1    1    2    0    0  0.67697348004E+01  0.13619383103E+02  0.14690931102E+04  0.14692058683E+04  0.10000000000E+02 0.  1.
</event>
<event>
 5    1  0.1344348E-008  0.3852275E+03  0.7957747E-01  0.3428708E+00
         13   -1    0    0    0    0  0.00000000000E+00  0.00000000000E+00  0.14999999963E+04  0.15000000000E+04  0.10566000000E+00 0.  1.
        994   -1    0    0    0    0 -0.00000000000E+00 -0.00000000000E+00  0.11368683772E-12  0.17120000000E+03  0.17120000000E+03 0.  0.
         13    1    1    2    0    0  0.37269633823E+01  0.23334947788E+02  0.12318522708E+03  0.12543134130E+03  0.10566000000E+00 0.  1.
        994    1    1    2    0    0 -0.16452722120E+02 -0.60795773345E+02  0.14663449199E+02  0.18300621537E+03  0.17120000000E+03 0.  0.
        998    1    1    2    0    0  0.12725758738E+02  0.37460825557E+02  0.13621513200E+04  0.13627624433E+04  0.10000000000E+02 0.  1.
</event>
<event>
 5    1  0.1344348E-008  0.3847632E+03  0.7957747E-01  0.3430677E+00
         13   -1    0    0    0    0  0.00000000000E+00  0.00000000000E+00  0.14999999963E+04  0.15000000000E+04  0.10566000000E+00 0.  1.
        994   -1    0    0    0    0 -0.00000000000E+00 -0.00000000000E+00  0.11368683772E-12  0.17120000000E+03  0.17120000000E+03 0.  0.
         13    1    1    2    0    0 -0.36407734448E+01 -0.15189698862E+02  0.70992571864E+02  0.72690705091E+02  0.10566000000E+00 0.  1.
        994    1    1    2    0    0  0.36578427044E+01  0.66962966513E+01  0.19393647226E+01  0.17138092466E+03  0.17120000000E+03 0.  0.
        998    1    1    2    0    0 -0.17069259620E-01  0.84934022105E+01  0.14270680597E+04  0.14271283702E+04  0.10000000000E+02 0.  1.
</event>
<event>
 5    1  0.1344348E-008  0.3814511E+03  0.7957747E-01  0.3444864E+00
         13   -1    0    0    0    0  0.00000000000E+00  0.00000000000E+00  0.14999999963E+04  0.15000000000E+04  0.10566000000E+00 0.  1.
        994   -1    0    0    0    0 -0.00000000000E+00 -0.00000000000E+00  0.11368683772E-12  0.17120000000E+03  0.17120000000E+03 0.  0.
         13    1    1    2    0    0  0.54794176108E+01 -0.83786280888E+01  0.13181912340E+02  0.16552927323E+02  0.10566000000E+00 0.  1.
        994    1    1    2    0    0 -0.28878442486E+01  0.10408499655E+02  0.37906794130E+01  0.17158230025E+03  0.17120000000E+03 0.  0.
        998    1    1    2    0    0 -0.25915733621E+01 -0.20298715666E+01  0.14830274045E+04  0.14830647724E+04  0.10000000000E+02 0.  1.
</event>
<event>
 5    1  0.1344348E-008  0.3835948E+03  0.7957747E-01  0.3435654E+00
         13   -1    0    0    0    0  0.00000000000E+00  0.00000000000E+00  0.14999999963E+04  0.15000000000E+04  0.10566000000E+00 0. -1.
        994   -1    0    0    0    0 -0.00000000000E+00 -0.00000000000E+00  0.11368683772E-12  0.17120000000E+03  0.17120000000E+03 0.  0.
         13    1    1    2    0    0  0.15698744429E+02 -0.94364604681E+01  0.67331350248E+02  0.69778358057E+02  0.10566000000E+00 0. -1.
        994    1    1    2    0    0 -0.21993050298E+02  0.76042564896E+01  0.41204734048E+01  0.17282342804E+03  0.17120000000E+03 0.  0.
        998    1    1    2    0    0  0.62943058688E+01  0.18322039785E+01  0.14285481726E+04  0.14285982139E+04  0.10000000000E+02 0. -1.
</event>
<event>
 5    1  0.1344348E-008  0.2677702E+03  0.7957747E-01  0.4156880E+00
         13   -1    0    0    0    0  0.00000000000E+00  0.00000000000E+00  0.14999999963E+04  0.15000000000E+04  0.10566000000E+00 0.  1.
        994   -1    0    0    0    0 -0.00000000000E+00 -0.00000000000E+00  0.11368683772E-12  0.17120000000E+03  0.17120000000E+03 0.  0.
         13    1    1    2    0    0  0.10676344599E+03  0.11930615769E+03  0.55161664912E+03  0.57438082438E+03  0.10566000000E+00 0.  1.
        994    1    1    2    0    0 -0.14078396691E+02 -0.10184249618E+03  0.67430856568E+02  0.21077584230E+03  0.17120000000E+03 0.  0.
        998    1    1    2    0    0 -0.92685049300E+02 -0.17463661514E+02  0.88095249059E+03  0.88604333332E+03  0.10000000000E+02 0. -1.
</event>
<event>
 5    1  0.1344348E-008  0.3742946E+03  0.7957747E-01  0.3476384E+00
         13   -1    0    0    0    0  0.00000000000E+00  0.00000000000E+00  0.14999999963E+04  0.15000000000E+04  0.10566000000E+00 0. -1.
        994   -1    0    0    0    0 -0.00000000000E+00 -0.00000000000E+00  0.11368683772E-12  0.17120000000E+03  0.17120000000E+03 0.  0.
         13    1    1    2    0    0 -0.42896361667E+02  0.36079113143E+01  0.15266706556E+03  0.15862017192E+03  0.10566000000E+00 0. -1.
        994    1    1    2    0    0 -0.64081964541E+01  0.32826804461E+01  0.72180708935E+01  0.17150329886E+03  0.17120000000E+03 0.  0.
        998    1    1    2    0    0  0.49304558121E+02 -0.68905917604E+01  0.13401148598E+04  0.13410765292E+04  0.10000000000E+02 0. -1.
</event>
<event>
 5    1  0.1344348E-008  0.3845318E+03  0.7957747E-01  0.3431660E+00
         13   -1    0    0    0    0  0.00000000000E+00  0.00000000000E+00  0.14999999963E+04  0.15000000000E+04  0.10566000000E+00 0.  1.
        994   -1    0    0    0    0 -0.00000000000E+00 -0.00000000000E+00  0.11368683772E-12  0.17120000000E+03  0.17120000000E+03 0.  0.
         13    1    1    2    0    0 -0.60960330283E+01 -0.13091187563E+02  0.54570483519E+02  0.56449000399E+02  0.10566000000E+00 0.  1.
        994    1    1    2    0    0  0.54494482052E+01  0.12277738189E+02  0.24572933107E+01  0.17174375573E+03  0.17120000000E+03 0.  0.
        998    1    1    2    0    0  0.64658482308E+00  0.81344937447E+00  0.14429722194E+04  0.14430072439E+04  0.10000000000E+02 0.  1.
</event>
<event>
 5    1  0.1344348E-008  0.3686928E+03  0.7957747E-01  0.3501920E+00
         13   -1    0    0    0    0  0.00000000000E+00  0.00000000000E+00  0.14999999963E+04  0.15000000000E+04  0.10566000000E+00 0.  1.
        994   -1    0    0    0    0 -0.00000000000E+00 -0.00000000000E+00  0.11368683772E-12  0.17120000000E+03  0.17120000000E+03 0.  0.
         13    1    1    2    0    0  0.35378413741E+02  0.92401723123E+02  0.53511468022E+03  0.54418511808E+03  0.10566000000E+00 0.  1.
        994    1    1    2    0    0 -0.50048736476E+02 -0.34782066179E+02  0.22969404335E+02  0.18317123597E+03  0.17120000000E+03 0.  0.
        998    1    1    2    0    0  0.14670322735E+02 -0.57619656944E+02  0.94191591173E+03  0.94384364595E+03  0.10000000000E+02 0.  1.
</event>
<event>
 5    1  0.1344348E-008  0.3818028E+03  0.7957747E-01  0.3443346E+00
         13   -1    0    0    0    0  0.00000000000E+00  0.00000000000E+00  0.14999999963E+04  0.15000000000E+04  0.10566000000E+00 0.  1.
        994   -1    0    0    0    0 -0.00000000000E+00 -0.00000000000E+00  0.11368683772E-12  0.17120000000E+03  0.17120000000E+03 0.  0.
         13    1    1    2    0    0  0.86112135393E+01 -0.70165597385E+01  0.17785612782E+02  0.20969604079E+02  0.10566000000E+00 0.  1.
        994    1    1    2    0    0 -0.64407447354E+01  0.55548310675E+01  0.34663005206E+01  0.17144618567E+03  0.17120000000E+03 0.  0.
        998    1    1    2    0    0 -0.21704688040E+01  0.14617286710E+01  0.14787480830E+04  0.14787842103E+04  0.10000000000E+02 0.  1.
</event>
<event>
 5    1  0.1344348E-008  0.3776949E+03  0.7957747E-01  0.3461257E+00
         13   -1    0    0    0    0  0.00000000000E+00  0.00000000000E+00  0.14999999963E+04  0.15000000000E+04  0.10566000000E+00 0. -1.
        994   -1    0    0    0    0 -0.00000000000E+00 -0.00000000000E+00  0.11368683772E-12  0.17120000000E+03  0.17120000000E+03 0.  0.
         13    1    1    2    0    0  0.22443777805E+01 -0.59607459774E+02  0.28982899129E+03  0.29590360229E+03  0.10566000000E+00 0. -1.
        994    1    1    2    0    0 -0.62924027835E+01  0.51431183293E+02  0.14399084279E+02  0.17944786033E+03  0.17120000000E+03 0.  0.
        998    1    1    2    0    0  0.40480250031E+01  0.81762764808E+01  0.11957719207E+04  0.11958485374E+04  0.10000000000E+02 0.  0.
</event>
<event>
 5    1  0.1344348E-008  0.3821533E+03  0.7957747E-01  0.3441836E+00
         13   -1    0    0    0    0  0.00000000000E+00  0.00000000000E+00  0.14999999963E+04  0.15000000000E+04  0.10566000000E+00 0.  1.
        994   -1    0    0    0    0 -0.00000000000E+00 -0.00000000000E+00  0.11368683772E-12  0.17120000000E+03  0.17120000000E+03 0.  0.
         13    1    1    2    0    0  0.10030725813E+02  0.78769582481E+01  0.26618982550E+02  0.29516831260E+02  0.10566000000E+00 0.  1.
        994    1    1    2    0    0 -0.12193637613E+02  0.22176411778E+02  0.51789631409E+01  0.17313792102E+03  0.17120000000E+03 0.  0.
        998    1    1    2    0    0  0.21629117999E+01 -0.30053370026E+02  0.14682020506E+04  0.14685452477E+04  0.10000000000E+02 0.  1.
</event>
<event>
 5    1  0.1344348E-008  0.3851956E+03  0.7957747E-01  0.3428843E+00
         13   -1    0    0    0    0  0.00000000000E+00  0.00000000000E+00  0.14999999963E+04  0.15000000000E+04  0.10566000000E+00 0. -1.
        994   -1    0    0    0    0 -0.00000000000E+00 -0.00000000000E+00  0.11368683772E-12  0.17120000000E+03  0.17120000000E+03 0.  0.
         13    1    1    2    0    0 -0.11099586929E+02 -0.85129620322E+01  0.61813305684E+02  0.63376393682E+02  0.10566000000E+00 0. -1.
        994    1    1    2    0    0  0.90878061254E+01  0.12178688814E+02  0.22923397082E+01  0.17188834604E+03  0.17120000000E+03 0.  0.
        998    1    1    2    0    0  0.20117808033E+01 -0.36657267815E+01  0.14358943509E+04  0.14359352603E+04  0.10000000000E+02 0. -1.
</event>
<event>
 5    1  0.1344348E-008  0.3808975E+03  0.7957747E-01  0.3447260E+00
         13   -1    0    0    0    0  0.00000000000E+00  0.00000000000E+00  0.14999999963E+04  0.15000000000E+04  0.10566000000E+00 0. -1.
        994   -1    0    0    0    0 -0.00000000000E+00 -0.00000000000E+00  0.11368683772E-12  0.17120000000E+03  0.17120000000E+03 0.  0.
         13    1    1    2    0    0  0.23904255401E+02 -0.17606774216E+02  0.12426710009E+03  0.12776437396E+03  0.10566000000E+00 0. -1.
        994    1    1    2    0    0 -0.15685496244E+02 -0.41654210773E+01  0.45591392437E+01  0.17202793749E+03  0.17120000000E+03 0.  0.
        998    1    1    2    0    0 -0.82187591574E+01  0.21772195294E+02  0.13711737569E+04  0.13714076885E+04  0.10000000000E+02 0. -1.
</event>
<event>
 5    1  0.1344348E-008  0.3702137E+03  0.7957747E-01  0.3494909E+00
         13   -1    0    0    0    0  0.00000000000E+00  0.00000000000E+00  0.14999999963E+04  0.15000000000E+04  0.10566000000E+00 0. -1.
        994   -1    0    0    0    0 -0.00000000000E+00 -0.00000000000E+00  0.11368683772E-12  0.17120000000E+03  0.17120000000E+03 0.  0.
         13    1    1    2    0    0  0.76630704158E+01 -0.26352000152E+02  0.37342676015E+02  0.46342606489E+02  0.10566000000E+00 0. -1.
        994    1    1    2    0    0 -0.48401683974E+01  0.19368929677E+02  0.10535752233E+02  0.17268185991E+03  0.17120000000E+03 0.  0.
        998    1    1    2    0    0 -0.28229020184E+01  0.69830704748E+01  0.14521215680E+04  0.14521755336E+04  0.10000000000E+02 0. -1.
</event>
<event>
 5    1  0.1344348E-008  0.3843807E+03  0.7957747E-01  0.3432303E+00
         13   -1    0    0    0    0  0.00000000000E+00  0.00000000000E+00  0.14999999963E+04  0.15000000000E+04  0.10566000000E+00 0. -1.
        994   -1    0    0    0    0 -0.00000000000E+00 -0.00000000000E+00  0.11368683772E-12  0.17120000000E+03  0.17120000000E+03 0.  0.
         13    1    1    2    0    0  0.20845113402E+02  0.66965651079E+01  0.12630629408E+03  0.12818991312E+03  0.10566000000E+00 0. -1.
        994    1    1    2    0    0 -0.66549402710E+01 -0.15181938428E+02  0.28439356812E+01  0.17202414788E+03  0.17120000000E+03 0.  0.
        998    1    1    2    0    0 -0.14190173131E+02  0.84853733196E+01  0.13708497665E+04  0.13709859390E+04  0.10000000000E+02 0. -1.
</event>
<event>
 5    1  0.1344348E-008  0.3770903E+03  0.7957747E-01  0.3463927E+00
         13   -1    0    0    0    0  0.00000000000E+00  0.00000000000E+00  0.14999999963E+04  0.15000000000E+04  0.10566000000E+00 0.  1.
        994   -1    0    0    0    0 -0.00000000000E+00 -0.00000000000E+00  0.11368683772E-12  0.17120000000E+03  0.17120000000E+03 0.  0.
         13    1    1    2    0    0 -0.20928209887E+01  0.26275191957E+02  0.58304862426E+02  0.63986199751E+02  0.10566000000E+00 0.  1.
        994    1    1    2    0    0 -0.15011618279E+02 -0.25379347493E+02  0.85495719947E+01  0.17393100685E+03  0.17120000000E+03 0.  0.
        998    1    1    2    0    0  0.17104439268E+02 -0.89584446414E+00  0.14331455619E+04  0.14332827934E+04  0.10000000000E+02 0.  1.
</event>
<event>
 5    1  0.1344348E-008  0.3855322E+03  0.7957747E-01  0.3427418E+00
         13   -1    0    0    0    0  0.00000000000E+00  0.00000000000E+00  0.14999999963E+04  0.15000000000E+04  0.10566000000E+00 0. -1.
        994   -1    0    0    0    0 -0.00000000000E+00 -0.00000000000E+00  0.11368683772E-12  0.17120000000E+03  0.17120000000E+03 0.  0.
         13    1    1    2    0    0  0.26338317173E+01  0.10170388364E+02  0.40706101966E+02  0.42040120960E+02  0.10566000000E+00 0. -1.
        994    1    1    2    0    0 -0.15533573827E+02 -0.27359048574E+01  0.21832878228E+01  0.17193889565E+03  0.17120000000E+03 0.  0.
        998    1    1    2    0    0  0.12899742110E+02 -0.74344835068E+01  0.14571106065E+04  0.14572209834E+04  0.10000000000E+02 0. -1.
</event>
<event>
 5    1  0.1344348E-008  0.3783239E+03  0.7957747E-01  0.3458489E+00
         13   -1    0    0    0    0  0.00000000000E+00  0.00000000000E+00  0.14999999963E+04  0.15000000000E+04  0.10566000000E+00 0. -1.
        994   -1    0    0    0    0 -0.00000000000E+00 -0.00000000000E+00  0.11368683772E-12  0.17120000000E+03  0.17120000000E+03 0.  0.
         13    1    1    2    0    0  0.14186144809E+02 -0.32150045260E+01  0.19077688428E+02  0.23990671488E+02  0.10566000000E+00 0. -1.
        994    1    1    2    0    0 -0.96320224391E+01  0.73262046590E+01  0.54740795417E+01  0.17171445681E+03  0.17120000000E+03 0.  0.
        998    1    1    2    0    0 -0.45541223700E+01 -0.41112001330E+01  0.14754482283E+04  0.14754948717E+04  0.10000000000E+02 0. -1.
</event>
<event>
 5    1  0.1344348E-008  0.3831100E+03  0.7957747E-01  0.3437728E+00
         13   -1    0    0    0    0  0.00000000000E+00  0.00000000000E+00  0.14999999963E+04  0.15000000000E+04  0.10566000000E+00 0. -1.
        994   -1    0    0    0    0 -0.00000000000E+00 -0.00000000000E+00  0.11368683772E-12  0.17120000000E+03  0.17120000000E+03 0.  0.
         13    1    1    2    0    0 -0.11132978162E+02  0.14993716815E+02  0.63972680932E+02  0.66642852703E+02  0.10566000000E+00 0. -1.
        994    1    1    2    0    0  0.81556211294E+01 -0.20647571402E+02  0.42038820415E+01  0.17268453603E+03  0.17120000000E+03 0.  0.
        998    1    1    2    0    0  0.29773570324E+01  0.56538545868E+01  0.14318234333E+04  0.14318726113E+04  0.10000000000E+02 0. -1.
</event>
<event>
 5    1  0.1344348E-008  0.3854446E+03  0.7957747E-01  0.3427789E+00
         13   -1    0    0    0    0  0.00000000000E+00  0.00000000000E+00  0.14999999963E+04  0.15000000000E+04  0.10566000000E+00 0.  1.
        994   -1    0    0    0    0 -0.00000000000E+00 -0.00000000000E+00  0.11368683772E-12  0.17120000000E+03  0.17120000000E+03 0.  0.
         13    1    1    2    0    0 -0.16098015876E+02  0.26045937329E+01  0.88517736340E+02  0.90007393221E+02  0.10566000000E+00 0.  1.
        994    1    1    2    0    0  0.18383040584E+02 -0.68790641911E+01  0.26757492199E+01  0.17234226800E+03  0.17120000000E+03 0.  0.
        998    1    1    2    0    0 -0.22850247081E+01  0.42744704583E+01  0.14088065107E+04  0.14088503388E+04  0.10000000000E+02 0.  1.
</event>
<event>
 5    1  0.1344348E-008  0.3702421E+03  0.7957747E-01  0.3494779E+00
         13   -1    0    0    0    0  0.00000000000E+00  0.00000000000E+00  0.14999999963E+04  0.15000000000E+04  0.10566000000E+00 0.  1.
        994   -1    0    0    0    0 -0.00000000000E+00 -0.00000000000E+00  0.11368683772E-12  0.17120000000E+03  0.17120000000E+03 0.  0.
         13    1    1    2    0    0 -0.30467476183E+02 -0.29137749475E+02  0.95509594421E+02  0.10440004473E+03  0.10566000000E+00 0.  1.
        994    1    1    2    0    0  0.20938371819E+02  0.10042199565E+02  0.11007823774E+02  0.17311809082E+03  0.17120000000E+03 0.  0.
        998    1    1    2    0    0  0.95291043634E+01  0.19095549910E+02  0.13934825781E+04  0.13936818644E+04  0.10000000000E+02 0.  1.
</event>
<event>
 5    1  0.1404500E-008  0.3844899E+03  0.7957747E-01  0.3431839E+00
         13   -1    0    0    0    0  0.00000000000E+00  0.00000000000E+00  0.14999999963E+04  0.15000000000E+04  0.10566000000E+00 0.  1.
        994   -1    0    0    0    0 -0.00000000000E+00 -0.00000000000E+00  0.11368683772E-12  0.17120000000E+03  0.17120000000E+03 0.  0.
         13    1    1    2    0    0  0.11741556173E+02 -0.49508381140E+01  0.41703150170E+02  0.43606637540E+02  0.10566000000E+00 0.  1.
        994    1    1    2    0    0 -0.12309229426E+02  0.65253627887E+01  0.25232619839E+01  0.17178447060E+03  0.17120000000E+03 0.  0.
        998    1    1    2    0    0  0.56767325229E+00 -0.15745246746E+01  0.14557735841E+04  0.14558088919E+04  0.10000000000E+02 0.  1.
</event>
<event>
 5    1  0.1344348E-008  0.3810790E+03  0.7957747E-01  0.3446474E+00
         13   -1    0    0    0    0  0.00000000000E+00  0.00000000000E+00  0.14999999963E+04  0.15000000000E+04  0.10566000000E+00 0. -1.
        994   -1    0    0    0    0 -0.00000000000E+00 -0.00000000000E+00  0.11368683772E-12  0.17120000000E+03  0.17120000000E+03 0.  0.
         13    1    1    2    0    0  0.59819531270E+01  0.26090443238E+02  0.94702955631E+02  0.98413189974E+02  0.10566000000E+00 0. -1.
        994    1    1    2    0    0 -0.75845076741E+01 -0.22891017556E+02  0.55289406890E+01  0.17297841665E+03  0.17120000000E+03 0.  0.
        998    1    1    2    0    0  0.16025545470E+01 -0.31994256813E+01  0.13997681000E+04  0.13998083934E+04  0.10000000000E+02 0. -1.
</event>
<event>
 5    1  0.1344348E-008  0.3847508E+03  0.7957747E-01  0.3430730E+00
         13   -1    0    0    0    0  0.00000000000E+00  0.00000000000E+00  0.14999999963E+04  0.15000000000E+04  0.10566000000E+00 0.  1.
        994   -1    0    0    0    0 -0.00000000000E+00 -0.00000000000E+00  0.11368683772E-12  0.17120000000E+03  0.17120000000E+03 0.  0.
         13    1    1    2    0    0 -0.70291767692E+01 -0.75414540800E+01  0.28464902249E+02  0.30274488927E+02  0.10566000000E+00 0.  1.
        994    1    1    2    0    0  0.85375402281E+01  0.18558607012E+02  0.31285948438E+01  0.17244285892E+03  0.17120000000E+03 0.  0.
        998    1    1    2    0    0 -0.15083634588E+01 -0.11017152932E+02  0.14684064992E+04  0.14684826522E+04  0.10000000000E+02 0.  1.
</event>
<event>
 5    1  0.1344348E-008  0.3843671E+03  0.7957747E-01  0.3432361E+00
         13   -1    0    0    0    0  0.00000000000E+00  0.00000000000E+00  0.14999999963E+04  0.15000000000E+04  0.10566000000E+00 0. -1.
        994   -1    0    0    0    0 -0.00000000000E+00 -0.00000000000E+00  0.11368683772E-12  0.17120000000E+03  0.17120000000E+03 0.  0.
         13    1    1    2    0    0 -0.20064810743E+02 -0.34878248675E+01  0.10262678327E+03  0.10462805246E+03  0.10566000000E+00 0. -1.
        994    1    1    2    0    0  0.19662847245E+02 -0.84862742112E+01  0.34575614399E+01  0.17256894026E+03  0.17120000000E+03 0.  0.
        998    1    1    2    0    0  0.40196349789E+00  0.11974099079E+02  0.13939156516E+04  0.13940030073E+04  0.10000000000E+02 0.  1.
</event>
<event>
 5    1  0.1344348E-008  0.3701416E+03  0.7957747E-01  0.3495240E+00
         13   -1    0    0    0    0  0.00000000000E+00  0.00000000000E+00  0.14999999963E+04  0.15000000000E+04  0.10566000000E+00 0.  1.
        994   -1    0    0    0    0 -0.00000000000E+00 -0.00000000000E+00  0.11368683772E-12  0.17120000000E+03  0.17120000000E+03 0.  0.
         13    1    1    2    0    0 -0.68389766594E+02 -0.45700340658E+02  0.32825022680E+03  0.33839903054E+03  0.10566000000E+00 0.  1.
        994    1    1    2    0    0  0.65350295436E+02  0.16346694194E+02  0.25045388791E+02  0.18567333418E+03  0.17120000000E+03 0.  0.
        998    1    1    2    0    0  0.30394711581E+01  0.29353646465E+02  0.11467043807E+04  0.11471276353E+04  0.10000000000E+02 0. -1.
</event>
<event>
 5    1  0.1344348E-008  0.3799612E+03  0.7957747E-01  0.3451327E+00
         13   -1    0    0    0    0  0.00000000000E+00  0.00000000000E+00  0.14999999963E+04  0.15000000000E+04  0.10566000000E+00 0. -1.
        994   -1    0    0    0    0 -0.00000000000E+00 -0.00000000000E+00  0.11368683772E-12  0.17120000000E+03  0.17120000000E+03 0.  0.
         13    1    1    2    0    0 -0.15038547227E+02  0.17924871208E+01  0.26000373844E+02  0.30089890609E+02  0.10566000000E+00 0. -1.
        994    1    1    2    0    0  0.92822295907E+01 -0.32647623867E+01  0.44764985305E+01  0.17154094992E+03  0.17120000000E+03 0.  0.
        998    1    1    2    0    0  0.57563176360E+01  0.14722752659E+01  0.14695231239E+04  0.14695691595E+04  0.10000000000E+02 0. -1.
</event>
<event>
 5    1  0.1344348E-008  0.3825996E+03  0.7957747E-01  0.3439917E+00
         13   -1    0    0    0    0  0.00000000000E+00  0.00000000000E+00  0.14999999963E+04  0.15000000000E+04  0.10566000000E+00 0.  1.
        994   -1    0    0    0    0 -0.00000000000E+00 -0.00000000000E+00  0.11368683772E-12  0.17120000000E+03  0.17120000000E+03 0.  0.
         13    1    1    2    0    0 -0.13449216801E+02  0.49761808728E+01  0.29697946579E+02  0.32979129820E+02  0.10566000000E+00 0.  1.
        994    1    1    2    0    0  0.57774257271E+02 -0.15709786766E+02  0.14800011174E+02  0.18197016935E+03  0.17120000000E+03 0.  0.
        998    1    1    2    0    0 -0.44325040470E+02  0.10733605893E+02  0.14555020385E+04  0.14562507008E+04  0.10000000000E+02 0.  1.
</event>
<event>
 5    1  0.1344348E-008  0.3852648E+03  0.7957747E-01  0.3428550E+00
         13   -1    0    0    0    0  0.00000000000E+00  0.00000000000E+00  0.14999999963E+04  0.15000000000E+04  0.10566000000E+00 0.  1.
        994   -1    0    0    0    0 -0.00000000000E+00 -0.00000000000E+00  0.11368683772E-12  0.17120000000E+03  0.17120000000E+03 0.  0.
         13    1    1    2    0    0 -0.17080835751E+02 -0.60590678572E+01  0.10473205486E+03  0.10628867170E+03  0.10566000000E+00 0.  1.
        994    1    1    2    0    0  0.20088620217E+02 -0.43085004825E+01  0.28869413841E+01  0.17245257397E+03  0.17120000000E+03 0.  0.
        998    1    1    2    0    0 -0.30077844666E+01  0.10367568340E+02  0.13923810000E+04  0.13924587543E+04  0.10000000000E+02 0.  1.
</event>
<event>
 5    1  0.1344348E-008  0.3831132E+03  0.7957747E-01  0.3437714E+00
         13   -1    0    0    0    0  0.00000000000E+00  0.00000000000E+00  0.14999999963E+04  0.15000000000E+04  0.10566000000E+00 0. -1.
        994   -1    0    0    0    0 -0.00000000000E+00 -0.00000000000E+00  0.11368683772E-12  0.17120000000E+03  0.17120000000E+03 0.  0.
         13    1    1    2    0    0  0.10789316354E+02 -0.15094373670E+02  0.63510722109E+02  0.66165492900E+02  0.10566000000E+00 0. -1.
        994    1    1    2    0    0 -0.15648029909E+02  0.13825821838E+02  0.40138789852E+01  0.17251540631E+03  0.17120000000E+03 0.  0.
        998    1    1    2    0    0  0.48587135552E+01  0.12685518322E+01  0.14324753952E+04  0.14325191008E+04  0.10000000000E+02 0.  0.
</event>
<event>
 5    1  0.1344348E-008  0.3769143E+03  0.7957747E-01  0.3464705E+00
         13   -1    0    0    0    0  0.00000000000E+00  0.00000000000E+00  0.14999999963E+04  0.15000000000E+04  0.10566000000E+00 0. -1.
        994   -1    0    0    0    0 -0.00000000000E+00 -0.00000000000E+00  0.11368683772E-12  0.17120000000E+03  0.17120000000E+03 0.  0.
         13    1    1    2    0    0 -0.10975204044E+02 -0.14433890888E+02  0.26872847206E+02  0.32418411296E+02  0.10566000000E+00 0. -1.
        994    1    1    2    0    0  0.15148160430E+01  0.77121966266E+01  0.59076391128E+01  0.17148210648E+03  0.17120000000E+03 0.  0.
        998    1    1    2    0    0  0.94603880009E+01  0.67216942614E+01  0.14672195100E+04  0.14672994822E+04  0.10000000000E+02 0. -1.
</event>
<event>
 5    1  0.1344348E-008  0.3914487E+03  0.7957747E-01  0.3402775E+00
         13   -1    0    0    0    0  0.00000000000E+00  0.00000000000E+00  0.14999999963E+04  0.15000000000E+04  0.10566000000E+00 0. -1.
        994   -1    0    0    0    0 -0.00000000000E+00 -0.00000000000E+00  0.11368683772E-12  0.17120000000E+03  0.17120000000E+03 0.  0.
         13    1    1    2    0    0 -0.75680468606E+01  0.16120622953E+02 -0.31992711858E+01  0.18094096215E+02  0.10566000000E+00 0. -1.
        994    1    1    2    0    0  0.13859826700E+02 -0.84917227823E+01  0.23764317254E+02  0.17360410976E+03  0.17120000000E+03 0.  0.
        998    1    1    2    0    0 -0.62917798398E+01 -0.76289001710E+01  0.14794349502E+04  0.14795017940E+04  0.10000000000E+02 0. -1.
</event>
<event>
 5    1  0.1344348E-008  0.3818364E+03  0.7957747E-01  0.3443201E+00
         13   -1    0    0    0    0  0.00000000000E+00  0.00000000000E+00  0.14999999963E+04  0.15000000000E+04  0.10566000000E+00 0.  1.
        994   -1    0    0    0    0 -0.00000000000E+00 -0.00000000000E+00  0.11368683772E-12  0.17120000000E+03  0.17120000000E+03 0.  0.
         13    1    1    2    0    0  0.17386070341E+02  0.25232473365E+02  0.13115654026E+03  0.13468853838E+03  0.10566000000E+00 0.  1.
        994    1    1    2    0    0 -0.17011952165E+02 -0.29545841900E+02  0.70808949623E+01  0.17470530148E+03  0.17120000000E+03 0.  0.
        998    1    1    2    0    0 -0.37411817615E+00  0.43133685350E+01  0.13617625611E+04  0.13618061601E+04  0.10000000000E+02 0.  1.
</event>
<event>
 5    1  0.1344348E-008  0.3851928E+03  0.7957747E-01  0.3428855E+00
         13   -1    0    0    0    0  0.00000000000E+00  0.00000000000E+00  0.14999999963E+04  0.15000000000E+04  0.10566000000E+00 0. -1.
        994   -1    0    0    0    0 -0.00000000000E+00 -0.00000000000E+00  0.11368683772E-12  0.17120000000E+03  0.17120000000E+03 0.  0.
         13    1    1    2    0    0  0.17970345702E+02  0.10454351260E+01  0.96544186176E+02  0.98208030770E+02  0.10566000000E+00 0. -1.
        994    1    1    2    0    0 -0.23098281933E+02 -0.27853172141E+01  0.33154646469E+01  0.17280544241E+03  0.17120000000E+03 0.  0.
        998    1    1    2    0    0  0.51279362316E+01  0.17398820881E+01  0.14001403455E+04  0.14001865268E+04  0.10000000000E+02 0. -1.
</event>
<event>
 5    1  0.1344348E-008  0.3795086E+03  0.7957747E-01  0.3453301E+00
         13   -1    0    0    0    0  0.00000000000E+00  0.00000000000E+00  0.14999999963E+04  0.15000000000E+04  0.10566000000E+00 0. -1.
        994   -1    0    0    0    0 -0.00000000000E+00 -0.00000000000E+00  0.11368683772E-12  0.17120000000E+03  0.17120000000E+03 0.  0.
         13    1    1    2    0    0  0.58825887228E+02 -0.27696848176E+03  0.11551229334E+04  0.11893195649E+04  0.10566000000E+00 0. -1.
        994    1    1    2    0    0 -0.56549724849E+02  0.26304299408E+03  0.32188704127E+03  0.45311168100E+03  0.17120000000E+03 0.  0.
        998    1    1    2    0    0 -0.22761623797E+01  0.13925487673E+02  0.22990021591E+02  0.28768754142E+02  0.10000000000E+02 0. -1.
</event>
<event>
 5    1  0.1344348E-008  0.3820921E+03  0.7957747E-01  0.3442099E+00
         13   -1    0    0    0    0  0.00000000000E+00  0.00000000000E+00  0.14999999963E+04  0.15000000000E+04  0.10566000000E+00 0.  1.
        994   -1    0    0    0    0 -0.00000000000E+00 -0.00000000000E+00  0.11368683772E-12  0.17120000000E+03  0.17120000000E+03 0.  0.
         13    1    1    2    0    0  0.20146334064E+02 -0.10944400641E+02  0.88797160846E+02  0.91709332240E+02  0.10566000000E+00 0.  1.
        994    1    1    2    0    0 -0.79590862063E+01 -0.40398905016E+01  0.33453176516E+01  0.17146515366E+03  0.17120000000E+03 0.  0.
        998    1    1    2    0    0 -0.12187247857E+02  0.14984291142E+02  0.14078575178E+04  0.14080255141E+04  0.10000000000E+02 0.  1.
</event>
<event>
 5    1  0.1344348E-008  0.3706274E+03  0.7957747E-01  0.3493012E+00
         13   -1    0    0    0    0  0.00000000000E+00  0.00000000000E+00  0.14999999963E+04  0.15000000000E+04  0.10566000000E+00 0. -1.
        994   -1    0    0    0    0 -0.00000000000E+00 -0.00000000000E+00  0.11368683772E-12  0.17120000000E+03  0.17120000000E+03 0.  0.
         13    1    1    2    0    0 -0.36158183865E+02 -0.68790674306E+02  0.38774687524E+03  0.39545824249E+03  0.10566000000E+00 0. -1.
        994    1    1    2    0    0  0.26697647684E+02  0.16205729710E+02  0.12314161991E+02  0.17446050743E+03  0.17120000000E+03 0.  0.
        998    1    1    2    0    0  0.94605361803E+01  0.52584944596E+02  0.10999389590E+04  0.11012812501E+04  0.10000000000E+02 0. -1.
</event>
<event>
 5    1  0.1344348E-008  0.3813673E+03  0.7957747E-01  0.3445226E+00
         13   -1    0    0    0    0  0.00000000000E+00  0.00000000000E+00  0.14999999963E+04  0.15000000000E+04  0.10566000000E+00 0. -1.
        994   -1    0    0    0    0 -0.00000000000E+00 -0.00000000000E+00  0.11368683772E-12  0.17120000000E+03  0.17120000000E+03 0.  0.
         13    1    1    2    0    0  0.28850087709E+02  0.11665638703E+02  0.14062697175E+03  0.14402906316E+03  0.10566000000E+00 0. -1.
        994    1    1    2    0    0 -0.18129535188E+02 -0.11200611067E+01  0.45432790090E+01  0.17222083488E+03  0.17120000000E+03 0.  0.
        998    1    1    2    0    0 -0.10720552520E+02 -0.10545577597E+02  0.13548297455E+04  0.13549501020E+04  0.10000000000E+02 0. -1.
</event>
<event>
 5    1  0.1344348E-008  0.3761039E+03  0.7957747E-01  0.3468300E+00
         13   -1    0    0    0    0  0.00000000000E+00  0.00000000000E+00  0.14999999963E+04  0.15000000000E+04  0.10566000000E+00 0. -1.
        994   -1    0    0    0    0 -0.00000000000E+00 -0.00000000000E+00  0.11368683772E-12  0.17120000000E+03  0.17120000000E+03 0.  0.
         13    1    1    2    0    0 -0.31179384975E+02  0.81311309753E+02  0.48352716868E+03  0.49130664269E+03  0.10566000000E+00 0. -1.
        994    1    1    2    0    0  0.29865556007E+02 -0.67653812526E+02  0.24864894182E+02  0.18814008809E+03  0.17120000000E+03 0.  0.
        998    1    1    2    0    0  0.13138289679E+01 -0.13657497227E+02  0.99160793342E+03  0.99175326922E+03  0.10000000000E+02 0. -1.
</event>
<event>
 5    1  0.1344348E-008  0.3841733E+03  0.7957747E-01  0.3433186E+00
         13   -1    0    0    0    0  0.00000000000E+00  0.00000000000E+00  0.14999999963E+04  0.15000000000E+04  0.10566000000E+00 0.  1.
        994   -1    0    0    0    0 -0.00000000000E+00 -0.00000000000E+00  0.11368683772E-12  0.17120000000E+03  0.17120000000E+03 0.  0.
         13    1    1    2    0    0  0.35771219497E+01 -0.12458220828E+02  0.39615494154E+02  0.41682149762E+02  0.10566000000E+00 0.  1.
        994    1    1    2    0    0 -0.76924858235E+00  0.15076780707E+02  0.27930147062E+01  0.17188700355E+03  0.17120000000E+03 0.  0.
        998    1    1    2    0    0 -0.28078733674E+01 -0.26185598789E+01  0.14575914874E+04  0.14576308467E+04  0.10000000000E+02 0.  1.
</event>
<event>
 5    1  0.1344348E-008  0.3828221E+03  0.7957747E-01  0.3438962E+00
         13   -1    0    0    0    0  0.00000000000E+00  0.00000000000E+00  0.14999999963E+04  0.15000000000E+04  0.10566000000E+00 0. -1.
        994   -1    0    0    0    0 -0.00000000000E+00 -0.00000000000E+00  0.11368683772E-12  0.17120000000E+03  0.17120000000E+03 0.  0.
         13    1    1    2    0    0 -0.76421737906E+00  0.15898408738E+02  0.43922267028E+02  0.46717449989E+02  0.10566000000E+00 0. -1.
        994    1    1    2    0    0  0.52209928603E+01 -0.20313867893E+02  0.41736646217E+01  0.17253049432E+03  0.17120000000E+03 0.  0.
        998    1    1    2    0    0 -0.44567754812E+01  0.44154591559E+01  0.14519040646E+04  0.14519520557E+04  0.10000000000E+02 0. -1.
</event>
<event>
 5    1  0.1344348E-008  0.3806247E+03  0.7957747E-01  0.3448443E+00
         13   -1    0    0    0    0  0.00000000000E+00  0.00000000000E+00  0.14999999963E+04  0.15000000000E+04  0.10566000000E+00 0. -1.
        994   -1    0    0    0    0 -0.00000000000E+00 -0.00000000000E+00  0.11368683772E-12  0.17120000000E+03  0.17120000000E+03 0.  0.
         13    1    1    2    0    0  0.22795296685E+02  0.16552517681E+02  0.11190844936E+03  0.11539984227E+03  0.10566000000E+00 0. -1.
        994    1    1    2    0    0 -0.10259881043E+02  0.10542286430E+02  0.45404133605E+01  0.17189083837E+03  0.17120000000E+03 0.  0.
        998    1    1    2    0    0 -0.12535415642E+02 -0.27094804111E+02  0.13835511336E+04  0.13839093194E+04  0.10000000000E+02 0. -1.
</event>
<event>
 5    1  0.1344348E-008  0.3839157E+03  0.7957747E-01  0.3434284E+00
         13   -1    0    0    0    0  0.00000000000E+00  0.00000000000E+00  0.14999999963E+04  0.15000000000E+04  0.10566000000E+00 0.  1.
        994   -1    0    0    0    0 -0.00000000000E+00 -0.00000000000E+00  0.11368683772E-12  0.17120000000E+03  0.17120000000E+03 0.  0.
         13    1    1    2    0    0  0.88815471418E+01  0.24731166016E+02  0.15532310338E+03  0.15753028299E+03  0.10566000000E+00 0.  1.
        994    1    1    2    0    0 -0.14109296493E+02 -0.14471138757E+02  0.35186752807E+01  0.17242478702E+03  0.17120000000E+03 0.  0.
        998    1    1    2    0    0  0.52277493516E+01 -0.10260027259E+02  0.13411582176E+04  0.13412449300E+04  0.10000000000E+02 0.  1.
</event>
<event>
 5    1  0.1344348E-008  0.3859179E+03  0.7957747E-01  0.3425789E+00
         13   -1    0    0    0    0  0.00000000000E+00  0.00000000000E+00  0.14999999963E+04  0.15000000000E+04  0.10566000000E+00 0.  1.
        994   -1    0    0    0    0 -0.00000000000E+00 -0.00000000000E+00  0.11368683772E-12  0.17120000000E+03  0.17120000000E+03 0.  0.
         13    1    1    2    0    0  0.10563345613E+02 -0.54234087797E+00  0.47386951525E+02  0.48553194983E+02  0.10566000000E+00 0.  1.
        994    1    1    2    0    0 -0.97756989020E+01 -0.51727879475E+01  0.15762841792E+01  0.17156411832E+03  0.17120000000E+03 0.  0.
        998    1    1    2    0    0 -0.78764671143E+00  0.57151288255E+01  0.14510367606E+04  0.14510826867E+04  0.10000000000E+02 0.  1.
</event>
<event>
 5    1  0.1344348E-008  0.3830989E+03  0.7957747E-01  0.3437775E+00
         13   -1    0    0    0    0  0.00000000000E+00  0.00000000000E+00  0.14999999963E+04  0.15000000000E+04  0.10566000000E+00 0.  1.
        994   -1    0    0    0    0 -0.00000000000E+00 -0.00000000000E+00  0.11368683772E-12  0.17120000000E+03  0.17120000000E+03 0.  0.
         13    1    1    2    0    0  0.74639283026E+00 -0.21857041340E+02  0.88774506968E+02  0.91428724206E+02  0.10566000000E+00 0.  1.
        994    1    1    2    0    0 -0.49236545920E+01  0.19709231258E+02  0.39437742006E+01  0.17244619313E+03  0.17120000000E+03 0.  0.
        998    1    1    2    0    0  0.41772617617E+01  0.21478100820E+01  0.14072817151E+04  0.14073250827E+04  0.10000000000E+02 0.  1.
</event>
<event>
 5    1  0.1344348E-008  0.3768501E+03  0.7957747E-01  0.3464990E+00
         13   -1    0    0    0    0  0.00000000000E+00  0.00000000000E+00  0.14999999963E+04  0.15000000000E+04  0.10566000000E+00 0. -1.
        994   -1    0    0    0    0 -0.00000000000E+00 -0.00000000000E+00  0.11368683772E-12  0.17120000000E+03  0.17120000000E+03 0.  0.
         13    1    1    2    0    0 -0.21031849062E+02 -0.51826854363E+02  0.23283261063E+03  0.23945646211E+03  0.10566000000E+00 0. -1.
        994    1    1    2    0    0  0.14921001108E+02  0.52647857315E+02  0.15915028936E+02  0.18043603105E+03  0.17120000000E+03 0.  0.
        998    1    1    2    0    0  0.61108479546E+01 -0.82100295221E+00  0.12512523567E+04  0.12513075068E+04  0.10000000000E+02 0. -1.
</event>
<event>
 5    1  0.1344348E-008  0.3845677E+03  0.7957747E-01  0.3431508E+00
         13   -1    0    0    0    0  0.00000000000E+00  0.00000000000E+00  0.14999999963E+04  0.15000000000E+04  0.10566000000E+00 0. -1.
        994   -1    0    0    0    0 -0.00000000000E+00 -0.00000000000E+00  0.11368683772E-12  0.17120000000E+03  0.17120000000E+03 0.  0.
         13    1    1    2    0    0 -0.21076047694E+02 -0.68209312658E+01  0.13085823519E+03  0.13272005791E+03  0.10566000000E+00 0. -1.
        994    1    1    2    0    0  0.17127516976E+02 -0.25417966567E+01  0.28329077673E+01  0.17209671099E+03  0.17120000000E+03 0.  0.
        998    1    1    2    0    0  0.39485307179E+01  0.93627279225E+01  0.13663088533E+04  0.13663832311E+04  0.10000000000E+02 0. -1.
</event>
<event>
 5    1  0.1344348E-008  0.3843691E+03  0.7957747E-01  0.3432352E+00
         13   -1    0    0    0    0  0.00000000000E+00  0.00000000000E+00  0.14999999963E+04  0.15000000000E+04  0.10566000000E+00 0.  1.
        994   -1    0    0    0    0 -0.00000000000E+00 -0.00000000000E+00  0.11368683772E-12  0.17120000000E+03  0.17120000000E+03 0.  0.
         13    1    1    2    0    0 -0.12350850747E+02 -0.40922940565E+01  0.42720745173E+02  0.44658298412E+02  0.10566000000E+00 0.  1.
        994    1    1    2    0    0  0.11562088142E+02  0.29474452060E-01  0.23843519194E+01  0.17160654966E+03  0.17120000000E+03 0.  0.
        998    1    1    2    0    0  0.78876260486E+00  0.40628196044E+01  0.14548948992E+04  0.14549351519E+04  0.10000000000E+02 0.  1.
</event>
<event>
 5    1  0.1344348E-008  0.3846585E+03  0.7957747E-01  0.3431122E+00
         13   -1    0    0    0    0  0.00000000000E+00  0.00000000000E+00  0.14999999963E+04  0.15000000000E+04  0.10566000000E+00 0. -1.
        994   -1    0    0    0    0 -0.00000000000E+00 -0.00000000000E+00  0.11368683772E-12  0.17120000000E+03  0.17120000000E+03 0.  0.
         13    1    1    2    0    0  0.27794488014E+01 -0.21526200928E+02  0.12925862516E+03  0.13106832571E+03  0.10566000000E+00 0. -1.
        994    1    1    2    0    0  0.23824486858E+01  0.15226136228E+02  0.25821434540E+01  0.17191165973E+03  0.17120000000E+03 0.  0.
        998    1    1    2    0    0 -0.51618974872E+01  0.63000646999E+01  0.13681592277E+04  0.13682200146E+04  0.10000000000E+02 0. -1.
</event>
<event>
 5    1  0.1344348E-008  0.3782106E+03  0.7957747E-01  0.3458987E+00
         13   -1    0    0    0    0  0.00000000000E+00  0.00000000000E+00  0.14999999963E+04  0.15000000000E+04  0.10566000000E+00 0. -1.
        994   -1    0    0    0    0 -0.00000000000E+00 -0.00000000000E+00  0.11368683772E-12  0.17120000000E+03  0.17120000000E+03 0.  0.
         13    1    1    2    0    0 -0.78655400331E+01 -0.16851349627E+02  0.33638026008E+02  0.38436475671E+02  0.10566000000E+00 0. -1.
        994    1    1    2    0    0  0.43441666693E+01 -0.32495822448E+01  0.51381359133E+01  0.17136298319E+03  0.17120000000E+03 0.  0.
        998    1    1    2    0    0  0.35213733638E+01  0.20100931872E+02  0.14612238344E+04  0.14614005411E+04  0.10000000000E+02 0. -1.
</event>
<event>
 5    1  0.1344348E-008  0.3852686E+03  0.7957747E-01  0.3428534E+00
         13   -1    0    0    0    0  0.00000000000E+00  0.00000000000E+00  0.14999999963E+04  0.15000000000E+04  0.10566000000E+00 0.  1.
        994   -1    0    0    0    0 -0.00000000000E+00 -0.00000000000E+00  0.11368683772E-12  0.17120000000E+03  0.17120000000E+03 0.  0.
         13    1    1    2    0    0  0.12164875773E+02  0.73232205706E+01  0.64528162493E+02  0.66071996193E+02  0.10566000000E+00 0.  1.
        994    1    1    2    0    0 -0.16089186890E+02 -0.50138101574E+01  0.24305644303E+01  0.17204461012E+03  0.17120000000E+03 0.  0.
        998    1    1    2    0    0  0.39243111174E+01 -0.23094104132E+01  0.14330412694E+04  0.14330833937E+04  0.10000000000E+02 0.  1.
</event>
<event>
 5    1  0.1344348E-008  0.3791319E+03  0.7957747E-01  0.3454947E+00
         13   -1    0    0    0    0  0.00000000000E+00  0.00000000000E+00  0.14999999963E+04  0.15000000000E+04  0.10566000000E+00 0.  1.
        994   -1    0    0    0    0 -0.00000000000E+00 -0.00000000000E+00  0.11368683772E-12  0.17120000000E+03  0.17120000000E+03 0.  0.
         13    1    1    2    0    0  0.20274476977E+02 -0.28113092669E+02  0.13461138959E+03  0.13900229411E+03  0.10566000000E+00 0.  1.
        994    1    1    2    0    0  0.25619174541E+01  0.19642524736E+02  0.58886095711E+01  0.17244276709E+03  0.17120000000E+03 0.  0.
        998    1    1    2    0    0 -0.22836394431E+02  0.84705679329E+01  0.13594999971E+04  0.13597549388E+04  0.10000000000E+02 0.  1.
</event>
<event>
 5    1  0.1344348E-008  0.3848649E+03  0.7957747E-01  0.3430245E+00
         13   -1    0    0    0    0  0.00000000000E+00  0.00000000000E+00  0.14999999963E+04  0.15000000000E+04  0.10566000000E+00 0. -1.
        994   -1    0    0    0    0 -0.00000000000E+00 -0.00000000000E+00  0.11368683772E-12  0.17120000000E+03  0.17120000000E+03 0.  0.
         13    1    1    2    0    0  0.12997936862E+02  0.15464207993E+02  0.11616274364E+03  0.11790624354E+03  0.10566000000E+00 0. -1.
        994    1    1    2    0    0 -0.11036576260E+02 -0.12658405462E+02  0.26257227940E+01  0.17204178465E+03  0.17120000000E+03 0.  0.
        998    1    1    2    0    0 -0.19613606018E+01 -0.28058025314E+01  0.13812115298E+04  0.13812519718E+04  0.10000000000E+02 0. -1.
</event>
<event>
 5    1  0.1344348E-008  0.3818176E+03  0.7957747E-01  0.3443282E+00
         13   -1    0    0    0    0  0.00000000000E+00  0.00000000000E+00  0.14999999963E+04  0.15000000000E+04  0.10566000000E+00 0. -1.
        994   -1    0    0    0    0 -0.00000000000E+00 -0.00000000000E+00  0.11368683772E-12  0.17120000000E+03  0.17120000000E+03 0.  0.
         13    1    1    2    0    0  0.23395742635E+02  0.75290200717E+01  0.10073562869E+03  0.10369052497E+03  0.10566000000E+00 0. -1.
        994    1    1    2    0    0  0.95052326324E+01 -0.38325539181E+02  0.84169488640E+01  0.17589622346E+03  0.17120000000E+03 0.  0.
        998    1    1    2    0    0 -0.32900975268E+02  0.30796519109E+02  0.13908474187E+04  0.13916132516E+04  0.10000000000E+02 0. -1.
</event>
<event>
 5    1  0.1344348E-008  0.3852838E+03  0.7957747E-01  0.3428470E+00
         13   -1    0    0    0    0  0.00000000000E+00  0.00000000000E+00  0.14999999963E+04  0.15000000000E+04  0.10566000000E+00 0. -1.
        994   -1    0    0    0    0 -0.00000000000E+00 -0.00000000000E+00  0.11368683772E-12  0.17120000000E+03  0.17120000000E+03 0.  0.
         13    1    1    2    0    0 -0.19897713780E+01 -0.11820208334E+02  0.68835367777E+02  0.69871278335E+02  0.10566000000E+00 0. -1.
        994    1    1    2    0    0 -0.15925233605E+02 -0.38157188106E+02  0.71266441758E+01  0.17626631308E+03  0.17120000000E+03 0.  0.
        998    1    1    2    0    0  0.17915004983E+02  0.49977396440E+02  0.14240379843E+04  0.14250624086E+04  0.10000000000E+02 0. -1.
</event>
<event>
 5    1  0.1344348E-008  0.3834222E+03  0.7957747E-01  0.3436391E+00
         13   -1    0    0    0    0  0.00000000000E+00  0.00000000000E+00  0.14999999963E+04  0.15000000000E+04  0.10566000000E+00 0.  1.
        994   -1    0    0    0    0 -0.00000000000E+00 -0.00000000000E+00  0.11368683772E-12  0.17120000000E+03  0.17120000000E+03 0.  0.
         13    1    1    2    0    0 -0.78433235185E+01  0.12201036290E+02  0.42651438152E+02  0.45050408997E+02  0.10566000000E+00 0.  1.
        994    1    1    2    0    0  0.58220520539E+01 -0.91079192257E+01  0.28018445022E+01  0.17156380975E+03  0.17120000000E+03 0.  0.
        998    1    1    2    0    0  0.20212714646E+01 -0.30931170643E+01  0.14545467136E+04  0.14545857813E+04  0.10000000000E+02 0.  1.
</event>
<event>
 5    1  0.1344348E-008  0.3835791E+03  0.7957747E-01  0.3435721E+00
         13   -1    0    0    0    0  0.00000000000E+00  0.00000000000E+00  0.14999999963E+04  0.15000000000E+04  0.10566000000E+00 0.  1.
        994   -1    0    0    0    0 -0.00000000000E+00 -0.00000000000E+00  0.11368683772E-12  0.17120000000E+03  0.17120000000E+03 0.  0.
         13    1    1    2    0    0  0.60010663423E+01  0.19654185994E+02  0.92812390997E+02  0.95060248848E+02  0.10566000000E+00 0.  1.
        994    1    1    2    0    0  0.97294528849E+00 -0.84277752560E+01  0.25750412532E+01  0.17142941654E+03  0.17120000000E+03 0.  0.
        998    1    1    2    0    0 -0.69740116308E+01 -0.11226410738E+02  0.14046125640E+04  0.14047103346E+04  0.10000000000E+02 0.  1.
</event>
<event>
 5    1  0.1344348E-008  0.3839788E+03  0.7957747E-01  0.3434015E+00
         13   -1    0    0    0    0  0.00000000000E+00  0.00000000000E+00  0.14999999963E+04  0.15000000000E+04  0.10566000000E+00 0. -1.
        994   -1    0    0    0    0 -0.00000000000E+00 -0.00000000000E+00  0.11368683772E-12  0.17120000000E+03  0.17120000000E+03 0.  0.
         13    1    1    2    0    0  0.11817153812E+02  0.18580269438E+02  0.11716885607E+03  0.11922006347E+03  0.10566000000E+00 0. -1.
        994    1    1    2    0    0 -0.73830059425E+01 -0.57442157673E+01  0.24267684192E+01  0.17147254590E+03  0.17120000000E+03 0.  0.
        998    1    1    2    0    0 -0.44341478691E+01 -0.12836053670E+02  0.13804043718E+04  0.13805073906E+04  0.10000000000E+02 0. -1.
</event>
<event>
 5    1  0.1344348E-008  0.3740825E+03  0.7957747E-01  0.3477336E+00
         13   -1    0    0    0    0  0.00000000000E+00  0.00000000000E+00  0.14999999963E+04  0.15000000000E+04  0.10566000000E+00 0. -1.
        994   -1    0    0    0    0 -0.00000000000E+00 -0.00000000000E+00  0.11368683772E-12  0.17120000000E+03  0.17120000000E+03 0.  0.
         13    1    1    2    0    0 -0.13638727292E+02 -0.37406330572E+02  0.99312318500E+02  0.10699624395E+03  0.10566000000E+00 0. -1.
        994    1    1    2    0    0  0.13829569960E+02  0.43530541874E+02  0.14297478283E+02  0.17776395294E+03  0.17120000000E+03 0.  0.
        998    1    1    2    0    0 -0.19084266754E+00 -0.61242113026E+01  0.13863901995E+04  0.13864398031E+04  0.10000000000E+02 0. -1.
</event>
<event>
 5    1  0.1344348E-008  0.3834458E+03  0.7957747E-01  0.3436290E+00
         13   -1    0    0    0    0  0.00000000000E+00  0.00000000000E+00  0.14999999963E+04  0.15000000000E+04  0.10566000000E+00 0.  1.
        994   -1    0    0    0    0 -0.00000000000E+00 -0.00000000000E+00  0.11368683772E-12  0.17120000000E+03  0.17120000000E+03 0.  0.
         13    1    1    2    0    0  0.10428811134E+02  0.99451611805E+01  0.43515361938E+02  0.45839548658E+02  0.10566000000E+00 0.  1.
        994    1    1    2    0    0  0.12722601204E+01 -0.76881425316E+01  0.26044612467E+01  0.17139705190E+03  0.17120000000E+03 0.  0.
        998    1    1    2    0    0 -0.11701071255E+02 -0.22570186489E+01  0.14538801731E+04  0.14539633994E+04  0.10000000000E+02 0.  1.
</event>
<event>
 5    1  0.1344348E-008  0.3843531E+03  0.7957747E-01  0.3432421E+00
         13   -1    0    0    0    0  0.00000000000E+00  0.00000000000E+00  0.14999999963E+04  0.15000000000E+04  0.10566000000E+00 0.  1.
        994   -1    0    0    0    0 -0.00000000000E+00 -0.00000000000E+00  0.11368683772E-12  0.17120000000E+03  0.17120000000E+03 0.  0.
         13    1    1    2    0    0  0.10392979711E+02 -0.59667709680E+01  0.37232118261E+02  0.39113401505E+02  0.10566000000E+00 0.  1.
        994    1    1    2    0    0 -0.37721665542E+01 -0.65036801929E+00  0.19999641951E+01  0.17125446586E+03  0.17120000000E+03 0.  0.
        998    1    1    2    0    0 -0.66208131567E+01  0.66171389873E+01  0.14607679138E+04  0.14608321326E+04  0.10000000000E+02 0.  1.
</event>
<event>
 5    1  0.1344348E-008  0.3789743E+03  0.7957747E-01  0.3455637E+00
         13   -1    0    0    0    0  0.00000000000E+00  0.00000000000E+00  0.14999999963E+04  0.15000000000E+04  0.10566000000E+00 0. -1.
        994   -1    0    0    0    0 -0.00000000000E+00 -0.00000000000E+00  0.11368683772E-12  0.17120000000E+03  0.17120000000E+03 0.  0.
         13    1    1    2    0    0  0.77067287119E+00 -0.24730843611E+02  0.60678422427E+02  0.65529311569E+02  0.10566000000E+00 0. -1.
        994    1    1    2    0    0 -0.12458485407E+02  0.29484101780E+02  0.80959896748E+01  0.17435455591E+03  0.17120000000E+03 0.  0.
        998    1    1    2    0    0  0.11687812536E+02 -0.47532581686E+01  0.14312255842E+04  0.14313161325E+04  0.10000000000E+02 0. -1.
</event>
<event>
 5    1  0.1344348E-008  0.3842363E+03  0.7957747E-01  0.3432918E+00
         13   -1    0    0    0    0  0.00000000000E+00  0.00000000000E+00  0.14999999963E+04  0.15000000000E+04  0.10566000000E+00 0. -1.
        994   -1    0    0    0    0 -0.00000000000E+00 -0.00000000000E+00  0.11368683772E-12  0.17120000000E+03  0.17120000000E+03 0.  0.
         13    1    1    2    0    0  0.20475019207E+01 -0.12113404972E+02  0.38779401648E+02  0.40678987209E+02  0.10566000000E+00 0. -1.
        994    1    1    2    0    0  0.27138241413E+01 -0.10336815166E+01  0.20375907859E+01  0.17123675165E+03  0.17120000000E+03 0.  0.
        998    1    1    2    0    0 -0.47613260620E+01  0.13147086488E+02  0.14591830038E+04  0.14592842611E+04  0.10000000000E+02 0. -1.
</event>
<event>
 5    1  0.1344348E-008  0.3804583E+03  0.7957747E-01  0.3449165E+00
         13   -1    0    0    0    0  0.00000000000E+00  0.00000000000E+00  0.14999999963E+04  0.15000000000E+04  0.10566000000E+00 0.  1.
        994   -1    0    0    0    0 -0.00000000000E+00 -0.00000000000E+00  0.11368683772E-12  0.17120000000E+03  0.17120000000E+03 0.  0.
         13    1    1    2    0    0  0.11502814019E+02 -0.68231281290E+00  0.15393533844E+02  0.19228945093E+02  0.10566000000E+00 0.  1.
        994    1    1    2    0    0 -0.72767542407E+01 -0.59686360662E+00  0.40799440750E+01  0.17140418123E+03  0.17120000000E+03 0.  0.
        998    1    1    2    0    0 -0.42260597785E+01  0.12791764195E+01  0.14805265184E+04  0.14805668737E+04  0.10000000000E+02 0.  1.
</event>
<event>
 5    1  0.1344348E-008  0.3849491E+03  0.7957747E-01  0.3429888E+00
         13   -1    0    0    0    0  0.00000000000E+00  0.00000000000E+00  0.14999999963E+04  0.15000000000E+04  0.10566000000E+00 0.  1.
        994   -1    0    0    0    0 -0.00000000000E+00 -0.00000000000E+00  0.11368683772E-12  0.17120000000E+03  0.17120000000E+03 0.  0.
         13    1    1    2    0    0 -0.18267471482E+02  0.26748488926E+01  0.96911039655E+02  0.98654022230E+02  0.10566000000E+00 0.  1.
        994    1    1    2    0    0  0.19129353483E+02 -0.59627901227E+01  0.29771025447E+01  0.17239428694E+03  0.17120000000E+03 0.  0.
        998    1    1    2    0    0 -0.86188200140E+00  0.32879412301E+01  0.14001118541E+04  0.14001516908E+04  0.10000000000E+02 0.  1.
</event>
<event>
 5    1  0.2338100E-008  0.3860230E+03  0.7957747E-01  0.3425345E+00
         13   -1    0    0    0    0  0.00000000000E+00  0.00000000000E+00  0.14999999963E+04  0.15000000000E+04  0.10566000000E+00 0.  1.
        994   -1    0    0    0    0 -0.00000000000E+00 -0.00000000000E+00  0.11368683772E-12  0.17120000000E+03  0.17120000000E+03 0.  0.
         13    1    1    2    0    0  0.65035807367E+01 -0.99562665102E+01  0.65994668590E+02  0.67057671087E+02  0.10566000000E+00 0.  1.
        994    1    1    2    0    0 -0.43460121053E+01  0.12096358153E+01  0.11897739814E+01  0.17126355889E+03  0.17120000000E+03 0.  0.
        998    1    1    2    0    0 -0.21575686314E+01  0.87466306949E+01  0.14328155537E+04  0.14328787700E+04  0.10000000000E+02 0.  1.
</event>
<event>
 5    1  0.1344348E-008  0.3754900E+03  0.7957747E-01  0.3471034E+00
         13   -1    0    0    0    0  0.00000000000E+00  0.00000000000E+00  0.14999999963E+04  0.15000000000E+04  0.10566000000E+00 0. -1.
        994   -1    0    0    0    0 -0.00000000000E+00 -0.00000000000E+00  0.11368683772E-12  0.17120000000E+03  0.17120000000E+03 0.  0.
         13    1    1    2    0    0  0.39003973528E+02  0.31065581384E+02  0.21103884367E+03  0.21684968296E+03  0.10566000000E+00 0. -1.
        994    1    1    2    0    0 -0.18369977551E+02  0.13048098786E+01  0.75791218509E+01  0.17235440723E+03  0.17120000000E+03 0.  0.
        998    1    1    2    0    0 -0.20633995978E+02 -0.32370391262E+02  0.12813820308E+04  0.12819959098E+04  0.10000000000E+02 0. -1.
</event>
<event>
 5    1  0.1344348E-008  0.3778674E+03  0.7957747E-01  0.3460497E+00
         13   -1    0    0    0    0  0.00000000000E+00  0.00000000000E+00  0.14999999963E+04  0.15000000000E+04  0.10566000000E+00 0.  1.
        994   -1    0    0    0    0 -0.00000000000E+00 -0.00000000000E+00  0.11368683772E-12  0.17120000000E+03  0.17120000000E+03 0.  0.
         13    1    1    2    0    0  0.10877532292E+03  0.72877375872E+02  0.78442452249E+03  0.79527669740E+03  0.10566000000E+00 0.  1.
        994    1    1    2    0    0 -0.10933529156E+03 -0.65796162872E+02  0.62154163974E+02  0.22238687265E+03  0.17120000000E+03 0.  0.
        998    1    1    2    0    0  0.55996864025E+00 -0.70812129997E+01  0.65342130982E+03  0.65353642995E+03  0.10000000000E+02 0.  0.
</event>
<event>
 5    1  0.1344348E-008  0.3792421E+03  0.7957747E-01  0.3454465E+00
         13   -1    0    0    0    0  0.00000000000E+00  0.00000000000E+00  0.14999999963E+04  0.15000000000E+04  0.10566000000E+00 0. -1.
        994   -1    0    0    0    0 -0.00000000000E+00 -0.00000000000E+00  0.11368683772E-12  0.17120000000E+03  0.17120000000E+03 0.  0.
         13    1    1    2    0    0  0.36095033141E+02 -0.21675384133E+02  0.18316603979E+03  0.18794276520E+03  0.10566000000E+00 0. -1.
        994    1    1    2    0    0 -0.37155872889E+02  0.38321821936E+01  0.92063208562E+01  0.17546920201E+03  0.17120000000E+03 0.  0.
        998    1    1    2    0    0  0.10608397486E+01  0.17843201940E+02  0.13076276356E+04  0.13077880328E+04  0.10000000000E+02 0.  0.
</event>
<event>
 5    1  0.1344348E-008  0.3851050E+03  0.7957747E-01  0.3429227E+00
         13   -1    0    0    0    0  0.00000000000E+00  0.00000000000E+00  0.14999999963E+04  0.15000000000E+04  0.10566000000E+00 0.  1.
        994   -1    0    0    0    0 -0.00000000000E+00 -0.00000000000E+00  0.11368683772E-12  0.17120000000E+03  0.17120000000E+03 0.  0.
         13    1    1    2    0    0  0.75450398116E+00  0.18621136017E+02  0.10367531910E+03  0.10533707295E+03  0.10566000000E+00 0.  1.
        994    1    1    2    0    0 -0.72372587372E-01 -0.19432494189E+02  0.28204700753E+01  0.17232243650E+03  0.17120000000E+03 0.  0.
        998    1    1    2    0    0 -0.68213139379E+00  0.81135817184E+00  0.13935042071E+04  0.13935404906E+04  0.10000000000E+02 0.  1.
</event>
<event>
 5    1  0.1344348E-008  0.3852673E+03  0.7957747E-01  0.3428539E+00
         13   -1    0    0    0    0  0.00000000000E+00  0.00000000000E+00  0.14999999963E+04  0.15000000000E+04  0.10566000000E+00 0. -1.
        994   -1    0    0    0    0 -0.00000000000E+00 -0.00000000000E+00  0.11368683772E-12  0.17120000000E+03  0.17120000000E+03 0.  0.
         13    1    1    2    0    0  0.40631367257E+01 -0.12902093370E+02  0.63598391729E+02  0.65021071108E+02  0.10566000000E+00 0. -1.
        994    1    1    2    0    0  0.64508838981E+01  0.55035269757E+01  0.17337629686E+01  0.17141863564E+03  0.17120000000E+03 0.  0.
        998    1    1    2    0    0 -0.10514020624E+02  0.73985663946E+01  0.14346678416E+04  0.14347602932E+04  0.10000000000E+02 0. -1.
</event>
<event>
 5    1  0.1344348E-008  0.4206517E+03  0.7957747E-01  0.3291246E+00
         13   -1    0    0    0    0  0.00000000000E+00  0.00000000000E+00  0.14999999963E+04  0.15000000000E+04  0.10566000000E+00 0.  1.
        994   -1    0    0    0    0 -0.00000000000E+00 -0.00000000000E+00  0.11368683772E-12  0.17120000000E+03  0.17120000000E+03 0.  0.
         13    1    1    2    0    0  0.17540376389E+02 -0.72455127326E+01 -0.12996377239E+02  0.23001722631E+02  0.10566000000E+00 0.  1.
        994    1    1    2    0    0 -0.10333259666E+02  0.77168342466E+01  0.41473074569E+02  0.17662327621E+03  0.17120000000E+03 0.  0.
        998    1    1    2    0    0 -0.72071167231E+01 -0.47132151403E+00  0.14715232989E+04  0.14715750012E+04  0.10000000000E+02 0.  1.
</event>
<event>
 5    1  0.1344348E-008  0.3857697E+03  0.7957747E-01  0.3426414E+00
         13   -1    0    0    0    0  0.00000000000E+00  0.00000000000E+00  0.14999999963E+04  0.15000000000E+04  0.10566000000E+00 0.  1.
        994   -1    0    0    0    0 -0.00000000000E+00 -0.00000000000E+00  0.11368683772E-12  0.17120000000E+03  0.17120000000E+03 0.  0.
         13    1    1    2    0    0  0.10879071840E+02  0.45309976838E+01  0.53651904291E+02  0.54931067186E+02  0.10566000000E+00 0.  1.
        994    1    1    2    0    0 -0.11187192459E+02 -0.11549900337E+02  0.20971173728E+01  0.17196625068E+03  0.17120000000E+03 0.  0.
        998    1    1    2    0    0  0.30812061958E+00  0.70189026535E+01  0.14442509746E+04  0.14443026821E+04  0.10000000000E+02 0.  1.
</event>
<event>
 5    1  0.1344348E-008  0.3825236E+03  0.7957747E-01  0.3440243E+00
         13   -1    0    0    0    0  0.00000000000E+00  0.00000000000E+00  0.14999999963E+04  0.15000000000E+04  0.10566000000E+00 0.  1.
        994   -1    0    0    0    0 -0.00000000000E+00 -0.00000000000E+00  0.11368683772E-12  0.17120000000E+03  0.17120000000E+03 0.  0.
         13    1    1    2    0    0 -0.49793005657E+01  0.87585271575E+01  0.16512752699E+02  0.19343924055E+02  0.10566000000E+00 0.  1.
        994    1    1    2    0    0  0.19043143890E+01 -0.87883412196E+01  0.31327556775E+01  0.17146461884E+03  0.17120000000E+03 0.  0.
        998    1    1    2    0    0  0.30749861768E+01  0.29814062056E-01  0.14803544879E+04  0.14803914571E+04  0.10000000000E+02 0.  1.
</event>
<event>
 5    1  0.1344348E-008  0.3758422E+03  0.7957747E-01  0.3469465E+00
         13   -1    0    0    0    0  0.00000000000E+00  0.00000000000E+00  0.14999999963E+04  0.15000000000E+04  0.10566000000E+00 0. -1.
        994   -1    0    0    0    0 -0.00000000000E+00 -0.00000000000E+00  0.11368683772E-12  0.17120000000E+03  0.17120000000E+03 0.  0.
         13    1    1    2    0    0 -0.40958899391E+01  0.24250725915E+02  0.44547467412E+02  0.50885774423E+02  0.10566000000E+00 0. -1.
        994    1    1    2    0    0  0.81830744146E+01 -0.25309556851E+02  0.86488434010E+01  0.17346982120E+03  0.17120000000E+03 0.  0.
        998    1    1    2    0    0 -0.40871844754E+01  0.10588309364E+01  0.14468036855E+04  0.14468444044E+04  0.10000000000E+02 0. -1.
</event>
<event>
 5    1  0.1344348E-008  0.3686667E+03  0.7957747E-01  0.3502041E+00
         13   -1    0    0    0    0  0.00000000000E+00  0.00000000000E+00  0.14999999963E+04  0.15000000000E+04  0.10566000000E+00 0.  1.
        994   -1    0    0    0    0 -0.00000000000E+00 -0.00000000000E+00  0.11368683772E-12  0.17120000000E+03  0.17120000000E+03 0.  0.
         13    1    1    2    0    0 -0.78835647537E+02  0.12832932312E+03  0.58468550705E+03  0.60377199985E+03  0.10566000000E+00 0.  1.
        994    1    1    2    0    0  0.77984762448E+02 -0.13519646210E+03  0.10050541785E+03  0.25252818764E+03  0.17120000000E+03 0.  0.
        998    1    1    2    0    0  0.85088508834E+00  0.68671389830E+01  0.81480907139E+03  0.81489981250E+03  0.10000000000E+02 0.  0.
</event>
<event>
 5    1  0.1344348E-008  0.3689449E+03  0.7957747E-01  0.3500754E+00
         13   -1    0    0    0    0  0.00000000000E+00  0.00000000000E+00  0.14999999963E+04  0.15000000000E+04  0.10566000000E+00 0. -1.
        994   -1    0    0    0    0 -0.00000000000E+00 -0.00000000000E+00  0.11368683772E-12  0.17120000000E+03  0.17120000000E+03 0.  0.
         13    1    1    2    0    0  0.24810003833E+02  0.51351525283E+02  0.17759269475E+03  0.18652531151E+03  0.10566000000E+00 0. -1.
        994    1    1    2    0    0  0.24987799411E+02 -0.30245336249E+02  0.15181899983E+02  0.17629265603E+03  0.17120000000E+03 0.  0.
        998    1    1    2    0    0 -0.49797803244E+02 -0.21106189034E+02  0.13072254015E+04  0.13083820325E+04  0.10000000000E+02 0. -1.
</event>
<event>
 5    1  0.1344348E-008  0.3852761E+03  0.7957747E-01  0.3428502E+00
         13   -1    0    0    0    0  0.00000000000E+00  0.00000000000E+00  0.14999999963E+04  0.15000000000E+04  0.10566000000E+00 0.  1.
        994   -1    0    0    0    0 -0.00000000000E+00 -0.00000000000E+00  0.11368683772E-12  0.17120000000E+03  0.17120000000E+03 0.  0.
         13    1    1    2    0    0 -0.50324510401E+01 -0.11073640035E+02  0.47410793260E+02  0.48946353783E+02  0.10566000000E+00 0.  1.
        994    1    1    2    0    0  0.46726754259E+01  0.15767309118E+02  0.23821998511E+01  0.17200452555E+03  0.17120000000E+03 0.  0.
        998    1    1    2    0    0  0.35977561424E+00 -0.46936690831E+01  0.14502070032E+04  0.14502491207E+04  0.10000000000E+02 0.  1.
</event>
<event>
 5    1  0.1344348E-008  0.3843294E+03  0.7957747E-01  0.3432521E+00
         13   -1    0    0    0    0  0.00000000000E+00  0.00000000000E+00  0.14999999963E+04  0.15000000000E+04  0.10566000000E+00 0. -1.
        994   -1    0    0    0    0 -0.00000000000E+00 -0.00000000000E+00  0.11368683772E-12  0.17120000000E+03  0.17120000000E+03 0.  0.
         13    1    1    2    0    0  0.92678252285E+01  0.14865829926E+02  0.80802371470E+02  0.82679621933E+02  0.10566000000E+00 0. -1.
        994    1    1    2    0    0 -0.47385571979E+01 -0.36392053498E+01  0.20811010026E+01  0.17131686642E+03  0.17120000000E+03 0.  0.
        998    1    1    2    0    0 -0.45292680307E+01 -0.11226624576E+02  0.14171165238E+04  0.14172035116E+04  0.10000000000E+02 0. -1.
</event>
<event>
 5    1  0.1344348E-008  0.3848920E+03  0.7957747E-01  0.3430131E+00
         13   -1    0    0    0    0  0.00000000000E+00  0.00000000000E+00  0.14999999963E+04  0.15000000000E+04  0.10566000000E+00 0.  1.
        994   -1    0    0    0    0 -0.00000000000E+00 -0.00000000000E+00  0.11368683772E-12  0.17120000000E+03  0.17120000000E+03 0.  0.
         13    1    1    2    0    0  0.42960662067E+01  0.12769117101E+02  0.53060361324E+02  0.54744128856E+02  0.10566000000E+00 0.  1.
        994    1    1    2    0    0 -0.47217499804E+01 -0.10502681257E+02  0.21201408484E+01  0.17159993075E+03  0.17120000000E+03 0.  0.
        998    1    1    2    0    0  0.42568377369E+00 -0.22664358440E+01  0.14448194941E+04  0.14448559404E+04  0.10000000000E+02 0.  1.
</event>
<event>
 5    1  0.1344348E-008  0.3848471E+03  0.7957747E-01  0.3430321E+00
         13   -1    0    0    0    0  0.00000000000E+00  0.00000000000E+00  0.14999999963E+04  0.15000000000E+04  0.10566000000E+00 0.  1.
        994   -1    0    0    0    0 -0.00000000000E+00 -0.00000000000E+00  0.11368683772E-12  0.17120000000E+03  0.17120000000E+03 0.  0.
         13    1    1    2    0    0  0.10646412270E+02  0.24493682657E+01  0.31933245894E+02  0.33750390464E+02  0.10566000000E+00 0.  1.
        994    1    1    2    0    0 -0.25838152438E+02 -0.55854454463E+01  0.40087292750E+01  0.17327526434E+03  0.17120000000E+03 0.  0.
        998    1    1    2    0    0  0.15191740169E+02  0.31360771807E+01  0.14640580211E+04  0.14641743452E+04  0.10000000000E+02 0.  1.
</event>
<event>
 5    1  0.1344348E-008  0.3840643E+03  0.7957747E-01  0.3433650E+00
         13   -1    0    0    0    0  0.00000000000E+00  0.00000000000E+00  0.14999999963E+04  0.15000000000E+04  0.10566000000E+00 0.  1.
        994   -1    0    0    0    0 -0.00000000000E+00 -0.00000000000E+00  0.11368683772E-12  0.17120000000E+03  0.17120000000E+03 0.  0.
         13    1    1    2    0    0  0.58598972751E+01 -0.14322811085E+02  0.56536671988E+02  0.58616446131E+02  0.10566000000E+00 0.  1.
        994    1    1    2    0    0  0.29655408978E+01  0.12941160315E+02  0.26770612541E+01  0.17173489663E+03  0.17120000000E+03 0.  0.
        998    1    1    2    0    0 -0.88254381729E+01  0.13816507701E+01  0.14407862630E+04  0.14408486572E+04  0.10000000000E+02 0.  1.
</event>
<event>
 5    1  0.1344348E-008  0.3767394E+03  0.7957747E-01  0.3465480E+00
         13   -1    0    0    0    0  0.00000000000E+00  0.00000000000E+00  0.14999999963E+04  0.15000000000E+04  0.10566000000E+00 0. -1.
        994   -1    0    0    0    0 -0.00000000000E+00 -0.00000000000E+00  0.11368683772E-12  0.17120000000E+03  0.17120000000E+03 0.  0.
         13    1    1    2    0    0  0.31917141940E+02 -0.43883839870E+02  0.21931259400E+03  0.22592591795E+03  0.10566000000E+00 0.  1.
        994    1    1    2    0    0 -0.32211828686E+02  0.41609281696E+02  0.15203392179E+02  0.17974848362E+03  0.17120000000E+03 0.  0.
        998    1    1    2    0    0  0.29468674673E+00  0.22745581734E+01  0.12654840101E+04  0.12655255984E+04  0.10000000000E+02 0. -1.
</event>
<event>
 5    1  0.1344348E-008  0.3829402E+03  0.7957747E-01  0.3438455E+00
         13   -1    0    0    0    0  0.00000000000E+00  0.00000000000E+00  0.14999999963E+04  0.15000000000E+04  0.10566000000E+00 0. -1.
        994   -1    0    0    0    0 -0.00000000000E+00 -0.00000000000E+00  0.11368683772E-12  0.17120000000E+03  0.17120000000E+03 0.  0.
         13    1    1    2    0    0 -0.24850010587E+01 -0.11182294117E+02  0.24034681588E+02  0.26625101222E+02  0.10566000000E+00 0. -1.
        994    1    1    2    0    0 -0.11032886161E+02  0.68356188927E+01  0.32141621212E+01  0.17172134725E+03  0.17120000000E+03 0.  0.
        998    1    1    2    0    0  0.13517887220E+02  0.43466752241E+01  0.14727511526E+04  0.14728535515E+04  0.10000000000E+02 0. -1.
</event>
<event>
 5    1  0.1344348E-008  0.3845532E+03  0.7957747E-01  0.3431570E+00
         13   -1    0    0    0    0  0.00000000000E+00  0.00000000000E+00  0.14999999963E+04  0.15000000000E+04  0.10566000000E+00 0.  1.
        994   -1    0    0    0    0 -0.00000000000E+00 -0.00000000000E+00  0.11368683772E-12  0.17120000000E+03  0.17120000000E+03 0.  0.
         13    1    1    2    0    0  0.10420613077E+02  0.80944982463E+01  0.47183432834E+02  0.48993852439E+02  0.10566000000E+00 0.  1.
        994    1    1    2    0    0 -0.48472305783E+01 -0.50702799209E+01  0.20142158689E+01  0.17135547977E+03  0.17120000000E+03 0.  0.
        998    1    1    2    0    0 -0.55733824991E+01 -0.30242183254E+01  0.14508023476E+04  0.14508506678E+04  0.10000000000E+02 0.  1.
</event>
<event>
 5    1  0.1344348E-008  0.3688204E+03  0.7957747E-01  0.3501330E+00
         13   -1    0    0    0    0  0.00000000000E+00  0.00000000000E+00  0.14999999963E+04  0.15000000000E+04  0.10566000000E+00 0. -1.
        994   -1    0    0    0    0 -0.00000000000E+00 -0.00000000000E+00  0.11368683772E-12  0.17120000000E+03  0.17120000000E+03 0.  0.
         13    1    1    2    0    0 -0.77646706607E+02  0.16519563055E+02  0.33945698539E+03  0.34861578149E+03  0.10566000000E+00 0. -1.
        994    1    1    2    0    0  0.43453218158E+02  0.26723426967E+02  0.18976646524E+02  0.17964374977E+03  0.17120000000E+03 0.  0.
        998    1    1    2    0    0  0.34193488449E+02 -0.43242990022E+02  0.11415663644E+04  0.11429404687E+04  0.10000000000E+02 0. -1.
</event>
<event>
 5    1  0.1344348E-008  0.3850188E+03  0.7957747E-01  0.3429592E+00
         13   -1    0    0    0    0  0.00000000000E+00  0.00000000000E+00  0.14999999963E+04  0.15000000000E+04  0.10566000000E+00 0. -1.
        994   -1    0    0    0    0 -0.00000000000E+00 -0.00000000000E+00  0.11368683772E-12  0.17120000000E+03  0.17120000000E+03 0.  0.
         13    1    1    2    0    0  0.13404527315E+02 -0.82266102033E+01  0.77890608449E+02  0.79462673731E+02  0.10566000000E+00 0. -1.
        994    1    1    2    0    0 -0.75722466820E+01  0.18438606135E+01  0.18205501671E+01  0.17138696900E+03  0.17120000000E+03 0.  0.
        998    1    1    2    0    0 -0.58322806335E+01  0.63827495898E+01  0.14202888377E+04  0.14203503573E+04  0.10000000000E+02 0. -1.
</event>
<event>
 5    1  0.1344348E-008  0.3844767E+03  0.7957747E-01  0.3431895E+00
         13   -1    0    0    0    0  0.00000000000E+00  0.00000000000E+00  0.14999999963E+04  0.15000000000E+04  0.10566000000E+00 0. -1.
        994   -1    0    0    0    0 -0.00000000000E+00 -0.00000000000E+00  0.11368683772E-12  0.17120000000E+03  0.17120000000E+03 0.  0.
         13    1    1    2    0    0 -0.17898321955E+02  0.28038082057E+00  0.81784101809E+02  0.83720242564E+02  0.10566000000E+00 0. -1.
        994    1    1    2    0    0  0.16579365680E+02  0.19343354742E+01  0.28085292113E+01  0.17203471992E+03  0.17120000000E+03 0.  0.
        998    1    1    2    0    0  0.13189562751E+01 -0.22147162947E+01  0.14154073653E+04  0.14154450375E+04  0.10000000000E+02 0. -1.
</event>
<event>
 5    1  0.1344348E-008  0.3831054E+03  0.7957747E-01  0.3437747E+00
         13   -1    0    0    0    0  0.00000000000E+00  0.00000000000E+00  0.14999999963E+04  0.15000000000E+04  0.10566000000E+00 0. -1.
        994   -1    0    0    0    0 -0.00000000000E+00 -0.00000000000E+00  0.11368683772E-12  0.17120000000E+03  0.17120000000E+03 0.  0.
         13    1    1    2    0    0 -0.29350511472E+02  0.10987059388E+01  0.15196307174E+03  0.15477546968E+03  0.10566000000E+00 0. -1.
        994    1    1    2    0    0  0.29635767931E+02  0.27805614475E+01  0.55110211477E+01  0.17385574945E+03  0.17120000000E+03 0.  0.
        998    1    1    2    0    0 -0.28525645928E+00 -0.38792673863E+01  0.13425259034E+04  0.13425687809E+04  0.10000000000E+02 0. -1.
</event>
<event>
 5    1  0.1344348E-008  0.3837278E+03  0.7957747E-01  0.3435086E+00
         13   -1    0    0    0    0  0.00000000000E+00  0.00000000000E+00  0.14999999963E+04  0.15000000000E+04  0.10566000000E+00 0. -1.
        994   -1    0    0    0    0 -0.00000000000E+00 -0.00000000000E+00  0.11368683772E-12  0.17120000000E+03  0.17120000000E+03 0.  0.
         13    1    1    2    0    0  0.18117967810E+02 -0.86636317223E+00  0.71742271508E+02  0.73999838026E+02  0.10566000000E+00 0. -1.
        994    1    1    2    0    0 -0.12581829631E+02  0.34424093074E+01  0.28251813453E+01  0.17171946386E+03  0.17120000000E+03 0.  0.
        998    1    1    2    0    0 -0.55361381791E+01 -0.25760461352E+01  0.14254325434E+04  0.14254806981E+04  0.10000000000E+02 0. -1.
</event>
<event>
 5    1  0.1344348E-008  0.3801651E+03  0.7957747E-01  0.3450440E+00
         13   -1    0    0    0    0  0.00000000000E+00  0.00000000000E+00  0.14999999963E+04  0.15000000000E+04  0.10566000000E+00 0.  1.
        994   -1    0    0    0    0 -0.00000000000E+00 -0.00000000000E+00  0.11368683772E-12  0.17120000000E+03  0.17120000000E+03 0.  0.
         13    1    1    2    0    0 -0.18560180365E+02 -0.76048553385E+00  0.41539134287E+02  0.45503510577E+02  0.10566000000E+00 0.  1.
        994    1    1    2    0    0  0.88436237001E+01  0.52506736135E+01  0.44033278996E+01  0.17156517289E+03  0.17120000000E+03 0.  0.
        998    1    1    2    0    0  0.97165566649E+01 -0.44901880797E+01  0.14540575341E+04  0.14541313165E+04  0.10000000000E+02 0.  1.
</event>
<event>
 5    1  0.1344348E-008  0.4115913E+03  0.7957747E-01  0.3324173E+00
         13   -1    0    0    0    0  0.00000000000E+00  0.00000000000E+00  0.14999999963E+04  0.15000000000E+04  0.10566000000E+00 0. -1.
        994   -1    0    0    0    0 -0.00000000000E+00 -0.00000000000E+00  0.11368683772E-12  0.17120000000E+03  0.17120000000E+03 0.  0.
         13    1    1    2    0    0  0.33272709112E+02 -0.21713398561E+02  0.74973709675E+01  0.40432246836E+02  0.10566000000E+00 0. -1.
        994    1    1    2    0    0 -0.37886013219E+02  0.58152619032E+02  0.54980549578E+02  0.19274173894E+03  0.17120000000E+03 0.  0.
        998    1    1    2    0    0  0.46133041068E+01 -0.36439220471E+02  0.14375220757E+04  0.14380260142E+04  0.10000000000E+02 0. -1.
</event>
<event>
 5    1  0.1344348E-008  0.3806424E+03  0.7957747E-01  0.3448366E+00
         13   -1    0    0    0    0  0.00000000000E+00  0.00000000000E+00  0.14999999963E+04  0.15000000000E+04  0.10566000000E+00 0.  1.
        994   -1    0    0    0    0 -0.00000000000E+00 -0.00000000000E+00  0.11368683772E-12  0.17120000000E+03  0.17120000000E+03 0.  0.
         13    1    1    2    0    0 -0.41630566432E+01 -0.33612869148E+02  0.12019004866E+03  0.12487119353E+03  0.10566000000E+00 0.  1.
        994    1    1    2    0    0  0.36280823164E+02  0.55001753724E+02  0.18430016835E+02  0.18436538873E+03  0.17120000000E+03 0.  0.
        998    1    1    2    0    0 -0.32117766521E+02 -0.21388884575E+02  0.13613799308E+04  0.13619634177E+04  0.10000000000E+02 0.  1.
</event>
<event>
 5    1  0.1344348E-008  0.3823109E+03  0.7957747E-01  0.3441158E+00
         13   -1    0    0    0    0  0.00000000000E+00  0.00000000000E+00  0.14999999963E+04  0.15000000000E+04  0.10566000000E+00 0. -1.
        994   -1    0    0    0    0 -0.00000000000E+00 -0.00000000000E+00  0.11368683772E-12  0.17120000000E+03  0.17120000000E+03 0.  0.
         13    1    1    2    0    0 -0.13253107404E+02 -0.64738620474E+01  0.36993308567E+02  0.39825516801E+02  0.10566000000E+00 0. -1.
        994    1    1    2    0    0 -0.27871056047E+01  0.47248895381E+01  0.30710035468E+01  0.17131539219E+03  0.17120000000E+03 0.  0.
        998    1    1    2    0    0  0.16040213008E+02  0.17489725093E+01  0.14599356842E+04  0.14600590910E+04  0.10000000000E+02 0. -1.
</event>
<event>
 5    1  0.1344348E-008  0.3851011E+03  0.7957747E-01  0.3429244E+00
         13   -1    0    0    0    0  0.00000000000E+00  0.00000000000E+00  0.14999999963E+04  0.15000000000E+04  0.10566000000E+00 0. -1.
        994   -1    0    0    0    0 -0.00000000000E+00 -0.00000000000E+00  0.11368683772E-12  0.17120000000E+03  0.17120000000E+03 0.  0.
         13    1    1    2    0    0  0.27037398271E+01  0.10561946797E+02  0.37520535664E+02  0.39072582327E+02  0.10566000000E+00 0. -1.
        994    1    1    2    0    0 -0.32030227394E+01 -0.67285962528E+01  0.17625635123E+01  0.17137117608E+03  0.17120000000E+03 0.  0.
        998    1    1    2    0    0  0.49928291231E+00 -0.38333505442E+01  0.14607168971E+04  0.14607562416E+04  0.10000000000E+02 0. -1.
</event>
<event>
 5    1  0.1344348E-008  0.3752660E+03  0.7957747E-01  0.3472034E+00
         13   -1    0    0    0    0  0.00000000000E+00  0.00000000000E+00  0.14999999963E+04  0.15000000000E+04  0.10566000000E+00 0. -1.
        994   -1    0    0    0    0 -0.00000000000E+00 -0.00000000000E+00  0.11368683772E-12  0.17120000000E+03  0.17120000000E+03 0.  0.
         13    1    1    2    0    0 -0.29084574715E+02  0.20249616391E+02  0.89142137901E+02  0.95928574283E+02  0.10566000000E+00 0. -1.
        994    1    1    2    0    0  0.36059518982E+02 -0.79872568346E+01  0.11188874889E+02  0.17549562987E+03  0.17120000000E+03 0.  0.
        998    1    1    2    0    0 -0.69749442664E+01 -0.12262359557E+02  0.13996689835E+04  0.13997757959E+04  0.10000000000E+02 0. -1.
</event>
<event>
 5    1  0.1344348E-008  0.3854198E+03  0.7957747E-01  0.3427894E+00
         13   -1    0    0    0    0  0.00000000000E+00  0.00000000000E+00  0.14999999963E+04  0.15000000000E+04  0.10566000000E+00 0. -1.
        994   -1    0    0    0    0 -0.00000000000E+00 -0.00000000000E+00  0.11368683772E-12  0.17120000000E+03  0.17120000000E+03 0.  0.
         13    1    1    2    0    0 -0.11923798746E+02  0.10070184140E+02  0.90430247947E+02  0.91767240848E+02  0.10566000000E+00 0. -1.
        994    1    1    2    0    0  0.10050578630E+01 -0.48895688746E+01  0.15037209243E+01  0.17127936012E+03  0.17120000000E+03 0.  0.
        998    1    1    2    0    0  0.10918740883E+02 -0.51806152652E+01  0.14080660274E+04  0.14081533990E+04  0.10000000000E+02 0. -1.
</event>
<event>
 5    1  0.1344348E-008  0.3689613E+03  0.7957747E-01  0.3500678E+00
         13   -1    0    0    0    0  0.00000000000E+00  0.00000000000E+00  0.14999999963E+04  0.15000000000E+04  0.10566000000E+00 0. -1.
        994   -1    0    0    0    0 -0.00000000000E+00 -0.00000000000E+00  0.11368683772E-12  0.17120000000E+03  0.17120000000E+03 0.  0.
         13    1    1    2    0    0 -0.70551133861E+01  0.19521985685E+02  0.16091359768E+02  0.26264530706E+02  0.10566000000E+00 0. -1.
        994    1    1    2    0    0  0.69914600115E+01 -0.17939206533E+02  0.11682894433E+02  0.17267491325E+03  0.17120000000E+03 0.  0.
        998    1    1    2    0    0  0.63653374600E-01 -0.15827791521E+01  0.14722257421E+04  0.14722605560E+04  0.10000000000E+02 0. -1.
</event>
<event>
 5    1  0.1344348E-008  0.3734006E+03  0.7957747E-01  0.3480407E+00
         13   -1    0    0    0    0  0.00000000000E+00  0.00000000000E+00  0.14999999963E+04  0.15000000000E+04  0.10566000000E+00 0.  1.
        994   -1    0    0    0    0 -0.00000000000E+00 -0.00000000000E+00  0.11368683772E-12  0.17120000000E+03  0.17120000000E+03 0.  0.
         13    1    1    2    0    0 -0.99971867106E+01 -0.80833489751E+02  0.33123910054E+03  0.34110606810E+03  0.10566000000E+00 0.  1.
        994    1    1    2    0    0  0.11699129918E+02  0.84308883812E+02  0.32682646016E+02  0.19396508160E+03  0.17120000000E+03 0.  0.
        998    1    1    2    0    0 -0.17019432074E+01 -0.34753940610E+01  0.11360782497E+04  0.11361288503E+04  0.10000000000E+02 0.  0.
</event>
<event>
 5    1  0.1344348E-008  0.4176597E+03  0.7957747E-01  0.3301964E+00
         13   -1    0    0    0    0  0.00000000000E+00  0.00000000000E+00  0.14999999963E+04  0.15000000000E+04  0.10566000000E+00 0. -1.
        994   -1    0    0    0    0 -0.00000000000E+00 -0.00000000000E+00  0.11368683772E-12  0.17120000000E+03  0.17120000000E+03 0.  0.
         13    1    1    2    0    0 -0.14630342130E+03  0.62771528756E+02  0.35233390647E+03  0.38663179993E+03  0.10566000000E+00 0. -1.
        994    1    1    2    0    0  0.84060632896E+02 -0.65503009654E+01  0.69499474165E+02  0.20309779259E+03  0.17120000000E+03 0.  0.
        998    1    1    2    0    0  0.62242788403E+02 -0.56221227790E+02  0.10781666156E+04  0.10814704075E+04  0.10000000000E+02 0. -1.
</event>
<event>
 5    1  0.1344348E-008  0.3795843E+03  0.7957747E-01  0.3452970E+00
         13   -1    0    0    0    0  0.00000000000E+00  0.00000000000E+00  0.14999999963E+04  0.15000000000E+04  0.10566000000E+00 0. -1.
        994   -1    0    0    0    0 -0.00000000000E+00 -0.00000000000E+00  0.11368683772E-12  0.17120000000E+03  0.17120000000E+03 0.  0.
         13    1    1    2    0    0 -0.35783614001E+02 -0.22939320335E+02  0.21404102901E+03  0.21822065144E+03  0.10566000000E+00 0. -1.
        994    1    1    2    0    0  0.13841520577E+02  0.15016531453E+02  0.57405578664E+01  0.17250935602E+03  0.17120000000E+03 0.  0.
        998    1    1    2    0    0  0.21942093424E+02  0.79227888823E+01  0.12802184094E+04  0.12804699925E+04  0.10000000000E+02 0. -1.
</event>
<event>
 5    1  0.1344348E-008  0.3764879E+03  0.7957747E-01  0.3466595E+00
         13   -1    0    0    0    0  0.00000000000E+00  0.00000000000E+00  0.14999999963E+04  0.15000000000E+04  0.10566000000E+00 0.  1.
        994   -1    0    0    0    0 -0.00000000000E+00 -0.00000000000E+00  0.11368683772E-12  0.17120000000E+03  0.17120000000E+03 0.  0.
         13    1    1    2    0    0  0.59707135305E+02  0.17960482469E+02  0.28113015355E+03  0.28796127402E+03  0.10566000000E+00 0.  1.
        994    1    1    2    0    0 -0.54219515913E+02 -0.12726566626E+02  0.16480361285E+02  0.18078374847E+03  0.17120000000E+03 0.  0.
        998    1    1    2    0    0 -0.54876193923E+01 -0.52339158432E+01  0.12023894814E+04  0.12024549775E+04  0.10000000000E+02 0.  1.
</event>
<event>
 5    1  0.1344348E-008  0.3699845E+03  0.7957747E-01  0.3495962E+00
         13   -1    0    0    0    0  0.00000000000E+00  0.00000000000E+00  0.14999999963E+04  0.15000000000E+04  0.10566000000E+00 0.  1.
        994   -1    0    0    0    0 -0.00000000000E+00 -0.00000000000E+00  0.11368683772E-12  0.17120000000E+03  0.17120000000E+03 0.  0.
         13    1    1    2    0    0 -0.12727861161E+03  0.16077836963E+03  0.73663732803E+03  0.76464638449E+03  0.10566000000E+00 0.  1.
        994    1    1    2    0    0  0.11752510716E+03 -0.18625034327E+03  0.20191562058E+03  0.34435548350E+03  0.17120000000E+03 0.  0.
        998    1    1    2    0    0  0.97535044433E+01  0.25471973638E+02  0.56144704768E+03  0.56219813201E+03  0.10000000000E+02 0.  1.
</event>
<event>
 5    1  0.1344348E-008  0.3841414E+03  0.7957747E-01  0.3433322E+00
         13   -1    0    0    0    0  0.00000000000E+00  0.00000000000E+00  0.14999999963E+04  0.15000000000E+04  0.10566000000E+00 0. -1.
        994   -1    0    0    0    0 -0.00000000000E+00 -0.00000000000E+00  0.11368683772E-12  0.17120000000E+03  0.17120000000E+03 0.  0.
         13    1    1    2    0    0  0.17216341856E+01 -0.25871190337E+02  0.15574471933E+03  0.15788828733E+03  0.10566000000E+00 0. -1.
        994    1    1    2    0    0  0.17574317925E+01  0.20964730352E+02  0.35180421170E+01  0.17252369433E+03  0.17120000000E+03 0.  0.
        998    1    1    2    0    0 -0.34790659780E+01  0.49064599849E+01  0.13407372348E+04  0.13407880183E+04  0.10000000000E+02 0.  1.
</event>
<event>
 5    1  0.1344348E-008  0.3832634E+03  0.7957747E-01  0.3437071E+00
         13   -1    0    0    0    0  0.00000000000E+00  0.00000000000E+00  0.14999999963E+04  0.15000000000E+04  0.10566000000E+00 0.  1.
        994   -1    0    0    0    0 -0.00000000000E+00 -0.00000000000E+00  0.11368683772E-12  0.17120000000E+03  0.17120000000E+03 0.  0.
         13    1    1    2    0    0  0.11286575349E+02  0.13657415821E+01  0.24985281538E+02  0.27450455201E+02  0.10566000000E+00 0.  1.
        994    1    1    2    0    0 -0.84985668978E+01 -0.14025486959E+01  0.27402191762E+01  0.17143844838E+03  0.17120000000E+03 0.  0.
        998    1    1    2    0    0 -0.27880084511E+01  0.36807113757E-01  0.14722744956E+04  0.14723110964E+04  0.10000000000E+02 0.  1.
</event>
<event>
 5    1  0.1344348E-008  0.3853588E+03  0.7957747E-01  0.3428152E+00
         13   -1    0    0    0    0  0.00000000000E+00  0.00000000000E+00  0.14999999963E+04  0.15000000000E+04  0.10566000000E+00 0.  1.
        994   -1    0    0    0    0 -0.00000000000E+00 -0.00000000000E+00  0.11368683772E-12  0.17120000000E+03  0.17120000000E+03 0.  0.
         13    1    1    2    0    0  0.26278389914E+01  0.14000611280E+02  0.72088487534E+02  0.73482541144E+02  0.10566000000E+00 0.  1.
        994    1    1    2    0    0  0.22641627125E+02 -0.10681185788E+02  0.35135371339E+01  0.17305639529E+03  0.17120000000E+03 0.  0.
        998    1    1    2    0    0 -0.25269466116E+02 -0.33194254925E+01  0.14243979716E+04  0.14246610636E+04  0.10000000000E+02 0.  1.
</event>
<event>
 5    1  0.1344348E-008  0.3856218E+03  0.7957747E-01  0.3427039E+00
         13   -1    0    0    0    0  0.00000000000E+00  0.00000000000E+00  0.14999999963E+04  0.15000000000E+04  0.10566000000E+00 0. -1.
        994   -1    0    0    0    0 -0.00000000000E+00 -0.00000000000E+00  0.11368683772E-12  0.17120000000E+03  0.17120000000E+03 0.  0.
         13    1    1    2    0    0 -0.36049444246E+01  0.12272722895E+02  0.74444388154E+02  0.75535378753E+02  0.10566000000E+00 0. -1.
        994    1    1    2    0    0 -0.20403858678E+01  0.14466953064E+02  0.20225969507E+01  0.17183418404E+03  0.17120000000E+03 0.  0.
        998    1    1    2    0    0  0.56453302924E+01 -0.26739675959E+02  0.14235330112E+04  0.14238304372E+04  0.10000000000E+02 0. -1.
</event>
<event>
 5    1  0.1344348E-008  0.3276581E+03  0.7957747E-01  0.3716422E+00
         13   -1    0    0    0    0  0.00000000000E+00  0.00000000000E+00  0.14999999963E+04  0.15000000000E+04  0.10566000000E+00 0.  1.
        994   -1    0    0    0    0 -0.00000000000E+00 -0.00000000000E+00  0.11368683772E-12  0.17120000000E+03  0.17120000000E+03 0.  0.
         13    1    1    2    0    0  0.23753693262E+03 -0.35730937564E+02  0.73258090997E+03  0.77095738862E+03  0.10566000000E+00 0.  1.
        994    1    1    2    0    0 -0.23643578294E+03  0.32976278532E+02  0.25876593065E+03  0.39148251719E+03  0.17120000000E+03 0.  0.
        998    1    1    2    0    0 -0.11011496783E+01  0.27546590324E+01  0.50865315566E+03  0.50876009419E+03  0.10000000000E+02 0.  0.
</event>
<event>
 5    1  0.1344348E-008  0.3779324E+03  0.7957747E-01  0.3460211E+00
         13   -1    0    0    0    0  0.00000000000E+00  0.00000000000E+00  0.14999999963E+04  0.15000000000E+04  0.10566000000E+00 0.  1.
        994   -1    0    0    0    0 -0.00000000000E+00 -0.00000000000E+00  0.11368683772E-12  0.17120000000E+03  0.17120000000E+03 0.  0.
         13    1    1    2    0    0  0.67828574134E+02 -0.30382206207E+01  0.35351881608E+03  0.35997987547E+03  0.10566000000E+00 0.  1.
        994    1    1    2    0    0 -0.63660900383E+02  0.19763812474E+01  0.18958598559E+02  0.18364499661E+03  0.17120000000E+03 0.  0.
        998    1    1    2    0    0 -0.41676737514E+01  0.10618393733E+01  0.11275225816E+04  0.11275751279E+04  0.10000000000E+02 0.  1.
</event>
<event>
 5    1  0.1344348E-008  0.3690187E+03  0.7957747E-01  0.3500413E+00
         13   -1    0    0    0    0  0.00000000000E+00  0.00000000000E+00  0.14999999963E+04  0.15000000000E+04  0.10566000000E+00 0. -1.
        994   -1    0    0    0    0 -0.00000000000E+00 -0.00000000000E+00  0.11368683772E-12  0.17120000000E+03  0.17120000000E+03 0.  0.
         13    1    1    2    0    0 -0.37578324010E+02 -0.65264802466E+02  0.43322047788E+03  0.43971765770E+03  0.10566000000E+00 0. -1.
        994    1    1    2    0    0 -0.80940064203E+01 -0.92889855857E+01  0.10949875635E+02  0.17199167994E+03  0.17120000000E+03 0.  0.
        998    1    1    2    0    0  0.45672330431E+02  0.74553788051E+02  0.10558296428E+04  0.10594906624E+04  0.10000000000E+02 0. -1.
</event>
<event>
 5    1  0.1344348E-008  0.3814707E+03  0.7957747E-01  0.3444780E+00
         13   -1    0    0    0    0  0.00000000000E+00  0.00000000000E+00  0.14999999963E+04  0.15000000000E+04  0.10566000000E+00 0. -1.
        994   -1    0    0    0    0 -0.00000000000E+00 -0.00000000000E+00  0.11368683772E-12  0.17120000000E+03  0.17120000000E+03 0.  0.
         13    1    1    2    0    0 -0.64082508599E+01  0.12134193693E+02  0.26567622610E+02  0.29902409114E+02  0.10566000000E+00 0. -1.
        994    1    1    2    0    0  0.13014098053E+02 -0.20632173942E+01  0.39703927290E+01  0.17175222745E+03  0.17120000000E+03 0.  0.
        998    1    1    2    0    0 -0.66058471927E+01 -0.10070976299E+02  0.14694619809E+04  0.14695453634E+04  0.10000000000E+02 0. -1.
</event>
<event>
 5    1  0.1344348E-008  0.3823850E+03  0.7957747E-01  0.3440839E+00
         13   -1    0    0    0    0  0.00000000000E+00  0.00000000000E+00  0.14999999963E+04  0.15000000000E+04  0.10566000000E+00 0.  1.
        994   -1    0    0    0    0 -0.00000000000E+00 -0.00000000000E+00  0.11368683772E-12  0.17120000000E+03  0.17120000000E+03 0.  0.
         13    1    1    2    0    0 -0.70546474615E+00  0.10384761146E+02  0.17459003672E+02  0.20326556959E+02  0.10566000000E+00 0.  1.
        994    1    1    2    0    0 -0.25509024507E+01 -0.43093224559E+01  0.30171990467E+01  0.17129979817E+03  0.17120000000E+03 0.  0.
        998    1    1    2    0    0  0.32563671968E+01 -0.60754386902E+01  0.14795237936E+04  0.14795736449E+04  0.10000000000E+02 0.  1.
</event>
<event>
 5    1  0.1344348E-008  0.3838970E+03  0.7957747E-01  0.3434364E+00
         13   -1    0    0    0    0  0.00000000000E+00  0.00000000000E+00  0.14999999963E+04  0.15000000000E+04  0.10566000000E+00 0. -1.
        994   -1    0    0    0    0 -0.00000000000E+00 -0.00000000000E+00  0.11368683772E-12  0.17120000000E+03  0.17120000000E+03 0.  0.
         13    1    1    2    0    0 -0.11859983351E+02 -0.19488047154E+02  0.11217778060E+03  0.11447405300E+03  0.10566000000E+00 0. -1.
        994    1    1    2    0    0  0.13917894037E+02  0.17594783849E+02  0.38415664349E+01  0.17270634564E+03  0.17120000000E+03 0.  0.
        998    1    1    2    0    0 -0.20579106869E+01  0.18932633049E+01  0.13839806492E+04  0.13840196014E+04  0.10000000000E+02 0. -1.
</event>
<event>
 5    1  0.1344348E-008  0.3727964E+03  0.7957747E-01  0.3483137E+00
         13   -1    0    0    0    0  0.00000000000E+00  0.00000000000E+00  0.14999999963E+04  0.15000000000E+04  0.10566000000E+00 0. -1.
        994   -1    0    0    0    0 -0.00000000000E+00 -0.00000000000E+00  0.11368683772E-12  0.17120000000E+03  0.17120000000E+03 0.  0.
         13    1    1    2    0    0 -0.40265906492E+02  0.96832947190E+01  0.10038413083E+03  0.10859140992E+03  0.10566000000E+00 0. -1.
        994    1    1    2    0    0  0.39994179064E+02 -0.11230672220E+02  0.13747669909E+02  0.17670342607E+03  0.17120000000E+03 0.  0.
        998    1    1    2    0    0  0.27172742815E+00  0.15473775007E+01  0.13858681955E+04  0.13859051640E+04  0.10000000000E+02 0. -1.
</event>
<event>
 5    1  0.1344348E-008  0.3780899E+03  0.7957747E-01  0.3459518E+00
         13   -1    0    0    0    0  0.00000000000E+00  0.00000000000E+00  0.14999999963E+04  0.15000000000E+04  0.10566000000E+00 0. -1.
        994   -1    0    0    0    0 -0.00000000000E+00 -0.00000000000E+00  0.11368683772E-12  0.17120000000E+03  0.17120000000E+03 0.  0.
         13    1    1    2    0    0 -0.18124213224E+02  0.10152157789E+02  0.38635271265E+02  0.43866259956E+02  0.10566000000E+00 0. -1.
        994    1    1    2    0    0  0.26091027914E+02 -0.90284264110E+01  0.76690620760E+01  0.17358141817E+03  0.17120000000E+03 0.  0.
        998    1    1    2    0    0 -0.79668146894E+01 -0.11237313776E+01  0.14536956629E+04  0.14537523219E+04  0.10000000000E+02 0. -1.
</event>
<event>
 5    1  0.1344348E-008  0.3750072E+03  0.7957747E-01  0.3473190E+00
         13   -1    0    0    0    0  0.00000000000E+00  0.00000000000E+00  0.14999999963E+04  0.15000000000E+04  0.10566000000E+00 0.  1.
        994   -1    0    0    0    0 -0.00000000000E+00 -0.00000000000E+00  0.11368683772E-12  0.17120000000E+03  0.17120000000E+03 0.  0.
         13    1    1    2    0    0  0.41264871779E+02  0.46927916895E+02  0.26945549548E+03  0.27660675016E+03  0.10566000000E+00 0.  1.
        994    1    1    2    0    0 -0.72264552102E+02 -0.30601221518E+01  0.24670769154E+02  0.18748231034E+03  0.17120000000E+03 0.  0.
        998    1    1    2    0    0  0.30999680323E+02 -0.43867794743E+02  0.12058737316E+04  0.12071109395E+04  0.10000000000E+02 0.  1.
</event>
<event>
 5    1  0.1344348E-008  0.3759274E+03  0.7957747E-01  0.3469086E+00
         13   -1    0    0    0    0  0.00000000000E+00  0.00000000000E+00  0.14999999963E+04  0.15000000000E+04  0.10566000000E+00 0.  1.
        994   -1    0    0    0    0 -0.00000000000E+00 -0.00000000000E+00  0.11368683772E-12  0.17120000000E+03  0.17120000000E+03 0.  0.
         13    1    1    2    0    0  0.56644290085E+02 -0.22044062885E+03  0.10274878745E+04  0.10523944079E+04  0.10566000000E+00 0.  1.
        994    1    1    2    0    0 -0.53166593251E+02  0.21321359645E+03  0.19274040848E+03  0.33874035692E+03  0.17120000000E+03 0.  0.
        998    1    1    2    0    0 -0.34776968349E+01  0.72270324093E+01  0.27977171330E+03  0.28006523515E+03  0.10000000000E+02 0.  0.
</event>
<event>
 5    1  0.1344348E-008  0.3823908E+03  0.7957747E-01  0.3440814E+00
         13   -1    0    0    0    0  0.00000000000E+00  0.00000000000E+00  0.14999999963E+04  0.15000000000E+04  0.10566000000E+00 0.  1.
        994   -1    0    0    0    0 -0.00000000000E+00 -0.00000000000E+00  0.11368683772E-12  0.17120000000E+03  0.17120000000E+03 0.  0.
         13    1    1    2    0    0 -0.99032555719E+01 -0.14247056709E+02  0.51694346545E+02  0.54528613814E+02  0.10566000000E+00 0.  1.
        994    1    1    2    0    0  0.91436352343E+01  0.48927575094E+00  0.32092843681E+01  0.17147473564E+03  0.17120000000E+03 0.  0.
        998    1    1    2    0    0  0.75962033760E+00  0.13757780958E+02  0.14450963654E+04  0.14451966505E+04  0.10000000000E+02 0.  1.
</event>
<event>
 5    1  0.1344348E-008  0.3835250E+03  0.7957747E-01  0.3435952E+00
         13   -1    0    0    0    0  0.00000000000E+00  0.00000000000E+00  0.14999999963E+04  0.15000000000E+04  0.10566000000E+00 0. -1.
        994   -1    0    0    0    0 -0.00000000000E+00 -0.00000000000E+00  0.11368683772E-12  0.17120000000E+03  0.17120000000E+03 0.  0.
         13    1    1    2    0    0 -0.91345825805E+01 -0.14034161847E+02  0.60228783328E+02  0.62513325003E+02  0.10566000000E+00 0. -1.
        994    1    1    2    0    0  0.13724570591E+01  0.62102735669E+01  0.24978873346E+01  0.17133630840E+03  0.17120000000E+03 0.  0.
        998    1    1    2    0    0  0.77621255215E+01  0.78238882805E+01  0.14372733256E+04  0.14373503666E+04  0.10000000000E+02 0. -1.
</event>
<event>
 5    1  0.1344348E-008  0.3928213E+03  0.7957747E-01  0.3397164E+00
         13   -1    0    0    0    0  0.00000000000E+00  0.00000000000E+00  0.14999999963E+04  0.15000000000E+04  0.10566000000E+00 0.  1.
        994   -1    0    0    0    0 -0.00000000000E+00 -0.00000000000E+00  0.11368683772E-12  0.17120000000E+03  0.17120000000E+03 0.  0.
         13    1    1    2    0    0  0.12437192638E+02  0.27691559891E+02  0.99496340667E+01  0.31945463402E+02  0.10566000000E+00 0.  1.
        994    1    1    2    0    0  0.27896229115E+02 -0.29458244861E+02  0.29842545693E+02  0.17845449090E+03  0.17120000000E+03 0.  0.
        998    1    1    2    0    0 -0.40333421753E+02  0.17666849706E+01  0.14602078165E+04  0.14608000457E+04  0.10000000000E+02 0.  1.
</event>
<event>
 5    1  0.1344348E-008  0.3849212E+03  0.7957747E-01  0.3430006E+00
         13   -1    0    0    0    0  0.00000000000E+00  0.00000000000E+00  0.14999999963E+04  0.15000000000E+04  0.10566000000E+00 0. -1.
        994   -1    0    0    0    0 -0.00000000000E+00 -0.00000000000E+00  0.11368683772E-12  0.17120000000E+03  0.17120000000E+03 0.  0.
         13    1    1    2    0    0 -0.36507359843E+01 -0.12663164632E+02  0.51770671277E+02  0.53421879228E+02  0.10566000000E+00 0. -1.
        994    1    1    2    0    0  0.29833105996E+01  0.89020651906E+01  0.19592589297E+01  0.17146843909E+03  0.17120000000E+03 0.  0.
        998    1    1    2    0    0  0.66742538473E+00  0.37610994414E+01  0.14462700661E+04  0.14463096817E+04  0.10000000000E+02 0. -1.
</event>
<event>
 5    1  0.1344348E-008  0.3819520E+03  0.7957747E-01  0.3442703E+00
         13   -1    0    0    0    0  0.00000000000E+00  0.00000000000E+00  0.14999999963E+04  0.15000000000E+04  0.10566000000E+00 0.  1.
        994   -1    0    0    0    0 -0.00000000000E+00 -0.00000000000E+00  0.11368683772E-12  0.17120000000E+03  0.17120000000E+03 0.  0.
         13    1    1    2    0    0  0.78362716240E+01 -0.15135585603E+02  0.44847155323E+02  0.47976781980E+02  0.10566000000E+00 0.  1.
        994    1    1    2    0    0  0.29345133429E+01  0.15244349359E+02  0.39518875384E+01  0.17194783794E+03  0.17120000000E+03 0.  0.
        998    1    1    2    0    0 -0.10770784967E+02 -0.10876375599E+00  0.14512009534E+04  0.14512753801E+04  0.10000000000E+02 0.  1.
</event>
<event>
 5    1  0.1344348E-008  0.3761581E+03  0.7957747E-01  0.3468060E+00
         13   -1    0    0    0    0  0.00000000000E+00  0.00000000000E+00  0.14999999963E+04  0.15000000000E+04  0.10566000000E+00 0. -1.
        994   -1    0    0    0    0 -0.00000000000E+00 -0.00000000000E+00  0.11368683772E-12  0.17120000000E+03  0.17120000000E+03 0.  0.
         13    1    1    2    0    0  0.48392218507E+02  0.67492963544E+01  0.17424921145E+03  0.18097004909E+03  0.10566000000E+00 0. -1.
        994    1    1    2    0    0 -0.47359981366E+02 -0.35110340666E+01  0.13760076570E+02  0.17819673090E+03  0.17120000000E+03 0.  0.
        998    1    1    2    0    0 -0.10322371406E+01 -0.32382622877E+01  0.13119907083E+04  0.13120332200E+04  0.10000000000E+02 0. -1.
</event>
<event>
 5    1  0.1344348E-008  0.3777608E+03  0.7957747E-01  0.3460967E+00
         13   -1    0    0    0    0  0.00000000000E+00  0.00000000000E+00  0.14999999963E+04  0.15000000000E+04  0.10566000000E+00 0.  1.
        994   -1    0    0    0    0 -0.00000000000E+00 -0.00000000000E+00  0.11368683772E-12  0.17120000000E+03  0.17120000000E+03 0.  0.
         13    1    1    2    0    0 -0.12671591659E+02 -0.28873067075E+02  0.90072031439E+02  0.95431678436E+02  0.10566000000E+00 0.  1.
        994    1    1    2    0    0  0.12931313084E+02  0.22021845290E+02  0.74673010115E+01  0.17325524844E+03  0.17120000000E+03 0.  0.
        998    1    1    2    0    0 -0.25972142506E+00  0.68512217855E+01  0.14024606638E+04  0.14025130731E+04  0.10000000000E+02 0.  1.
</event>
<event>
 5    1  0.1344348E-008  0.3806326E+03  0.7957747E-01  0.3448409E+00
         13   -1    0    0    0    0  0.00000000000E+00  0.00000000000E+00  0.14999999963E+04  0.15000000000E+04  0.10566000000E+00 0.  1.
        994   -1    0    0    0    0 -0.00000000000E+00 -0.00000000000E+00  0.11368683772E-12  0.17120000000E+03  0.17120000000E+03 0.  0.
         13    1    1    2    0    0 -0.66602119285E+01 -0.78423696746E+01  0.12204521510E+02  0.15963166803E+02  0.10566000000E+00 0.  1.
        994    1    1    2    0    0  0.47630784154E+01  0.65547417800E+01  0.40331909096E+01  0.17143908010E+03  0.17120000000E+03 0.  0.
        998    1    1    2    0    0  0.18971335131E+01  0.12876278947E+01  0.14837622839E+04  0.14837977531E+04  0.10000000000E+02 0.  1.
</event>
<event>
 5    1  0.1443024E-008  0.3858837E+03  0.7957747E-01  0.3425933E+00
         13   -1    0    0    0    0  0.00000000000E+00  0.00000000000E+00  0.14999999963E+04  0.15000000000E+04  0.10566000000E+00 0.  1.
        994   -1    0    0    0    0 -0.00000000000E+00 -0.00000000000E+00  0.11368683772E-12  0.17120000000E+03  0.17120000000E+03 0.  0.
         13    1    1    2    0    0  0.46675675352E+01 -0.10374136608E+02  0.56421512555E+02  0.57556990367E+02  0.10566000000E+00 0.  1.
        994    1    1    2    0    0 -0.17880215654E+01  0.29828269499E+01  0.12316997067E+01  0.17123974820E+03  0.17120000000E+03 0.  0.
        998    1    1    2    0    0 -0.28795459697E+01  0.73913096577E+01  0.14423467840E+04  0.14424032614E+04  0.10000000000E+02 0.  1.
</event>
<event>
 5    1  0.1344348E-008  0.3850479E+03  0.7957747E-01  0.3429469E+00
         13   -1    0    0    0    0  0.00000000000E+00  0.00000000000E+00  0.14999999963E+04  0.15000000000E+04  0.10566000000E+00 0.  1.
        994   -1    0    0    0    0 -0.00000000000E+00 -0.00000000000E+00  0.11368683772E-12  0.17120000000E+03  0.17120000000E+03 0.  0.
         13    1    1    2    0    0 -0.47469349372E+00 -0.11462118583E+02  0.41198207706E+02  0.42765745387E+02  0.10566000000E+00 0.  1.
        994    1    1    2    0    0 -0.18259727918E+01  0.62344023081E+01  0.17451405246E+01  0.17133209701E+03  0.17120000000E+03 0.  0.
        998    1    1    2    0    0  0.23006662855E+01  0.52277162748E+01  0.14570566480E+04  0.14571021576E+04  0.10000000000E+02 0.  1.
</event>
<event>
 5    1  0.1344348E-008  0.3838636E+03  0.7957747E-01  0.3434506E+00
         13   -1    0    0    0    0  0.00000000000E+00  0.00000000000E+00  0.14999999963E+04  0.15000000000E+04  0.10566000000E+00 0. -1.
        994   -1    0    0    0    0 -0.00000000000E+00 -0.00000000000E+00  0.11368683772E-12  0.17120000000E+03  0.17120000000E+03 0.  0.
         13    1    1    2    0    0 -0.14751934771E+02  0.54946697885E+01  0.55158937613E+02  0.57361402861E+02  0.10566000000E+00 0. -1.
        994    1    1    2    0    0  0.15706196718E+02  0.43843016380E+01  0.30736081226E+01  0.17200230749E+03  0.17120000000E+03 0.  0.
        998    1    1    2    0    0 -0.95426194634E+00 -0.98789714265E+01  0.14417674505E+04  0.14418362896E+04  0.10000000000E+02 0. -1.
</event>
<event>
 5    1  0.1344348E-008  0.3727297E+03  0.7957747E-01  0.3483439E+00
         13   -1    0    0    0    0  0.00000000000E+00  0.00000000000E+00  0.14999999963E+04  0.15000000000E+04  0.10566000000E+00 0.  1.
        994   -1    0    0    0    0 -0.00000000000E+00 -0.00000000000E+00  0.11368683772E-12  0.17120000000E+03  0.17120000000E+03 0.  0.
         13    1    1    2    0    0  0.29124436321E+02 -0.42619829038E+02  0.11885869402E+03  0.12958426959E+03  0.10566000000E+00 0.  1.
        994    1    1    2    0    0 -0.17328436783E+02 -0.18351739611E+02  0.14641404154E+02  0.17366885669E+03  0.17120000000E+03 0.  0.
        998    1    1    2    0    0 -0.11795999538E+02  0.60971568650E+02  0.13664998981E+04  0.13679468737E+04  0.10000000000E+02 0.  1.
</event>
<event>
 5    1  0.1344348E-008  0.3860174E+03  0.7957747E-01  0.3425369E+00
         13   -1    0    0    0    0  0.00000000000E+00  0.00000000000E+00  0.14999999963E+04  0.15000000000E+04  0.10566000000E+00 0. -1.
        994   -1    0    0    0    0 -0.00000000000E+00 -0.00000000000E+00  0.11368683772E-12  0.17120000000E+03  0.17120000000E+03 0.  0.
         13    1    1    2    0    0 -0.12309395814E+02  0.73796318245E+00  0.64952099625E+02  0.66112421108E+02  0.10566000000E+00 0. -1.
        994    1    1    2    0    0  0.15404854768E+02  0.54049089735E+01  0.19999793430E+01  0.17198826271E+03  0.17120000000E+03 0.  0.
        998    1    1    2    0    0 -0.30954589538E+01 -0.61428721559E+01  0.14330479173E+04  0.14330993162E+04  0.10000000000E+02 0. -1.
</event>
<event>
 5    1  0.1344348E-008  0.3847982E+03  0.7957747E-01  0.3430529E+00
         13   -1    0    0    0    0  0.00000000000E+00  0.00000000000E+00  0.14999999963E+04  0.15000000000E+04  0.10566000000E+00 0.  1.
        994   -1    0    0    0    0 -0.00000000000E+00 -0.00000000000E+00  0.11368683772E-12  0.17120000000E+03  0.17120000000E+03 0.  0.
         13    1    1    2    0    0 -0.13754174515E+01 -0.13991542290E+02  0.64592908507E+02  0.66105294964E+02  0.10566000000E+00 0.  1.
        994    1    1    2    0    0 -0.57229028069E+01 -0.10075798651E+02  0.21723530940E+01  0.17160545578E+03  0.17120000000E+03 0.  0.
        998    1    1    2    0    0  0.70983202584E+01  0.24067340942E+02  0.14332347347E+04  0.14334892493E+04  0.10000000000E+02 0.  1.
</event>
<event>
 5    1  0.1344348E-008  0.2536233E+03  0.7957747E-01  0.4295185E+00
         13   -1    0    0    0    0  0.00000000000E+00  0.00000000000E+00  0.14999999963E+04  0.15000000000E+04  0.10566000000E+00 0. -1.
        994   -1    0    0    0    0 -0.00000000000E+00 -0.00000000000E+00  0.11368683772E-12  0.17120000000E+03  0.17120000000E+03 0.  0.
         13    1    1    2    0    0  0.13099612424E+03 -0.68937985042E+02  0.53219303721E+03  0.55239647932E+03  0.10566000000E+00 0. -1.
        994    1    1    2    0    0 -0.18124538472E+02  0.11229867705E+02  0.33328035306E+02  0.17571228404E+03  0.17120000000E+03 0.  0.
        998    1    1    2    0    0 -0.11287158576E+03  0.57708117338E+02  0.93447892376E+03  0.94309123664E+03  0.10000000000E+02 0. -1.
</event>
<event>
 5    1  0.1344348E-008  0.3735955E+03  0.7957747E-01  0.3479528E+00
         13   -1    0    0    0    0  0.00000000000E+00  0.00000000000E+00  0.14999999963E+04  0.15000000000E+04  0.10566000000E+00 0.  1.
        994   -1    0    0    0    0 -0.00000000000E+00 -0.00000000000E+00  0.11368683772E-12  0.17120000000E+03  0.17120000000E+03 0.  0.
         13    1    1    2    0    0 -0.15921481877E+02  0.86798958702E+01  0.66756522495E+01  0.19323811075E+02  0.10566000000E+00 0.  1.
        994    1    1    2    0    0  0.44498744789E+02  0.20098165836E+02  0.21342145572E+02  0.17930142703E+03  0.17120000000E+03 0.  0.
        998    1    1    2    0    0 -0.28577262913E+02 -0.28778061707E+02  0.14719821985E+04  0.14725747619E+04  0.10000000000E+02 0.  1.
</event>
<event>
 5    1  0.1344348E-008  0.3796288E+03  0.7957747E-01  0.3452776E+00
         13   -1    0    0    0    0  0.00000000000E+00  0.00000000000E+00  0.14999999963E+04  0.15000000000E+04  0.10566000000E+00 0. -1.
        994   -1    0    0    0    0 -0.00000000000E+00 -0.00000000000E+00  0.11368683772E-12  0.17120000000E+03  0.17120000000E+03 0.  0.
         13    1    1    2    0    0  0.12014458003E+02 -0.37215216657E+02  0.17190667188E+03  0.17629870832E+03  0.10566000000E+00 0. -1.
        994    1    1    2    0    0 -0.25119988571E+02  0.19504528581E+02  0.77133763855E+01  0.17429967480E+03  0.17120000000E+03 0.  0.
        998    1    1    2    0    0  0.13105530568E+02  0.17710688076E+02  0.13203799480E+04  0.13206016169E+04  0.10000000000E+02 0. -1.
</event>
<event>
 5    1  0.1344348E-008  0.3793295E+03  0.7957747E-01  0.3454083E+00
         13   -1    0    0    0    0  0.00000000000E+00  0.00000000000E+00  0.14999999963E+04  0.15000000000E+04  0.10566000000E+00 0. -1.
        994   -1    0    0    0    0 -0.00000000000E+00 -0.00000000000E+00  0.11368683772E-12  0.17120000000E+03  0.17120000000E+03 0.  0.
         13    1    1    2    0    0  0.31119842586E+02 -0.38508525865E+02  0.21388058231E+03  0.21953647947E+03  0.10566000000E+00 0. -1.
        994    1    1    2    0    0 -0.29184419472E+02  0.56913670407E+02  0.18302120531E+02  0.18367172846E+03  0.17120000000E+03 0.  0.
        998    1    1    2    0    0 -0.19354231137E+01 -0.18405144542E+02  0.12678172934E+04  0.12679917921E+04  0.10000000000E+02 0. -1.
</event>
<event>
 5    1  0.1344348E-008  0.3706475E+03  0.7957747E-01  0.3492920E+00
         13   -1    0    0    0    0  0.00000000000E+00  0.00000000000E+00  0.14999999963E+04  0.15000000000E+04  0.10566000000E+00 0. -1.
        994   -1    0    0    0    0 -0.00000000000E+00 -0.00000000000E+00  0.11368683772E-12  0.17120000000E+03  0.17120000000E+03 0.  0.
         13    1    1    2    0    0 -0.30040907171E+02  0.10335073077E+02  0.40087598922E+02  0.51149746730E+02  0.10566000000E+00 0. -1.
        994    1    1    2    0    0  0.19808556909E+02 -0.16079896387E+02  0.13565778474E+02  0.17362146279E+03  0.17120000000E+03 0.  0.
        998    1    1    2    0    0  0.10232350263E+02  0.57448233100E+01  0.14463466189E+04  0.14464287905E+04  0.10000000000E+02 0. -1.
</event>
<event>
 5    1  0.1344348E-008  0.3760010E+03  0.7957747E-01  0.3468758E+00
         13   -1    0    0    0    0  0.00000000000E+00  0.00000000000E+00  0.14999999963E+04  0.15000000000E+04  0.10566000000E+00 0. -1.
        994   -1    0    0    0    0 -0.00000000000E+00 -0.00000000000E+00  0.11368683772E-12  0.17120000000E+03  0.17120000000E+03 0.  0.
         13    1    1    2    0    0 -0.97720872576E+01 -0.10650216187E+02  0.14238661185E+02  0.20289687789E+02  0.10566000000E+00 0. -1.
        994    1    1    2    0    0  0.65972737711E+01  0.78185218752E+01  0.65202111661E+01  0.17162927040E+03  0.17120000000E+03 0.  0.
        998    1    1    2    0    0  0.31748134865E+01  0.28316943116E+01  0.14792411239E+04  0.14792810418E+04  0.10000000000E+02 0. -1.
</event>
<event>
 5    1  0.1344348E-008  0.3854940E+03  0.7957747E-01  0.3427580E+00
         13   -1    0    0    0    0  0.00000000000E+00  0.00000000000E+00  0.14999999963E+04  0.15000000000E+04  0.10566000000E+00 0.  1.
        994   -1    0    0    0    0 -0.00000000000E+00 -0.00000000000E+00  0.11368683772E-12  0.17120000000E+03  0.17120000000E+03 0.  0.
         13    1    1    2    0    0 -0.14966253627E+02 -0.65953757835E+01  0.88106712123E+02  0.89611894381E+02  0.10566000000E+00 0.  1.
        994    1    1    2    0    0  0.17097669159E+02  0.18346966298E+02  0.34528754888E+01  0.17306156076E+03  0.17120000000E+03 0.  0.
        998    1    1    2    0    0 -0.21314155320E+01 -0.11751590514E+02  0.14084404087E+04  0.14085265449E+04  0.10000000000E+02 0.  1.
</event>
<event>
 5    1  0.1344348E-008  0.3727703E+03  0.7957747E-01  0.3483255E+00
         13   -1    0    0    0    0  0.00000000000E+00  0.00000000000E+00  0.14999999963E+04  0.15000000000E+04  0.10566000000E+00 0.  1.
        994   -1    0    0    0    0 -0.00000000000E+00 -0.00000000000E+00  0.11368683772E-12  0.17120000000E+03  0.17120000000E+03 0.  0.
         13    1    1    2    0    0 -0.26576870864E+02 -0.62788283202E+02  0.30831249576E+03  0.31576146816E+03  0.10566000000E+00 0.  1.
        994    1    1    2    0    0  0.92846700145E+02  0.67480259900E+01  0.38118431182E+02  0.19856611085E+03  0.17120000000E+03 0.  0.
        998    1    1    2    0    0 -0.66269829281E+02  0.56040257212E+02  0.11535690693E+04  0.11568724210E+04  0.10000000000E+02 0.  1.
</event>
<event>
 5    1  0.1344348E-008  0.3820181E+03  0.7957747E-01  0.3442418E+00
         13   -1    0    0    0    0  0.00000000000E+00  0.00000000000E+00  0.14999999963E+04  0.15000000000E+04  0.10566000000E+00 0.  1.
        994   -1    0    0    0    0 -0.00000000000E+00 -0.00000000000E+00  0.11368683772E-12  0.17120000000E+03  0.17120000000E+03 0.  0.
         13    1    1    2    0    0  0.17714413743E+02 -0.32916940682E+01  0.50644878258E+02  0.53754539919E+02  0.10566000000E+00 0.  1.
        994    1    1    2    0    0 -0.12016703511E+02  0.92519459376E+01  0.38820163170E+01  0.17191425106E+03  0.17120000000E+03 0.  0.
        998    1    1    2    0    0 -0.56977102318E+01 -0.59602518694E+01  0.14454731017E+04  0.14455312090E+04  0.10000000000E+02 0.  1.
</event>
<event>
 5    1  0.1344348E-008  0.3849698E+03  0.7957747E-01  0.3429800E+00
         13   -1    0    0    0    0  0.00000000000E+00  0.00000000000E+00  0.14999999963E+04  0.15000000000E+04  0.10566000000E+00 0. -1.
        994   -1    0    0    0    0 -0.00000000000E+00 -0.00000000000E+00  0.11368683772E-12  0.17120000000E+03  0.17120000000E+03 0.  0.
         13    1    1    2    0    0  0.12370356886E+02  0.25750796128E+01  0.49503524856E+02  0.51090771199E+02  0.10566000000E+00 0. -1.
        994    1    1    2    0    0 -0.38701261968E+01 -0.38327748324E+01  0.17427270044E+01  0.17129549071E+03  0.17120000000E+03 0.  0.
        998    1    1    2    0    0 -0.85002306896E+01  0.12576952197E+01  0.14487537444E+04  0.14488137381E+04  0.10000000000E+02 0. -1.
</event>
<event>
 5    1  0.1344348E-008  0.3851360E+03  0.7957747E-01  0.3429096E+00
         13   -1    0    0    0    0  0.00000000000E+00  0.00000000000E+00  0.14999999963E+04  0.15000000000E+04  0.10566000000E+00 0. -1.
        994   -1    0    0    0    0 -0.00000000000E+00 -0.00000000000E+00  0.11368683772E-12  0.17120000000E+03  0.17120000000E+03 0.  0.
         13    1    1    2    0    0 -0.33101069886E+01 -0.14019463662E+02  0.68225637901E+02  0.69729842971E+02  0.10566000000E+00 0. -1.
        994    1    1    2    0    0 -0.25055082178E+01  0.63864527046E+01  0.17173651833E+01  0.17134600577E+03  0.17120000000E+03 0.  0.
        998    1    1    2    0    0  0.58156152064E+01  0.76330109577E+01  0.14300569932E+04  0.14301241513E+04  0.10000000000E+02 0. -1.
</event>
<event>
 5    1  0.1344348E-008  0.3844480E+03  0.7957747E-01  0.3432017E+00
         13   -1    0    0    0    0  0.00000000000E+00  0.00000000000E+00  0.14999999963E+04  0.15000000000E+04  0.10566000000E+00 0.  1.
        994   -1    0    0    0    0 -0.00000000000E+00 -0.00000000000E+00  0.11368683772E-12  0.17120000000E+03  0.17120000000E+03 0.  0.
         13    1    1    2    0    0  0.12369040934E+02 -0.59644840558E+01  0.48646609346E+02  0.50547720112E+02  0.10566000000E+00 0.  1.
        994    1    1    2    0    0 -0.10459528742E+02  0.44928061284E+01  0.23315078209E+01  0.17159388968E+03  0.17120000000E+03 0.  0.
        998    1    1    2    0    0 -0.19095121920E+01  0.14716779275E+01  0.14490218791E+04  0.14490583902E+04  0.10000000000E+02 0.  1.
</event>
<event>
 5    1  0.1344348E-008  0.3757604E+03  0.7957747E-01  0.3469829E+00
         13   -1    0    0    0    0  0.00000000000E+00  0.00000000000E+00  0.14999999963E+04  0.15000000000E+04  0.10566000000E+00 0. -1.
        994   -1    0    0    0    0 -0.00000000000E+00 -0.00000000000E+00  0.11368683772E-12  0.17120000000E+03  0.17120000000E+03 0.  0.
         13    1    1    2    0    0 -0.12048849966E+02  0.18928845401E+02  0.38260382854E+02  0.44354752100E+02  0.10566000000E+00 0. -1.
        994    1    1    2    0    0  0.61559199806E+01 -0.59314334915E+01  0.65365769830E+01  0.17153787947E+03  0.17120000000E+03 0.  0.
        998    1    1    2    0    0  0.58929299851E+01 -0.12997411909E+02  0.14552030364E+04  0.14553073684E+04  0.10000000000E+02 0. -1.
</event>
<event>
 5    1  0.1344348E-008  0.3758613E+03  0.7957747E-01  0.3469380E+00
         13   -1    0    0    0    0  0.00000000000E+00  0.00000000000E+00  0.14999999963E+04  0.15000000000E+04  0.10566000000E+00 0. -1.
        994   -1    0    0    0    0 -0.00000000000E+00 -0.00000000000E+00  0.11368683772E-12  0.17120000000E+03  0.17120000000E+03 0.  0.
         13    1    1    2    0    0  0.10346254013E+02  0.13112479877E+02  0.19686080218E+02  0.25817339503E+02  0.10566000000E+00 0. -1.
        994    1    1    2    0    0 -0.11485828761E+01 -0.14228158328E+02  0.69280204921E+01  0.17193370001E+03  0.17120000000E+03 0.  0.
        998    1    1    2    0    0 -0.91976711365E+01  0.11156784507E+01  0.14733858956E+04  0.14734489605E+04  0.10000000000E+02 0. -1.
</event>
<event>
 5    1  0.1344348E-008  0.2068955E+03  0.7957747E-01  0.4916584E+00
         13   -1    0    0    0    0  0.00000000000E+00  0.00000000000E+00  0.14999999963E+04  0.15000000000E+04  0.10566000000E+00 0. -1.
        994   -1    0    0    0    0 -0.00000000000E+00 -0.00000000000E+00  0.11368683772E-12  0.17120000000E+03  0.17120000000E+03 0.  0.
         13    1    1    2    0    0  0.51881651910E+02 -0.62258004161E+02  0.21334720386E+02  0.83803021098E+02  0.10566000000E+00 0. -1.
        994    1    1    2    0    0 -0.72920864219E+02  0.42059477890E+02  0.11371149762E+03  0.22209501753E+03  0.17120000000E+03 0.  0.
        998    1    1    2    0    0  0.21039212309E+02  0.20198526271E+02  0.13649537783E+04  0.13653019614E+04  0.10000000000E+02 0. -1.
</event>
<event>
 5    1  0.1344348E-008  0.3812463E+03  0.7957747E-01  0.3445750E+00
         13   -1    0    0    0    0  0.00000000000E+00  0.00000000000E+00  0.14999999963E+04  0.15000000000E+04  0.10566000000E+00 0. -1.
        994   -1    0    0    0    0 -0.00000000000E+00 -0.00000000000E+00  0.11368683772E-12  0.17120000000E+03  0.17120000000E+03 0.  0.
         13    1    1    2    0    0 -0.35653177251E+02 -0.14797130561E+02  0.19095885319E+03  0.19482145389E+03  0.10566000000E+00 0. -1.
        994    1    1    2    0    0  0.32988191697E+02  0.13546447966E+02  0.77507466610E+01  0.17504639704E+03  0.17120000000E+03 0.  0.
        998    1    1    2    0    0  0.26649855542E+01  0.12506825949E+01  0.13012903964E+04  0.13013321491E+04  0.10000000000E+02 0. -1.
</event>
<event>
 5    1  0.1344348E-008  0.3707609E+03  0.7957747E-01  0.3492401E+00
         13   -1    0    0    0    0  0.00000000000E+00  0.00000000000E+00  0.14999999963E+04  0.15000000000E+04  0.10566000000E+00 0.  1.
        994   -1    0    0    0    0 -0.00000000000E+00 -0.00000000000E+00  0.11368683772E-12  0.17120000000E+03  0.17120000000E+03 0.  0.
         13    1    1    2    0    0  0.10893182226E+02  0.61745924506E+01  0.17171090375E+01  0.12639091677E+02  0.10566000000E+00 0.  1.
        994    1    1    2    0    0 -0.19804070673E+01 -0.63417588567E+01  0.11496480209E+02  0.17171414902E+03  0.17120000000E+03 0.  0.
        998    1    1    2    0    0 -0.89127751587E+01  0.16716640605E+00  0.14867864070E+04  0.14868467593E+04  0.10000000000E+02 0.  1.
</event>
<event>
 5    1  0.1344348E-008  0.3811061E+03  0.7957747E-01  0.3446356E+00
         13   -1    0    0    0    0  0.00000000000E+00  0.00000000000E+00  0.14999999963E+04  0.15000000000E+04  0.10566000000E+00 0. -1.
        994   -1    0    0    0    0 -0.00000000000E+00 -0.00000000000E+00  0.11368683772E-12  0.17120000000E+03  0.17120000000E+03 0.  0.
         13    1    1    2    0    0  0.39010682241E+02 -0.14467512877E+02  0.20963375161E+03  0.21372286549E+03  0.10566000000E+00 0. -1.
        994    1    1    2    0    0 -0.39306543037E+02  0.13350940495E+02  0.93369090070E+01  0.17640824756E+03  0.17120000000E+03 0.  0.
        998    1    1    2    0    0  0.29586079610E+00  0.11165723823E+01  0.12810293357E+04  0.12810688869E+04  0.10000000000E+02 0.  0.
</event>
<event>
 5    1  0.1344348E-008  0.3820626E+03  0.7957747E-01  0.3442226E+00
         13   -1    0    0    0    0  0.00000000000E+00  0.00000000000E+00  0.14999999963E+04  0.15000000000E+04  0.10566000000E+00 0. -1.
        994   -1    0    0    0    0 -0.00000000000E+00 -0.00000000000E+00  0.11368683772E-12  0.17120000000E+03  0.17120000000E+03 0.  0.
         13    1    1    2    0    0 -0.14945907054E+02 -0.18026360813E+02  0.99490302610E+02  0.10220891008E+03  0.10566000000E+00 0. -1.
        994    1    1    2    0    0 -0.91845055427E+01 -0.13355065456E+01  0.33816195437E+01  0.17148473422E+03  0.17120000000E+03 0.  0.
        998    1    1    2    0    0  0.24130412597E+02  0.19361867358E+02  0.13971280741E+04  0.13975063557E+04  0.10000000000E+02 0. -1.
</event>
<event>
 5    1  0.1344348E-008  0.4048919E+03  0.7957747E-01  0.3349454E+00
         13   -1    0    0    0    0  0.00000000000E+00  0.00000000000E+00  0.14999999963E+04  0.15000000000E+04  0.10566000000E+00 0. -1.
        994   -1    0    0    0    0 -0.00000000000E+00 -0.00000000000E+00  0.11368683772E-12  0.17120000000E+03  0.17120000000E+03 0.  0.
         13    1    1    2    0    0 -0.81707794843E+02  0.49308128576E+02  0.11751508033E+03  0.15138447923E+03  0.10566000000E+00 0. -1.
        994    1    1    2    0    0  0.93108239665E+02 -0.76862688448E+02  0.91757274689E+02  0.22870473241E+03  0.17120000000E+03 0.  0.
        998    1    1    2    0    0 -0.11400444822E+02  0.27554559872E+02  0.12907276413E+04  0.12911107884E+04  0.10000000000E+02 0. -1.
</event>
<event>
 5    1  0.1344348E-008  0.3844452E+03  0.7957747E-01  0.3432028E+00
         13   -1    0    0    0    0  0.00000000000E+00  0.00000000000E+00  0.14999999963E+04  0.15000000000E+04  0.10566000000E+00 0. -1.
        994   -1    0    0    0    0 -0.00000000000E+00 -0.00000000000E+00  0.11368683772E-12  0.17120000000E+03  0.17120000000E+03 0.  0.
         13    1    1    2    0    0  0.16089624384E+02 -0.13069236579E+02  0.10833559609E+03  0.11030092249E+03  0.10566000000E+00 0. -1.
        994    1    1    2    0    0 -0.16614338686E+02  0.80690056758E+01  0.30305490058E+01  0.17222011883E+03  0.17120000000E+03 0.  0.
        998    1    1    2    0    0  0.52471430255E+00  0.50002309031E+01  0.13886338512E+04  0.13886789587E+04  0.10000000000E+02 0. -1.
</event>
<event>
 5    1  0.1344348E-008  0.3763511E+03  0.7957747E-01  0.3467202E+00
         13   -1    0    0    0    0  0.00000000000E+00  0.00000000000E+00  0.14999999963E+04  0.15000000000E+04  0.10566000000E+00 0.  1.
        994   -1    0    0    0    0 -0.00000000000E+00 -0.00000000000E+00  0.11368683772E-12  0.17120000000E+03  0.17120000000E+03 0.  0.
         13    1    1    2    0    0  0.14651991356E+02 -0.10053988500E+02  0.23272729605E+02  0.29281301931E+02  0.10566000000E+00 0.  1.
        994    1    1    2    0    0 -0.18776591379E+02  0.11351774953E+02  0.76172667850E+01  0.17276830129E+03  0.17120000000E+03 0.  0.
        998    1    1    2    0    0  0.41246000225E+01 -0.12977864534E+01  0.14691099999E+04  0.14691503968E+04  0.10000000000E+02 0.  1.
</event>
<event>
 5    1  0.1344348E-008  0.3685967E+03  0.7957747E-01  0.3502365E+00
         13   -1    0    0    0    0  0.00000000000E+00  0.00000000000E+00  0.14999999963E+04  0.15000000000E+04  0.10566000000E+00 0. -1.
        994   -1    0    0    0    0 -0.00000000000E+00 -0.00000000000E+00  0.11368683772E-12  0.17120000000E+03  0.17120000000E+03 0.  0.
         13    1    1    2    0    0 -0.44329334412E+02 -0.51207469773E+02  0.21424804721E+03  0.22469875778E+03  0.10566000000E+00 0. -1.
        994    1    1    2    0    0  0.41178410561E+02  0.30776741754E+02  0.19243846122E+02  0.17978496862E+03  0.17120000000E+03 0.  0.
        998    1    1    2    0    0  0.31509238512E+01  0.20430728018E+02  0.12665081029E+04  0.12667162736E+04  0.10000000000E+02 0. -1.
</event>
<event>
 5    1  0.1344348E-008  0.3856573E+03  0.7957747E-01  0.3426889E+00
         13   -1    0    0    0    0  0.00000000000E+00  0.00000000000E+00  0.14999999963E+04  0.15000000000E+04  0.10566000000E+00 0. -1.
        994   -1    0    0    0    0 -0.00000000000E+00 -0.00000000000E+00  0.11368683772E-12  0.17120000000E+03  0.17120000000E+03 0.  0.
         13    1    1    2    0    0  0.12444385780E+02 -0.10215382607E+02  0.96596088482E+02  0.97928710057E+02  0.10566000000E+00 0. -1.
        994    1    1    2    0    0  0.37162638792E+01  0.29105961248E+02  0.41346767749E+01  0.17374551260E+03  0.17120000000E+03 0.  0.
        998    1    1    2    0    0 -0.16160649659E+02 -0.18890578641E+02  0.13992692310E+04  0.13995257773E+04  0.10000000000E+02 0. -1.
</event>
<event>
 5    1  0.1344348E-008  0.3842774E+03  0.7957747E-01  0.3432743E+00
         13   -1    0    0    0    0  0.00000000000E+00  0.00000000000E+00  0.14999999963E+04  0.15000000000E+04  0.10566000000E+00 0.  1.
        994   -1    0    0    0    0 -0.00000000000E+00 -0.00000000000E+00  0.11368683772E-12  0.17120000000E+03  0.17120000000E+03 0.  0.
         13    1    1    2    0    0  0.90124261170E+00 -0.19992356585E+02  0.97877630251E+02  0.99902693796E+02  0.10566000000E+00 0.  1.
        994    1    1    2    0    0  0.12092572544E+02  0.16962655262E+02  0.34211250081E+01  0.17249668426E+03  0.17120000000E+03 0.  0.
        998    1    1    2    0    0 -0.12993815156E+02  0.30297013235E+01  0.13987012410E+04  0.13988006219E+04  0.10000000000E+02 0.  1.
</event>
<event>
 5    1  0.1344348E-008  0.3755300E+03  0.7957747E-01  0.3470856E+00
         13   -1    0    0    0    0  0.00000000000E+00  0.00000000000E+00  0.14999999963E+04  0.15000000000E+04  0.10566000000E+00 0.  1.
        994   -1    0    0    0    0 -0.00000000000E+00 -0.00000000000E+00  0.11368683772E-12  0.17120000000E+03  0.17120000000E+03 0.  0.
         13    1    1    2    0    0 -0.18809275297E+02 -0.69981914954E+01  0.28800933913E+02  0.35103681854E+02  0.10566000000E+00 0.  1.
        994    1    1    2    0    0  0.15018831722E+02 -0.14416273303E+01  0.71795883211E+01  0.17201345902E+03  0.17120000000E+03 0.  0.
        998    1    1    2    0    0  0.37904435746E+01  0.84398188257E+01  0.14640194740E+04  0.14640828591E+04  0.10000000000E+02 0.  1.
</event>
<event>
 5    1  0.1344348E-008  0.3761213E+03  0.7957747E-01  0.3468223E+00
         13   -1    0    0    0    0  0.00000000000E+00  0.00000000000E+00  0.14999999963E+04  0.15000000000E+04  0.10566000000E+00 0. -1.
        994   -1    0    0    0    0 -0.00000000000E+00 -0.00000000000E+00  0.11368683772E-12  0.17120000000E+03  0.17120000000E+03 0.  0.
         13    1    1    2    0    0 -0.21819577337E+02  0.14184399163E+01  0.37758636620E+02  0.43632920260E+02  0.10566000000E+00 0. -1.
        994    1    1    2    0    0  0.47661602341E+01 -0.60549242740E+01  0.63051517895E+01  0.17148928051E+03  0.17120000000E+03 0.  0.
        998    1    1    2    0    0  0.17053417103E+02  0.46364843577E+01  0.14559362079E+04  0.14560777992E+04  0.10000000000E+02 0. -1.
</event>
<event>
 5    1  0.1344348E-008  0.3854470E+03  0.7957747E-01  0.3427779E+00
         13   -1    0    0    0    0  0.00000000000E+00  0.00000000000E+00  0.14999999963E+04  0.15000000000E+04  0.10566000000E+00 0.  1.
        994   -1    0    0    0    0 -0.00000000000E+00 -0.00000000000E+00  0.11368683772E-12  0.17120000000E+03  0.17120000000E+03 0.  0.
         13    1    1    2    0    0 -0.13667151513E+02 -0.64534311927E+01  0.89323244377E+02  0.90592996168E+02  0.10566000000E+00 0.  1.
        994    1    1    2    0    0  0.80147467431E+01 -0.18832164542E+02  0.27851830170E+01  0.17244153743E+03  0.17120000000E+03 0.  0.
        998    1    1    2    0    0  0.56524047699E+01  0.25285595735E+02  0.14078915689E+04  0.14081654664E+04  0.10000000000E+02 0.  1.
</event>
<event>
 5    1  0.1344348E-008  0.3830639E+03  0.7957747E-01  0.3437925E+00
         13   -1    0    0    0    0  0.00000000000E+00  0.00000000000E+00  0.14999999963E+04  0.15000000000E+04  0.10566000000E+00 0.  1.
        994   -1    0    0    0    0 -0.00000000000E+00 -0.00000000000E+00  0.11368683772E-12  0.17120000000E+03  0.17120000000E+03 0.  0.
         13    1    1    2    0    0 -0.23395628509E+02  0.89338484992E+01  0.11712968186E+03  0.11977705381E+03  0.10566000000E+00 0.  1.
        994    1    1    2    0    0  0.14682300253E+02 -0.15040694660E+02  0.40578661331E+01  0.17253318149E+03  0.17120000000E+03 0.  0.
        998    1    1    2    0    0  0.87133282561E+01  0.61068461606E+01  0.13788124483E+04  0.13788897647E+04  0.10000000000E+02 0.  1.
</event>
<event>
 5    1  0.1344348E-008  0.3784322E+03  0.7957747E-01  0.3458013E+00
         13   -1    0    0    0    0  0.00000000000E+00  0.00000000000E+00  0.14999999963E+04  0.15000000000E+04  0.10566000000E+00 0.  1.
        994   -1    0    0    0    0 -0.00000000000E+00 -0.00000000000E+00  0.11368683772E-12  0.17120000000E+03  0.17120000000E+03 0.  0.
         13    1    1    2    0    0 -0.15672463014E+02 -0.22989467011E+02  0.74014149226E+02  0.79071152388E+02  0.10566000000E+00 0.  1.
        994    1    1    2    0    0  0.23385679900E+02  0.15862427840E+02  0.76145405024E+01  0.17368341276E+03  0.17120000000E+03 0.  0.
        998    1    1    2    0    0 -0.77132168863E+01  0.71270391711E+01  0.14183713066E+04  0.14184454349E+04  0.10000000000E+02 0.  1.
</event>
<event>
 5    1  0.1344348E-008  0.3694624E+03  0.7957747E-01  0.3498365E+00
         13   -1    0    0    0    0  0.00000000000E+00  0.00000000000E+00  0.14999999963E+04  0.15000000000E+04  0.10566000000E+00 0.  1.
        994   -1    0    0    0    0 -0.00000000000E+00 -0.00000000000E+00  0.11368683772E-12  0.17120000000E+03  0.17120000000E+03 0.  0.
         13    1    1    2    0    0  0.23017290568E+02  0.69510773862E+02  0.25253123717E+03  0.26293265347E+03  0.10566000000E+00 0.  1.
        994    1    1    2    0    0  0.11254968134E+02 -0.46290692576E+02  0.18616287748E+02  0.17867710737E+03  0.17120000000E+03 0.  0.
        998    1    1    2    0    0 -0.34272258702E+02 -0.23220081287E+02  0.12288524714E+04  0.12295902392E+04  0.10000000000E+02 0.  1.
</event>
<event>
 5    1  0.1344348E-008  0.3830295E+03  0.7957747E-01  0.3438072E+00
         13   -1    0    0    0    0  0.00000000000E+00  0.00000000000E+00  0.14999999963E+04  0.15000000000E+04  0.10566000000E+00 0.  1.
        994   -1    0    0    0    0 -0.00000000000E+00 -0.00000000000E+00  0.11368683772E-12  0.17120000000E+03  0.17120000000E+03 0.  0.
         13    1    1    2    0    0 -0.14625107526E+02 -0.56447849598E+01  0.46058464184E+02  0.48653372488E+02  0.10566000000E+00 0.  1.
        994    1    1    2    0    0  0.98385755413E+01  0.61489490545E+01  0.30572601729E+01  0.17161991138E+03  0.17120000000E+03 0.  0.
        998    1    1    2    0    0  0.47865319848E+01 -0.50416409477E+00  0.14508842719E+04  0.14509267161E+04  0.10000000000E+02 0.  1.
</event>
<event>
 5    1  0.1344348E-008  0.3792600E+03  0.7957747E-01  0.3454387E+00
         13   -1    0    0    0    0  0.00000000000E+00  0.00000000000E+00  0.14999999963E+04  0.15000000000E+04  0.10566000000E+00 0. -1.
        994   -1    0    0    0    0 -0.00000000000E+00 -0.00000000000E+00  0.11368683772E-12  0.17120000000E+03  0.17120000000E+03 0.  0.
         13    1    1    2    0    0  0.17455615822E+02  0.14660325295E+02  0.54855802843E+02  0.59403652506E+02  0.10566000000E+00 0. -1.
        994    1    1    2    0    0 -0.24089975467E+02 -0.24837681251E+01  0.64750345793E+01  0.17302561110E+03  0.17120000000E+03 0.  0.
        998    1    1    2    0    0  0.66343596446E+01 -0.12176557170E+02  0.14386691589E+04  0.14387707364E+04  0.10000000000E+02 0. -1.
</event>
<event>
 5    1  0.1344348E-008  0.3805027E+03  0.7957747E-01  0.3448973E+00
         13   -1    0    0    0    0  0.00000000000E+00  0.00000000000E+00  0.14999999963E+04  0.15000000000E+04  0.10566000000E+00 0. -1.
        994   -1    0    0    0    0 -0.00000000000E+00 -0.00000000000E+00  0.11368683772E-12  0.17120000000E+03  0.17120000000E+03 0.  0.
         13    1    1    2    0    0 -0.70788397269E+01 -0.22989331046E+02  0.70581237230E+02  0.74567697610E+02  0.10566000000E+00 0. -1.
        994    1    1    2    0    0  0.59458988022E+01  0.22568042520E+02  0.56994855967E+01  0.17287739700E+03  0.17120000000E+03 0.  0.
        998    1    1    2    0    0  0.11329409247E+01  0.42128852597E+00  0.14237192735E+04  0.14237549054E+04  0.10000000000E+02 0. -1.
</event>
<event>
 5    1  0.1344348E-008  0.3821415E+03  0.7957747E-01  0.3441886E+00
         13   -1    0    0    0    0  0.00000000000E+00  0.00000000000E+00  0.14999999963E+04  0.15000000000E+04  0.10566000000E+00 0. -1.
        994   -1    0    0    0    0 -0.00000000000E+00 -0.00000000000E+00  0.11368683772E-12  0.17120000000E+03  0.17120000000E+03 0.  0.
         13    1    1    2    0    0  0.15410833570E+02 -0.13423139051E+01  0.37326075792E+02  0.40404736059E+02  0.10566000000E+00 0. -1.
        994    1    1    2    0    0 -0.14873389052E+02  0.10807433151E+02  0.41788231364E+01  0.17223507447E+03  0.17120000000E+03 0.  0.
        998    1    1    2    0    0 -0.53744451743E+00 -0.94651192459E+01  0.14584950973E+04  0.14585601895E+04  0.10000000000E+02 0. -1.
</event>
<event>
 5    1  0.1344348E-008  0.3775067E+03  0.7957747E-01  0.3462087E+00
         13   -1    0    0    0    0  0.00000000000E+00  0.00000000000E+00  0.14999999963E+04  0.15000000000E+04  0.10566000000E+00 0. -1.
        994   -1    0    0    0    0 -0.00000000000E+00 -0.00000000000E+00  0.11368683772E-12  0.17120000000E+03  0.17120000000E+03 0.  0.
         13    1    1    2    0    0 -0.10091393709E+03 -0.59248065967E+02  0.46578756241E+03  0.48026244959E+03  0.10566000000E+00 0. -1.
        994    1    1    2    0    0  0.52551387686E+02  0.38777552682E+02  0.30443553809E+02  0.18574605489E+03  0.17120000000E+03 0.  0.
        998    1    1    2    0    0  0.48362549401E+02  0.20470513285E+02  0.10037688801E+04  0.10051914955E+04  0.10000000000E+02 0. -1.
</event>
<event>
 5    1  0.1344348E-008  0.3777086E+03  0.7957747E-01  0.3461197E+00
         13   -1    0    0    0    0  0.00000000000E+00  0.00000000000E+00  0.14999999963E+04  0.15000000000E+04  0.10566000000E+00 0.  1.
        994   -1    0    0    0    0 -0.00000000000E+00 -0.00000000000E+00  0.11368683772E-12  0.17120000000E+03  0.17120000000E+03 0.  0.
         13    1    1    2    0    0  0.37349606961E+02 -0.11615930669E+02  0.13346549061E+03  0.13907901111E+03  0.10566000000E+00 0.  1.
        994    1    1    2    0    0 -0.38800419482E+02 -0.37949491994E+01  0.10431080824E+02  0.17589235810E+03  0.17120000000E+03 0.  0.
        998    1    1    2    0    0  0.14508125210E+01  0.15410879869E+02  0.13561034248E+04  0.13562286308E+04  0.10000000000E+02 0.  1.
</event>
<event>
 5    1  0.1344348E-008  0.3712980E+03  0.7957747E-01  0.3489947E+00
         13   -1    0    0    0    0  0.00000000000E+00  0.00000000000E+00  0.14999999963E+04  0.15000000000E+04  0.10566000000E+00 0. -1.
        994   -1    0    0    0    0 -0.00000000000E+00 -0.00000000000E+00  0.11368683772E-12  0.17120000000E+03  0.17120000000E+03 0.  0.
         13    1    1    2    0    0  0.12732639674E+03  0.26606428963E+02  0.51807780913E+03  0.53415778647E+03  0.10566000000E+00 0. -1.
        994    1    1    2    0    0 -0.10990776411E+03 -0.44520703695E+02  0.62791901441E+02  0.21751798214E+03  0.17120000000E+03 0.  0.
        998    1    1    2    0    0 -0.17418632635E+02  0.17914274732E+02  0.91913028571E+03  0.91952423139E+03  0.10000000000E+02 0. -1.
</event>
<event>
 5    1  0.1344348E-008  0.3856889E+03  0.7957747E-01  0.3426756E+00
         13   -1    0    0    0    0  0.00000000000E+00  0.00000000000E+00  0.14999999963E+04  0.15000000000E+04  0.10566000000E+00 0.  1.
        994   -1    0    0    0    0 -0.00000000000E+00 -0.00000000000E+00  0.11368683772E-12  0.17120000000E+03  0.17120000000E+03 0.  0.
         13    1    1    2    0    0 -0.73521630036E+01  0.85077629503E+01  0.51032170226E+02  0.52256386148E+02  0.10566000000E+00 0.  1.
        994    1    1    2    0    0  0.29376677267E+01 -0.67247795728E+00  0.13182818585E+01  0.17123159751E+03  0.17120000000E+03 0.  0.
        998    1    1    2    0    0  0.44144952769E+01 -0.78352849930E+01  0.14476495442E+04  0.14477120163E+04  0.10000000000E+02 0.  1.
</event>
<event>
 5    1  0.1344348E-008  0.4187967E+03  0.7957747E-01  0.3297874E+00
         13   -1    0    0    0    0  0.00000000000E+00  0.00000000000E+00  0.14999999963E+04  0.15000000000E+04  0.10566000000E+00 0.  1.
        994   -1    0    0    0    0 -0.00000000000E+00 -0.00000000000E+00  0.11368683772E-12  0.17120000000E+03  0.17120000000E+03 0.  0.
         13    1    1    2    0    0 -0.31250999656E+02 -0.63079931814E+02  0.47791758163E+02  0.85086815016E+02  0.10566000000E+00 0.  1.
        994    1    1    2    0    0  0.36203406470E+02  0.62535668486E+02  0.62051084395E+02  0.19591113686E+03  0.17120000000E+03 0.  0.
        998    1    1    2    0    0 -0.49524068135E+01  0.54426332839E+00  0.13901571537E+04  0.13902020481E+04  0.10000000000E+02 0.  1.
</event>
<event>
 5    1  0.1344348E-008  0.3835822E+03  0.7957747E-01  0.3435708E+00
         13   -1    0    0    0    0  0.00000000000E+00  0.00000000000E+00  0.14999999963E+04  0.15000000000E+04  0.10566000000E+00 0. -1.
        994   -1    0    0    0    0 -0.00000000000E+00 -0.00000000000E+00  0.11368683772E-12  0.17120000000E+03  0.17120000000E+03 0.  0.
         13    1    1    2    0    0 -0.35215016713E+01 -0.14040652382E+02  0.45571846453E+02  0.47815742664E+02  0.10566000000E+00 0. -1.
        994    1    1    2    0    0  0.74070572359E+00  0.29979294793E+01  0.23671870487E+01  0.17124421100E+03  0.17120000000E+03 0.  0.
        998    1    1    2    0    0  0.27807959477E+01  0.11042722903E+02  0.14520609628E+04  0.14521400463E+04  0.10000000000E+02 0. -1.
</event>
<event>
 5    1  0.1344348E-008  0.3714079E+03  0.7957747E-01  0.3489445E+00
         13   -1    0    0    0    0  0.00000000000E+00  0.00000000000E+00  0.14999999963E+04  0.15000000000E+04  0.10566000000E+00 0. -1.
        994   -1    0    0    0    0 -0.00000000000E+00 -0.00000000000E+00  0.11368683772E-12  0.17120000000E+03  0.17120000000E+03 0.  0.
         13    1    1    2    0    0 -0.10620171338E+03  0.27794729194E+02  0.45035449403E+03  0.46354129520E+03  0.10566000000E+00 0. -1.
        994    1    1    2    0    0  0.11215431413E+03 -0.31331858499E+02  0.56746955933E+02  0.21468565984E+03  0.17120000000E+03 0.  0.
        998    1    1    2    0    0 -0.59526007460E+01  0.35371293056E+01  0.99289854631E+03  0.99297304496E+03  0.10000000000E+02 0. -1.
</event>
<event>
 5    1  0.1344348E-008  0.3777046E+03  0.7957747E-01  0.3461214E+00
         13   -1    0    0    0    0  0.00000000000E+00  0.00000000000E+00  0.14999999963E+04  0.15000000000E+04  0.10566000000E+00 0. -1.
        994   -1    0    0    0    0 -0.00000000000E+00 -0.00000000000E+00  0.11368683772E-12  0.17120000000E+03  0.17120000000E+03 0.  0.
         13    1    1    2    0    0  0.85342331642E+01 -0.15410465482E+02  0.27417491123E+02  0.32589040575E+02  0.10566000000E+00 0. -1.
        994    1    1    2    0    0  0.11156056324E+02  0.15263831205E+02  0.65012951637E+01  0.17236342122E+03  0.17120000000E+03 0.  0.
        998    1    1    2    0    0 -0.19690289489E+02  0.14663427696E+00  0.14660812100E+04  0.14662475382E+04  0.10000000000E+02 0. -1.
</event>
<event>
 5    1  0.1344348E-008  0.3832183E+03  0.7957747E-01  0.3437264E+00
         13   -1    0    0    0    0  0.00000000000E+00  0.00000000000E+00  0.14999999963E+04  0.15000000000E+04  0.10566000000E+00 0. -1.
        994   -1    0    0    0    0 -0.00000000000E+00 -0.00000000000E+00  0.11368683772E-12  0.17120000000E+03  0.17120000000E+03 0.  0.
         13    1    1    2    0    0 -0.85610930278E+00 -0.12373430168E+02  0.29284364407E+02  0.31802827862E+02  0.10566000000E+00 0. -1.
        994    1    1    2    0    0  0.75711974177E+01  0.12106043954E+02  0.31919790514E+01  0.17182406136E+03  0.17120000000E+03 0.  0.
        998    1    1    2    0    0 -0.67150881149E+01  0.26738621473E+00  0.14675236528E+04  0.14675731108E+04  0.10000000000E+02 0. -1.
</event>
<event>
 5    1  0.1344348E-008  0.3755527E+03  0.7957747E-01  0.3470754E+00
         13   -1    0    0    0    0  0.00000000000E+00  0.00000000000E+00  0.14999999963E+04  0.15000000000E+04  0.10566000000E+00 0. -1.
        994   -1    0    0    0    0 -0.00000000000E+00 -0.00000000000E+00  0.11368683772E-12  0.17120000000E+03  0.17120000000E+03 0.  0.
         13    1    1    2    0    0  0.14630969995E+02  0.68504813130E-01  0.13766269528E+02  0.20089582292E+02  0.10566000000E+00 0. -1.
        994    1    1    2    0    0 -0.15314635542E+02  0.21588271773E+01  0.72071451521E+01  0.17204819539E+03  0.17120000000E+03 0.  0.
        998    1    1    2    0    0  0.68366554647E+00 -0.22273319904E+01  0.14790265816E+04  0.14790622223E+04  0.10000000000E+02 0. -1.
</event>
<event>
 5    1  0.1344348E-008  0.3726928E+03  0.7957747E-01  0.3483606E+00
         13   -1    0    0    0    0  0.00000000000E+00  0.00000000000E+00  0.14999999963E+04  0.15000000000E+04  0.10566000000E+00 0. -1.
        994   -1    0    0    0    0 -0.00000000000E+00 -0.00000000000E+00  0.11368683772E-12  0.17120000000E+03  0.17120000000E+03 0.  0.
         13    1    1    2    0    0 -0.20313743397E+02 -0.14019316262E+02  0.35169952355E+02  0.42966569702E+02  0.10566000000E+00 0. -1.
        994    1    1    2    0    0  0.12626260474E+02  0.17926812526E+02  0.95171851407E+01  0.17286066607E+03  0.17120000000E+03 0.  0.
        998    1    1    2    0    0  0.76874829223E+01 -0.39074962640E+01  0.14553128588E+04  0.14553727642E+04  0.10000000000E+02 0. -1.
</event>
<event>
 5    1  0.1344348E-008  0.3832105E+03  0.7957747E-01  0.3437297E+00
         13   -1    0    0    0    0  0.00000000000E+00  0.00000000000E+00  0.14999999963E+04  0.15000000000E+04  0.10566000000E+00 0. -1.
        994   -1    0    0    0    0 -0.00000000000E+00 -0.00000000000E+00  0.11368683772E-12  0.17120000000E+03  0.17120000000E+03 0.  0.
         13    1    1    2    0    0 -0.61863631573E+00 -0.10650697075E+02  0.21927717368E+02  0.24385569751E+02  0.10566000000E+00 0. -1.
        994    1    1    2    0    0 -0.96604937906E+00  0.38892328438E+01  0.25743223824E+01  0.17126624454E+03  0.17120000000E+03 0.  0.
        998    1    1    2    0    0  0.15846856948E+01  0.67614642308E+01  0.14754979565E+04  0.14755481857E+04  0.10000000000E+02 0. -1.
</event>
<event>
 5    1  0.1344348E-008  0.3853806E+03  0.7957747E-01  0.3428060E+00
         13   -1    0    0    0    0  0.00000000000E+00  0.00000000000E+00  0.14999999963E+04  0.15000000000E+04  0.10566000000E+00 0.  1.
        994   -1    0    0    0    0 -0.00000000000E+00 -0.00000000000E+00  0.11368683772E-12  0.17120000000E+03  0.17120000000E+03 0.  0.
         13    1    1    2    0    0  0.27605186296E+01  0.14596384773E+02  0.74049815544E+02  0.75525235899E+02  0.10566000000E+00 0.  1.
        994    1    1    2    0    0 -0.31143936600E+01 -0.14631914407E+02  0.21767197230E+01  0.17186614116E+03  0.17120000000E+03 0.  0.
        998    1    1    2    0    0  0.35387503047E+00  0.35529634247E-01  0.14237734610E+04  0.14238086229E+04  0.10000000000E+02 0.  0.
</event>
<event>
 5    1  0.2045224E-008  0.3862081E+03  0.7957747E-01  0.3424565E+00
         13   -1    0    0    0    0  0.00000000000E+00  0.00000000000E+00  0.14999999963E+04  0.15000000000E+04  0.10566000000E+00 0.  1.
        994   -1    0    0    0    0 -0.00000000000E+00 -0.00000000000E+00  0.11368683772E-12  0.17120000000E+03  0.17120000000E+03 0.  0.
         13    1    1    2    0    0 -0.30200179420E+01 -0.99288533228E+01  0.51807683412E+02  0.52837012229E+02  0.10566000000E+00 0.  1.
        994    1    1    2    0    0  0.25645363860E+01  0.99656991016E+01  0.13784803316E+01  0.17151452479E+03  0.17120000000E+03 0.  0.
        998    1    1    2    0    0  0.45548155601E+00 -0.36845778854E-01  0.14468138325E+04  0.14468484630E+04  0.10000000000E+02 0.  0.
</event>
<event>
 5    1  0.1344348E-008  0.3743444E+03  0.7957747E-01  0.3476160E+00
         13   -1    0    0    0    0  0.00000000000E+00  0.00000000000E+00  0.14999999963E+04  0.15000000000E+04  0.10566000000E+00 0. -1.
        994   -1    0    0    0    0 -0.00000000000E+00 -0.00000000000E+00  0.11368683772E-12  0.17120000000E+03  0.17120000000E+03 0.  0.
         13    1    1    2    0    0 -0.23482665991E+02  0.31567241047E+02  0.10786305717E+03  0.11481453120E+03  0.10566000000E+00 0. -1.
        994    1    1    2    0    0  0.34482090578E+02 -0.45624788056E+01  0.11148492101E+02  0.17505301957E+03  0.17120000000E+03 0.  0.
        998    1    1    2    0    0 -0.10999424588E+02 -0.27004762242E+02  0.13809884470E+04  0.13813324492E+04  0.10000000000E+02 0. -1.
</event>
<event>
 5    1  0.1344348E-008  0.3689790E+03  0.7957747E-01  0.3500596E+00
         13   -1    0    0    0    0  0.00000000000E+00  0.00000000000E+00  0.14999999963E+04  0.15000000000E+04  0.10566000000E+00 0.  1.
        994   -1    0    0    0    0 -0.00000000000E+00 -0.00000000000E+00  0.11368683772E-12  0.17120000000E+03  0.17120000000E+03 0.  0.
         13    1    1    2    0    0  0.40903296400E+02 -0.20854849869E+02  0.94004823830E+02  0.10461798357E+03  0.10566000000E+00 0.  1.
        994    1    1    2    0    0 -0.36886377076E+02  0.15998593932E+02  0.16052431191E+02  0.17658901542E+03  0.17120000000E+03 0.  0.
        998    1    1    2    0    0 -0.40169193239E+01  0.48562559376E+01  0.13899427413E+04  0.13899930010E+04  0.10000000000E+02 0.  1.
</event>
<event>
 5    1  0.1344348E-008  0.3789384E+03  0.7957747E-01  0.3455794E+00
         13   -1    0    0    0    0  0.00000000000E+00  0.00000000000E+00  0.14999999963E+04  0.15000000000E+04  0.10566000000E+00 0.  1.
        994   -1    0    0    0    0 -0.00000000000E+00 -0.00000000000E+00  0.11368683772E-12  0.17120000000E+03  0.17120000000E+03 0.  0.
         13    1    1    2    0    0  0.31802841963E+02  0.47096534897E+01  0.11817301868E+03  0.12246826161E+03  0.10566000000E+00 0.  1.
        994    1    1    2    0    0 -0.42175674891E+01 -0.99956733216E+00  0.47330480982E+01  0.17132025203E+03  0.17120000000E+03 0.  0.
        998    1    1    2    0    0 -0.27585274474E+02 -0.37100861575E+01  0.13770939295E+04  0.13774114864E+04  0.10000000000E+02 0.  1.
</event>
<event>
 5    1  0.1344348E-008  0.3837628E+03  0.7957747E-01  0.3434936E+00
         13   -1    0    0    0    0  0.00000000000E+00  0.00000000000E+00  0.14999999963E+04  0.15000000000E+04  0.10566000000E+00 0. -1.
        994   -1    0    0    0    0 -0.00000000000E+00 -0.00000000000E+00  0.11368683772E-12  0.17120000000E+03  0.17120000000E+03 0.  0.
         13    1    1    2    0    0 -0.13904053938E+02  0.87766925959E+00  0.42623531445E+02  0.44842720882E+02  0.10566000000E+00 0. -1.
        994    1    1    2    0    0  0.87533203423E+01 -0.11216697714E+02  0.29143529197E+01  0.17181492478E+03  0.17120000000E+03 0.  0.
        998    1    1    2    0    0  0.51507335957E+01  0.10339028454E+02  0.14544621119E+04  0.14545423543E+04  0.10000000000E+02 0. -1.
</event>
<event>
 5    1  0.1344348E-008  0.3833813E+03  0.7957747E-01  0.3436566E+00
         13   -1    0    0    0    0  0.00000000000E+00  0.00000000000E+00  0.14999999963E+04  0.15000000000E+04  0.10566000000E+00 0. -1.
        994   -1    0    0    0    0 -0.00000000000E+00 -0.00000000000E+00  0.11368683772E-12  0.17120000000E+03  0.17120000000E+03 0.  0.
         13    1    1    2    0    0 -0.16070743149E+02  0.14112175044E+02  0.91068707770E+02  0.93546474914E+02  0.10566000000E+00 0. -1.
        994    1    1    2    0    0  0.85209436384E+01 -0.16518222970E+02  0.35788398504E+01  0.17224316029E+03  0.17120000000E+03 0.  0.
        998    1    1    2    0    0  0.75497995103E+01  0.24060479253E+01  0.14053524487E+04  0.14054103648E+04  0.10000000000E+02 0. -1.
</event>
<event>
 5    1  0.1344348E-008  0.3813868E+03  0.7957747E-01  0.3445142E+00
         13   -1    0    0    0    0  0.00000000000E+00  0.00000000000E+00  0.14999999963E+04  0.15000000000E+04  0.10566000000E+00 0.  1.
        994   -1    0    0    0    0 -0.00000000000E+00 -0.00000000000E+00  0.11368683772E-12  0.17120000000E+03  0.17120000000E+03 0.  0.
         13    1    1    2    0    0 -0.90854207092E+01 -0.46160241184E+01  0.13625978108E+02  0.17015610232E+02  0.10566000000E+00 0.  1.
        994    1    1    2    0    0  0.10407435857E+02 -0.19641809147E+01  0.38081065022E+01  0.17156956141E+03  0.17120000000E+03 0.  0.
        998    1    1    2    0    0 -0.13220151483E+01  0.65802050331E+01  0.14825659117E+04  0.14826148284E+04  0.10000000000E+02 0.  1.
</event>
<event>
 5    1  0.1535219E-008  0.3859743E+03  0.7957747E-01  0.3425551E+00
         13   -1    0    0    0    0  0.00000000000E+00  0.00000000000E+00  0.14999999963E+04  0.15000000000E+04  0.10566000000E+00 0.  1.
        994   -1    0    0    0    0 -0.00000000000E+00 -0.00000000000E+00  0.11368683772E-12  0.17120000000E+03  0.17120000000E+03 0.  0.
         13    1    1    2    0    0  0.50516648905E+01 -0.98615808848E+01  0.53560386127E+02  0.54694572143E+02  0.10566000000E+00 0.  1.
        994    1    1    2    0    0 -0.14265787559E+00  0.10027397855E+02  0.14769593219E+01  0.17149982644E+03  0.17120000000E+03 0.  0.
        998    1    1    2    0    0 -0.49090070149E+01 -0.16581697019E+00  0.14449626508E+04  0.14450056014E+04  0.10000000000E+02 0.  1.
</event>
<event>
 5    1  0.1344348E-008  0.3774497E+03  0.7957747E-01  0.3462339E+00
         13   -1    0    0    0    0  0.00000000000E+00  0.00000000000E+00  0.14999999963E+04  0.15000000000E+04  0.10566000000E+00 0.  1.
        994   -1    0    0    0    0 -0.00000000000E+00 -0.00000000000E+00  0.11368683772E-12  0.17120000000E+03  0.17120000000E+03 0.  0.
         13    1    1    2    0    0  0.12846850136E+02  0.10109388760E+02  0.22063078185E+02  0.27459640976E+02  0.10566000000E+00 0.  1.
        994    1    1    2    0    0 -0.67053184750E+01 -0.17555168364E+02  0.66175804130E+01  0.17235538170E+03  0.17120000000E+03 0.  0.
        998    1    1    2    0    0 -0.61415316613E+01  0.74457796040E+01  0.14713193377E+04  0.14713849773E+04  0.10000000000E+02 0.  1.
</event>
<event>
 5    1  0.1344348E-008  0.3746809E+03  0.7957747E-01  0.3474651E+00
         13   -1    0    0    0    0  0.00000000000E+00  0.00000000000E+00  0.14999999963E+04  0.15000000000E+04  0.10566000000E+00 0.  1.
        994   -1    0    0    0    0 -0.00000000000E+00 -0.00000000000E+00  0.11368683772E-12  0.17120000000E+03  0.17120000000E+03 0.  0.
         13    1    1    2    0    0 -0.59415338928E+01  0.44708064698E+02  0.14304829451E+03  0.14998979498E+03  0.10566000000E+00 0.  1.
        994    1    1    2    0    0  0.20327650841E+02 -0.29086379512E+02  0.11139692701E+02  0.17519350335E+03  0.17120000000E+03 0.  0.
        998    1    1    2    0    0 -0.14386116949E+02 -0.15621685186E+02  0.13458120091E+04  0.13460167017E+04  0.10000000000E+02 0.  1.
</event>
<event>
 5    1  0.1344348E-008  0.3855361E+03  0.7957747E-01  0.3427402E+00
         13   -1    0    0    0    0  0.00000000000E+00  0.00000000000E+00  0.14999999963E+04  0.15000000000E+04  0.10566000000E+00 0. -1.
        994   -1    0    0    0    0 -0.00000000000E+00 -0.00000000000E+00  0.11368683772E-12  0.17120000000E+03  0.17120000000E+03 0.  0.
         13    1    1    2    0    0  0.10379941948E+02  0.42748143517E+01  0.45253156993E+02  0.46624849752E+02  0.10566000000E+00 0. -1.
        994    1    1    2    0    0 -0.12085050533E+02 -0.18810600026E+01  0.18554251010E+01  0.17164634990E+03  0.17120000000E+03 0.  0.
        998    1    1    2    0    0  0.17051085846E+01 -0.23937543491E+01  0.14528914142E+04  0.14529288003E+04  0.10000000000E+02 0. -1.
</event>
<event>
 5    1  0.1344348E-008  0.3831972E+03  0.7957747E-01  0.3437354E+00
         13   -1    0    0    0    0  0.00000000000E+00  0.00000000000E+00  0.14999999963E+04  0.15000000000E+04  0.10566000000E+00 0.  1.
        994   -1    0    0    0    0 -0.00000000000E+00 -0.00000000000E+00  0.11368683772E-12  0.17120000000E+03  0.17120000000E+03 0.  0.
         13    1    1    2    0    0  0.41099314376E+01 -0.21242223938E+02  0.94981176782E+02  0.97414366092E+02  0.10566000000E+00 0.  1.
        994    1    1    2    0    0 -0.56364926689E+00  0.83275251318E+01  0.27583287615E+01  0.17142553413E+03  0.17120000000E+03 0.  0.
        998    1    1    2    0    0 -0.35462821707E+01  0.12914698806E+02  0.14022604907E+04  0.14023600998E+04  0.10000000000E+02 0.  1.
</event>
<event>
 5    1  0.1344348E-008  0.3826337E+03  0.7957747E-01  0.3439771E+00
         13   -1    0    0    0    0  0.00000000000E+00  0.00000000000E+00  0.14999999963E+04  0.15000000000E+04  0.10566000000E+00 0. -1.
        994   -1    0    0    0    0 -0.00000000000E+00 -0.00000000000E+00  0.11368683772E-12  0.17120000000E+03  0.17120000000E+03 0.  0.
         13    1    1    2    0    0 -0.14901706121E+01 -0.31909650087E+02  0.17990017343E+03  0.18271433973E+03  0.10566000000E+00 0. -1.
        994    1    1    2    0    0 -0.86839037862E+01  0.19881759341E+02  0.43710363276E+01  0.17262456516E+03  0.17120000000E+03 0.  0.
        998    1    1    2    0    0  0.10174074398E+02  0.12027890747E+02  0.13157287865E+04  0.13158610951E+04  0.10000000000E+02 0. -1.
</event>
<event>
 5    1  0.1344348E-008  0.3806589E+03  0.7957747E-01  0.3448295E+00
         13   -1    0    0    0    0  0.00000000000E+00  0.00000000000E+00  0.14999999963E+04  0.15000000000E+04  0.10566000000E+00 0.  1.
        994   -1    0    0    0    0 -0.00000000000E+00 -0.00000000000E+00  0.11368683772E-12  0.17120000000E+03  0.17120000000E+03 0.  0.
         13    1    1    2    0    0  0.21031412280E+02 -0.17286763459E+02  0.90908824329E+02  0.94897723883E+02  0.10566000000E+00 0.  1.
        994    1    1    2    0    0 -0.24957210530E+02  0.13568027657E+02  0.64973083670E+01  0.17366234119E+03  0.17120000000E+03 0.  0.
        998    1    1    2    0    0  0.39257982497E+01  0.37187358022E+01  0.14025938636E+04  0.14026399349E+04  0.10000000000E+02 0.  1.
</event>
<event>
 5    1  0.1344348E-008  0.3862710E+03  0.7957747E-01  0.3424299E+00
         13   -1    0    0    0    0  0.00000000000E+00  0.00000000000E+00  0.14999999963E+04  0.15000000000E+04  0.10566000000E+00 0. -1.
        994   -1    0    0    0    0 -0.00000000000E+00 -0.00000000000E+00  0.11368683772E-12  0.17120000000E+03  0.17120000000E+03 0.  0.
         13    1    1    2    0    0 -0.11080087209E+02 -0.73816691393E+00  0.56439968124E+02  0.57522120865E+02  0.10566000000E+00 0. -1.
        994    1    1    2    0    0  0.21100761894E+02  0.13314150389E+02  0.30418634781E+01  0.17303526140E+03  0.17120000000E+03 0.  0.
        998    1    1    2    0    0 -0.10020674686E+02 -0.12575983475E+02  0.14405181647E+04  0.14406426177E+04  0.10000000000E+02 0. -1.
</event>
<event>
 5    1  0.1344348E-008  0.3818692E+03  0.7957747E-01  0.3443060E+00
         13   -1    0    0    0    0  0.00000000000E+00  0.00000000000E+00  0.14999999963E+04  0.15000000000E+04  0.10566000000E+00 0.  1.
        994   -1    0    0    0    0 -0.00000000000E+00 -0.00000000000E+00  0.11368683772E-12  0.17120000000E+03  0.17120000000E+03 0.  0.
         13    1    1    2    0    0 -0.21157230100E+02  0.11867436665E+02  0.87860790524E+02  0.91148198633E+02  0.10566000000E+00 0.  1.
        994    1    1    2    0    0  0.12739414005E+02 -0.22201208710E+02  0.53723665192E+01  0.17318628312E+03  0.17120000000E+03 0.  0.
        998    1    1    2    0    0  0.84178160944E+01  0.10333772046E+02  0.14067668392E+04  0.14068655183E+04  0.10000000000E+02 0.  1.
</event>
<event>
 5    1  0.1344348E-008  0.2822303E+03  0.7957747E-01  0.4031658E+00
         13   -1    0    0    0    0  0.00000000000E+00  0.00000000000E+00  0.14999999963E+04  0.15000000000E+04  0.10566000000E+00 0.  1.
        994   -1    0    0    0    0 -0.00000000000E+00 -0.00000000000E+00  0.11368683772E-12  0.17120000000E+03  0.17120000000E+03 0.  0.
         13    1    1    2    0    0  0.15743459604E+03 -0.98566045392E+02  0.69897959008E+03  0.72323813219E+03  0.10566000000E+00 0.  1.
        994    1    1    2    0    0 -0.47509861867E+02  0.54411161542E+02  0.56794840363E+02  0.19430094021E+03  0.17120000000E+03 0.  0.
        998    1    1    2    0    0 -0.10992473418E+03  0.44154883850E+02  0.74422556584E+03  0.75366092760E+03  0.10000000000E+02 0.  1.
</event>
<event>
 5    1  0.1344348E-008  0.3830824E+03  0.7957747E-01  0.3437846E+00
         13   -1    0    0    0    0  0.00000000000E+00  0.00000000000E+00  0.14999999963E+04  0.15000000000E+04  0.10566000000E+00 0.  1.
        994   -1    0    0    0    0 -0.00000000000E+00 -0.00000000000E+00  0.11368683772E-12  0.17120000000E+03  0.17120000000E+03 0.  0.
         13    1    1    2    0    0 -0.18223644220E+01  0.12574558492E+02  0.29515974012E+02  0.32134785191E+02  0.10566000000E+00 0.  1.
        994    1    1    2    0    0  0.83808835585E+01 -0.15440380688E+02  0.36072078882E+01  0.17213685403E+03  0.17120000000E+03 0.  0.
        998    1    1    2    0    0 -0.65585191364E+01  0.28658221953E+01  0.14668768144E+04  0.14669283608E+04  0.10000000000E+02 0.  1.
</event>
<event>
 5    1  0.1344348E-008  0.3838042E+03  0.7957747E-01  0.3434759E+00
         13   -1    0    0    0    0  0.00000000000E+00  0.00000000000E+00  0.14999999963E+04  0.15000000000E+04  0.10566000000E+00 0. -1.
        994   -1    0    0    0    0 -0.00000000000E+00 -0.00000000000E+00  0.11368683772E-12  0.17120000000E+03  0.17120000000E+03 0.  0.
         13    1    1    2    0    0  0.10927916693E+03 -0.30104551555E+02  0.24002039543E+03  0.26543929953E+03  0.10566000000E+00 0. -1.
        994    1    1    2    0    0 -0.14184214683E+03  0.32894532531E+02  0.10120388386E+03  0.24648105606E+03  0.17120000000E+03 0.  0.
        998    1    1    2    0    0  0.32562979898E+02 -0.27899809760E+01  0.11587757170E+04  0.11592796444E+04  0.10000000000E+02 0. -1.
</event>
<event>
 5    1  0.1344348E-008  0.3822387E+03  0.7957747E-01  0.3441468E+00
         13   -1    0    0    0    0  0.00000000000E+00  0.00000000000E+00  0.14999999963E+04  0.15000000000E+04  0.10566000000E+00 0. -1.
        994   -1    0    0    0    0 -0.00000000000E+00 -0.00000000000E+00  0.11368683772E-12  0.17120000000E+03  0.17120000000E+03 0.  0.
         13    1    1    2    0    0 -0.11011560464E+00  0.13143439395E+02  0.28247413425E+02  0.31155892762E+02  0.10566000000E+00 0. -1.
        994    1    1    2    0    0 -0.65384953278E+01 -0.23396622063E+01  0.31673707232E+01  0.17137006208E+03  0.17120000000E+03 0.  0.
        998    1    1    2    0    0  0.66486109324E+01 -0.10803777188E+02  0.14685852121E+04  0.14686740452E+04  0.10000000000E+02 0. -1.
</event>
<event>
 5    1  0.1344348E-008  0.3850113E+03  0.7957747E-01  0.3429624E+00
         13   -1    0    0    0    0  0.00000000000E+00  0.00000000000E+00  0.14999999963E+04  0.15000000000E+04  0.10566000000E+00 0. -1.
        994   -1    0    0    0    0 -0.00000000000E+00 -0.00000000000E+00  0.11368683772E-12  0.17120000000E+03  0.17120000000E+03 0.  0.
         13    1    1    2    0    0 -0.15835292149E+02  0.50689064783E+01  0.87679623236E+02  0.89242242156E+02  0.10566000000E+00 0. -1.
        994    1    1    2    0    0  0.75499925926E+01  0.12578580315E+01  0.18172340270E+01  0.17138064924E+03  0.17120000000E+03 0.  0.
        998    1    1    2    0    0  0.82852995560E+01 -0.63267645098E+01  0.14105031390E+04  0.14105771086E+04  0.10000000000E+02 0. -1.
</event>
<event>
 5    1  0.1344348E-008  0.3840741E+03  0.7957747E-01  0.3433609E+00
         13   -1    0    0    0    0  0.00000000000E+00  0.00000000000E+00  0.14999999963E+04  0.15000000000E+04  0.10566000000E+00 0. -1.
        994   -1    0    0    0    0 -0.00000000000E+00 -0.00000000000E+00  0.11368683772E-12  0.17120000000E+03  0.17120000000E+03 0.  0.
         13    1    1    2    0    0  0.17452113509E+02  0.11648845369E+02  0.11048851667E+03  0.11246330665E+03  0.10566000000E+00 0. -1.
        994    1    1    2    0    0 -0.39614217575E+01 -0.51026734528E+01  0.22281842283E+01  0.17133632115E+03  0.17120000000E+03 0.  0.
        998    1    1    2    0    0 -0.13490691752E+02 -0.65461719165E+01  0.13872832954E+04  0.13874003722E+04  0.10000000000E+02 0. -1.
</event>
<event>
 5    1  0.1344348E-008  0.3805707E+03  0.7957747E-01  0.3448677E+00
         13   -1    0    0    0    0  0.00000000000E+00  0.00000000000E+00  0.14999999963E+04  0.15000000000E+04  0.10566000000E+00 0. -1.
        994   -1    0    0    0    0 -0.00000000000E+00 -0.00000000000E+00  0.11368683772E-12  0.17120000000E+03  0.17120000000E+03 0.  0.
         13    1    1    2    0    0 -0.15672147204E+02 -0.15704040500E+02  0.60143383098E+02  0.64105154086E+02  0.10566000000E+00 0. -1.
        994    1    1    2    0    0  0.10789814192E+02  0.23038476914E+02  0.60077863863E+01  0.17318407839E+03  0.17120000000E+03 0.  0.
        998    1    1    2    0    0  0.48823330117E+01 -0.73344364143E+01  0.14338488268E+04  0.14339107675E+04  0.10000000000E+02 0. -1.
</event>
<event>
 5    1  0.1344348E-008  0.3847121E+03  0.7957747E-01  0.3430894E+00
         13   -1    0    0    0    0  0.00000000000E+00  0.00000000000E+00  0.14999999963E+04  0.15000000000E+04  0.10566000000E+00 0.  1.
        994   -1    0    0    0    0 -0.00000000000E+00 -0.00000000000E+00  0.11368683772E-12  0.17120000000E+03  0.17120000000E+03 0.  0.
         13    1    1    2    0    0  0.15779077556E+02 -0.46425276374E+01  0.80318364459E+02  0.81985261997E+02  0.10566000000E+00 0.  1.
        994    1    1    2    0    0 -0.20984385800E+01  0.32005200678E+01  0.18213457888E+01  0.17125245713E+03  0.17120000000E+03 0.  0.
        998    1    1    2    0    0 -0.13680638976E+02  0.14420075696E+01  0.14178602860E+04  0.14179622809E+04  0.10000000000E+02 0.  1.
</event>
<event>
 5    1  0.1344348E-008  0.3850081E+03  0.7957747E-01  0.3429638E+00
         13   -1    0    0    0    0  0.00000000000E+00  0.00000000000E+00  0.14999999963E+04  0.15000000000E+04  0.10566000000E+00 0.  1.
        994   -1    0    0    0    0 -0.00000000000E+00 -0.00000000000E+00  0.11368683772E-12  0.17120000000E+03  0.17120000000E+03 0.  0.
         13    1    1    2    0    0  0.81280208464E+00 -0.10478951959E+02  0.34438236462E+02  0.36006560181E+02  0.10566000000E+00 0.  1.
        994    1    1    2    0    0 -0.42725158952E+01  0.27310991299E+01  0.17106913025E+01  0.17128362373E+03  0.17120000000E+03 0.  0.
        998    1    1    2    0    0  0.34597138105E+01  0.77478528288E+01  0.14638510685E+04  0.14639098161E+04  0.10000000000E+02 0.  1.
</event>
<event>
 5    1  0.1344348E-008  0.3825093E+03  0.7957747E-01  0.3440305E+00
         13   -1    0    0    0    0  0.00000000000E+00  0.00000000000E+00  0.14999999963E+04  0.15000000000E+04  0.10566000000E+00 0.  1.
        994   -1    0    0    0    0 -0.00000000000E+00 -0.00000000000E+00  0.11368683772E-12  0.17120000000E+03  0.17120000000E+03 0.  0.
         13    1    1    2    0    0  0.41364314053E+02 -0.16372923978E+01  0.24983523263E+03  0.25324166685E+03  0.10566000000E+00 0.  1.
        994    1    1    2    0    0 -0.41921862676E+02  0.80974134499E+00  0.87226662646E+01  0.17647555966E+03  0.17120000000E+03 0.  0.
        998    1    1    2    0    0  0.55754862275E+00  0.82755105283E+00  0.12414420974E+04  0.12414827735E+04  0.10000000000E+02 0.  0.
</event>
<event>
 5    1  0.1344348E-008  0.3719068E+03  0.7957747E-01  0.3487173E+00
         13   -1    0    0    0    0  0.00000000000E+00  0.00000000000E+00  0.14999999963E+04  0.15000000000E+04  0.10566000000E+00 0. -1.
        994   -1    0    0    0    0 -0.00000000000E+00 -0.00000000000E+00  0.11368683772E-12  0.17120000000E+03  0.17120000000E+03 0.  0.
         13    1    1    2    0    0  0.34067627101E+02 -0.26672402190E+02  0.10441763276E+03  0.11302687048E+03  0.10566000000E+00 0. -1.
        994    1    1    2    0    0 -0.24164760543E+02  0.34518099592E+02  0.14399269792E+02  0.17689605372E+03  0.17120000000E+03 0.  0.
        998    1    1    2    0    0 -0.99028665584E+01 -0.78456974026E+01  0.13811830937E+04  0.13812770758E+04  0.10000000000E+02 0. -1.
</event>
<event>
 5    1  0.1344348E-008  0.3846524E+03  0.7957747E-01  0.3431148E+00
         13   -1    0    0    0    0  0.00000000000E+00  0.00000000000E+00  0.14999999963E+04  0.15000000000E+04  0.10566000000E+00 0. -1.
        994   -1    0    0    0    0 -0.00000000000E+00 -0.00000000000E+00  0.11368683772E-12  0.17120000000E+03  0.17120000000E+03 0.  0.
         13    1    1    2    0    0  0.88473524536E+01 -0.14173763488E+02  0.90206925669E+02  0.91741331032E+02  0.10566000000E+00 0. -1.
        994    1    1    2    0    0  0.30949258912E+01 -0.10205526653E+02  0.21773260578E+01  0.17154565599E+03  0.17120000000E+03 0.  0.
        998    1    1    2    0    0 -0.11942278345E+02  0.24379290141E+02  0.14076157446E+04  0.14079130130E+04  0.10000000000E+02 0. -1.
</event>
<event>
 5    1  0.1344348E-008  0.3837618E+03  0.7957747E-01  0.3434941E+00
         13   -1    0    0    0    0  0.00000000000E+00  0.00000000000E+00  0.14999999963E+04  0.15000000000E+04  0.10566000000E+00 0. -1.
        994   -1    0    0    0    0 -0.00000000000E+00 -0.00000000000E+00  0.11368683772E-12  0.17120000000E+03  0.17120000000E+03 0.  0.
         13    1    1    2    0    0  0.56826887557E+00 -0.17366732880E+02  0.67370170288E+02  0.69574976458E+02  0.10566000000E+00 0. -1.
        994    1    1    2    0    0 -0.65880968383E+01  0.92856485306E+01  0.26742758314E+01  0.17159900361E+03  0.17120000000E+03 0.  0.
        998    1    1    2    0    0  0.60198279627E+01  0.80810843493E+01  0.14299555502E+04  0.14300260199E+04  0.10000000000E+02 0. -1.
</event>
<event>
 5    1  0.1344348E-008  0.2769606E+03  0.7957747E-01  0.4075595E+00
         13   -1    0    0    0    0  0.00000000000E+00  0.00000000000E+00  0.14999999963E+04  0.15000000000E+04  0.10566000000E+00 0. -1.
        994   -1    0    0    0    0 -0.00000000000E+00 -0.00000000000E+00  0.11368683772E-12  0.17120000000E+03  0.17120000000E+03 0.  0.
         13    1    1    2    0    0 -0.17695435364E+03  0.95726998171E+01  0.57478879051E+03  0.60148702788E+03  0.10566000000E+00 0. -1.
        994    1    1    2    0    0  0.12444426622E+03  0.72228190626E+02  0.11101508817E+03  0.24967394081E+03  0.17120000000E+03 0.  0.
        998    1    1    2    0    0  0.52510087424E+02 -0.81800890443E+02  0.81419611760E+03  0.82003903131E+03  0.10000000000E+02 0.  1.
</event>
<event>
 5    1  0.1344348E-008  0.3826479E+03  0.7957747E-01  0.3439709E+00
         13   -1    0    0    0    0  0.00000000000E+00  0.00000000000E+00  0.14999999963E+04  0.15000000000E+04  0.10566000000E+00 0.  1.
        994   -1    0    0    0    0 -0.00000000000E+00 -0.00000000000E+00  0.11368683772E-12  0.17120000000E+03  0.17120000000E+03 0.  0.
         13    1    1    2    0    0 -0.31457417957E+02 -0.16148699901E+02  0.20898171033E+03  0.21195215514E+03  0.10566000000E+00 0.  1.
        994    1    1    2    0    0  0.27085837415E+02  0.73114546059E+01  0.54151760763E+01  0.17356803879E+03  0.17120000000E+03 0.  0.
        998    1    1    2    0    0  0.43715805417E+01  0.88372452948E+01  0.12856031099E+04  0.12856798061E+04  0.10000000000E+02 0.  1.
</event>
<event>
 5    1  0.1344348E-008  0.3802568E+03  0.7957747E-01  0.3450041E+00
         13   -1    0    0    0    0  0.00000000000E+00  0.00000000000E+00  0.14999999963E+04  0.15000000000E+04  0.10566000000E+00 0.  1.
        994   -1    0    0    0    0 -0.00000000000E+00 -0.00000000000E+00  0.11368683772E-12  0.17120000000E+03  0.17120000000E+03 0.  0.
         13    1    1    2    0    0  0.44475032763E+02 -0.15519535077E+02  0.26553726635E+03  0.26968302782E+03  0.10566000000E+00 0.  1.
        994    1    1    2    0    0 -0.31129056520E+02  0.55474574759E+01  0.73501462404E+01  0.17425055838E+03  0.17120000000E+03 0.  0.
        998    1    1    2    0    0 -0.13345976243E+02  0.99720776013E+01  0.12271125837E+04  0.12272664138E+04  0.10000000000E+02 0.  1.
</event>
<event>
 5    1  0.1344348E-008  0.3830925E+03  0.7957747E-01  0.3437803E+00
         13   -1    0    0    0    0  0.00000000000E+00  0.00000000000E+00  0.14999999963E+04  0.15000000000E+04  0.10566000000E+00 0.  1.
        994   -1    0    0    0    0 -0.00000000000E+00 -0.00000000000E+00  0.11368683772E-12  0.17120000000E+03  0.17120000000E+03 0.  0.
         13    1    1    2    0    0  0.11030138584E+02  0.83271177863E+01  0.37667111730E+02  0.40122653426E+02  0.10566000000E+00 0.  1.
        994    1    1    2    0    0  0.35308378525E+01 -0.37273476929E+01  0.26674001302E+01  0.17129773776E+03  0.17120000000E+03 0.  0.
        998    1    1    2    0    0 -0.14560976437E+02 -0.45997700934E+01  0.14596654844E+04  0.14597796088E+04  0.10000000000E+02 0.  1.
</event>
<event>
 5    1  0.1344348E-008  0.3852014E+03  0.7957747E-01  0.3428818E+00
         13   -1    0    0    0    0  0.00000000000E+00  0.00000000000E+00  0.14999999963E+04  0.15000000000E+04  0.10566000000E+00 0.  1.
        994   -1    0    0    0    0 -0.00000000000E+00 -0.00000000000E+00  0.11368683772E-12  0.17120000000E+03  0.17120000000E+03 0.  0.
         13    1    1    2    0    0 -0.13352852982E+02  0.29374310553E+01  0.59697175019E+02  0.61242885735E+02  0.10566000000E+00 0.  1.
        994    1    1    2    0    0  0.11667744641E+02 -0.78001759473E+01  0.21778130788E+01  0.17178813079E+03  0.17120000000E+03 0.  0.
        998    1    1    2    0    0  0.16851083408E+01  0.48627448920E+01  0.14381250082E+04  0.14381689835E+04  0.10000000000E+02 0.  1.
</event>
<event>
 5    1  0.1344348E-008  0.3745229E+03  0.7957747E-01  0.3475359E+00
         13   -1    0    0    0    0  0.00000000000E+00  0.00000000000E+00  0.14999999963E+04  0.15000000000E+04  0.10566000000E+00 0.  1.
        994   -1    0    0    0    0 -0.00000000000E+00 -0.00000000000E+00  0.11368683772E-12  0.17120000000E+03  0.17120000000E+03 0.  0.
         13    1    1    2    0    0 -0.25146398119E+01 -0.16972183387E+02  0.17932361924E+02  0.24818525148E+02  0.10566000000E+00 0.  1.
        994    1    1    2    0    0 -0.94828572404E+01  0.21423397038E+02  0.87949689930E+01  0.17301929951E+03  0.17120000000E+03 0.  0.
        998    1    1    2    0    0  0.11997497052E+02 -0.44512136513E+01  0.14732726654E+04  0.14733621753E+04  0.10000000000E+02 0.  1.
</event>
<event>
 5    1  0.1344348E-008  0.3822469E+03  0.7957747E-01  0.3441433E+00
         13   -1    0    0    0    0  0.00000000000E+00  0.00000000000E+00  0.14999999963E+04  0.15000000000E+04  0.10566000000E+00 0. -1.
        994   -1    0    0    0    0 -0.00000000000E+00 -0.00000000000E+00  0.11368683772E-12  0.17120000000E+03  0.17120000000E+03 0.  0.
         13    1    1    2    0    0 -0.28662316292E+02  0.10265754283E+02  0.17377181858E+03  0.17641873535E+03  0.10566000000E+00 0. -1.
        994    1    1    2    0    0  0.21181816145E+01 -0.16031796398E+01  0.30266158060E+01  0.17124735701E+03  0.17120000000E+03 0.  0.
        998    1    1    2    0    0  0.26544134678E+02 -0.86625746435E+01  0.13232015619E+04  0.13235339076E+04  0.10000000000E+02 0. -1.
</event>
<event>
 5    1  0.1344348E-008  0.3857406E+03  0.7957747E-01  0.3426537E+00
         13   -1    0    0    0    0  0.00000000000E+00  0.00000000000E+00  0.14999999963E+04  0.15000000000E+04  0.10566000000E+00 0. -1.
        994   -1    0    0    0    0 -0.00000000000E+00 -0.00000000000E+00  0.11368683772E-12  0.17120000000E+03  0.17120000000E+03 0.  0.
         13    1    1    2    0    0  0.56437647188E+01  0.10656834654E+02  0.58754207528E+02  0.59979065275E+02  0.10566000000E+00 0. -1.
        994    1    1    2    0    0  0.11898499777E+01 -0.77253460939E+01  0.14633733908E+01  0.17138459142E+03  0.17120000000E+03 0.  0.
        998    1    1    2    0    0 -0.68336146965E+01 -0.29314885602E+01  0.14397824154E+04  0.14398363433E+04  0.10000000000E+02 0. -1.
</event>
<event>
 5    1  0.1344348E-008  0.3790786E+03  0.7957747E-01  0.3455180E+00
         13   -1    0    0    0    0  0.00000000000E+00  0.00000000000E+00  0.14999999963E+04  0.15000000000E+04  0.10566000000E+00 0. -1.
        994   -1    0    0    0    0 -0.00000000000E+00 -0.00000000000E+00  0.11368683772E-12  0.17120000000E+03  0.17120000000E+03 0.  0.
         13    1    1    2    0    0 -0.18034341124E+02  0.39877760846E+01  0.35305913055E+02  0.39845432343E+02  0.10566000000E+00 0. -1.
        994    1    1    2    0    0  0.12654989961E+02  0.11478174642E+01  0.51405930315E+01  0.17174787321E+03  0.17120000000E+03 0.  0.
        998    1    1    2    0    0  0.53793511635E+01 -0.51355935488E+01  0.14595534902E+04  0.14596066944E+04  0.10000000000E+02 0. -1.
</event>
<event>
 5    1  0.1344348E-008  0.3713520E+03  0.7957747E-01  0.3489700E+00
         13   -1    0    0    0    0  0.00000000000E+00  0.00000000000E+00  0.14999999963E+04  0.15000000000E+04  0.10566000000E+00 0. -1.
        994   -1    0    0    0    0 -0.00000000000E+00 -0.00000000000E+00  0.11368683772E-12  0.17120000000E+03  0.17120000000E+03 0.  0.
         13    1    1    2    0    0 -0.36117608493E+02 -0.24477422877E+02  0.11453888965E+03  0.12256750907E+03  0.10566000000E+00 0. -1.
        994    1    1    2    0    0  0.54322426884E+02 -0.53554880132E+02  0.28865450801E+02  0.18963571789E+03  0.17120000000E+03 0.  0.
        998    1    1    2    0    0 -0.18204818392E+02  0.78032303008E+02  0.13565956558E+04  0.13589967730E+04  0.10000000000E+02 0. -1.
</event>
<event>
 5    1  0.1344348E-008  0.3857258E+03  0.7957747E-01  0.3426600E+00
         13   -1    0    0    0    0  0.00000000000E+00  0.00000000000E+00  0.14999999963E+04  0.15000000000E+04  0.10566000000E+00 0.  1.
        994   -1    0    0    0    0 -0.00000000000E+00 -0.00000000000E+00  0.11368683772E-12  0.17120000000E+03  0.17120000000E+03 0.  0.
         13    1    1    2    0    0 -0.18222550492E+01 -0.10374599230E+02  0.42764476338E+02  0.44042757897E+02  0.10566000000E+00 0.  1.
        994    1    1    2    0    0  0.63922302685E+01  0.11000085292E+02  0.18014704892E+01  0.17168153011E+03  0.17120000000E+03 0.  0.
        998    1    1    2    0    0 -0.45699752193E+01 -0.62548606213E+00  0.14554340495E+04  0.14554757120E+04  0.10000000000E+02 0.  1.
</event>
<event>
 5    1  0.1344348E-008  0.3834177E+03  0.7957747E-01  0.3436411E+00
         13   -1    0    0    0    0  0.00000000000E+00  0.00000000000E+00  0.14999999963E+04  0.15000000000E+04  0.10566000000E+00 0. -1.
        994   -1    0    0    0    0 -0.00000000000E+00 -0.00000000000E+00  0.11368683772E-12  0.17120000000E+03  0.17120000000E+03 0.  0.
         13    1    1    2    0    0 -0.42761864306E+00  0.15231118130E+02  0.45429390414E+02  0.47916703712E+02  0.10566000000E+00 0. -1.
        994    1    1    2    0    0 -0.58126484424E+00 -0.19375033230E+02  0.36607720730E+01  0.17233273349E+03  0.17120000000E+03 0.  0.
        998    1    1    2    0    0  0.10088834873E+01  0.41439151001E+01  0.14509098338E+04  0.14509505628E+04  0.10000000000E+02 0. -1.
</event>
<event>
 5    1  0.1344348E-008  0.3848442E+03  0.7957747E-01  0.3430333E+00
         13   -1    0    0    0    0  0.00000000000E+00  0.00000000000E+00  0.14999999963E+04  0.15000000000E+04  0.10566000000E+00 0. -1.
        994   -1    0    0    0    0 -0.00000000000E+00 -0.00000000000E+00  0.11368683772E-12  0.17120000000E+03  0.17120000000E+03 0.  0.
         13    1    1    2    0    0  0.14006730316E+02 -0.10308940052E+02  0.93893601987E+02  0.95490745087E+02  0.10566000000E+00 0. -1.
        994    1    1    2    0    0 -0.72247281345E+00  0.47246192662E+01  0.17826555474E+01  0.17127598155E+03  0.17120000000E+03 0.  0.
        998    1    1    2    0    0 -0.13284257503E+02  0.55843207856E+01  0.14043237387E+04  0.14044332734E+04  0.10000000000E+02 0. -1.
</event>
<event>
 5    1  0.1344348E-008  0.3697916E+03  0.7957747E-01  0.3496849E+00
         13   -1    0    0    0    0  0.00000000000E+00  0.00000000000E+00  0.14999999963E+04  0.15000000000E+04  0.10566000000E+00 0.  1.
        994   -1    0    0    0    0 -0.00000000000E+00 -0.00000000000E+00  0.11368683772E-12  0.17120000000E+03  0.17120000000E+03 0.  0.
         13    1    1    2    0    0 -0.16660481743E+03 -0.73143188193E+02  0.52098815528E+03  0.55184758790E+03  0.10566000000E+00 0.  1.
        994    1    1    2    0    0  0.21372542854E+03  0.10780844646E+03  0.24495810823E+03  0.38290355799E+03  0.17120000000E+03 0.  0.
        998    1    1    2    0    0 -0.47120611112E+02 -0.34665258270E+02  0.73405373277E+03  0.73644885411E+03  0.10000000000E+02 0.  1.
</event>
<event>
 5    1  0.1344348E-008  0.3810589E+03  0.7957747E-01  0.3446561E+00
         13   -1    0    0    0    0  0.00000000000E+00  0.00000000000E+00  0.14999999963E+04  0.15000000000E+04  0.10566000000E+00 0.  1.
        994   -1    0    0    0    0 -0.00000000000E+00 -0.00000000000E+00  0.11368683772E-12  0.17120000000E+03  0.17120000000E+03 0.  0.
         13    1    1    2    0    0 -0.26367294739E+02 -0.93397365309E+01  0.10936735890E+03  0.11288797663E+03  0.10566000000E+00 0.  1.
        994    1    1    2    0    0  0.17073988861E+02 -0.61261958970E+01  0.46965150328E+01  0.17222238131E+03  0.17120000000E+03 0.  0.
        998    1    1    2    0    0  0.92933058777E+01  0.15465932428E+02  0.13859361223E+04  0.13860896421E+04  0.10000000000E+02 0.  1.
</event>
<event>
 5    1  0.1344348E-008  0.3823297E+03  0.7957747E-01  0.3441077E+00
         13   -1    0    0    0    0  0.00000000000E+00  0.00000000000E+00  0.14999999963E+04  0.15000000000E+04  0.10566000000E+00 0.  1.
        994   -1    0    0    0    0 -0.00000000000E+00 -0.00000000000E+00  0.11368683772E-12  0.17120000000E+03  0.17120000000E+03 0.  0.
         13    1    1    2    0    0  0.76592651955E+01  0.10336345097E+02  0.26438079551E+02  0.29402169779E+02  0.10566000000E+00 0.  1.
        994    1    1    2    0    0 -0.13645854865E+02 -0.67169239523E+01  0.37294842433E+01  0.17191473315E+03  0.17120000000E+03 0.  0.
        998    1    1    2    0    0  0.59865896690E+01 -0.36194211442E+01  0.14698324325E+04  0.14698830971E+04  0.10000000000E+02 0.  1.
</event>
<event>
 5    1  0.1344348E-008  0.3797357E+03  0.7957747E-01  0.3452310E+00
         13   -1    0    0    0    0  0.00000000000E+00  0.00000000000E+00  0.14999999963E+04  0.15000000000E+04  0.10566000000E+00 0. -1.
        994   -1    0    0    0    0 -0.00000000000E+00 -0.00000000000E+00  0.11368683772E-12  0.17120000000E+03  0.17120000000E+03 0.  0.
         13    1    1    2    0    0 -0.20437493105E+02  0.14047741397E+02  0.69557209526E+02  0.73846101616E+02  0.10566000000E+00 0. -1.
        994    1    1    2    0    0  0.16193509855E+02 -0.98291766879E+01  0.54681482534E+01  0.17233160802E+03  0.17120000000E+03 0.  0.
        998    1    1    2    0    0  0.42439832497E+01 -0.42185647096E+01  0.14249746385E+04  0.14250222904E+04  0.10000000000E+02 0. -1.
</event>
<event>
 5    1  0.1344348E-008  0.3807754E+03  0.7957747E-01  0.3447789E+00
         13   -1    0    0    0    0  0.00000000000E+00  0.00000000000E+00  0.14999999963E+04  0.15000000000E+04  0.10566000000E+00 0. -1.
        994   -1    0    0    0    0 -0.00000000000E+00 -0.00000000000E+00  0.11368683772E-12  0.17120000000E+03  0.17120000000E+03 0.  0.
         13    1    1    2    0    0  0.17089827521E+03 -0.18212624496E+03  0.12255776230E+04  0.12507664493E+04  0.10566000000E+00 0. -1.
        994    1    1    2    0    0 -0.17310121894E+03  0.17023232958E+03  0.23758913421E+03  0.38039599725E+03  0.17120000000E+03 0.  0.
        998    1    1    2    0    0  0.22029437281E+01  0.11893915381E+02  0.36833239058E+02  0.40037553417E+02  0.10000000000E+02 0.  0.
</event>
<event>
 5    1  0.1344348E-008  0.3723518E+03  0.7957747E-01  0.3485152E+00
         13   -1    0    0    0    0  0.00000000000E+00  0.00000000000E+00  0.14999999963E+04  0.15000000000E+04  0.10566000000E+00 0. -1.
        994   -1    0    0    0    0 -0.00000000000E+00 -0.00000000000E+00  0.11368683772E-12  0.17120000000E+03  0.17120000000E+03 0.  0.
         13    1    1    2    0    0  0.17068483698E+02  0.13177676799E+02  0.25261945983E+02  0.33213873313E+02  0.10566000000E+00 0. -1.
        994    1    1    2    0    0 -0.13647129426E+02 -0.13977345180E+02  0.93549250002E+01  0.17256466887E+03  0.17120000000E+03 0.  0.
        998    1    1    2    0    0 -0.34213542721E+01  0.79966838072E+00  0.14653831253E+04  0.14654214578E+04  0.10000000000E+02 0. -1.
</event>
<event>
 5    1  0.1344348E-008  0.3842278E+03  0.7957747E-01  0.3432954E+00
         13   -1    0    0    0    0  0.00000000000E+00  0.00000000000E+00  0.14999999963E+04  0.15000000000E+04  0.10566000000E+00 0.  1.
        994   -1    0    0    0    0 -0.00000000000E+00 -0.00000000000E+00  0.11368683772E-12  0.17120000000E+03  0.17120000000E+03 0.  0.
         13    1    1    2    0    0 -0.88464093925E+01  0.88731442116E+01  0.38624166136E+02  0.40605775710E+02  0.10566000000E+00 0.  1.
        994    1    1    2    0    0  0.43109861644E+01 -0.68514742467E+01  0.22300987855E+01  0.17140577774E+03  0.17120000000E+03 0.  0.
        998    1    1    2    0    0  0.45354232281E+01 -0.20216699649E+01  0.14591457314E+04  0.14591884466E+04  0.10000000000E+02 0.  1.
</event>
<event>
 5    1  0.1344348E-008  0.3844592E+03  0.7957747E-01  0.3431969E+00
         13   -1    0    0    0    0  0.00000000000E+00  0.00000000000E+00  0.14999999963E+04  0.15000000000E+04  0.10566000000E+00 0. -1.
        994   -1    0    0    0    0 -0.00000000000E+00 -0.00000000000E+00  0.11368683772E-12  0.17120000000E+03  0.17120000000E+03 0.  0.
         13    1    1    2    0    0 -0.92381724220E+01  0.68575583311E+01  0.34344770284E+02  0.36220772298E+02  0.10566000000E+00 0. -1.
        994    1    1    2    0    0  0.56053600440E+01 -0.68195987274E+01  0.21556641855E+01  0.17144099240E+03  0.17120000000E+03 0.  0.
        998    1    1    2    0    0  0.36328123780E+01 -0.37959603742E-01  0.14634995618E+04  0.14635382353E+04  0.10000000000E+02 0. -1.
</event>
<event>
 5    1  0.1344348E-008  0.3771291E+03  0.7957747E-01  0.3463755E+00
         13   -1    0    0    0    0  0.00000000000E+00  0.00000000000E+00  0.14999999963E+04  0.15000000000E+04  0.10566000000E+00 0.  1.
        994   -1    0    0    0    0 -0.00000000000E+00 -0.00000000000E+00  0.11368683772E-12  0.17120000000E+03  0.17120000000E+03 0.  0.
         13    1    1    2    0    0  0.21902633974E+02  0.59187166782E+01  0.12029998344E+02  0.25680510242E+02  0.10566000000E+00 0.  1.
        994    1    1    2    0    0  0.17026404830E+02  0.51226376522E+01  0.15893577972E+02  0.17285307547E+03  0.17120000000E+03 0.  0.
        998    1    1    2    0    0 -0.38929038804E+02 -0.11041354330E+02  0.14720764200E+04  0.14726664143E+04  0.10000000000E+02 0.  1.
</event>
<event>
 5    1  0.1344348E-008  0.3825646E+03  0.7957747E-01  0.3440067E+00
         13   -1    0    0    0    0  0.00000000000E+00  0.00000000000E+00  0.14999999963E+04  0.15000000000E+04  0.10566000000E+00 0. -1.
        994   -1    0    0    0    0 -0.00000000000E+00 -0.00000000000E+00  0.11368683772E-12  0.17120000000E+03  0.17120000000E+03 0.  0.
         13    1    1    2    0    0  0.92036306972E+01 -0.55785857532E+01  0.18949967151E+02  0.21793114878E+02  0.10566000000E+00 0. -1.
        994    1    1    2    0    0 -0.14369086364E+02  0.15617800283E+01  0.35369260915E+01  0.17184545279E+03  0.17120000000E+03 0.  0.
        998    1    1    2    0    0  0.51654556668E+01  0.40168057249E+01  0.14775131030E+04  0.14775614323E+04  0.10000000000E+02 0. -1.
</event>
<event>
 5    1  0.1344348E-008  0.3795052E+03  0.7957747E-01  0.3453316E+00
         13   -1    0    0    0    0  0.00000000000E+00  0.00000000000E+00  0.14999999963E+04  0.15000000000E+04  0.10566000000E+00 0. -1.
        994   -1    0    0    0    0 -0.00000000000E+00 -0.00000000000E+00  0.11368683772E-12  0.17120000000E+03  0.17120000000E+03 0.  0.
         13    1    1    2    0    0  0.27266449297E+02  0.27167798914E+02  0.19236499072E+03  0.19617810626E+03  0.10566000000E+00 0. -1.
        994    1    1    2    0    0  0.10652834769E+01 -0.55821241694E+01  0.44912953162E+01  0.17135316359E+03  0.17120000000E+03 0.  0.
        998    1    1    2    0    0 -0.28331732774E+02 -0.21585674744E+02  0.13031437102E+04  0.13036687301E+04  0.10000000000E+02 0. -1.
</event>
<event>
 5    1  0.1344348E-008  0.3810338E+03  0.7957747E-01  0.3446669E+00
         13   -1    0    0    0    0  0.00000000000E+00  0.00000000000E+00  0.14999999963E+04  0.15000000000E+04  0.10566000000E+00 0.  1.
        994   -1    0    0    0    0 -0.00000000000E+00 -0.00000000000E+00  0.11368683772E-12  0.17120000000E+03  0.17120000000E+03 0.  0.
         13    1    1    2    0    0  0.19349196121E+02  0.15644240717E+02  0.80349124262E+02  0.84113771714E+02  0.10566000000E+00 0.  1.
        994    1    1    2    0    0 -0.23476364514E+02 -0.11911603413E+02  0.59244503662E+01  0.17331348793E+03  0.17120000000E+03 0.  0.
        998    1    1    2    0    0  0.41271683932E+01 -0.37326373047E+01  0.14137264217E+04  0.14137727404E+04  0.10000000000E+02 0.  1.
</event>
<event>
 5    1  0.1344348E-008  0.3835739E+03  0.7957747E-01  0.3435743E+00
         13   -1    0    0    0    0  0.00000000000E+00  0.00000000000E+00  0.14999999963E+04  0.15000000000E+04  0.10566000000E+00 0.  1.
        994   -1    0    0    0    0 -0.00000000000E+00 -0.00000000000E+00  0.11368683772E-12  0.17120000000E+03  0.17120000000E+03 0.  0.
         13    1    1    2    0    0 -0.16173778366E+02 -0.99972380599E+01  0.83031716037E+02  0.85181059558E+02  0.10566000000E+00 0.  1.
        994    1    1    2    0    0  0.16239575474E+02 -0.25850800278E+02  0.54251107691E+01  0.17398522786E+03  0.17120000000E+03 0.  0.
        998    1    1    2    0    0 -0.65797108238E-01  0.35848038338E+02  0.14115431695E+04  0.14120337126E+04  0.10000000000E+02 0.  1.
</event>
<event>
 5    1  0.1344348E-008  0.3878508E+03  0.7957747E-01  0.3417671E+00
         13   -1    0    0    0    0  0.00000000000E+00  0.00000000000E+00  0.14999999963E+04  0.15000000000E+04  0.10566000000E+00 0.  1.
        994   -1    0    0    0    0 -0.00000000000E+00 -0.00000000000E+00  0.11368683772E-12  0.17120000000E+03  0.17120000000E+03 0.  0.
         13    1    1    2    0    0  0.56399390267E+02 -0.55942410752E+02  0.12475130178E+03  0.14789639280E+03  0.10566000000E+00 0.  1.
        994    1    1    2    0    0 -0.67910192535E+02  0.72505755804E+02  0.58551075422E+02  0.20641353470E+03  0.17120000000E+03 0.  0.
        998    1    1    2    0    0  0.11510802268E+02 -0.16563345052E+02  0.13166976191E+04  0.13168900725E+04  0.10000000000E+02 0.  1.
</event>
<event>
 5    1  0.1344348E-008  0.3852924E+03  0.7957747E-01  0.3428433E+00
         13   -1    0    0    0    0  0.00000000000E+00  0.00000000000E+00  0.14999999963E+04  0.15000000000E+04  0.10566000000E+00 0.  1.
        994   -1    0    0    0    0 -0.00000000000E+00 -0.00000000000E+00  0.11368683772E-12  0.17120000000E+03  0.17120000000E+03 0.  0.
         13    1    1    2    0    0 -0.12422472876E+02 -0.11365060741E+02  0.84783134965E+02  0.86438842985E+02  0.10566000000E+00 0.  1.
        994    1    1    2    0    0  0.18346188517E+02  0.20418964416E+02  0.39646546731E+01  0.17343204787E+03  0.17120000000E+03 0.  0.
        998    1    1    2    0    0 -0.59237156409E+01 -0.90539036751E+01  0.14112522066E+04  0.14113291091E+04  0.10000000000E+02 0.  1.
</event>
<event>
 5    1  0.1344348E-008  0.3693019E+03  0.7957747E-01  0.3499105E+00
         13   -1    0    0    0    0  0.00000000000E+00  0.00000000000E+00  0.14999999963E+04  0.15000000000E+04  0.10566000000E+00 0. -1.
        994   -1    0    0    0    0 -0.00000000000E+00 -0.00000000000E+00  0.11368683772E-12  0.17120000000E+03  0.17120000000E+03 0.  0.
         13    1    1    2    0    0  0.38366995754E+02 -0.57077372943E+01  0.66375346910E+02  0.76878491593E+02  0.10566000000E+00 0. -1.
        994    1    1    2    0    0 -0.29142563164E+02  0.77666871769E+01  0.13748949252E+02  0.17437913873E+03  0.17120000000E+03 0.  0.
        998    1    1    2    0    0 -0.92244325897E+01 -0.20589498826E+01  0.14198757001E+04  0.14199423697E+04  0.10000000000E+02 0. -1.
</event>
<event>
 5    1  0.1344348E-008  0.3772812E+03  0.7957747E-01  0.3463083E+00
         13   -1    0    0    0    0  0.00000000000E+00  0.00000000000E+00  0.14999999963E+04  0.15000000000E+04  0.10566000000E+00 0. -1.
        994   -1    0    0    0    0 -0.00000000000E+00 -0.00000000000E+00  0.11368683772E-12  0.17120000000E+03  0.17120000000E+03 0.  0.
         13    1    1    2    0    0  0.39281915670E+02 -0.14968928772E+02  0.51896624522E+02  0.66786289971E+02  0.10566000000E+00 0. -1.
        994    1    1    2    0    0 -0.42459568364E+02  0.13148634291E+02  0.21963981695E+02  0.17823455900E+03  0.17120000000E+03 0.  0.
        998    1    1    2    0    0  0.31776526945E+01  0.18202944810E+01  0.14261393901E+04  0.14261791510E+04  0.10000000000E+02 0. -1.
</event>
<event>
 5    1  0.1344348E-008  0.3852863E+03  0.7957747E-01  0.3428459E+00
         13   -1    0    0    0    0  0.00000000000E+00  0.00000000000E+00  0.14999999963E+04  0.15000000000E+04  0.10566000000E+00 0.  1.
        994   -1    0    0    0    0 -0.00000000000E+00 -0.00000000000E+00  0.11368683772E-12  0.17120000000E+03  0.17120000000E+03 0.  0.
         13    1    1    2    0    0 -0.11783704447E+02  0.41799415539E+01  0.48365444890E+02  0.49955530478E+02  0.10566000000E+00 0.  1.
        994    1    1    2    0    0  0.21563561527E+02 -0.90324102682E+01  0.32859128392E+01  0.17282016330E+03  0.17120000000E+03 0.  0.
        998    1    1    2    0    0 -0.97798570795E+01  0.48524687143E+01  0.14483486385E+04  0.14484243062E+04  0.10000000000E+02 0.  1.
</event>
<event>
 5    1  0.1344348E-008  0.3851170E+03  0.7957747E-01  0.3429176E+00
         13   -1    0    0    0    0  0.00000000000E+00  0.00000000000E+00  0.14999999963E+04  0.15000000000E+04  0.10566000000E+00 0. -1.
        994   -1    0    0    0    0 -0.00000000000E+00 -0.00000000000E+00  0.11368683772E-12  0.17120000000E+03  0.17120000000E+03 0.  0.
         13    1    1    2    0    0 -0.25906739251E+01  0.13675897938E+02  0.65422821960E+02  0.66887207843E+02  0.10566000000E+00 0. -1.
        994    1    1    2    0    0  0.57109148006E+01  0.82684501165E+00  0.16815377273E+01  0.17130547507E+03  0.17120000000E+03 0.  0.
        998    1    1    2    0    0 -0.31202408755E+01 -0.14502742950E+02  0.14328956366E+04  0.14330073171E+04  0.10000000000E+02 0. -1.
</event>
<event>
 5    1  0.1344348E-008  0.3854529E+03  0.7957747E-01  0.3427754E+00
         13   -1    0    0    0    0  0.00000000000E+00  0.00000000000E+00  0.14999999963E+04  0.15000000000E+04  0.10566000000E+00 0. -1.
        994   -1    0    0    0    0 -0.00000000000E+00 -0.00000000000E+00  0.11368683772E-12  0.17120000000E+03  0.17120000000E+03 0.  0.
         13    1    1    2    0    0 -0.13626578736E+02 -0.34792940061E+01  0.68207633543E+02  0.69642527039E+02  0.10566000000E+00 0. -1.
        994    1    1    2    0    0  0.11754968268E+02  0.12861476586E+02  0.24030512553E+01  0.17210116651E+03  0.17120000000E+03 0.  0.
        998    1    1    2    0    0  0.18716104679E+01 -0.93821825804E+01  0.14293893115E+04  0.14294563065E+04  0.10000000000E+02 0. -1.
</event>
<event>
 5    1  0.1344348E-008  0.3737217E+03  0.7957747E-01  0.3478960E+00
         13   -1    0    0    0    0  0.00000000000E+00  0.00000000000E+00  0.14999999963E+04  0.15000000000E+04  0.10566000000E+00 0. -1.
        994   -1    0    0    0    0 -0.00000000000E+00 -0.00000000000E+00  0.11368683772E-12  0.17120000000E+03  0.17120000000E+03 0.  0.
         13    1    1    2    0    0 -0.90908652090E+01  0.23808737483E+02  0.42963246650E+02  0.49953493746E+02  0.10566000000E+00 0. -1.
        994    1    1    2    0    0  0.12205062071E+02  0.48545808521E+00  0.78461432039E+01  0.17181443820E+03  0.17120000000E+03 0.  0.
        998    1    1    2    0    0 -0.31141968624E+01 -0.24294195568E+02  0.14491906064E+04  0.14494320681E+04  0.10000000000E+02 0. -1.
</event>
<event>
 5    1  0.1344348E-008  0.3773171E+03  0.7957747E-01  0.3462924E+00
         13   -1    0    0    0    0  0.00000000000E+00  0.00000000000E+00  0.14999999963E+04  0.15000000000E+04  0.10566000000E+00 0. -1.
        994   -1    0    0    0    0 -0.00000000000E+00 -0.00000000000E+00  0.11368683772E-12  0.17120000000E+03  0.17120000000E+03 0.  0.
         13    1    1    2    0    0 -0.31189057140E+02  0.35832276446E+01  0.86833510640E+02  0.92334536008E+02  0.10566000000E+00 0. -1.
        994    1    1    2    0    0  0.22669022914E+02  0.62517969335E+01  0.73609445156E+01  0.17296413810E+03  0.17120000000E+03 0.  0.
        998    1    1    2    0    0  0.85200342256E+01 -0.98350245781E+01  0.14058055411E+04  0.14059013259E+04  0.10000000000E+02 0. -1.
</event>
<event>
 5    1  0.1344348E-008  0.2700375E+03  0.7957747E-01  0.4136247E+00
         13   -1    0    0    0    0  0.00000000000E+00  0.00000000000E+00  0.14999999963E+04  0.15000000000E+04  0.10566000000E+00 0. -1.
        994   -1    0    0    0    0 -0.00000000000E+00 -0.00000000000E+00  0.11368683772E-12  0.17120000000E+03  0.17120000000E+03 0.  0.
         13    1    1    2    0    0 -0.13696068059E+03  0.16237904237E+03  0.36846099686E+03  0.42531012074E+03  0.10566000000E+00 0. -1.
        994    1    1    2    0    0  0.10498612142E+03 -0.15185345312E+03  0.22199330298E+03  0.33566653614E+03  0.17120000000E+03 0.  0.
        998    1    1    2    0    0  0.31974559177E+02 -0.10525589253E+02  0.90954569643E+03  0.91022334312E+03  0.10000000000E+02 0.  1.
</event>
<event>
 5    1  0.1344348E-008  0.3823846E+03  0.7957747E-01  0.3440841E+00
         13   -1    0    0    0    0  0.00000000000E+00  0.00000000000E+00  0.14999999963E+04  0.15000000000E+04  0.10566000000E+00 0.  1.
        994   -1    0    0    0    0 -0.00000000000E+00 -0.00000000000E+00  0.11368683772E-12  0.17120000000E+03  0.17120000000E+03 0.  0.
         13    1    1    2    0    0  0.85451893438E+01  0.10480079991E+02  0.29914653682E+02  0.32829103041E+02  0.10566000000E+00 0.  1.
        994    1    1    2    0    0 -0.95517141357E+01 -0.64760594651E+01  0.33760586993E+01  0.17162171297E+03  0.17120000000E+03 0.  0.
        998    1    1    2    0    0  0.10065247919E+01 -0.40040205257E+01  0.14667092839E+04  0.14667491840E+04  0.10000000000E+02 0.  1.
</event>
<event>
 5    1  0.1344348E-008  0.3744010E+03  0.7957747E-01  0.3475906E+00
         13   -1    0    0    0    0  0.00000000000E+00  0.00000000000E+00  0.14999999963E+04  0.15000000000E+04  0.10566000000E+00 0.  1.
        994   -1    0    0    0    0 -0.00000000000E+00 -0.00000000000E+00  0.11368683772E-12  0.17120000000E+03  0.17120000000E+03 0.  0.
         13    1    1    2    0    0 -0.29178055256E+02 -0.10991725858E+02  0.64812939510E+02  0.71922911772E+02  0.10566000000E+00 0.  1.
        994    1    1    2    0    0  0.28324894943E+02  0.81873529109E+01  0.99533566221E+01  0.17400529224E+03  0.17120000000E+03 0.  0.
        998    1    1    2    0    0  0.85316031297E+00  0.28043729468E+01  0.14252337001E+04  0.14252717960E+04  0.10000000000E+02 0.  1.
</event>
<event>
 5    1  0.1344348E-008  0.3699059E+03  0.7957747E-01  0.3496324E+00
         13   -1    0    0    0    0  0.00000000000E+00  0.00000000000E+00  0.14999999963E+04  0.15000000000E+04  0.10566000000E+00 0.  1.
        994   -1    0    0    0    0 -0.00000000000E+00 -0.00000000000E+00  0.11368683772E-12  0.17120000000E+03  0.17120000000E+03 0.  0.
         13    1    1    2    0    0 -0.59293733267E+02  0.90799910090E+01  0.22302889033E+03  0.23095473610E+03  0.10566000000E+00 0.  1.
        994    1    1    2    0    0  0.11286733828E+01 -0.56383764495E+02  0.20400297789E+02  0.18140015147E+03  0.17120000000E+03 0.  0.
        998    1    1    2    0    0  0.58165059884E+02  0.47303773486E+02  0.12565708082E+04  0.12588451124E+04  0.10000000000E+02 0.  1.
</event>
<event>
 5    1  0.1344348E-008  0.3811710E+03  0.7957747E-01  0.3446075E+00
         13   -1    0    0    0    0  0.00000000000E+00  0.00000000000E+00  0.14999999963E+04  0.15000000000E+04  0.10566000000E+00 0.  1.
        994   -1    0    0    0    0 -0.00000000000E+00 -0.00000000000E+00  0.11368683772E-12  0.17120000000E+03  0.17120000000E+03 0.  0.
         13    1    1    2    0    0 -0.10690895977E+02  0.32577982754E+01  0.16117931448E+02  0.19613958922E+02  0.10566000000E+00 0.  1.
        994    1    1    2    0    0  0.30675472015E+01 -0.19108124029E+02  0.47913725778E+01  0.17235697694E+03  0.17120000000E+03 0.  0.
        998    1    1    2    0    0  0.76233487756E+01  0.15850325754E+02  0.14790906923E+04  0.14792290641E+04  0.10000000000E+02 0.  1.
</event>
<event>
 5    1  0.1344348E-008  0.3859398E+03  0.7957747E-01  0.3425696E+00
         13   -1    0    0    0    0  0.00000000000E+00  0.00000000000E+00  0.14999999963E+04  0.15000000000E+04  0.10566000000E+00 0.  1.
        994   -1    0    0    0    0 -0.00000000000E+00 -0.00000000000E+00  0.11368683772E-12  0.17120000000E+03  0.17120000000E+03 0.  0.
         13    1    1    2    0    0  0.11706463053E+02  0.53736450887E+00  0.57979675596E+02  0.59152210306E+02  0.10566000000E+00 0.  1.
        994    1    1    2    0    0 -0.11534603811E+02 -0.84863353198E+01  0.18368752760E+01  0.17180768051E+03  0.17120000000E+03 0.  0.
        998    1    1    2    0    0 -0.17185924138E+00  0.79489708110E+01  0.14401834454E+04  0.14402401092E+04  0.10000000000E+02 0.  1.
</event>
<event>
 5    1  0.1344348E-008  0.3851657E+03  0.7957747E-01  0.3428970E+00
         13   -1    0    0    0    0  0.00000000000E+00  0.00000000000E+00  0.14999999963E+04  0.15000000000E+04  0.10566000000E+00 0. -1.
        994   -1    0    0    0    0 -0.00000000000E+00 -0.00000000000E+00  0.11368683772E-12  0.17120000000E+03  0.17120000000E+03 0.  0.
         13    1    1    2    0    0  0.51186464624E+00  0.19503131005E+02  0.10605445438E+03  0.10783409750E+03  0.10566000000E+00 0. -1.
        994    1    1    2    0    0  0.50812944776E+01 -0.31047811862E+02  0.48079799675E+01  0.17413311818E+03  0.17120000000E+03 0.  0.
        998    1    1    2    0    0 -0.55931591238E+01  0.11544680857E+02  0.13891375619E+04  0.13892327843E+04  0.10000000000E+02 0. -1.
</event>
<event>
 5    1  0.1344348E-008  0.3850573E+03  0.7957747E-01  0.3429429E+00
         13   -1    0    0    0    0  0.00000000000E+00  0.00000000000E+00  0.14999999963E+04  0.15000000000E+04  0.10566000000E+00 0. -1.
        994   -1    0    0    0    0 -0.00000000000E+00 -0.00000000000E+00  0.11368683772E-12  0.17120000000E+03  0.17120000000E+03 0.  0.
         13    1    1    2    0    0  0.82607240630E+01 -0.11042818002E+02  0.56671941802E+02  0.58325839412E+02  0.10566000000E+00 0. -1.
        994    1    1    2    0    0 -0.66833188391E+01  0.16333476343E+02  0.26264179301E+01  0.17212724151E+03  0.17120000000E+03 0.  0.
        998    1    1    2    0    0 -0.15774052239E+01 -0.52906583408E+01  0.14407016365E+04  0.14407469191E+04  0.10000000000E+02 0. -1.
</event>
<event>
 5    1  0.1344348E-008  0.3838615E+03  0.7957747E-01  0.3434515E+00
         13   -1    0    0    0    0  0.00000000000E+00  0.00000000000E+00  0.14999999963E+04  0.15000000000E+04  0.10566000000E+00 0.  1.
        994   -1    0    0    0    0 -0.00000000000E+00 -0.00000000000E+00  0.11368683772E-12  0.17120000000E+03  0.17120000000E+03 0.  0.
         13    1    1    2    0    0 -0.10615555730E+02  0.40882722397E+01  0.28100820358E+02  0.30316188121E+02  0.10566000000E+00 0.  1.
        994    1    1    2    0    0  0.12137292352E+02 -0.85652852327E+01  0.29252014750E+01  0.17186819014E+03  0.17120000000E+03 0.  0.
        998    1    1    2    0    0 -0.15217366212E+01  0.44770129930E+01  0.14689739744E+04  0.14690156217E+04  0.10000000000E+02 0.  1.
</event>
<event>
 5    1  0.1344348E-008  0.3779537E+03  0.7957747E-01  0.3460117E+00
         13   -1    0    0    0    0  0.00000000000E+00  0.00000000000E+00  0.14999999963E+04  0.15000000000E+04  0.10566000000E+00 0.  1.
        994   -1    0    0    0    0 -0.00000000000E+00 -0.00000000000E+00  0.11368683772E-12  0.17120000000E+03  0.17120000000E+03 0.  0.
         13    1    1    2    0    0 -0.45457664638E+01 -0.13000946367E+02  0.15866082252E+02  0.21010291032E+02  0.10566000000E+00 0.  1.
        994    1    1    2    0    0  0.30760890918E+01  0.15839810167E+02  0.60464820672E+01  0.17206499311E+03  0.17120000000E+03 0.  0.
        998    1    1    2    0    0  0.14696773720E+01 -0.28388637997E+01  0.14780874320E+04  0.14781247159E+04  0.10000000000E+02 0.  1.
</event>
<event>
 5    1  0.1344348E-008  0.3855881E+03  0.7957747E-01  0.3427182E+00
         13   -1    0    0    0    0  0.00000000000E+00  0.00000000000E+00  0.14999999963E+04  0.15000000000E+04  0.10566000000E+00 0.  1.
        994   -1    0    0    0    0 -0.00000000000E+00 -0.00000000000E+00  0.11368683772E-12  0.17120000000E+03  0.17120000000E+03 0.  0.
         13    1    1    2    0    0  0.91688698226E+01  0.74715839029E+01  0.53089969152E+02  0.54391623697E+02  0.10566000000E+00 0.  1.
        994    1    1    2    0    0 -0.27282828118E+01 -0.66996364630E+01  0.15102138574E+01  0.17135941585E+03  0.17120000000E+03 0.  0.
        998    1    1    2    0    0 -0.64405870108E+01 -0.77194743989E+00  0.14453998133E+04  0.14454489604E+04  0.10000000000E+02 0.  1.
</event>
<event>
 5    1  0.1344348E-008  0.3823499E+03  0.7957747E-01  0.3440990E+00
         13   -1    0    0    0    0  0.00000000000E+00  0.00000000000E+00  0.14999999963E+04  0.15000000000E+04  0.10566000000E+00 0. -1.
        994   -1    0    0    0    0 -0.00000000000E+00 -0.00000000000E+00  0.11368683772E-12  0.17120000000E+03  0.17120000000E+03 0.  0.
         13    1    1    2    0    0 -0.17856646822E+02 -0.10896736564E+02  0.10460427004E+03  0.10667550412E+03  0.10566000000E+00 0. -1.
        994    1    1    2    0    0 -0.17295257098E+02 -0.48958301930E+02  0.11946848498E+02  0.17929921482E+03  0.17120000000E+03 0.  0.
        998    1    1    2    0    0  0.35151903920E+02  0.59855038495E+02  0.13834488777E+04  0.13852252811E+04  0.10000000000E+02 0. -1.
</event>
<event>
 5    1  0.1344348E-008  0.3812426E+03  0.7957747E-01  0.3445766E+00
         13   -1    0    0    0    0  0.00000000000E+00  0.00000000000E+00  0.14999999963E+04  0.15000000000E+04  0.10566000000E+00 0. -1.
        994   -1    0    0    0    0 -0.00000000000E+00 -0.00000000000E+00  0.11368683772E-12  0.17120000000E+03  0.17120000000E+03 0.  0.
         13    1    1    2    0    0 -0.33764224413E+01  0.10084485839E+02  0.14602129622E+02  0.18064618365E+02  0.10566000000E+00 0. -1.
        994    1    1    2    0    0  0.23015019379E+01 -0.84638532834E+01  0.37633540022E+01  0.17146584662E+03  0.17120000000E+03 0.  0.
        998    1    1    2    0    0  0.10749205034E+01 -0.16206325558E+01  0.14816345127E+04  0.14816695350E+04  0.10000000000E+02 0. -1.
</event>
<event>
 5    1  0.1344348E-008  0.3815626E+03  0.7957747E-01  0.3444383E+00
         13   -1    0    0    0    0  0.00000000000E+00  0.00000000000E+00  0.14999999963E+04  0.15000000000E+04  0.10566000000E+00 0. -1.
        994   -1    0    0    0    0 -0.00000000000E+00 -0.00000000000E+00  0.11368683772E-12  0.17120000000E+03  0.17120000000E+03 0.  0.
         13    1    1    2    0    0 -0.12756062531E+02  0.23522765632E+02  0.11227550452E+03  0.11542026561E+03  0.10566000000E+00 0. -1.
        994    1    1    2    0    0  0.15787807670E+02  0.85498998834E+00  0.41782721083E+01  0.17197931223E+03  0.17120000000E+03 0.  0.
        998    1    1    2    0    0 -0.30317451393E+01 -0.24377755620E+02  0.13835462197E+04  0.13838004222E+04  0.10000000000E+02 0. -1.
</event>
<event>
 5    1  0.1344348E-008  0.3739164E+03  0.7957747E-01  0.3478083E+00
         13   -1    0    0    0    0  0.00000000000E+00  0.00000000000E+00  0.14999999963E+04  0.15000000000E+04  0.10566000000E+00 0.  1.
        994   -1    0    0    0    0 -0.00000000000E+00 -0.00000000000E+00  0.11368683772E-12  0.17120000000E+03  0.17120000000E+03 0.  0.
         13    1    1    2    0    0 -0.21734055246E+02  0.94471539163E+02  0.48819674970E+03  0.49772815718E+03  0.10566000000E+00 0.  1.
        994    1    1    2    0    0  0.34108908404E+02 -0.79921677325E+02  0.33451874938E+02  0.19488293942E+03  0.17120000000E+03 0.  0.
        998    1    1    2    0    0 -0.12374853158E+02 -0.14549861838E+02  0.97835137164E+03  0.97858890340E+03  0.10000000000E+02 0.  1.
</event>
<event>
 5    1  0.1344348E-008  0.3766961E+03  0.7957747E-01  0.3465672E+00
         13   -1    0    0    0    0  0.00000000000E+00  0.00000000000E+00  0.14999999963E+04  0.15000000000E+04  0.10566000000E+00 0. -1.
        994   -1    0    0    0    0 -0.00000000000E+00 -0.00000000000E+00  0.11368683772E-12  0.17120000000E+03  0.17120000000E+03 0.  0.
         13    1    1    2    0    0  0.49565140850E+01 -0.26450619088E+02  0.58957043479E+02  0.64808536643E+02  0.10566000000E+00 0. -1.
        994    1    1    2    0    0 -0.13011206549E+02  0.20784918988E+02  0.78452863233E+01  0.17312507869E+03  0.17120000000E+03 0.  0.
        998    1    1    2    0    0  0.80546924644E+01  0.56657000994E+01  0.14331976665E+04  0.14332663847E+04  0.10000000000E+02 0. -1.
</event>
<event>
 5    1  0.1344348E-008  0.3916562E+03  0.7957747E-01  0.3401924E+00
         13   -1    0    0    0    0  0.00000000000E+00  0.00000000000E+00  0.14999999963E+04  0.15000000000E+04  0.10566000000E+00 0. -1.
        994   -1    0    0    0    0 -0.00000000000E+00 -0.00000000000E+00  0.11368683772E-12  0.17120000000E+03  0.17120000000E+03 0.  0.
         13    1    1    2    0    0  0.34351553030E+02  0.52935673286E+01  0.17940084406E+02  0.39114049179E+02  0.10566000000E+00 0. -1.
        994    1    1    2    0    0 -0.66735866108E+01 -0.22024435947E+02  0.24891115065E+02  0.17452398158E+03  0.17120000000E+03 0.  0.
        998    1    1    2    0    0 -0.27677966419E+02  0.16730868619E+02  0.14571687968E+04  0.14575619692E+04  0.10000000000E+02 0. -1.
</event>
<event>
 5    1  0.1344348E-008  0.3843097E+03  0.7957747E-01  0.3432605E+00
         13   -1    0    0    0    0  0.00000000000E+00  0.00000000000E+00  0.14999999963E+04  0.15000000000E+04  0.10566000000E+00 0.  1.
        994   -1    0    0    0    0 -0.00000000000E+00 -0.00000000000E+00  0.11368683772E-12  0.17120000000E+03  0.17120000000E+03 0.  0.
         13    1    1    2    0    0 -0.95306883548E+01 -0.12708680328E+02  0.65090769913E+02  0.67001224378E+02  0.10566000000E+00 0.  1.
        994    1    1    2    0    0  0.60217923667E+01  0.36125904203E+01  0.21357880038E+01  0.17135727117E+03  0.17120000000E+03 0.  0.
        998    1    1    2    0    0  0.35088959881E+01  0.90960899077E+01  0.14327734384E+04  0.14328415045E+04  0.10000000000E+02 0.  1.
</event>
<event>
 5    1  0.1344348E-008  0.3832580E+03  0.7957747E-01  0.3437094E+00
         13   -1    0    0    0    0  0.00000000000E+00  0.00000000000E+00  0.14999999963E+04  0.15000000000E+04  0.10566000000E+00 0. -1.
        994   -1    0    0    0    0 -0.00000000000E+00 -0.00000000000E+00  0.11368683772E-12  0.17120000000E+03  0.17120000000E+03 0.  0.
         13    1    1    2    0    0 -0.95291959973E+01  0.15937038152E+02  0.67060496506E+02  0.69583878284E+02  0.10566000000E+00 0. -1.
        994    1    1    2    0    0  0.64795776556E+01 -0.14273376330E+02  0.33105704573E+01  0.17194799817E+03  0.17120000000E+03 0.  0.
        998    1    1    2    0    0  0.30496183417E+01 -0.16636618225E+01  0.14296289293E+04  0.14296681235E+04  0.10000000000E+02 0.  0.
</event>
<event>
 5    1  0.1344348E-008  0.3757316E+03  0.7957747E-01  0.3469957E+00
         13   -1    0    0    0    0  0.00000000000E+00  0.00000000000E+00  0.14999999963E+04  0.15000000000E+04  0.10566000000E+00 0.  1.
        994   -1    0    0    0    0 -0.00000000000E+00 -0.00000000000E+00  0.11368683772E-12  0.17120000000E+03  0.17120000000E+03 0.  0.
         13    1    1    2    0    0 -0.13187469269E+03  0.49217296742E+02  0.65393461996E+03  0.66891238232E+03  0.10566000000E+00 0.  1.
        994    1    1    2    0    0  0.14530506190E+03 -0.58047523195E+02  0.94437758973E+02  0.25042165697E+03  0.17120000000E+03 0.  0.
        998    1    1    2    0    0 -0.13430369206E+02  0.88302264537E+01  0.75162761734E+03  0.75186596071E+03  0.10000000000E+02 0.  1.
</event>
<event>
 5    1  0.1344348E-008  0.3853542E+03  0.7957747E-01  0.3428171E+00
         13   -1    0    0    0    0  0.00000000000E+00  0.00000000000E+00  0.14999999963E+04  0.15000000000E+04  0.10566000000E+00 0. -1.
        994   -1    0    0    0    0 -0.00000000000E+00 -0.00000000000E+00  0.11368683772E-12  0.17120000000E+03  0.17120000000E+03 0.  0.
         13    1    1    2    0    0 -0.13724250341E+02  0.35316408324E+01  0.73227806817E+02  0.74586529546E+02  0.10566000000E+00 0. -1.
        994    1    1    2    0    0  0.50108126513E+01  0.12007255165E+02  0.20106459220E+01  0.17170546036E+03  0.17120000000E+03 0.  0.
        998    1    1    2    0    0  0.87134376892E+01 -0.15538895997E+02  0.14247615435E+04  0.14249080101E+04  0.10000000000E+02 0. -1.
</event>
<event>
 5    1  0.1344348E-008  0.3766410E+03  0.7957747E-01  0.3465916E+00
         13   -1    0    0    0    0  0.00000000000E+00  0.00000000000E+00  0.14999999963E+04  0.15000000000E+04  0.10566000000E+00 0. -1.
        994   -1    0    0    0    0 -0.00000000000E+00 -0.00000000000E+00  0.11368683772E-12  0.17120000000E+03  0.17120000000E+03 0.  0.
         13    1    1    2    0    0  0.23239945904E+01  0.55842205372E+02  0.26845999360E+03  0.27421621429E+03  0.10566000000E+00 0. -1.
        994    1    1    2    0    0 -0.21933843424E+02 -0.30222987401E+02  0.10567136273E+02  0.17554380315E+03  0.17120000000E+03 0.  0.
        998    1    1    2    0    0  0.19609848834E+02 -0.25619217971E+02  0.12209728664E+04  0.12214399826E+04  0.10000000000E+02 0.  1.
</event>
<event>
 5    1  0.1344348E-008  0.3862583E+03  0.7957747E-01  0.3424353E+00
         13   -1    0    0    0    0  0.00000000000E+00  0.00000000000E+00  0.14999999963E+04  0.15000000000E+04  0.10566000000E+00 0. -1.
        994   -1    0    0    0    0 -0.00000000000E+00 -0.00000000000E+00  0.11368683772E-12  0.17120000000E+03  0.17120000000E+03 0.  0.
         13    1    1    2    0    0 -0.57166587766E+01  0.88830786246E+01  0.57449581637E+02  0.58412797123E+02  0.10566000000E+00 0. -1.
        994    1    1    2    0    0 -0.28317195323E+01 -0.72707680838E+01  0.12061151254E+01  0.17138196351E+03  0.17120000000E+03 0.  0.
        998    1    1    2    0    0  0.85483783089E+01 -0.16123105408E+01  0.14413442995E+04  0.14414052394E+04  0.10000000000E+02 0. -1.
</event>
<event>
 5    1  0.1344348E-008  0.3850179E+03  0.7957747E-01  0.3429596E+00
         13   -1    0    0    0    0  0.00000000000E+00  0.00000000000E+00  0.14999999963E+04  0.15000000000E+04  0.10566000000E+00 0. -1.
        994   -1    0    0    0    0 -0.00000000000E+00 -0.00000000000E+00  0.11368683772E-12  0.17120000000E+03  0.17120000000E+03 0.  0.
         13    1    1    2    0    0 -0.10726660899E+02 -0.90249952214E+01  0.60566441654E+02  0.62167650844E+02  0.10566000000E+00 0. -1.
        994    1    1    2    0    0  0.85154560170E+01  0.45002850785E+01  0.19263424721E+01  0.17148153356E+03  0.17120000000E+03 0.  0.
        998    1    1    2    0    0  0.22112048816E+01  0.45247101429E+01  0.14375072122E+04  0.14375508156E+04  0.10000000000E+02 0. -1.
</event>
<event>
 5    1  0.1344348E-008  0.3801164E+03  0.7957747E-01  0.3450652E+00
         13   -1    0    0    0    0  0.00000000000E+00  0.00000000000E+00  0.14999999963E+04  0.15000000000E+04  0.10566000000E+00 0.  1.
        994   -1    0    0    0    0 -0.00000000000E+00 -0.00000000000E+00  0.11368683772E-12  0.17120000000E+03  0.17120000000E+03 0.  0.
         13    1    1    2    0    0 -0.34891229854E+02 -0.51148595321E+01  0.13834450422E+03  0.14276824830E+03  0.10566000000E+00 0.  1.
        994    1    1    2    0    0  0.34141520814E+02  0.12914039369E+02  0.85397088492E+01  0.17525633365E+03  0.17120000000E+03 0.  0.
        998    1    1    2    0    0  0.74970903946E+00 -0.77991798372E+01  0.13531157832E+04  0.13531754181E+04  0.10000000000E+02 0.  1.
</event>
<event>
 5    1  0.1344348E-008  0.3825028E+03  0.7957747E-01  0.3440333E+00
         13   -1    0    0    0    0  0.00000000000E+00  0.00000000000E+00  0.14999999963E+04  0.15000000000E+04  0.10566000000E+00 0.  1.
        994   -1    0    0    0    0 -0.00000000000E+00 -0.00000000000E+00  0.11368683772E-12  0.17120000000E+03  0.17120000000E+03 0.  0.
         13    1    1    2    0    0  0.11220992985E+02  0.15941093527E+01  0.21543395714E+02  0.24342985255E+02  0.10566000000E+00 0.  1.
        994    1    1    2    0    0 -0.34137833940E+01 -0.10352580135E+00  0.29137299762E+01  0.17125885220E+03  0.17120000000E+03 0.  0.
        998    1    1    2    0    0 -0.78072095907E+01 -0.14905835514E+01  0.14755428706E+04  0.14755981625E+04  0.10000000000E+02 0.  1.
</event>
<event>
 5    1  0.1344348E-008  0.3853903E+03  0.7957747E-01  0.3428019E+00
         13   -1    0    0    0    0  0.00000000000E+00  0.00000000000E+00  0.14999999963E+04  0.15000000000E+04  0.10566000000E+00 0. -1.
        994   -1    0    0    0    0 -0.00000000000E+00 -0.00000000000E+00  0.11368683772E-12  0.17120000000E+03  0.17120000000E+03 0.  0.
         13    1    1    2    0    0 -0.22212860448E+01  0.15672842868E+02  0.87206368570E+02  0.88631450391E+02  0.10566000000E+00 0. -1.
        994    1    1    2    0    0 -0.58089044774E+01 -0.11799669961E+02  0.20048348257E+01  0.17171614643E+03  0.17120000000E+03 0.  0.
        998    1    1    2    0    0  0.80301905222E+01 -0.38731729071E+01  0.14107887929E+04  0.14108524032E+04  0.10000000000E+02 0. -1.
</event>
<event>
 5    1  0.1344348E-008  0.3843815E+03  0.7957747E-01  0.3432299E+00
         13   -1    0    0    0    0  0.00000000000E+00  0.00000000000E+00  0.14999999963E+04  0.15000000000E+04  0.10566000000E+00 0. -1.
        994   -1    0    0    0    0 -0.00000000000E+00 -0.00000000000E+00  0.11368683772E-12  0.17120000000E+03  0.17120000000E+03 0.  0.
         13    1    1    2    0    0  0.12875961245E+01 -0.12680508839E+02  0.41331247462E+02  0.43252010231E+02  0.10566000000E+00 0. -1.
        994    1    1    2    0    0  0.61968194174E+01  0.10408437912E+02  0.24211925296E+01  0.17164509409E+03  0.17120000000E+03 0.  0.
        998    1    1    2    0    0 -0.74844155419E+01  0.22720709271E+01  0.14562475563E+04  0.14563028957E+04  0.10000000000E+02 0. -1.
</event>
<event>
 5    1  0.1344348E-008  0.3783978E+03  0.7957747E-01  0.3458165E+00
         13   -1    0    0    0    0  0.00000000000E+00  0.00000000000E+00  0.14999999963E+04  0.15000000000E+04  0.10566000000E+00 0.  1.
        994   -1    0    0    0    0 -0.00000000000E+00 -0.00000000000E+00  0.11368683772E-12  0.17120000000E+03  0.17120000000E+03 0.  0.
         13    1    1    2    0    0 -0.18692731602E+03  0.32882355586E+02  0.96997883906E+03  0.98837342648E+03  0.10566000000E+00 0.  1.
        994    1    1    2    0    0  0.18824681267E+03 -0.28643155638E+02  0.13843171044E+03  0.29108430274E+03  0.17120000000E+03 0.  0.
        998    1    1    2    0    0 -0.13194966512E+01 -0.42391999477E+01  0.39158944677E+03  0.39174227078E+03  0.10000000000E+02 0.  0.
</event>
<event>
 5    1  0.1344348E-008  0.3750492E+03  0.7957747E-01  0.3473003E+00
         13   -1    0    0    0    0  0.00000000000E+00  0.00000000000E+00  0.14999999963E+04  0.15000000000E+04  0.10566000000E+00 0. -1.
        994   -1    0    0    0    0 -0.00000000000E+00 -0.00000000000E+00  0.11368683772E-12  0.17120000000E+03  0.17120000000E+03 0.  0.
         13    1    1    2    0    0  0.53460708514E+02 -0.21015661469E+02  0.25158129712E+03  0.25805593504E+03  0.10566000000E+00 0. -1.
        994    1    1    2    0    0 -0.29551003846E+02  0.57116741869E+01  0.97383825490E+01  0.17409813654E+03  0.17120000000E+03 0.  0.
        998    1    1    2    0    0 -0.23909704669E+02  0.15303987282E+02  0.12386803166E+04  0.12390459284E+04  0.10000000000E+02 0. -1.
</event>
<event>
 5    1  0.1344348E-008  0.3698382E+03  0.7957747E-01  0.3496635E+00
         13   -1    0    0    0    0  0.00000000000E+00  0.00000000000E+00  0.14999999963E+04  0.15000000000E+04  0.10566000000E+00 0. -1.
        994   -1    0    0    0    0 -0.00000000000E+00 -0.00000000000E+00  0.11368683772E-12  0.17120000000E+03  0.17120000000E+03 0.  0.
         13    1    1    2    0    0  0.61900606378E+02 -0.53197960645E+02  0.32744969956E+03  0.33746855408E+03  0.10566000000E+00 0. -1.
        994    1    1    2    0    0 -0.31045672808E+02  0.53754765506E+02  0.22805526690E+02  0.18352912756E+03  0.17120000000E+03 0.  0.
        998    1    1    2    0    0 -0.30854933570E+02 -0.55680486128E+00  0.11497447700E+04  0.11502023184E+04  0.10000000000E+02 0. -1.
</event>
<event>
 5    1  0.1344348E-008  0.3825873E+03  0.7957747E-01  0.3439970E+00
         13   -1    0    0    0    0  0.00000000000E+00  0.00000000000E+00  0.14999999963E+04  0.15000000000E+04  0.10566000000E+00 0.  1.
        994   -1    0    0    0    0 -0.00000000000E+00 -0.00000000000E+00  0.11368683772E-12  0.17120000000E+03  0.17120000000E+03 0.  0.
         13    1    1    2    0    0  0.28527207203E+02  0.35299368297E+01  0.14971066690E+03  0.15244525887E+03  0.10566000000E+00 0.  1.
        994    1    1    2    0    0 -0.15745494175E+02  0.17757836075E+02  0.47019743525E+01  0.17290115642E+03  0.17120000000E+03 0.  0.
        998    1    1    2    0    0 -0.12781713028E+02 -0.21287772904E+02  0.13455873550E+04  0.13458535847E+04  0.10000000000E+02 0.  1.
</event>
<event>
 5    1  0.1344348E-008  0.3756795E+03  0.7957747E-01  0.3470189E+00
         13   -1    0    0    0    0  0.00000000000E+00  0.00000000000E+00  0.14999999963E+04  0.15000000000E+04  0.10566000000E+00 0. -1.
        994   -1    0    0    0    0 -0.00000000000E+00 -0.00000000000E+00  0.11368683772E-12  0.17120000000E+03  0.17120000000E+03 0.  0.
         13    1    1    2    0    0  0.40624357436E+01 -0.37067129786E+02  0.12064925612E+03  0.12628036134E+03  0.10566000000E+00 0. -1.
        994    1    1    2    0    0  0.13928408834E+02  0.19479335893E+00  0.69885212879E+01  0.17190787634E+03  0.17120000000E+03 0.  0.
        998    1    1    2    0    0 -0.17990844578E+02  0.36872336427E+02  0.13723622189E+04  0.13730117623E+04  0.10000000000E+02 0. -1.
</event>
<event>
 5    1  0.1344348E-008  0.3845522E+03  0.7957747E-01  0.3431574E+00
         13   -1    0    0    0    0  0.00000000000E+00  0.00000000000E+00  0.14999999963E+04  0.15000000000E+04  0.10566000000E+00 0.  1.
        994   -1    0    0    0    0 -0.00000000000E+00 -0.00000000000E+00  0.11368683772E-12  0.17120000000E+03  0.17120000000E+03 0.  0.
         13    1    1    2    0    0  0.14165920828E+02  0.69764483873E+01  0.65560521240E+02  0.67435430260E+02  0.10566000000E+00 0.  1.
        994    1    1    2    0    0 -0.15188467294E+02 -0.13794044402E+01  0.26190403956E+01  0.17189791060E+03  0.17120000000E+03 0.  0.
        998    1    1    2    0    0  0.10225464656E+01 -0.55970439470E+01  0.14318204346E+04  0.14318666591E+04  0.10000000000E+02 0.  1.
</event>
<event>
 5    1  0.1344348E-008  0.3706480E+03  0.7957747E-01  0.3492918E+00
         13   -1    0    0    0    0  0.00000000000E+00  0.00000000000E+00  0.14999999963E+04  0.15000000000E+04  0.10566000000E+00 0. -1.
        994   -1    0    0    0    0 -0.00000000000E+00 -0.00000000000E+00  0.11368683772E-12  0.17120000000E+03  0.17120000000E+03 0.  0.
         13    1    1    2    0    0  0.31452419464E+02  0.14491659781E+02  0.48290629608E+02  0.59424397055E+02  0.10566000000E+00 0. -1.
        994    1    1    2    0    0 -0.21885161603E+02 -0.18507224266E+02  0.14165636013E+02  0.17415964771E+03  0.17120000000E+03 0.  0.
        998    1    1    2    0    0 -0.95672578610E+01  0.40155644857E+01  0.14375437307E+04  0.14376159552E+04  0.10000000000E+02 0. -1.
</event>
<event>
 5    1  0.1344348E-008  0.3844253E+03  0.7957747E-01  0.3432113E+00
         13   -1    0    0    0    0  0.00000000000E+00  0.00000000000E+00  0.14999999963E+04  0.15000000000E+04  0.10566000000E+00 0.  1.
        994   -1    0    0    0    0 -0.00000000000E+00 -0.00000000000E+00  0.11368683772E-12  0.17120000000E+03  0.17120000000E+03 0.  0.
         13    1    1    2    0    0  0.33509836220E+01 -0.16583049743E+02  0.78677302337E+02  0.80475808148E+02  0.10566000000E+00 0.  1.
        994    1    1    2    0    0  0.62842830931E+01  0.38668926053E+01  0.20951464244E+01  0.17137174420E+03  0.17120000000E+03 0.  0.
        998    1    1    2    0    0 -0.96352667151E+01  0.12716157138E+02  0.14192275475E+04  0.14193524477E+04  0.10000000000E+02 0.  1.
</event>
<event>
 5    1  0.1344348E-008  0.3841733E+03  0.7957747E-01  0.3433186E+00
         13   -1    0    0    0    0  0.00000000000E+00  0.00000000000E+00  0.14999999963E+04  0.15000000000E+04  0.10566000000E+00 0.  1.
        994   -1    0    0    0    0 -0.00000000000E+00 -0.00000000000E+00  0.11368683772E-12  0.17120000000E+03  0.17120000000E+03 0.  0.
         13    1    1    2    0    0 -0.12201227668E+02  0.90895058551E+01  0.55931503929E+02  0.57964069639E+02  0.10566000000E+00 0.  1.
        994    1    1    2    0    0  0.10023908799E+02 -0.55310179542E+01  0.24734825492E+01  0.17160020112E+03  0.17120000000E+03 0.  0.
        998    1    1    2    0    0  0.21773188697E+01 -0.35584879008E+01  0.14415950098E+04  0.14416357292E+04  0.10000000000E+02 0.  1.
</event>
<event>
 5    1  0.1344348E-008  0.3838724E+03  0.7957747E-01  0.3434469E+00
         13   -1    0    0    0    0  0.00000000000E+00  0.00000000000E+00  0.14999999963E+04  0.15000000000E+04  0.10566000000E+00 0. -1.
        994   -1    0    0    0    0 -0.00000000000E+00 -0.00000000000E+00  0.11368683772E-12  0.17120000000E+03  0.17120000000E+03 0.  0.
         13    1    1    2    0    0  0.26838887350E+02 -0.10932855487E+02  0.17364896175E+03  0.17605063557E+03  0.10566000000E+00 0. -1.
        994    1    1    2    0    0 -0.24020820501E+02  0.15016407669E+02  0.48443250939E+01  0.17359550629E+03  0.17120000000E+03 0.  0.
        998    1    1    2    0    0 -0.28180668495E+01 -0.40835521821E+01  0.13215067094E+04  0.13215538581E+04  0.10000000000E+02 0.  0.
</event>
<event>
 5    1  0.1344348E-008  0.3785393E+03  0.7957747E-01  0.3457544E+00
         13   -1    0    0    0    0  0.00000000000E+00  0.00000000000E+00  0.14999999963E+04  0.15000000000E+04  0.10566000000E+00 0.  1.
        994   -1    0    0    0    0 -0.00000000000E+00 -0.00000000000E+00  0.11368683772E-12  0.17120000000E+03  0.17120000000E+03 0.  0.
         13    1    1    2    0    0  0.57481994033E+02  0.16269553271E+02  0.35801729558E+03  0.36296731685E+03  0.10566000000E+00 0.  1.
        994    1    1    2    0    0 -0.40799376835E+02  0.94106285136E+01  0.10784071252E+02  0.17657543791E+03  0.17120000000E+03 0.  0.
        998    1    1    2    0    0 -0.16682617198E+02 -0.25680181784E+02  0.11311986294E+04  0.11316572452E+04  0.10000000000E+02 0.  1.
</event>
<event>
 5    1  0.1344348E-008  0.3811113E+03  0.7957747E-01  0.3446334E+00
         13   -1    0    0    0    0  0.00000000000E+00  0.00000000000E+00  0.14999999963E+04  0.15000000000E+04  0.10566000000E+00 0.  1.
        994   -1    0    0    0    0 -0.00000000000E+00 -0.00000000000E+00  0.11368683772E-12  0.17120000000E+03  0.17120000000E+03 0.  0.
         13    1    1    2    0    0  0.60962631429E+01  0.22466057322E+02  0.84096850113E+01  0.24751204454E+02  0.10566000000E+00 0.  1.
        994    1    1    2    0    0 -0.43835865557E+01 -0.27047353855E+02  0.19675244754E+02  0.17449163429E+03  0.17120000000E+03 0.  0.
        998    1    1    2    0    0 -0.17126765872E+01  0.45812965328E+01  0.14719150665E+04  0.14719571613E+04  0.10000000000E+02 0.  1.
</event>
<event>
 5    1  0.1344348E-008  0.3783718E+03  0.7957747E-01  0.3458279E+00
         13   -1    0    0    0    0  0.00000000000E+00  0.00000000000E+00  0.14999999963E+04  0.15000000000E+04  0.10566000000E+00 0. -1.
        994   -1    0    0    0    0 -0.00000000000E+00 -0.00000000000E+00  0.11368683772E-12  0.17120000000E+03  0.17120000000E+03 0.  0.
         13    1    1    2    0    0  0.97035036328E+01 -0.18080444059E+02  0.40132766735E+02  0.45074500219E+02  0.10566000000E+00 0. -1.
        994    1    1    2    0    0 -0.43831318119E+01  0.16558974779E+02  0.59440879522E+01  0.17215743862E+03  0.17120000000E+03 0.  0.
        998    1    1    2    0    0 -0.53203718209E+01  0.15214692807E+01  0.14539231416E+04  0.14539680612E+04  0.10000000000E+02 0. -1.
</event>
<event>
 5    1  0.1344348E-008  0.3853602E+03  0.7957747E-01  0.3428146E+00
         13   -1    0    0    0    0  0.00000000000E+00  0.00000000000E+00  0.14999999963E+04  0.15000000000E+04  0.10566000000E+00 0. -1.
        994   -1    0    0    0    0 -0.00000000000E+00 -0.00000000000E+00  0.11368683772E-12  0.17120000000E+03  0.17120000000E+03 0.  0.
         13    1    1    2    0    0  0.16444449985E+01  0.10272524714E+02  0.37375773981E+02  0.38796760278E+02  0.10566000000E+00 0. -1.
        994    1    1    2    0    0 -0.54565068690E+01 -0.58587506066E+01  0.16620060365E+01  0.17139515947E+03  0.17120000000E+03 0.  0.
        998    1    1    2    0    0  0.38120618705E+01 -0.44137741071E+01  0.14609622163E+04  0.14610080803E+04  0.10000000000E+02 0. -1.
</event>
<event>
 5    1  0.1344348E-008  0.3857458E+03  0.7957747E-01  0.3426515E+00
         13   -1    0    0    0    0  0.00000000000E+00  0.00000000000E+00  0.14999999963E+04  0.15000000000E+04  0.10566000000E+00 0. -1.
        994   -1    0    0    0    0 -0.00000000000E+00 -0.00000000000E+00  0.11368683772E-12  0.17120000000E+03  0.17120000000E+03 0.  0.
         13    1    1    2    0    0 -0.89584881710E+01 -0.69680349606E+01  0.54988790941E+02  0.56147896797E+02  0.10566000000E+00 0. -1.
        994    1    1    2    0    0 -0.12039928826E+02  0.12540412487E+02  0.22524492452E+01  0.17209513462E+03  0.17120000000E+03 0.  0.
        998    1    1    2    0    0  0.20998416997E+02 -0.55723775269E+01  0.14427587561E+04  0.14429569686E+04  0.10000000000E+02 0. -1.
</event>
<event>
 5    1  0.1344348E-008  0.3824968E+03  0.7957747E-01  0.3440358E+00
         13   -1    0    0    0    0  0.00000000000E+00  0.00000000000E+00  0.14999999963E+04  0.15000000000E+04  0.10566000000E+00 0. -1.
        994   -1    0    0    0    0 -0.00000000000E+00 -0.00000000000E+00  0.11368683772E-12  0.17120000000E+03  0.17120000000E+03 0.  0.
         13    1    1    2    0    0  0.18347443014E+02  0.56738352497E+01  0.62364921642E+02  0.65255005073E+02  0.10566000000E+00 0. -1.
        994    1    1    2    0    0 -0.13945677247E+02 -0.58893973005E+01  0.36382151251E+01  0.17190649646E+03  0.17120000000E+03 0.  0.
        998    1    1    2    0    0 -0.44017657669E+01  0.21556205082E+00  0.14339968595E+04  0.14340384985E+04  0.10000000000E+02 0. -1.
</event>
<event>
 5    1  0.1344348E-008  0.3837089E+03  0.7957747E-01  0.3435166E+00
         13   -1    0    0    0    0  0.00000000000E+00  0.00000000000E+00  0.14999999963E+04  0.15000000000E+04  0.10566000000E+00 0. -1.
        994   -1    0    0    0    0 -0.00000000000E+00 -0.00000000000E+00  0.11368683772E-12  0.17120000000E+03  0.17120000000E+03 0.  0.
         13    1    1    2    0    0  0.64630467653E+01  0.11440503888E+02  0.36963442209E+02  0.39229623076E+02  0.10566000000E+00 0. -1.
        994    1    1    2    0    0 -0.57179667500E+01 -0.98714121200E+01  0.27023891460E+01  0.17160094064E+03  0.17120000000E+03 0.  0.
        998    1    1    2    0    0 -0.74508001534E+00 -0.15690917681E+01  0.14603341649E+04  0.14603694363E+04  0.10000000000E+02 0. -1.
</event>
<event>
 5    1  0.1344348E-008  0.3828302E+03  0.7957747E-01  0.3438927E+00
         13   -1    0    0    0    0  0.00000000000E+00  0.00000000000E+00  0.14999999963E+04  0.15000000000E+04  0.10566000000E+00 0.  1.
        994   -1    0    0    0    0 -0.00000000000E+00 -0.00000000000E+00  0.11368683772E-12  0.17120000000E+03  0.17120000000E+03 0.  0.
         13    1    1    2    0    0 -0.98976806417E+01 -0.11909050890E+02  0.44772100669E+02  0.47374484034E+02  0.10566000000E+00 0.  1.
        994    1    1    2    0    0  0.21274698503E+01  0.18396346695E+01  0.27374701410E+01  0.17124498278E+03  0.17120000000E+03 0.  0.
        998    1    1    2    0    0  0.77702107913E+01  0.10069416221E+02  0.14524904255E+04  0.14525805332E+04  0.10000000000E+02 0.  1.
</event>
<event>
 5    1  0.1344348E-008  0.3789771E+03  0.7957747E-01  0.3455625E+00
         13   -1    0    0    0    0  0.00000000000E+00  0.00000000000E+00  0.14999999963E+04  0.15000000000E+04  0.10566000000E+00 0.  1.
        994   -1    0    0    0    0 -0.00000000000E+00 -0.00000000000E+00  0.11368683772E-12  0.17120000000E+03  0.17120000000E+03 0.  0.
         13    1    1    2    0    0  0.10093079548E+02  0.33012318005E+01  0.11388374767E+02  0.15571596900E+02  0.10566000000E+00 0.  1.
        994    1    1    2    0    0  0.48777316203E+02  0.66951166197E+01  0.12824633733E+02  0.17860000670E+03  0.17120000000E+03 0.  0.
        998    1    1    2    0    0 -0.58870395751E+02 -0.99963484202E+01  0.14757869878E+04  0.14770283964E+04  0.10000000000E+02 0.  1.
</event>
<event>
 5    1  0.1344348E-008  0.3855697E+03  0.7957747E-01  0.3427259E+00
         13   -1    0    0    0    0  0.00000000000E+00  0.00000000000E+00  0.14999999963E+04  0.15000000000E+04  0.10566000000E+00 0.  1.
        994   -1    0    0    0    0 -0.00000000000E+00 -0.00000000000E+00  0.11368683772E-12  0.17120000000E+03  0.17120000000E+03 0.  0.
         13    1    1    2    0    0 -0.10278920335E+02 -0.52130970520E+01  0.50513934947E+02  0.51812173975E+02  0.10566000000E+00 0.  1.
        994    1    1    2    0    0  0.50625925860E+01  0.19052131254E+00  0.14317969087E+01  0.17128092767E+03  0.17120000000E+03 0.  0.
        998    1    1    2    0    0  0.52163277495E+01  0.50225757395E+01  0.14480542644E+04  0.14481068984E+04  0.10000000000E+02 0.  1.
</event>
<event>
 5    1  0.1344348E-008  0.3845538E+03  0.7957747E-01  0.3431567E+00
         13   -1    0    0    0    0  0.00000000000E+00  0.00000000000E+00  0.14999999963E+04  0.15000000000E+04  0.10566000000E+00 0.  1.
        994   -1    0    0    0    0 -0.00000000000E+00 -0.00000000000E+00  0.11368683772E-12  0.17120000000E+03  0.17120000000E+03 0.  0.
         13    1    1    2    0    0  0.14816835378E+02  0.16214458935E+01  0.63870845527E+02  0.65587070142E+02  0.10566000000E+00 0.  1.
        994    1    1    2    0    0  0.65401284115E+00  0.54816577754E+01  0.19522210186E+01  0.17130010937E+03  0.17120000000E+03 0.  0.
        998    1    1    2    0    0 -0.15470848219E+02 -0.71031036688E+01  0.14341769297E+04  0.14343128205E+04  0.10000000000E+02 0. -1.
</event>
<event>
 5    1  0.1344348E-008  0.3842276E+03  0.7957747E-01  0.3432955E+00
         13   -1    0    0    0    0  0.00000000000E+00  0.00000000000E+00  0.14999999963E+04  0.15000000000E+04  0.10566000000E+00 0. -1.
        994   -1    0    0    0    0 -0.00000000000E+00 -0.00000000000E+00  0.11368683772E-12  0.17120000000E+03  0.17120000000E+03 0.  0.
         13    1    1    2    0    0  0.10811620593E+02 -0.99172988442E+01  0.56588819101E+02  0.58459811559E+02  0.10566000000E+00 0. -1.
        994    1    1    2    0    0  0.76021390113E+01  0.52168762616E+01  0.22944251656E+01  0.17146344422E+03  0.17120000000E+03 0.  0.
        998    1    1    2    0    0 -0.18413759604E+02  0.47004225826E+01  0.14411167520E+04  0.14412767442E+04  0.10000000000E+02 0. -1.
</event>
<event>
 5    1  0.1344348E-008  0.3847390E+03  0.7957747E-01  0.3430780E+00
         13   -1    0    0    0    0  0.00000000000E+00  0.00000000000E+00  0.14999999963E+04  0.15000000000E+04  0.10566000000E+00 0. -1.
        994   -1    0    0    0    0 -0.00000000000E+00 -0.00000000000E+00  0.11368683772E-12  0.17120000000E+03  0.17120000000E+03 0.  0.
         13    1    1    2    0    0 -0.23754555749E+01 -0.16937172297E+02  0.86240827857E+02  0.87920430778E+02  0.10566000000E+00 0. -1.
        994    1    1    2    0    0 -0.22798921081E+01  0.60352658044E+01  0.18967936036E+01  0.17133201734E+03  0.17120000000E+03 0.  0.
        998    1    1    2    0    0  0.46553476830E+01  0.10901906493E+02  0.14118623748E+04  0.14119475519E+04  0.10000000000E+02 0. -1.
</event>
<event>
 5    1  0.1344348E-008  0.3821365E+03  0.7957747E-01  0.3441908E+00
         13   -1    0    0    0    0  0.00000000000E+00  0.00000000000E+00  0.14999999963E+04  0.15000000000E+04  0.10566000000E+00 0.  1.
        994   -1    0    0    0    0 -0.00000000000E+00 -0.00000000000E+00  0.11368683772E-12  0.17120000000E+03  0.17120000000E+03 0.  0.
         13    1    1    2    0    0 -0.20918724958E+02 -0.13548369650E+00  0.71868751840E+02  0.74851453324E+02  0.10566000000E+00 0.  1.
        994    1    1    2    0    0  0.96688920713E+01 -0.51633049179E+01  0.34574367745E+01  0.17158537543E+03  0.17120000000E+03 0.  0.
        998    1    1    2    0    0  0.11249832886E+02  0.52987886144E+01  0.14246738077E+04  0.14247631712E+04  0.10000000000E+02 0.  1.
</event>
<event>
 5    1  0.1344348E-008  0.3846810E+03  0.7957747E-01  0.3431026E+00
         13   -1    0    0    0    0  0.00000000000E+00  0.00000000000E+00  0.14999999963E+04  0.15000000000E+04  0.10566000000E+00 0. -1.
        994   -1    0    0    0    0 -0.00000000000E+00 -0.00000000000E+00  0.11368683772E-12  0.17120000000E+03  0.17120000000E+03 0.  0.
         13    1    1    2    0    0  0.10938368650E+02 -0.13437929266E+02  0.79672734565E+02  0.81535155907E+02  0.10566000000E+00 0. -1.
        994    1    1    2    0    0 -0.97816411700E+01  0.16282541502E+02  0.29772692606E+01  0.17227624849E+03  0.17120000000E+03 0.  0.
        998    1    1    2    0    0 -0.11567274799E+01 -0.28446122358E+01  0.14173499925E+04  0.14173885956E+04  0.10000000000E+02 0. -1.
</event>
<event>
 5    1  0.1344348E-008  0.3759623E+03  0.7957747E-01  0.3468930E+00
         13   -1    0    0    0    0  0.00000000000E+00  0.00000000000E+00  0.14999999963E+04  0.15000000000E+04  0.10566000000E+00 0. -1.
        994   -1    0    0    0    0 -0.00000000000E+00 -0.00000000000E+00  0.11368683772E-12  0.17120000000E+03  0.17120000000E+03 0.  0.
         13    1    1    2    0    0 -0.55718743620E+02  0.25726396910E+02  0.30897361869E+03  0.31500973651E+03  0.10566000000E+00 0. -1.
        994    1    1    2    0    0  0.44524219659E+02  0.15319665195E+02  0.13734616660E+02  0.17808755704E+03  0.17120000000E+03 0.  0.
        998    1    1    2    0    0  0.11194523961E+02 -0.41046062105E+02  0.11772917609E+04  0.11781027064E+04  0.10000000000E+02 0. -1.
</event>
<event>
 5    1  0.1344348E-008  0.3747831E+03  0.7957747E-01  0.3474193E+00
         13   -1    0    0    0    0  0.00000000000E+00  0.00000000000E+00  0.14999999963E+04  0.15000000000E+04  0.10566000000E+00 0. -1.
        994   -1    0    0    0    0 -0.00000000000E+00 -0.00000000000E+00  0.11368683772E-12  0.17120000000E+03  0.17120000000E+03 0.  0.
         13    1    1    2    0    0  0.24076996408E+02 -0.70431846041E+02  0.32308867634E+03  0.33155188227E+03  0.10566000000E+00 0. -1.
        994    1    1    2    0    0 -0.34288156566E+02  0.65074602678E+02  0.25423299463E+02  0.18805894222E+03  0.17120000000E+03 0.  0.
        998    1    1    2    0    0  0.10211160158E+02  0.53572433629E+01  0.11514880205E+04  0.11515891755E+04  0.10000000000E+02 0. -1.
</event>
<event>
 5    1  0.1344348E-008  0.3705737E+03  0.7957747E-01  0.3493258E+00
         13   -1    0    0    0    0  0.00000000000E+00  0.00000000000E+00  0.14999999963E+04  0.15000000000E+04  0.10566000000E+00 0.  1.
        994   -1    0    0    0    0 -0.00000000000E+00 -0.00000000000E+00  0.11368683772E-12  0.17120000000E+03  0.17120000000E+03 0.  0.
         13    1    1    2    0    0  0.18903376624E+02 -0.14698434252E+03  0.83700145124E+03  0.85001951457E+03  0.10566000000E+00 0.  1.
        994    1    1    2    0    0  0.43112770963E+01  0.12102826456E+03  0.61422614691E+02  0.21851454306E+03  0.17120000000E+03 0.  0.
        998    1    1    2    0    0 -0.23214653720E+02  0.25956077954E+02  0.60157593034E+03  0.60266594237E+03  0.10000000000E+02 0.  0.
</event>
<event>
 5    1  0.1344348E-008  0.3760689E+03  0.7957747E-01  0.3468456E+00
         13   -1    0    0    0    0  0.00000000000E+00  0.00000000000E+00  0.14999999963E+04  0.15000000000E+04  0.10566000000E+00 0. -1.
        994   -1    0    0    0    0 -0.00000000000E+00 -0.00000000000E+00  0.11368683772E-12  0.17120000000E+03  0.17120000000E+03 0.  0.
         13    1    1    2    0    0  0.27776538401E+02  0.29729096078E+02  0.13226352312E+03  0.13837993334E+03  0.10566000000E+00 0. -1.
        994    1    1    2    0    0 -0.58143261158E+01 -0.29273122387E+02  0.91536308828E+01  0.17402284632E+03  0.17120000000E+03 0.  0.
        998    1    1    2    0    0 -0.21962212285E+02 -0.45597369133E+00  0.13585828423E+04  0.13587972203E+04  0.10000000000E+02 0. -1.
</event>
<event>
 5    1  0.1344348E-008  0.3826967E+03  0.7957747E-01  0.3439500E+00
         13   -1    0    0    0    0  0.00000000000E+00  0.00000000000E+00  0.14999999963E+04  0.15000000000E+04  0.10566000000E+00 0.  1.
        994   -1    0    0    0    0 -0.00000000000E+00 -0.00000000000E+00  0.11368683772E-12  0.17120000000E+03  0.17120000000E+03 0.  0.
         13    1    1    2    0    0  0.20729579410E+02  0.65445189820E+01  0.88798039954E+02  0.91420179692E+02  0.10566000000E+00 0.  1.
        994    1    1    2    0    0 -0.31067662124E+01 -0.53338685442E+01  0.29042748032E+01  0.17133586012E+03  0.17120000000E+03 0.  0.
        998    1    1    2    0    0 -0.17622813197E+02 -0.12106504378E+01  0.14082976815E+04  0.14084439602E+04  0.10000000000E+02 0.  1.
</event>
<event>
 5    1  0.1344348E-008  0.4122720E+03  0.7957747E-01  0.3321650E+00
         13   -1    0    0    0    0  0.00000000000E+00  0.00000000000E+00  0.14999999963E+04  0.15000000000E+04  0.10566000000E+00 0.  1.
        994   -1    0    0    0    0 -0.00000000000E+00 -0.00000000000E+00  0.11368683772E-12  0.17120000000E+03  0.17120000000E+03 0.  0.
         13    1    1    2    0    0  0.84131039650E+01  0.19666864797E+02 -0.86298788826E+01  0.23066249431E+02  0.10566000000E+00 0.  1.
        994    1    1    2    0    0  0.29129772834E+02 -0.17300206528E+02  0.40073855974E+02  0.17906198576E+03  0.17120000000E+03 0.  0.
        998    1    1    2    0    0 -0.37542876799E+02 -0.23666582684E+01  0.14685560192E+04  0.14690717648E+04  0.10000000000E+02 0.  1.
</event>
<event>
 5    1  0.1344348E-008  0.3686393E+03  0.7957747E-01  0.3502168E+00
         13   -1    0    0    0    0  0.00000000000E+00  0.00000000000E+00  0.14999999963E+04  0.15000000000E+04  0.10566000000E+00 0.  1.
        994   -1    0    0    0    0 -0.00000000000E+00 -0.00000000000E+00  0.11368683772E-12  0.17120000000E+03  0.17120000000E+03 0.  0.
         13    1    1    2    0    0  0.32291550712E+01  0.37311709160E+02  0.60585357653E+02  0.71226314020E+02  0.10566000000E+00 0.  1.
        994    1    1    2    0    0 -0.22315589354E+02 -0.45159744906E+02  0.19102327673E+02  0.17947625751E+03  0.17120000000E+03 0.  0.
        998    1    1    2    0    0  0.19086434283E+02  0.78480357458E+01  0.14203123110E+04  0.14204974285E+04  0.10000000000E+02 0.  1.
</event>
<event>
 5    1  0.1344348E-008  0.3853651E+03  0.7957747E-01  0.3428125E+00
         13   -1    0    0    0    0  0.00000000000E+00  0.00000000000E+00  0.14999999963E+04  0.15000000000E+04  0.10566000000E+00 0.  1.
        994   -1    0    0    0    0 -0.00000000000E+00 -0.00000000000E+00  0.11368683772E-12  0.17120000000E+03  0.17120000000E+03 0.  0.
         13    1    1    2    0    0  0.11682802931E+02 -0.57610295097E+01  0.61238529542E+02  0.62608673599E+02  0.10566000000E+00 0.  1.
        994    1    1    2    0    0 -0.11037555103E+01  0.30592617936E+01  0.14837161897E+01  0.17123731711E+03  0.17120000000E+03 0.  0.
        998    1    1    2    0    0 -0.10579047421E+02  0.27017677162E+01  0.14372777505E+04  0.14373540093E+04  0.10000000000E+02 0.  1.
</event>
<event>
 5    1  0.1344348E-008  0.3828084E+03  0.7957747E-01  0.3439020E+00
         13   -1    0    0    0    0  0.00000000000E+00  0.00000000000E+00  0.14999999963E+04  0.15000000000E+04  0.10566000000E+00 0. -1.
        994   -1    0    0    0    0 -0.00000000000E+00 -0.00000000000E+00  0.11368683772E-12  0.17120000000E+03  0.17120000000E+03 0.  0.
         13    1    1    2    0    0  0.70801789033E+01 -0.25673442788E+02  0.12285967917E+03  0.12571303245E+03  0.10566000000E+00 0. -1.
        994    1    1    2    0    0 -0.50087711896E+01  0.23296939066E+02  0.46051759206E+01  0.17291177752E+03  0.17120000000E+03 0.  0.
        998    1    1    2    0    0 -0.20714077137E+01  0.23765037218E+01  0.13725351412E+04  0.13725751900E+04  0.10000000000E+02 0.  0.
</event>
<event>
 5    1  0.1344348E-008  0.3855604E+03  0.7957747E-01  0.3427299E+00
         13   -1    0    0    0    0  0.00000000000E+00  0.00000000000E+00  0.14999999963E+04  0.15000000000E+04  0.10566000000E+00 0.  1.
        994   -1    0    0    0    0 -0.00000000000E+00 -0.00000000000E+00  0.11368683772E-12  0.17120000000E+03  0.17120000000E+03 0.  0.
         13    1    1    2    0    0 -0.11538343483E+02 -0.11309637106E+02  0.94938598484E+02  0.96303633929E+02  0.10566000000E+00 0.  1.
        994    1    1    2    0    0 -0.31949303779E+01  0.22791954347E+02  0.30928475615E+01  0.17276772404E+03  0.17120000000E+03 0.  0.
        998    1    1    2    0    0  0.14733273861E+02 -0.11482317241E+02  0.14019685502E+04  0.14021286420E+04  0.10000000000E+02 0.  1.
</event>
<event>
 5    1  0.1344348E-008  0.2837087E+03  0.7957747E-01  0.4019658E+00
         13   -1    0    0    0    0  0.00000000000E+00  0.00000000000E+00  0.14999999963E+04  0.15000000000E+04  0.10566000000E+00 0.  1.
        994   -1    0    0    0    0 -0.00000000000E+00 -0.00000000000E+00  0.11368683772E-12  0.17120000000E+03  0.17120000000E+03 0.  0.
         13    1    1    2    0    0  0.16237504050E+03  0.45303228691E+02  0.54991553271E+03  0.57517400896E+03  0.10566000000E+00 0.  1.
        994    1    1    2    0    0 -0.16641479454E+03 -0.29794209710E+02  0.12576835338E+03  0.27149345754E+03  0.17120000000E+03 0.  0.
        998    1    1    2    0    0  0.40397540399E+01 -0.15509018982E+02  0.82431611019E+03  0.82453253350E+03  0.10000000000E+02 0. -1.
</event>
<event>
 5    1  0.1344348E-008  0.3818562E+03  0.7957747E-01  0.3443116E+00
         13   -1    0    0    0    0  0.00000000000E+00  0.00000000000E+00  0.14999999963E+04  0.15000000000E+04  0.10566000000E+00 0. -1.
        994   -1    0    0    0    0 -0.00000000000E+00 -0.00000000000E+00  0.11368683772E-12  0.17120000000E+03  0.17120000000E+03 0.  0.
         13    1    1    2    0    0  0.24080885651E+02  0.69252023523E+01  0.10351819258E+03  0.10650762809E+03  0.10566000000E+00 0. -1.
        994    1    1    2    0    0 -0.45159667769E+01 -0.76154830248E+00  0.32687530488E+01  0.17129243608E+03  0.17120000000E+03 0.  0.
        998    1    1    2    0    0 -0.19564918874E+02 -0.61636540498E+01  0.13932130506E+04  0.13933999358E+04  0.10000000000E+02 0. -1.
</event>
<event>
 5    1  0.1344348E-008  0.3810008E+03  0.7957747E-01  0.3446812E+00
         13   -1    0    0    0    0  0.00000000000E+00  0.00000000000E+00  0.14999999963E+04  0.15000000000E+04  0.10566000000E+00 0. -1.
        994   -1    0    0    0    0 -0.00000000000E+00 -0.00000000000E+00  0.11368683772E-12  0.17120000000E+03  0.17120000000E+03 0.  0.
         13    1    1    2    0    0  0.55433184710E+01 -0.24192668810E+02  0.84884885307E+02  0.88439066715E+02  0.10566000000E+00 0. -1.
        994    1    1    2    0    0 -0.12190623762E+01  0.12528017653E+02  0.41568803056E+01  0.17171242527E+03  0.17120000000E+03 0.  0.
        998    1    1    2    0    0 -0.43242560948E+01  0.11664651157E+02  0.14109582307E+04  0.14110485080E+04  0.10000000000E+02 0. -1.
</event>
<event>
 5    1  0.1344348E-008  0.4034904E+03  0.7957747E-01  0.3354848E+00
         13   -1    0    0    0    0  0.00000000000E+00  0.00000000000E+00  0.14999999963E+04  0.15000000000E+04  0.10566000000E+00 0.  1.
        994   -1    0    0    0    0 -0.00000000000E+00 -0.00000000000E+00  0.11368683772E-12  0.17120000000E+03  0.17120000000E+03 0.  0.
         13    1    1    2    0    0  0.96141121190E+02  0.21611305804E+02  0.17068797157E+03  0.19709022940E+03  0.10566000000E+00 0.  1.
        994    1    1    2    0    0 -0.25813411669E+02 -0.54199598622E+02  0.44336115555E+02  0.18675936350E+03  0.17120000000E+03 0.  0.
        998    1    1    2    0    0 -0.70327709521E+02  0.32588292817E+02  0.12849759092E+04  0.12873504071E+04  0.10000000000E+02 0.  1.
</event>
<event>
 5    1  0.1344348E-008  0.3730465E+03  0.7957747E-01  0.3482006E+00
         13   -1    0    0    0    0  0.00000000000E+00  0.00000000000E+00  0.14999999963E+04  0.15000000000E+04  0.10566000000E+00 0.  1.
        994   -1    0    0    0    0 -0.00000000000E+00 -0.00000000000E+00  0.11368683772E-12  0.17120000000E+03  0.17120000000E+03 0.  0.
         13    1    1    2    0    0  0.99016652110E+02  0.44134828467E+02  0.52038597395E+03  0.53155785529E+03  0.10566000000E+00 0.  1.
        994    1    1    2    0    0 -0.93002485777E+02 -0.41798564817E+02  0.44142011204E+02  0.20409443778E+03  0.17120000000E+03 0.  0.
        998    1    1    2    0    0 -0.60141663336E+01 -0.23362636504E+01  0.93547201113E+03  0.93554770692E+03  0.10000000000E+02 0.  1.
</event>
<event>
 5    1  0.1344348E-008  0.3701147E+03  0.7957747E-01  0.3495364E+00
         13   -1    0    0    0    0  0.00000000000E+00  0.00000000000E+00  0.14999999963E+04  0.15000000000E+04  0.10566000000E+00 0.  1.
        994   -1    0    0    0    0 -0.00000000000E+00 -0.00000000000E+00  0.11368683772E-12  0.17120000000E+03  0.17120000000E+03 0.  0.
         13    1    1    2    0    0 -0.24618774094E+02  0.39797355843E+02  0.11072573256E+03  0.12020862110E+03  0.10566000000E+00 0.  1.
        994    1    1    2    0    0  0.75936578409E+01 -0.42607157515E+02  0.15710777313E+02  0.17728311266E+03  0.17120000000E+03 0.  0.
        998    1    1    2    0    0  0.17025116253E+02  0.28098016723E+01  0.13735634864E+04  0.13737082662E+04  0.10000000000E+02 0.  1.
</event>
<event>
 5    1  0.1344348E-008  0.3756445E+03  0.7957747E-01  0.3470345E+00
         13   -1    0    0    0    0  0.00000000000E+00  0.00000000000E+00  0.14999999963E+04  0.15000000000E+04  0.10566000000E+00 0.  1.
        994   -1    0    0    0    0 -0.00000000000E+00 -0.00000000000E+00  0.11368683772E-12  0.17120000000E+03  0.17120000000E+03 0.  0.
         13    1    1    2    0    0  0.33812416237E+02  0.16542415117E+02  0.10165487541E+03  0.10840044210E+03  0.10566000000E+00 0.  1.
        994    1    1    2    0    0 -0.30785884650E+02 -0.27803155045E+02  0.12207117996E+02  0.17657644196E+03  0.17120000000E+03 0.  0.
        998    1    1    2    0    0 -0.30265315870E+01  0.11260739928E+02  0.13861380029E+04  0.13862231159E+04  0.10000000000E+02 0.  1.
</event>
<event>
 5    1  0.1344348E-008  0.3841677E+03  0.7957747E-01  0.3433210E+00
         13   -1    0    0    0    0  0.00000000000E+00  0.00000000000E+00  0.14999999963E+04  0.15000000000E+04  0.10566000000E+00 0. -1.
        994   -1    0    0    0    0 -0.00000000000E+00 -0.00000000000E+00  0.11368683772E-12  0.17120000000E+03  0.17120000000E+03 0.  0.
         13    1    1    2    0    0  0.11761389100E+02  0.15081834879E+02  0.85587230521E+02  0.87698216682E+02  0.10566000000E+00 0. -1.
        994    1    1    2    0    0 -0.10827334848E+02 -0.14930912288E+02  0.31664422254E+01  0.17221971338E+03  0.17120000000E+03 0.  0.
        998    1    1    2    0    0 -0.93405425159E+00 -0.15092259034E+00  0.14112463235E+04  0.14112820699E+04  0.10000000000E+02 0. -1.
</event>
<event>
 5    1  0.1344348E-008  0.3764455E+03  0.7957747E-01  0.3466783E+00
         13   -1    0    0    0    0  0.00000000000E+00  0.00000000000E+00  0.14999999963E+04  0.15000000000E+04  0.10566000000E+00 0. -1.
        994   -1    0    0    0    0 -0.00000000000E+00 -0.00000000000E+00  0.11368683772E-12  0.17120000000E+03  0.17120000000E+03 0.  0.
         13    1    1    2    0    0 -0.81578540514E+01  0.99586314083E+01 -0.83813849623E+00  0.12901107023E+02  0.10566000000E+00 0. -1.
        994    1    1    2    0    0  0.53441193227E+01 -0.20002071424E+01  0.14504947483E+02  0.17190809737E+03  0.17120000000E+03 0.  0.
        998    1    1    2    0    0  0.28137347287E+01 -0.79584242660E+01  0.14863331873E+04  0.14863907956E+04  0.10000000000E+02 0. -1.
</event>
<event>
 5    1  0.1344348E-008  0.3856685E+03  0.7957747E-01  0.3426842E+00
         13   -1    0    0    0    0  0.00000000000E+00  0.00000000000E+00  0.14999999963E+04  0.15000000000E+04  0.10566000000E+00 0.  1.
        994   -1    0    0    0    0 -0.00000000000E+00 -0.00000000000E+00  0.11368683772E-12  0.17120000000E+03  0.17120000000E+03 0.  0.
         13    1    1    2    0    0 -0.44934947946E+01  0.13019517637E+02  0.76681133244E+02  0.77908322371E+02  0.10566000000E+00 0.  1.
        994    1    1    2    0    0  0.45228921216E+01 -0.23461868004E+01  0.13837994931E+01  0.17128139434E+03  0.17120000000E+03 0.  0.
        998    1    1    2    0    0 -0.29397327003E-01 -0.10673330836E+02  0.14219350635E+04  0.14220102833E+04  0.10000000000E+02 0.  1.
</event>
<event>
 5    1  0.1344348E-008  0.3854495E+03  0.7957747E-01  0.3427768E+00
         13   -1    0    0    0    0  0.00000000000E+00  0.00000000000E+00  0.14999999963E+04  0.15000000000E+04  0.10566000000E+00 0.  1.
        994   -1    0    0    0    0 -0.00000000000E+00 -0.00000000000E+00  0.11368683772E-12  0.17120000000E+03  0.17120000000E+03 0.  0.
         13    1    1    2    0    0 -0.29888076056E+01  0.12904800269E+02  0.63647577603E+02  0.65011476984E+02  0.10566000000E+00 0.  1.
        994    1    1    2    0    0  0.86211927147E+01 -0.46413546152E+01  0.17220044319E+01  0.17148840321E+03  0.17120000000E+03 0.  0.
        998    1    1    2    0    0 -0.56323851091E+01 -0.82634456534E+01  0.14346304142E+04  0.14347001198E+04  0.10000000000E+02 0.  1.
</event>
<event>
 5    1  0.1344348E-008  0.3853074E+03  0.7957747E-01  0.3428369E+00
         13   -1    0    0    0    0  0.00000000000E+00  0.00000000000E+00  0.14999999963E+04  0.15000000000E+04  0.10566000000E+00 0.  1.
        994   -1    0    0    0    0 -0.00000000000E+00 -0.00000000000E+00  0.11368683772E-12  0.17120000000E+03  0.17120000000E+03 0.  0.
         13    1    1    2    0    0 -0.12977365817E+02 -0.13016660679E+02  0.11066573552E+03  0.11218182411E+03  0.10566000000E+00 0.  1.
        994    1    1    2    0    0  0.13854278655E+02  0.84542782043E+01  0.23434827387E+01  0.17198356831E+03  0.17120000000E+03 0.  0.
        998    1    1    2    0    0 -0.87691283748E+00  0.45623824751E+01  0.13869907780E+04  0.13870346076E+04  0.10000000000E+02 0.  1.
</event>
<event>
 5    1  0.1344348E-008  0.3856733E+03  0.7957747E-01  0.3426822E+00
         13   -1    0    0    0    0  0.00000000000E+00  0.00000000000E+00  0.14999999963E+04  0.15000000000E+04  0.10566000000E+00 0. -1.
        994   -1    0    0    0    0 -0.00000000000E+00 -0.00000000000E+00  0.11368683772E-12  0.17120000000E+03  0.17120000000E+03 0.  0.
         13    1    1    2    0    0 -0.92637051422E+01  0.11201219777E+02  0.81198222336E+02  0.82489066136E+02  0.10566000000E+00 0. -1.
        994    1    1    2    0    0  0.10653021579E+02 -0.53212935869E+01  0.17616910508E+01  0.17162268670E+03  0.17120000000E+03 0.  0.
        998    1    1    2    0    0 -0.13893164368E+01 -0.58799261906E+01  0.14170400829E+04  0.14170882472E+04  0.10000000000E+02 0. -1.
</event>
<event>
 5    1  0.1344348E-008  0.3785601E+03  0.7957747E-01  0.3457452E+00
         13   -1    0    0    0    0  0.00000000000E+00  0.00000000000E+00  0.14999999963E+04  0.15000000000E+04  0.10566000000E+00 0.  1.
        994   -1    0    0    0    0 -0.00000000000E+00 -0.00000000000E+00  0.11368683772E-12  0.17120000000E+03  0.17120000000E+03 0.  0.
         13    1    1    2    0    0 -0.14878616191E+02 -0.10486535558E+02  0.33332289538E+02  0.37978853822E+02  0.10566000000E+00 0.  1.
        994    1    1    2    0    0  0.16410708477E+02 -0.23296671050E+02  0.75941716974E+01  0.17372149458E+03  0.17120000000E+03 0.  0.
        998    1    1    2    0    0 -0.15320922855E+01  0.33783206607E+02  0.14590735350E+04  0.14594996516E+04  0.10000000000E+02 0.  1.
</event>
<event>
 5    1  0.2322738E-008  0.3851394E+03  0.7957747E-01  0.3429081E+00
         13   -1    0    0    0    0  0.00000000000E+00  0.00000000000E+00  0.14999999963E+04  0.15000000000E+04  0.10566000000E+00 0. -1.
        994   -1    0    0    0    0 -0.00000000000E+00 -0.00000000000E+00  0.11368683772E-12  0.17120000000E+03  0.17120000000E+03 0.  0.
         13    1    1    2    0    0 -0.10456592684E+02 -0.54469025070E+00  0.34037910465E+02  0.35612182338E+02  0.10566000000E+00 0. -1.
        994    1    1    2    0    0  0.12957465826E+02  0.78274095705E+00  0.21150411292E+01  0.17170446122E+03  0.17120000000E+03 0.  0.
        998    1    1    2    0    0 -0.25008731424E+01 -0.23805070634E+00  0.14638470447E+04  0.14638833564E+04  0.10000000000E+02 0. -1.
</event>
<event>
 5    1  0.1344348E-008  0.3836669E+03  0.7957747E-01  0.3435346E+00
         13   -1    0    0    0    0  0.00000000000E+00  0.00000000000E+00  0.14999999963E+04  0.15000000000E+04  0.10566000000E+00 0. -1.
        994   -1    0    0    0    0 -0.00000000000E+00 -0.00000000000E+00  0.11368683772E-12  0.17120000000E+03  0.17120000000E+03 0.  0.
         13    1    1    2    0    0  0.13965525249E+02  0.97222724089E+01  0.64046541006E+02  0.66268612895E+02  0.10566000000E+00 0. -1.
        994    1    1    2    0    0 -0.21306486130E+02  0.17640422563E+02  0.48247558565E+01  0.17348737455E+03  0.17120000000E+03 0.  0.
        998    1    1    2    0    0  0.73409608811E+01 -0.27362694972E+02  0.14311286994E+04  0.14314440126E+04  0.10000000000E+02 0. -1.
</event>
<event>
 5    1  0.1344348E-008  0.3803712E+03  0.7957747E-01  0.3449544E+00
         13   -1    0    0    0    0  0.00000000000E+00  0.00000000000E+00  0.14999999963E+04  0.15000000000E+04  0.10566000000E+00 0. -1.
        994   -1    0    0    0    0 -0.00000000000E+00 -0.00000000000E+00  0.11368683772E-12  0.17120000000E+03  0.17120000000E+03 0.  0.
         13    1    1    2    0    0  0.89908366549E+01  0.14380443193E+02  0.34760676752E+02  0.38677488316E+02  0.10566000000E+00 0. -1.
        994    1    1    2    0    0 -0.52826929900E+01 -0.11843508921E+02  0.45075715407E+01  0.17174962518E+03  0.17120000000E+03 0.  0.
        998    1    1    2    0    0 -0.37081436649E+01 -0.25369342718E+01  0.14607317480E+04  0.14607728865E+04  0.10000000000E+02 0. -1.
</event>
<event>
 5    1  0.1344348E-008  0.3856456E+03  0.7957747E-01  0.3426939E+00
         13   -1    0    0    0    0  0.00000000000E+00  0.00000000000E+00  0.14999999963E+04  0.15000000000E+04  0.10566000000E+00 0. -1.
        994   -1    0    0    0    0 -0.00000000000E+00 -0.00000000000E+00  0.11368683772E-12  0.17120000000E+03  0.17120000000E+03 0.  0.
         13    1    1    2    0    0 -0.22242133890E+01  0.10862570114E+02  0.50303282996E+02  0.51510911455E+02  0.10566000000E+00 0. -1.
        994    1    1    2    0    0  0.27434442098E+01  0.32517853076E+01  0.13693411494E+01  0.17125833028E+03  0.17120000000E+03 0.  0.
        998    1    1    2    0    0 -0.51923082081E+00 -0.14114355422E+02  0.14483273721E+04  0.14484307583E+04  0.10000000000E+02 0. -1.
</event>
<event>
 5    1  0.1344348E-008  0.3836228E+03  0.7957747E-01  0.3435534E+00
         13   -1    0    0    0    0  0.00000000000E+00  0.00000000000E+00  0.14999999963E+04  0.15000000000E+04  0.10566000000E+00 0. -1.
        994   -1    0    0    0    0 -0.00000000000E+00 -0.00000000000E+00  0.11368683772E-12  0.17120000000E+03  0.17120000000E+03 0.  0.
         13    1    1    2    0    0  0.11079286041E+02 -0.10678420800E+02  0.50600763152E+02  0.52888823447E+02  0.10566000000E+00 0. -1.
        994    1    1    2    0    0 -0.74632058098E+01  0.65306243746E+01  0.26403989587E+01  0.17150731822E+03  0.17120000000E+03 0.  0.
        998    1    1    2    0    0 -0.36160802310E+01  0.41477964254E+01  0.14467588342E+04  0.14468038583E+04  0.10000000000E+02 0. -1.
</event>
<event>
 5    1  0.1344348E-008  0.3841355E+03  0.7957747E-01  0.3433347E+00
         13   -1    0    0    0    0  0.00000000000E+00  0.00000000000E+00  0.14999999963E+04  0.15000000000E+04  0.10566000000E+00 0. -1.
        994   -1    0    0    0    0 -0.00000000000E+00 -0.00000000000E+00  0.11368683772E-12  0.17120000000E+03  0.17120000000E+03 0.  0.
         13    1    1    2    0    0 -0.14543886706E+02  0.45716770426E+01  0.58618991060E+02  0.60569151789E+02  0.10566000000E+00 0. -1.
        994    1    1    2    0    0  0.25201181246E+01  0.22956757185E+01  0.20982921283E+01  0.17124679253E+03  0.17120000000E+03 0.  0.
        998    1    1    2    0    0  0.12023768581E+02 -0.68673527610E+01  0.14392827131E+04  0.14393840557E+04  0.10000000000E+02 0. -1.
</event>
<event>
 5    1  0.1344348E-008  0.3817918E+03  0.7957747E-01  0.3443394E+00
         13   -1    0    0    0    0  0.00000000000E+00  0.00000000000E+00  0.14999999963E+04  0.15000000000E+04  0.10566000000E+00 0.  1.
        994   -1    0    0    0    0 -0.00000000000E+00 -0.00000000000E+00  0.11368683772E-12  0.17120000000E+03  0.17120000000E+03 0.  0.
         13    1    1    2    0    0 -0.46101446368E+01  0.99520828294E+01  0.17192178897E+02  0.20393125447E+02  0.10566000000E+00 0.  1.
        994    1    1    2    0    0  0.27268229240E+01 -0.97720701486E+01  0.35735267130E+01  0.17153757318E+03  0.17120000000E+03 0.  0.
        998    1    1    2    0    0  0.18833217128E+01 -0.18001268072E+00  0.14792342907E+04  0.14792693014E+04  0.10000000000E+02 0.  1.
</event>
<event>
 5    1  0.1344348E-008  0.3840440E+03  0.7957747E-01  0.3433737E+00
         13   -1    0    0    0    0  0.00000000000E+00  0.00000000000E+00  0.14999999963E+04  0.15000000000E+04  0.10566000000E+00 0. -1.
        994   -1    0    0    0    0 -0.00000000000E+00 -0.00000000000E+00  0.11368683772E-12  0.17120000000E+03  0.17120000000E+03 0.  0.
         13    1    1    2    0    0 -0.24585841133E+02  0.19897593322E+02  0.18486304213E+03  0.18754928236E+03  0.10566000000E+00 0. -1.
        994    1    1    2    0    0  0.31356149315E+02 -0.33951074604E+02  0.91836190106E+01  0.17756593824E+03  0.17120000000E+03 0.  0.
        998    1    1    2    0    0 -0.67703081825E+01  0.14053481281E+02  0.13059533351E+04  0.13060847794E+04  0.10000000000E+02 0. -1.
</event>
<event>
 5    1  0.1344348E-008  0.3759042E+03  0.7957747E-01  0.3469189E+00
         13   -1    0    0    0    0  0.00000000000E+00  0.00000000000E+00  0.14999999963E+04  0.15000000000E+04  0.10566000000E+00 0. -1.
        994   -1    0    0    0    0 -0.00000000000E+00 -0.00000000000E+00  0.11368683772E-12  0.17120000000E+03  0.17120000000E+03 0.  0.
         13    1    1    2    0    0  0.45559145724E+02 -0.69590234520E+02  0.39918518115E+03  0.40775882150E+03  0.10566000000E+00 0. -1.
        994    1    1    2    0    0 -0.46656472800E+02  0.70438637475E+02  0.30803605043E+02  0.19338234197E+03  0.17120000000E+03 0.  0.
        998    1    1    2    0    0  0.10973270758E+01 -0.84840295474E+00  0.10700112101E+04  0.10700588365E+04  0.10000000000E+02 0.  0.
</event>
<event>
 5    1  0.1344348E-008  0.3823433E+03  0.7957747E-01  0.3441018E+00
         13   -1    0    0    0    0  0.00000000000E+00  0.00000000000E+00  0.14999999963E+04  0.15000000000E+04  0.10566000000E+00 0. -1.
        994   -1    0    0    0    0 -0.00000000000E+00 -0.00000000000E+00  0.11368683772E-12  0.17120000000E+03  0.17120000000E+03 0.  0.
         13    1    1    2    0    0  0.59740357444E+01  0.12231937934E+02  0.29922752579E+02  0.32873875565E+02  0.10566000000E+00 0. -1.
        994    1    1    2    0    0 -0.32611170088E+00 -0.14125872283E+02  0.36174893729E+01  0.17182017590E+03  0.17120000000E+03 0.  0.
        998    1    1    2    0    0 -0.56479240435E+01  0.18939343490E+01  0.14664597543E+04  0.14665059485E+04  0.10000000000E+02 0. -1.
</event>
<event>
 5    1  0.1344348E-008  0.3837879E+03  0.7957747E-01  0.3434829E+00
         13   -1    0    0    0    0  0.00000000000E+00  0.00000000000E+00  0.14999999963E+04  0.15000000000E+04  0.10566000000E+00 0.  1.
        994   -1    0    0    0    0 -0.00000000000E+00 -0.00000000000E+00  0.11368683772E-12  0.17120000000E+03  0.17120000000E+03 0.  0.
         13    1    1    2    0    0 -0.12600939777E+01  0.19707881908E+02  0.93301966900E+02  0.95369054926E+02  0.10566000000E+00 0.  1.
        994    1    1    2    0    0  0.48669533438E+01 -0.13590742105E+01  0.23174124664E+01  0.17129023533E+03  0.17120000000E+03 0.  0.
        998    1    1    2    0    0 -0.36068593660E+01 -0.18348807698E+02  0.14043806169E+04  0.14045407097E+04  0.10000000000E+02 0.  1.
</event>
<event>
 5    1  0.1344348E-008  0.3845345E+03  0.7957747E-01  0.3431649E+00
         13   -1    0    0    0    0  0.00000000000E+00  0.00000000000E+00  0.14999999963E+04  0.15000000000E+04  0.10566000000E+00 0.  1.
        994   -1    0    0    0    0 -0.00000000000E+00 -0.00000000000E+00  0.11368683772E-12  0.17120000000E+03  0.17120000000E+03 0.  0.
         13    1    1    2    0    0  0.92590002863E+00 -0.18914414735E+02  0.10221346922E+03  0.10395295489E+03  0.10566000000E+00 0.  1.
        994    1    1    2    0    0 -0.18408397687E+01  0.38088409854E+01  0.19203554681E+01  0.17126302498E+03  0.17120000000E+03 0.  0.
        998    1    1    2    0    0  0.91493974004E+00  0.15105573749E+02  0.13958661716E+04  0.13959840201E+04  0.10000000000E+02 0.  1.
</event>
<event>
 5    1  0.1344348E-008  0.3806546E+03  0.7957747E-01  0.3448313E+00
         13   -1    0    0    0    0  0.00000000000E+00  0.00000000000E+00  0.14999999963E+04  0.15000000000E+04  0.10566000000E+00 0.  1.
        994   -1    0    0    0    0 -0.00000000000E+00 -0.00000000000E+00  0.11368683772E-12  0.17120000000E+03  0.17120000000E+03 0.  0.
         13    1    1    2    0    0 -0.31807811843E+02 -0.46994094680E+01  0.15566156077E+03  0.15894764550E+03  0.10566000000E+00 0.  1.
        994    1    1    2    0    0 -0.31885409130E+01  0.73546639784E+01  0.40174543167E+01  0.17143464590E+03  0.17120000000E+03 0.  0.
        998    1    1    2    0    0  0.34996352756E+02 -0.26552545104E+01  0.13403209812E+04  0.13408177086E+04  0.10000000000E+02 0.  1.
</event>
<event>
 5    1  0.1344348E-008  0.2344626E+03  0.7957747E-01  0.4513855E+00
         13   -1    0    0    0    0  0.00000000000E+00  0.00000000000E+00  0.14999999963E+04  0.15000000000E+04  0.10566000000E+00 0. -1.
        994   -1    0    0    0    0 -0.00000000000E+00 -0.00000000000E+00  0.11368683772E-12  0.17120000000E+03  0.17120000000E+03 0.  0.
         13    1    1    2    0    0  0.83068300027E+02 -0.13548730771E+03  0.66616984224E+02  0.17232233393E+03  0.10566000000E+00 0. -1.
        994    1    1    2    0    0 -0.80722556980E+02  0.14001280746E+03  0.39083148115E+03  0.45626571657E+03  0.17120000000E+03 0.  0.
        998    1    1    2    0    0 -0.23457430464E+01 -0.45254997530E+01  0.10425515309E+04  0.10426119495E+04  0.10000000000E+02 0.  0.
</event>
<event>
 5    1  0.1344348E-008  0.3798402E+03  0.7957747E-01  0.3451855E+00
         13   -1    0    0    0    0  0.00000000000E+00  0.00000000000E+00  0.14999999963E+04  0.15000000000E+04  0.10566000000E+00 0.  1.
        994   -1    0    0    0    0 -0.00000000000E+00 -0.00000000000E+00  0.11368683772E-12  0.17120000000E+03  0.17120000000E+03 0.  0.
         13    1    1    2    0    0 -0.12598350255E+02  0.14189253680E+02  0.41578672591E+02  0.45703944333E+02  0.10566000000E+00 0.  1.
        994    1    1    2    0    0  0.11535917466E+02 -0.22219538053E+01  0.46755970203E+01  0.17166629162E+03  0.17120000000E+03 0.  0.
        998    1    1    2    0    0  0.10624327889E+01 -0.11967299874E+02  0.14537457267E+04  0.14538297640E+04  0.10000000000E+02 0.  1.
</event>
<event>
 5    1  0.1344348E-008  0.3789881E+03  0.7957747E-01  0.3455576E+00
         13   -1    0    0    0    0  0.00000000000E+00  0.00000000000E+00  0.14999999963E+04  0.15000000000E+04  0.10566000000E+00 0.  1.
        994   -1    0    0    0    0 -0.00000000000E+00 -0.00000000000E+00  0.11368683772E-12  0.17120000000E+03  0.17120000000E+03 0.  0.
         13    1    1    2    0    0  0.11669539379E+02 -0.26265651726E+02  0.85770500762E+02  0.90458015537E+02  0.10566000000E+00 0.  1.
        994    1    1    2    0    0  0.11808001732E+02  0.29124898663E+02  0.79647685778E+01  0.17424283677E+03  0.17120000000E+03 0.  0.
        998    1    1    2    0    0 -0.23477541111E+02 -0.28592469369E+01  0.14062647269E+04  0.14064991477E+04  0.10000000000E+02 0.  1.
</event>
<event>
 5    1  0.1344348E-008  0.3725801E+03  0.7957747E-01  0.3484117E+00
         13   -1    0    0    0    0  0.00000000000E+00  0.00000000000E+00  0.14999999963E+04  0.15000000000E+04  0.10566000000E+00 0. -1.
        994   -1    0    0    0    0 -0.00000000000E+00 -0.00000000000E+00  0.11368683772E-12  0.17120000000E+03  0.17120000000E+03 0.  0.
         13    1    1    2    0    0  0.10286480397E+02 -0.12384595366E+02  0.12616916512E+02  0.20454525847E+02  0.10566000000E+00 0. -1.
        994    1    1    2    0    0 -0.13821693540E+02  0.13688715255E+02  0.92246449484E+01  0.17254841121E+03  0.17120000000E+03 0.  0.
        998    1    1    2    0    0  0.35352131436E+01 -0.13041198898E+01  0.14781584348E+04  0.14781970629E+04  0.10000000000E+02 0. -1.
</event>
<event>
 5    1  0.1344348E-008  0.3819015E+03  0.7957747E-01  0.3442921E+00
         13   -1    0    0    0    0  0.00000000000E+00  0.00000000000E+00  0.14999999963E+04  0.15000000000E+04  0.10566000000E+00 0. -1.
        994   -1    0    0    0    0 -0.00000000000E+00 -0.00000000000E+00  0.11368683772E-12  0.17120000000E+03  0.17120000000E+03 0.  0.
         13    1    1    2    0    0  0.22353693871E+02  0.26426339971E+02  0.15832781901E+03  0.16206711113E+03  0.10566000000E+00 0. -1.
        994    1    1    2    0    0 -0.15642551013E+02 -0.45016247805E+02  0.10758229741E+02  0.17803463561E+03  0.17120000000E+03 0.  0.
        998    1    1    2    0    0 -0.67111428580E+01  0.18589907834E+02  0.13309139475E+04  0.13310982533E+04  0.10000000000E+02 0. -1.
</event>
<event>
 5    1  0.1344348E-008  0.3854825E+03  0.7957747E-01  0.3427628E+00
         13   -1    0    0    0    0  0.00000000000E+00  0.00000000000E+00  0.14999999963E+04  0.15000000000E+04  0.10566000000E+00 0.  1.
        994   -1    0    0    0    0 -0.00000000000E+00 -0.00000000000E+00  0.11368683772E-12  0.17120000000E+03  0.17120000000E+03 0.  0.
         13    1    1    2    0    0  0.20422190471E+01 -0.12981060361E+02  0.67648053968E+02  0.68912618267E+02  0.10566000000E+00 0.  1.
        994    1    1    2    0    0 -0.52422205488E+01 -0.35539136560E+01  0.15224903876E+01  0.17132387211E+03  0.17120000000E+03 0.  0.
        998    1    1    2    0    0  0.32000015016E+01  0.16534974017E+02  0.14308294519E+04  0.14309635096E+04  0.10000000000E+02 0.  1.
</event>
<event>
 5    1  0.1344348E-008  0.3848176E+03  0.7957747E-01  0.3430446E+00
         13   -1    0    0    0    0  0.00000000000E+00  0.00000000000E+00  0.14999999963E+04  0.15000000000E+04  0.10566000000E+00 0. -1.
        994   -1    0    0    0    0 -0.00000000000E+00 -0.00000000000E+00  0.11368683772E-12  0.17120000000E+03  0.17120000000E+03 0.  0.
         13    1    1    2    0    0  0.20562132681E+02  0.14620801098E+02  0.14229439703E+03  0.14451392914E+03  0.10566000000E+00 0. -1.
        994    1    1    2    0    0 -0.41592732395E+02 -0.19785804488E+02  0.87328980105E+01  0.17750249845E+03  0.17120000000E+03 0.  0.
        998    1    1    2    0    0  0.21030599714E+02  0.51650033899E+01  0.13489727012E+04  0.13491835724E+04  0.10000000000E+02 0. -1.
</event>
<event>
 5    1  0.1344348E-008  0.3787502E+03  0.7957747E-01  0.3456619E+00
         13   -1    0    0    0    0  0.00000000000E+00  0.00000000000E+00  0.14999999963E+04  0.15000000000E+04  0.10566000000E+00 0.  1.
        994   -1    0    0    0    0 -0.00000000000E+00 -0.00000000000E+00  0.11368683772E-12  0.17120000000E+03  0.17120000000E+03 0.  0.
         13    1    1    2    0    0 -0.24981751103E+02  0.94233496166E+01  0.72056908628E+02  0.76844626691E+02  0.10566000000E+00 0.  1.
        994    1    1    2    0    0  0.17745423580E+02 -0.99268606728E+01  0.61544562743E+01  0.17251307183E+03  0.17120000000E+03 0.  0.
        998    1    1    2    0    0  0.72363275232E+01  0.50351105621E+00  0.14217886314E+04  0.14218423015E+04  0.10000000000E+02 0.  1.
</event>
<event>
 5    1  0.1344348E-008  0.3843549E+03  0.7957747E-01  0.3432413E+00
         13   -1    0    0    0    0  0.00000000000E+00  0.00000000000E+00  0.14999999963E+04  0.15000000000E+04  0.10566000000E+00 0.  1.
        994   -1    0    0    0    0 -0.00000000000E+00 -0.00000000000E+00  0.11368683772E-12  0.17120000000E+03  0.17120000000E+03 0.  0.
         13    1    1    2    0    0 -0.10324232747E+02 -0.27237325010E+01  0.29176671219E+02  0.31069242154E+02  0.10566000000E+00 0.  1.
        994    1    1    2    0    0  0.49783053751E+01 -0.49012822324E+01  0.21116248840E+01  0.17135549321E+03  0.17120000000E+03 0.  0.
        998    1    1    2    0    0  0.53459273714E+01  0.76250147334E+01  0.14687117002E+04  0.14687752646E+04  0.10000000000E+02 0.  1.
</event>
<event>
 5    1  0.1344348E-008  0.3741374E+03  0.7957747E-01  0.3477089E+00
         13   -1    0    0    0    0  0.00000000000E+00  0.00000000000E+00  0.14999999963E+04  0.15000000000E+04  0.10566000000E+00 0.  1.
        994   -1    0    0    0    0 -0.00000000000E+00 -0.00000000000E+00  0.11368683772E-12  0.17120000000E+03  0.17120000000E+03 0.  0.
         13    1    1    2    0    0 -0.56791699815E+02  0.10515549540E+03  0.60990878479E+03  0.62150761243E+03  0.10566000000E+00 0.  1.
        994    1    1    2    0    0  0.84056128919E+02 -0.87439891818E+02  0.59059527487E+02  0.21796475696E+03  0.17120000000E+03 0.  0.
        998    1    1    2    0    0 -0.27264429104E+02 -0.17715603580E+02  0.83103168400E+03  0.83172763061E+03  0.10000000000E+02 0.  1.
</event>
<event>
 5    1  0.1344348E-008  0.3830527E+03  0.7957747E-01  0.3437973E+00
         13   -1    0    0    0    0  0.00000000000E+00  0.00000000000E+00  0.14999999963E+04  0.15000000000E+04  0.10566000000E+00 0.  1.
        994   -1    0    0    0    0 -0.00000000000E+00 -0.00000000000E+00  0.11368683772E-12  0.17120000000E+03  0.17120000000E+03 0.  0.
         13    1    1    2    0    0 -0.23338385254E+02  0.15536320474E+02  0.15301920690E+03  0.15556653343E+03  0.10566000000E+00 0.  1.
        994    1    1    2    0    0  0.33738618778E+02  0.20554019177E+02  0.77826928356E+01  0.17587146559E+03  0.17120000000E+03 0.  0.
        998    1    1    2    0    0 -0.10400233524E+02 -0.36090339650E+02  0.13391980965E+04  0.13397620010E+04  0.10000000000E+02 0.  1.
</event>
<event>
 5    1  0.1344348E-008  0.3854262E+03  0.7957747E-01  0.3427867E+00
         13   -1    0    0    0    0  0.00000000000E+00  0.00000000000E+00  0.14999999963E+04  0.15000000000E+04  0.10566000000E+00 0.  1.
        994   -1    0    0    0    0 -0.00000000000E+00 -0.00000000000E+00  0.11368683772E-12  0.17120000000E+03  0.17120000000E+03 0.  0.
         13    1    1    2    0    0 -0.45190298870E+01 -0.12740581011E+02  0.62724620509E+02  0.64164890849E+02  0.10566000000E+00 0.  1.
        994    1    1    2    0    0  0.67450260415E+01  0.12052413539E+02  0.20453845205E+01  0.17176838954E+03  0.17120000000E+03 0.  0.
        998    1    1    2    0    0 -0.22259961545E+01  0.68816747157E+00  0.14352299912E+04  0.14352667196E+04  0.10000000000E+02 0.  1.
</event>
<event>
 5    1  0.1344348E-008  0.3836103E+03  0.7957747E-01  0.3435588E+00
         13   -1    0    0    0    0  0.00000000000E+00  0.00000000000E+00  0.14999999963E+04  0.15000000000E+04  0.10566000000E+00 0. -1.
        994   -1    0    0    0    0 -0.00000000000E+00 -0.00000000000E+00  0.11368683772E-12  0.17120000000E+03  0.17120000000E+03 0.  0.
         13    1    1    2    0    0 -0.25450692618E+02 -0.97247454246E+00  0.14302479883E+03  0.14527486949E+03  0.10566000000E+00 0. -1.
        994    1    1    2    0    0  0.12093764045E+02 -0.28038829329E+01  0.28309999707E+01  0.17167287336E+03  0.17120000000E+03 0.  0.
        998    1    1    2    0    0  0.13356928573E+02  0.37763574754E+01  0.13541441975E+04  0.13542522571E+04  0.10000000000E+02 0. -1.
</event>
<event>
 5    1  0.1344348E-008  0.3752081E+03  0.7957747E-01  0.3472292E+00
         13   -1    0    0    0    0  0.00000000000E+00  0.00000000000E+00  0.14999999963E+04  0.15000000000E+04  0.10566000000E+00 0. -1.
        994   -1    0    0    0    0 -0.00000000000E+00 -0.00000000000E+00  0.11368683772E-12  0.17120000000E+03  0.17120000000E+03 0.  0.
         13    1    1    2    0    0  0.31860465858E+02  0.15033369665E+02  0.39887035689E+02  0.53217274153E+02  0.10566000000E+00 0. -1.
        994    1    1    2    0    0 -0.20298474123E+02 -0.15688535785E+02  0.16066808828E+02  0.17385551631E+03  0.17120000000E+03 0.  0.
        998    1    1    2    0    0 -0.11561991735E+02  0.65516612062E+00  0.14440461518E+04  0.14441272095E+04  0.10000000000E+02 0. -1.
</event>
<event>
 5    1  0.1344348E-008  0.3847117E+03  0.7957747E-01  0.3430896E+00
         13   -1    0    0    0    0  0.00000000000E+00  0.00000000000E+00  0.14999999963E+04  0.15000000000E+04  0.10566000000E+00 0. -1.
        994   -1    0    0    0    0 -0.00000000000E+00 -0.00000000000E+00  0.11368683772E-12  0.17120000000E+03  0.17120000000E+03 0.  0.
         13    1    1    2    0    0  0.14760576501E+02 -0.16005547008E+02  0.12373302527E+03  0.12563409116E+03  0.10566000000E+00 0. -1.
        994    1    1    2    0    0 -0.14533530945E+02  0.17450253477E+02  0.34728438073E+01  0.17273458111E+03  0.17120000000E+03 0.  0.
        998    1    1    2    0    0 -0.22704555608E+00 -0.14447064690E+01  0.13727941272E+04  0.13728313277E+04  0.10000000000E+02 0. -1.
</event>
<event>
 5    1  0.1344348E-008  0.3738022E+03  0.7957747E-01  0.3478597E+00
         13   -1    0    0    0    0  0.00000000000E+00  0.00000000000E+00  0.14999999963E+04  0.15000000000E+04  0.10566000000E+00 0. -1.
        994   -1    0    0    0    0 -0.00000000000E+00 -0.00000000000E+00  0.11368683772E-12  0.17120000000E+03  0.17120000000E+03 0.  0.
         13    1    1    2    0    0  0.57312007945E+02 -0.83709059070E+01  0.11625641772E+03  0.12988573496E+03  0.10566000000E+00 0. -1.
        994    1    1    2    0    0 -0.55973428011E+02  0.11863039987E+02  0.24655462950E+02  0.18218421505E+03  0.17120000000E+03 0.  0.
        998    1    1    2    0    0 -0.13385799340E+01 -0.34921340801E+01  0.13590881156E+04  0.13591300500E+04  0.10000000000E+02 0. -1.
</event>
<event>
 5    1  0.1344348E-008  0.3703601E+03  0.7957747E-01  0.3494238E+00
         13   -1    0    0    0    0  0.00000000000E+00  0.00000000000E+00  0.14999999963E+04  0.15000000000E+04  0.10566000000E+00 0. -1.
        994   -1    0    0    0    0 -0.00000000000E+00 -0.00000000000E+00  0.11368683772E-12  0.17120000000E+03  0.17120000000E+03 0.  0.
         13    1    1    2    0    0  0.16892321334E+02  0.10500105086E+01  0.79836989813E+01  0.18713729066E+02  0.10566000000E+00 0. -1.
        994    1    1    2    0    0 -0.77870437585E+01 -0.31202299130E+01  0.11375719447E+02  0.17178248129E+03  0.17120000000E+03 0.  0.
        998    1    1    2    0    0 -0.91052775750E+01  0.20702194043E+01  0.14806405779E+04  0.14807037896E+04  0.10000000000E+02 0. -1.
</event>
<event>
 5    1  0.1344348E-008  0.3735070E+03  0.7957747E-01  0.3479927E+00
         13   -1    0    0    0    0  0.00000000000E+00  0.00000000000E+00  0.14999999963E+04  0.15000000000E+04  0.10566000000E+00 0.  1.
        994   -1    0    0    0    0 -0.00000000000E+00 -0.00000000000E+00  0.11368683772E-12  0.17120000000E+03  0.17120000000E+03 0.  0.
         13    1    1    2    0    0 -0.22751316585E+02 -0.28584934997E+02  0.91519706583E+02  0.98542319702E+02  0.10566000000E+00 0.  1.
        994    1    1    2    0    0  0.18893410652E+01  0.10748500454E+02  0.78544129912E+01  0.17172720133E+03  0.17120000000E+03 0.  0.
        998    1    1    2    0    0  0.20861975520E+02  0.17836434543E+02  0.14006258767E+04  0.14009304790E+04  0.10000000000E+02 0.  1.
</event>
<event>
 5    1  0.1344348E-008  0.3849301E+03  0.7957747E-01  0.3429969E+00
         13   -1    0    0    0    0  0.00000000000E+00  0.00000000000E+00  0.14999999963E+04  0.15000000000E+04  0.10566000000E+00 0. -1.
        994   -1    0    0    0    0 -0.00000000000E+00 -0.00000000000E+00  0.11368683772E-12  0.17120000000E+03  0.17120000000E+03 0.  0.
         13    1    1    2    0    0  0.13695385325E+02 -0.14175013443E+01  0.59032638881E+02  0.60617130471E+02  0.10566000000E+00 0. -1.
        994    1    1    2    0    0 -0.27208803989E+01  0.26279534360E+01  0.17119190494E+01  0.17125034305E+03  0.17120000000E+03 0.  0.
        998    1    1    2    0    0 -0.10974504926E+02 -0.12104520917E+01  0.14392554383E+04  0.14393325265E+04  0.10000000000E+02 0. -1.
</event>
<event>
 5    1  0.1344348E-008  0.3798422E+03  0.7957747E-01  0.3451846E+00
         13   -1    0    0    0    0  0.00000000000E+00  0.00000000000E+00  0.14999999963E+04  0.15000000000E+04  0.10566000000E+00 0.  1.
        994   -1    0    0    0    0 -0.00000000000E+00 -0.00000000000E+00  0.11368683772E-12  0.17120000000E+03  0.17120000000E+03 0.  0.
         13    1    1    2    0    0  0.41012422209E+02  0.11303857376E+02  0.21517337727E+03  0.21933852697E+03  0.10566000000E+00 0.  1.
        994    1    1    2    0    0 -0.23730616543E+02 -0.19204466756E+01  0.61109703234E+01  0.17295552676E+03  0.17120000000E+03 0.  0.
        998    1    1    2    0    0 -0.17281805667E+02 -0.93834107003E+01  0.12787156487E+04  0.12789059463E+04  0.10000000000E+02 0.  1.
</event>
<event>
 5    1  0.1344348E-008  0.3837825E+03  0.7957747E-01  0.3434852E+00
         13   -1    0    0    0    0  0.00000000000E+00  0.00000000000E+00  0.14999999963E+04  0.15000000000E+04  0.10566000000E+00 0.  1.
        994   -1    0    0    0    0 -0.00000000000E+00 -0.00000000000E+00  0.11368683772E-12  0.17120000000E+03  0.17120000000E+03 0.  0.
         13    1    1    2    0    0  0.36493819795E+01 -0.12430884008E+02  0.36656071738E+02  0.38878318191E+02  0.10566000000E+00 0.  1.
        994    1    1    2    0    0 -0.35031986901E+01  0.99169110364E+01  0.26011247707E+01  0.17154248271E+03  0.17120000000E+03 0.  0.
        998    1    1    2    0    0 -0.14618328937E+00  0.25139729717E+01  0.14607427998E+04  0.14607791991E+04  0.10000000000E+02 0.  1.
</event>
<event>
 5    1  0.1344348E-008  0.3786953E+03  0.7957747E-01  0.3456859E+00
         13   -1    0    0    0    0  0.00000000000E+00  0.00000000000E+00  0.14999999963E+04  0.15000000000E+04  0.10566000000E+00 0. -1.
        994   -1    0    0    0    0 -0.00000000000E+00 -0.00000000000E+00  0.11368683772E-12  0.17120000000E+03  0.17120000000E+03 0.  0.
         13    1    1    2    0    0  0.15652596347E+02 -0.13360130531E+02  0.41162141272E+02  0.46019885901E+02  0.10566000000E+00 0. -1.
        994    1    1    2    0    0 -0.15447474897E+02  0.15800345116E+02  0.64342519293E+01  0.17274002137E+03  0.17120000000E+03 0.  0.
        998    1    1    2    0    0 -0.20512145012E+00 -0.24402145841E+01  0.14524036031E+04  0.14524400927E+04  0.10000000000E+02 0. -1.
</event>
<event>
 5    1  0.1344348E-008  0.3825454E+03  0.7957747E-01  0.3440149E+00
         13   -1    0    0    0    0  0.00000000000E+00  0.00000000000E+00  0.14999999963E+04  0.15000000000E+04  0.10566000000E+00 0. -1.
        994   -1    0    0    0    0 -0.00000000000E+00 -0.00000000000E+00  0.11368683772E-12  0.17120000000E+03  0.17120000000E+03 0.  0.
         13    1    1    2    0    0  0.76179180734E+01 -0.13986137225E+02  0.41987379996E+02  0.44906524618E+02  0.10566000000E+00 0. -1.
        994    1    1    2    0    0 -0.88603863324E+01  0.17248448307E+02  0.41012017815E+01  0.17234348050E+03  0.17120000000E+03 0.  0.
        998    1    1    2    0    0  0.12424682590E+01 -0.32623110818E+01  0.14539114145E+04  0.14539499949E+04  0.10000000000E+02 0. -1.
</event>
<event>
 5    1  0.1344348E-008  0.3858950E+03  0.7957747E-01  0.3425885E+00
         13   -1    0    0    0    0  0.00000000000E+00  0.00000000000E+00  0.14999999963E+04  0.15000000000E+04  0.10566000000E+00 0.  1.
        994   -1    0    0    0    0 -0.00000000000E+00 -0.00000000000E+00  0.11368683772E-12  0.17120000000E+03  0.17120000000E+03 0.  0.
         13    1    1    2    0    0  0.11632466353E+02  0.72034695134E+01  0.75970623990E+02  0.77192947345E+02  0.10566000000E+00 0.  1.
        994    1    1    2    0    0 -0.92463239556E+01 -0.13736719627E+02  0.20860727633E+01  0.17201158005E+03  0.17120000000E+03 0.  0.
        998    1    1    2    0    0 -0.23861423973E+01  0.65332501137E+01  0.14219432995E+04  0.14219954726E+04  0.10000000000E+02 0.  1.
</event>
<event>
 5    1  0.1344348E-008  0.3748964E+03  0.7957747E-01  0.3473686E+00
         13   -1    0    0    0    0  0.00000000000E+00  0.00000000000E+00  0.14999999963E+04  0.15000000000E+04  0.10566000000E+00 0.  1.
        994   -1    0    0    0    0 -0.00000000000E+00 -0.00000000000E+00  0.11368683772E-12  0.17120000000E+03  0.17120000000E+03 0.  0.
         13    1    1    2    0    0 -0.35222897202E+02  0.11208748201E+02  0.10902629011E+03  0.11512181210E+03  0.10566000000E+00 0.  1.
        994    1    1    2    0    0  0.58257411410E+01  0.14734641263E+02  0.75860635712E+01  0.17209891712E+03  0.17120000000E+03 0.  0.
        998    1    1    2    0    0  0.29397156061E+02 -0.25943389464E+02  0.13833876426E+04  0.13839792708E+04  0.10000000000E+02 0. -1.
</event>
<event>
 5    1  0.1344348E-008  0.3918673E+03  0.7957747E-01  0.3401059E+00
         13   -1    0    0    0    0  0.00000000000E+00  0.00000000000E+00  0.14999999963E+04  0.15000000000E+04  0.10566000000E+00 0. -1.
        994   -1    0    0    0    0 -0.00000000000E+00 -0.00000000000E+00  0.11368683772E-12  0.17120000000E+03  0.17120000000E+03 0.  0.
         13    1    1    2    0    0  0.20347158616E+02  0.40005934179E+02  0.43087180167E+02  0.62217343981E+02  0.10566000000E+00 0. -1.
        994    1    1    2    0    0  0.45463722425E+02  0.38619747482E+02  0.36617453479E+02  0.18495597544E+03  0.17120000000E+03 0.  0.
        998    1    1    2    0    0 -0.65810881041E+02 -0.78625681661E+02  0.14202953626E+04  0.14240266806E+04  0.10000000000E+02 0. -1.
</event>
<event>
 5    1  0.1344348E-008  0.3821740E+03  0.7957747E-01  0.3441747E+00
         13   -1    0    0    0    0  0.00000000000E+00  0.00000000000E+00  0.14999999963E+04  0.15000000000E+04  0.10566000000E+00 0. -1.
        994   -1    0    0    0    0 -0.00000000000E+00 -0.00000000000E+00  0.11368683772E-12  0.17120000000E+03  0.17120000000E+03 0.  0.
         13    1    1    2    0    0 -0.16647597273E+02  0.54665080649E+01  0.48368707592E+02  0.51444807742E+02  0.10566000000E+00 0. -1.
        994    1    1    2    0    0  0.17658804850E+02 -0.65263274984E+00  0.40768284479E+01  0.17215783412E+03  0.17120000000E+03 0.  0.
        998    1    1    2    0    0 -0.10112075768E+01 -0.48138753151E+01  0.14475544602E+04  0.14475973581E+04  0.10000000000E+02 0. -1.
</event>
<event>
 5    1  0.1865520E-008  0.3849297E+03  0.7957747E-01  0.3429970E+00
         13   -1    0    0    0    0  0.00000000000E+00  0.00000000000E+00  0.14999999963E+04  0.15000000000E+04  0.10566000000E+00 0.  1.
        994   -1    0    0    0    0 -0.00000000000E+00 -0.00000000000E+00  0.11368683772E-12  0.17120000000E+03  0.17120000000E+03 0.  0.
         13    1    1    2    0    0 -0.46317704475E+01  0.10070660660E+02  0.36220801856E+02  0.37879138780E+02  0.10566000000E+00 0.  1.
        994    1    1    2    0    0  0.31721244188E+01 -0.98876362726E+01  0.20197990939E+01  0.17152652073E+03  0.17120000000E+03 0.  0.
        998    1    1    2    0    0  0.14596460287E+01 -0.18302438698E+00  0.14617593953E+04  0.14617943405E+04  0.10000000000E+02 0.  1.
</event>
<event>
 5    1  0.1344348E-008  0.3836032E+03  0.7957747E-01  0.3435618E+00
         13   -1    0    0    0    0  0.00000000000E+00  0.00000000000E+00  0.14999999963E+04  0.15000000000E+04  0.10566000000E+00 0. -1.
        994   -1    0    0    0    0 -0.00000000000E+00 -0.00000000000E+00  0.11368683772E-12  0.17120000000E+03  0.17120000000E+03 0.  0.
         13    1    1    2    0    0  0.18977830450E+02  0.77381565505E+01  0.92265284370E+02  0.94514184012E+02  0.10566000000E+00 0. -1.
        994    1    1    2    0    0 -0.66525446539E+01 -0.65732168906E+01  0.26141974768E+01  0.17147518059E+03  0.17120000000E+03 0.  0.
        998    1    1    2    0    0 -0.12325285797E+02 -0.11649396599E+01  0.14051205144E+04  0.14052106354E+04  0.10000000000E+02 0. -1.
</event>
<event>
 5    1  0.1344348E-008  0.3835300E+03  0.7957747E-01  0.3435931E+00
         13   -1    0    0    0    0  0.00000000000E+00  0.00000000000E+00  0.14999999963E+04  0.15000000000E+04  0.10566000000E+00 0. -1.
        994   -1    0    0    0    0 -0.00000000000E+00 -0.00000000000E+00  0.11368683772E-12  0.17120000000E+03  0.17120000000E+03 0.  0.
         13    1    1    2    0    0  0.17114479186E+02  0.37855081741E+01  0.61569412713E+02  0.64015929391E+02  0.10566000000E+00 0. -1.
        994    1    1    2    0    0 -0.19450301529E+02 -0.56668837786E+01  0.37191220024E+01  0.17243462434E+03  0.17120000000E+03 0.  0.
        998    1    1    2    0    0  0.23358223421E+01  0.18813756044E+01  0.14347114616E+04  0.14347494463E+04  0.10000000000E+02 0. -1.
</event>
<event>
 5    1  0.1344348E-008  0.3828199E+03  0.7957747E-01  0.3438971E+00
         13   -1    0    0    0    0  0.00000000000E+00  0.00000000000E+00  0.14999999963E+04  0.15000000000E+04  0.10566000000E+00 0.  1.
        994   -1    0    0    0    0 -0.00000000000E+00 -0.00000000000E+00  0.11368683772E-12  0.17120000000E+03  0.17120000000E+03 0.  0.
         13    1    1    2    0    0 -0.22539492304E+01 -0.98099992331E+01  0.18037734373E+02  0.20656412986E+02  0.10566000000E+00 0.  1.
        994    1    1    2    0    0 -0.18395761444E+01 -0.80605874027E+00  0.27297731698E+01  0.17123354062E+03  0.17120000000E+03 0.  0.
        998    1    1    2    0    0  0.40935253748E+01  0.10616057973E+02  0.14792324887E+04  0.14793100464E+04  0.10000000000E+02 0.  1.
</event>
<event>
 5    1  0.1344348E-008  0.3840668E+03  0.7957747E-01  0.3433640E+00
         13   -1    0    0    0    0  0.00000000000E+00  0.00000000000E+00  0.14999999963E+04  0.15000000000E+04  0.10566000000E+00 0.  1.
        994   -1    0    0    0    0 -0.00000000000E+00 -0.00000000000E+00  0.11368683772E-12  0.17120000000E+03  0.17120000000E+03 0.  0.
         13    1    1    2    0    0 -0.13920777669E+02  0.10626081649E+02  0.79950540945E+02  0.81846208364E+02  0.10566000000E+00 0.  1.
        994    1    1    2    0    0 -0.20189482418E+01  0.29748566064E+01  0.21368189708E+01  0.17125107859E+03  0.17120000000E+03 0.  0.
        998    1    1    2    0    0  0.15939725911E+02 -0.13600938256E+02  0.14179126364E+04  0.14181027130E+04  0.10000000000E+02 0.  1.
</event>
<event>
 5    1  0.1344348E-008  0.3759242E+03  0.7957747E-01  0.3469100E+00
         13   -1    0    0    0    0  0.00000000000E+00  0.00000000000E+00  0.14999999963E+04  0.15000000000E+04  0.10566000000E+00 0.  1.
        994   -1    0    0    0    0 -0.00000000000E+00 -0.00000000000E+00  0.11368683772E-12  0.17120000000E+03  0.17120000000E+03 0.  0.
         13    1    1    2    0    0 -0.29940849772E+01 -0.32172980530E+02  0.77520596548E+02  0.83985232477E+02  0.10566000000E+00 0.  1.
        994    1    1    2    0    0 -0.30846539270E+01  0.34721020366E+02  0.10333370718E+02  0.17501795021E+03  0.17120000000E+03 0.  0.
        998    1    1    2    0    0  0.60787389042E+01 -0.25480398359E+01  0.14121460290E+04  0.14121968173E+04  0.10000000000E+02 0.  1.
</event>
<event>
 5    1  0.1344348E-008  0.3824608E+03  0.7957747E-01  0.3440513E+00
         13   -1    0    0    0    0  0.00000000000E+00  0.00000000000E+00  0.14999999963E+04  0.15000000000E+04  0.10566000000E+00 0.  1.
        994   -1    0    0    0    0 -0.00000000000E+00 -0.00000000000E+00  0.11368683772E-12  0.17120000000E+03  0.17120000000E+03 0.  0.
         13    1    1    2    0    0 -0.16540286768E+02  0.29987110225E+02  0.17284045903E+03  0.17620057692E+03  0.10566000000E+00 0.  1.
        994    1    1    2    0    0  0.12857340363E+02 -0.38370672217E+02  0.83454175983E+01  0.17611560318E+03  0.17120000000E+03 0.  0.
        998    1    1    2    0    0  0.36829464051E+01  0.83835619914E+01  0.13188141197E+04  0.13188838199E+04  0.10000000000E+02 0.  1.
</event>
<event>
 5    1  0.1344348E-008  0.3827417E+03  0.7957747E-01  0.3439307E+00
         13   -1    0    0    0    0  0.00000000000E+00  0.00000000000E+00  0.14999999963E+04  0.15000000000E+04  0.10566000000E+00 0. -1.
        994   -1    0    0    0    0 -0.00000000000E+00 -0.00000000000E+00  0.11368683772E-12  0.17120000000E+03  0.17120000000E+03 0.  0.
         13    1    1    2    0    0  0.59619456475E+00  0.27717850002E+02  0.15417965611E+03  0.15665252050E+03  0.10566000000E+00 0. -1.
        994    1    1    2    0    0 -0.11978210405E+02 -0.30360593505E+01  0.32615518764E+01  0.17167636093E+03  0.17120000000E+03 0.  0.
        998    1    1    2    0    0  0.11382015841E+02 -0.24681790651E+02  0.13425587883E+04  0.13428711186E+04  0.10000000000E+02 0. -1.
</event>
<event>
 5    1  0.1344348E-008  0.3700410E+03  0.7957747E-01  0.3495702E+00
         13   -1    0    0    0    0  0.00000000000E+00  0.00000000000E+00  0.14999999963E+04  0.15000000000E+04  0.10566000000E+00 0. -1.
        994   -1    0    0    0    0 -0.00000000000E+00 -0.00000000000E+00  0.11368683772E-12  0.17120000000E+03  0.17120000000E+03 0.  0.
         13    1    1    2    0    0  0.42621380836E+02  0.26171194854E+02  0.11141100160E+03  0.12212262684E+03  0.10566000000E+00 0. -1.
        994    1    1    2    0    0 -0.34050523469E+02  0.12574976116E+00  0.15025358009E+02  0.17519890224E+03  0.17120000000E+03 0.  0.
        998    1    1    2    0    0 -0.85708573667E+01 -0.26296944615E+02  0.13735636367E+04  0.13738784709E+04  0.10000000000E+02 0. -1.
</event>
<event>
 5    1  0.1526582E-008  0.3854959E+03  0.7957747E-01  0.3427572E+00
         13   -1    0    0    0    0  0.00000000000E+00  0.00000000000E+00  0.14999999963E+04  0.15000000000E+04  0.10566000000E+00 0.  1.
        994   -1    0    0    0    0 -0.00000000000E+00 -0.00000000000E+00  0.11368683772E-12  0.17120000000E+03  0.17120000000E+03 0.  0.
         13    1    1    2    0    0 -0.90605958940E+01  0.44115831337E+01  0.36474009729E+02  0.37840732200E+02  0.10566000000E+00 0.  1.
        994    1    1    2    0    0  0.74367958598E+01 -0.37827079062E+01  0.16127378354E+01  0.17141078069E+03  0.17120000000E+03 0.  0.
        998    1    1    2    0    0  0.16238000342E+01 -0.62887522746E+00  0.14619132487E+04  0.14619484871E+04  0.10000000000E+02 0.  1.
</event>
<event>
 5    1  0.1344348E-008  0.3814931E+03  0.7957747E-01  0.3444683E+00
         13   -1    0    0    0    0  0.00000000000E+00  0.00000000000E+00  0.14999999963E+04  0.15000000000E+04  0.10566000000E+00 0. -1.
        994   -1    0    0    0    0 -0.00000000000E+00 -0.00000000000E+00  0.11368683772E-12  0.17120000000E+03  0.17120000000E+03 0.  0.
         13    1    1    2    0    0 -0.13351039654E+03  0.36852474798E+02  0.81469245070E+03  0.82638183140E+03  0.10566000000E+00 0. -1.
        994    1    1    2    0    0  0.14890696290E+03 -0.42814101232E+02  0.87850756883E+02  0.24704964349E+03  0.17120000000E+03 0.  0.
        998    1    1    2    0    0 -0.15396566363E+02  0.59616264340E+01  0.59745678870E+03  0.59776852511E+03  0.10000000000E+02 0. -1.
</event>
<event>
 5    1  0.1344348E-008  0.3795378E+03  0.7957747E-01  0.3453173E+00
         13   -1    0    0    0    0  0.00000000000E+00  0.00000000000E+00  0.14999999963E+04  0.15000000000E+04  0.10566000000E+00 0. -1.
        994   -1    0    0    0    0 -0.00000000000E+00 -0.00000000000E+00  0.11368683772E-12  0.17120000000E+03  0.17120000000E+03 0.  0.
         13    1    1    2    0    0 -0.12642639691E+02 -0.16575280367E+02  0.63437579599E+01  0.21790610058E+02  0.10566000000E+00 0. -1.
        994    1    1    2    0    0  0.24585689173E+02  0.67193458129E+01  0.18426927078E+02  0.17406492284E+03  0.17120000000E+03 0.  0.
        998    1    1    2    0    0 -0.11943049482E+02  0.98559345545E+01  0.14752293112E+04  0.14753444671E+04  0.10000000000E+02 0. -1.
</event>
<event>
 5    1  0.1344348E-008  0.3856869E+03  0.7957747E-01  0.3426764E+00
         13   -1    0    0    0    0  0.00000000000E+00  0.00000000000E+00  0.14999999963E+04  0.15000000000E+04  0.10566000000E+00 0.  1.
        994   -1    0    0    0    0 -0.00000000000E+00 -0.00000000000E+00  0.11368683772E-12  0.17120000000E+03  0.17120000000E+03 0.  0.
         13    1    1    2    0    0  0.11573174101E+01 -0.13549436628E+02  0.67432058289E+02  0.68789681389E+02  0.10566000000E+00 0.  1.
        994    1    1    2    0    0  0.20359463519E+01  0.18898721892E+02  0.24759307278E+01  0.17226977971E+03  0.17120000000E+03 0.  0.
        998    1    1    2    0    0 -0.31932637620E+01 -0.53492852637E+01  0.14300920073E+04  0.14301405389E+04  0.10000000000E+02 0.  1.
</event>
<event>
 5    1  0.1344348E-008  0.3762402E+03  0.7957747E-01  0.3467694E+00
         13   -1    0    0    0    0  0.00000000000E+00  0.00000000000E+00  0.14999999963E+04  0.15000000000E+04  0.10566000000E+00 0. -1.
        994   -1    0    0    0    0 -0.00000000000E+00 -0.00000000000E+00  0.11368683772E-12  0.17120000000E+03  0.17120000000E+03 0.  0.
         13    1    1    2    0    0  0.14363440805E+02  0.12368944680E+03  0.61465326377E+03  0.62713956461E+03  0.10566000000E+00 0. -1.
        994    1    1    2    0    0 -0.16732626682E+02 -0.13486061606E+03  0.71360777943E+02  0.22993296238E+03  0.17120000000E+03 0.  0.
        998    1    1    2    0    0  0.23691858772E+01  0.11171169260E+02  0.81398595457E+03  0.81412747300E+03  0.10000000000E+02 0. -1.
</event>
<event>
 5    1  0.1344348E-008  0.3759480E+03  0.7957747E-01  0.3468994E+00
         13   -1    0    0    0    0  0.00000000000E+00  0.00000000000E+00  0.14999999963E+04  0.15000000000E+04  0.10566000000E+00 0. -1.
        994   -1    0    0    0    0 -0.00000000000E+00 -0.00000000000E+00  0.11368683772E-12  0.17120000000E+03  0.17120000000E+03 0.  0.
         13    1    1    2    0    0 -0.50044811566E+02  0.36878286017E+02  0.24851647238E+03  0.25617365078E+03  0.10566000000E+00 0. -1.
        994    1    1    2    0    0  0.49022642284E+02 -0.48660022028E+02  0.22533874846E+02  0.18597911903E+03  0.17120000000E+03 0.  0.
        998    1    1    2    0    0  0.10221692827E+01  0.11781736011E+02  0.12289496491E+04  0.12290472302E+04  0.10000000000E+02 0.  0.
</event>
<event>
 5    1  0.1344348E-008  0.3792782E+03  0.7957747E-01  0.3454308E+00
         13   -1    0    0    0    0  0.00000000000E+00  0.00000000000E+00  0.14999999963E+04  0.15000000000E+04  0.10566000000E+00 0.  1.
        994   -1    0    0    0    0 -0.00000000000E+00 -0.00000000000E+00  0.11368683772E-12  0.17120000000E+03  0.17120000000E+03 0.  0.
         13    1    1    2    0    0 -0.73656664489E+01  0.84706231891E+01  0.12313230865E+02  0.16662272288E+02  0.10566000000E+00 0.  1.
        994    1    1    2    0    0  0.19326896053E+01  0.40960030538E+01  0.45667107978E+01  0.17132077334E+03  0.17120000000E+03 0.  0.
        998    1    1    2    0    0  0.54329768436E+01 -0.12566626243E+02  0.14831200546E+04  0.14832169544E+04  0.10000000000E+02 0.  1.
</event>
<event>
 5    1  0.1344348E-008  0.3973589E+03  0.7957747E-01  0.3378890E+00
         13   -1    0    0    0    0  0.00000000000E+00  0.00000000000E+00  0.14999999963E+04  0.15000000000E+04  0.10566000000E+00 0. -1.
        994   -1    0    0    0    0 -0.00000000000E+00 -0.00000000000E+00  0.11368683772E-12  0.17120000000E+03  0.17120000000E+03 0.  0.
         13    1    1    2    0    0 -0.28261970997E+02  0.21388943898E+02  0.12913450017E+02  0.37722596425E+02  0.10566000000E+00 0. -1.
        994    1    1    2    0    0  0.19342731066E+02 -0.39293444006E+02  0.33674236184E+02  0.17989305203E+03  0.17120000000E+03 0.  0.
        998    1    1    2    0    0  0.89192399305E+01  0.17904500108E+02  0.14534123101E+04  0.14535843515E+04  0.10000000000E+02 0. -1.
</event>
<event>
 5    1  0.1344348E-008  0.4212468E+03  0.7957747E-01  0.3289132E+00
         13   -1    0    0    0    0  0.00000000000E+00  0.00000000000E+00  0.14999999963E+04  0.15000000000E+04  0.10566000000E+00 0.  1.
        994   -1    0    0    0    0 -0.00000000000E+00 -0.00000000000E+00  0.11368683772E-12  0.17120000000E+03  0.17120000000E+03 0.  0.
         13    1    1    2    0    0  0.95136070458E+02 -0.10207054660E+02  0.12279395255E+03  0.15567087657E+03  0.10566000000E+00 0.  1.
        994    1    1    2    0    0  0.90749847990E+01  0.62888412913E+02  0.58683872866E+02  0.19180861493E+03  0.17120000000E+03 0.  0.
        998    1    1    2    0    0 -0.10421105526E+03 -0.52681358252E+02  0.13185221709E+04  0.13237205085E+04  0.10000000000E+02 0.  1.
</event>
<event>
 5    1  0.1344348E-008  0.3767266E+03  0.7957747E-01  0.3465537E+00
         13   -1    0    0    0    0  0.00000000000E+00  0.00000000000E+00  0.14999999963E+04  0.15000000000E+04  0.10566000000E+00 0.  1.
        994   -1    0    0    0    0 -0.00000000000E+00 -0.00000000000E+00  0.11368683772E-12  0.17120000000E+03  0.17120000000E+03 0.  0.
         13    1    1    2    0    0  0.10270583324E+03  0.10277429063E+02  0.52196226639E+03  0.53207023261E+03  0.10566000000E+00 0.  1.
        994    1    1    2    0    0 -0.16498353228E+02 -0.43193693278E+01  0.15582778941E+02  0.17275160089E+03  0.17120000000E+03 0.  0.
        998    1    1    2    0    0 -0.86207480011E+02 -0.59580597354E+01  0.96245495095E+03  0.96637816650E+03  0.10000000000E+02 0.  1.
</event>
<event>
 5    1  0.1344348E-008  0.3702149E+03  0.7957747E-01  0.3494904E+00
         13   -1    0    0    0    0  0.00000000000E+00  0.00000000000E+00  0.14999999963E+04  0.15000000000E+04  0.10566000000E+00 0. -1.
        994   -1    0    0    0    0 -0.00000000000E+00 -0.00000000000E+00  0.11368683772E-12  0.17120000000E+03  0.17120000000E+03 0.  0.
         13    1    1    2    0    0  0.15455548813E+02 -0.45250885846E+02  0.12094548167E+03  0.13005513200E+03  0.10566000000E+00 0. -1.
        994    1    1    2    0    0 -0.33841155772E+01  0.31518384930E+02  0.12636546965E+02  0.17456799004E+03  0.17120000000E+03 0.  0.
        998    1    1    2    0    0 -0.12071433236E+02  0.13732500916E+02  0.13664179676E+04  0.13665768780E+04  0.10000000000E+02 0. -1.
</event>
<event>
 5    1  0.1727486E-008  0.3859352E+03  0.7957747E-01  0.3425716E+00
         13   -1    0    0    0    0  0.00000000000E+00  0.00000000000E+00  0.14999999963E+04  0.15000000000E+04  0.10566000000E+00 0. -1.
        994   -1    0    0    0    0 -0.00000000000E+00 -0.00000000000E+00  0.11368683772E-12  0.17120000000E+03  0.17120000000E+03 0.  0.
         13    1    1    2    0    0 -0.10840703765E+02  0.22394730634E+01  0.52119130730E+02  0.53281807869E+02  0.10566000000E+00 0. -1.
        994    1    1    2    0    0  0.10538593844E+02  0.55603276301E+00  0.15317731002E+01  0.17153179723E+03  0.17120000000E+03 0.  0.
        998    1    1    2    0    0  0.30210992145E+00 -0.27955058265E+01  0.14463490924E+04  0.14463863949E+04  0.10000000000E+02 0. -1.
</event>
<event>
 5    1  0.1344348E-008  0.3808483E+03  0.7957747E-01  0.3447473E+00
         13   -1    0    0    0    0  0.00000000000E+00  0.00000000000E+00  0.14999999963E+04  0.15000000000E+04  0.10566000000E+00 0.  1.
        994   -1    0    0    0    0 -0.00000000000E+00 -0.00000000000E+00  0.11368683772E-12  0.17120000000E+03  0.17120000000E+03 0.  0.
         13    1    1    2    0    0  0.18434533100E+02  0.32897980383E+02  0.17802588902E+03  0.18197620023E+03  0.10566000000E+00 0.  1.
        994    1    1    2    0    0 -0.10242522976E+02 -0.30337859445E+02  0.71309621104E+01  0.17431461675E+03  0.17120000000E+03 0.  0.
        998    1    1    2    0    0 -0.81920101243E+01 -0.25601209384E+01  0.13148431451E+04  0.13149091830E+04  0.10000000000E+02 0.  1.
</event>
<event>
 5    1  0.1344348E-008  0.3836946E+03  0.7957747E-01  0.3435228E+00
         13   -1    0    0    0    0  0.00000000000E+00  0.00000000000E+00  0.14999999963E+04  0.15000000000E+04  0.10566000000E+00 0. -1.
        994   -1    0    0    0    0 -0.00000000000E+00 -0.00000000000E+00  0.11368683772E-12  0.17120000000E+03  0.17120000000E+03 0.  0.
         13    1    1    2    0    0  0.53964993370E+01  0.16638592281E+02  0.78459037180E+02  0.80385301128E+02  0.10566000000E+00 0. -1.
        994    1    1    2    0    0 -0.61590725930E+01  0.18189132720E+02  0.34985358082E+01  0.17230919441E+03  0.17120000000E+03 0.  0.
        998    1    1    2    0    0  0.76257325599E+00 -0.34827725001E+02  0.14180424233E+04  0.14185055045E+04  0.10000000000E+02 0. -1.
</event>
<event>
 5    1  0.1344348E-008  0.3801095E+03  0.7957747E-01  0.3450682E+00
         13   -1    0    0    0    0  0.00000000000E+00  0.00000000000E+00  0.14999999963E+04  0.15000000000E+04  0.10566000000E+00 0. -1.
        994   -1    0    0    0    0 -0.00000000000E+00 -0.00000000000E+00  0.11368683772E-12  0.17120000000E+03  0.17120000000E+03 0.  0.
         13    1    1    2    0    0  0.50196447293E+01  0.27451613284E+02  0.10824491316E+03  0.11178443673E+03  0.10566000000E+00 0. -1.
        994    1    1    2    0    0 -0.25091647723E+01  0.91306085998E+01  0.43775724097E+01  0.17151754156E+03  0.17120000000E+03 0.  0.
        998    1    1    2    0    0 -0.25104799570E+01 -0.36582221883E+02  0.13873775107E+04  0.13878980217E+04  0.10000000000E+02 0. -1.
</event>
<event>
 5    1  0.1344348E-008  0.3852111E+03  0.7957747E-01  0.3428777E+00
         13   -1    0    0    0    0  0.00000000000E+00  0.00000000000E+00  0.14999999963E+04  0.15000000000E+04  0.10566000000E+00 0.  1.
        994   -1    0    0    0    0 -0.00000000000E+00 -0.00000000000E+00  0.11368683772E-12  0.17120000000E+03  0.17120000000E+03 0.  0.
         13    1    1    2    0    0 -0.17357375420E+02 -0.48200322167E+00  0.92815951149E+02  0.94426282148E+02  0.10566000000E+00 0.  1.
        994    1    1    2    0    0  0.19501710947E+02  0.14735609190E+02  0.34912880250E+01  0.17297133867E+03  0.17120000000E+03 0.  0.
        998    1    1    2    0    0 -0.21443355270E+01 -0.14253605969E+02  0.14036927571E+04  0.14038023792E+04  0.10000000000E+02 0.  1.
</event>
<event>
 5    1  0.1344348E-008  0.3712463E+03  0.7957747E-01  0.3490183E+00
         13   -1    0    0    0    0  0.00000000000E+00  0.00000000000E+00  0.14999999963E+04  0.15000000000E+04  0.10566000000E+00 0.  1.
        994   -1    0    0    0    0 -0.00000000000E+00 -0.00000000000E+00  0.11368683772E-12  0.17120000000E+03  0.17120000000E+03 0.  0.
         13    1    1    2    0    0  0.28206338221E+02  0.67834740022E+02  0.26085398984E+03  0.27100177979E+03  0.10566000000E+00 0.  1.
        994    1    1    2    0    0 -0.55438081751E+02 -0.54597730136E+02  0.29760964640E+02  0.19039287818E+03  0.17120000000E+03 0.  0.
        998    1    1    2    0    0  0.27231743530E+02 -0.13237009886E+02  0.12093850418E+04  0.12098053420E+04  0.10000000000E+02 0.  1.
</event>
<event>
 5    1  0.1344348E-008  0.3856379E+03  0.7957747E-01  0.3426971E+00
         13   -1    0    0    0    0  0.00000000000E+00  0.00000000000E+00  0.14999999963E+04  0.15000000000E+04  0.10566000000E+00 0. -1.
        994   -1    0    0    0    0 -0.00000000000E+00 -0.00000000000E+00  0.11368683772E-12  0.17120000000E+03  0.17120000000E+03 0.  0.
         13    1    1    2    0    0  0.28223132648E+01  0.13166577312E+02  0.77655842485E+02  0.78814752720E+02  0.10566000000E+00 0. -1.
        994    1    1    2    0    0  0.15557150011E+02  0.17270759579E+01  0.21182331937E+01  0.17192712008E+03  0.17120000000E+03 0.  0.
        998    1    1    2    0    0 -0.18379463276E+02 -0.14893653270E+02  0.14202259206E+04  0.14204581272E+04  0.10000000000E+02 0. -1.
</event>
<event>
 5    1  0.1344348E-008  0.3782110E+03  0.7957747E-01  0.3458985E+00
         13   -1    0    0    0    0  0.00000000000E+00  0.00000000000E+00  0.14999999963E+04  0.15000000000E+04  0.10566000000E+00 0.  1.
        994   -1    0    0    0    0 -0.00000000000E+00 -0.00000000000E+00  0.11368683772E-12  0.17120000000E+03  0.17120000000E+03 0.  0.
         13    1    1    2    0    0  0.10210314667E+02  0.56951978298E+02  0.26243057376E+03  0.26873331682E+03  0.10566000000E+00 0.  1.
        994    1    1    2    0    0 -0.16362784778E+02 -0.61377278750E+02  0.18729718631E+02  0.18356239656E+03  0.17120000000E+03 0.  0.
        998    1    1    2    0    0  0.61524701103E+01  0.44253004524E+01  0.12188397039E+04  0.12189042866E+04  0.10000000000E+02 0.  1.
</event>
<event>
 5    1  0.1344348E-008  0.3851918E+03  0.7957747E-01  0.3428859E+00
         13   -1    0    0    0    0  0.00000000000E+00  0.00000000000E+00  0.14999999963E+04  0.15000000000E+04  0.10566000000E+00 0. -1.
        994   -1    0    0    0    0 -0.00000000000E+00 -0.00000000000E+00  0.11368683772E-12  0.17120000000E+03  0.17120000000E+03 0.  0.
         13    1    1    2    0    0  0.28970064616E+01  0.16529616786E+02 -0.14502695355E+01  0.16844444879E+02  0.10566000000E+00 0. -1.
        994    1    1    2    0    0  0.49964659959E+01 -0.24438586598E+02  0.21510425170E+02  0.17433974756E+03  0.17120000000E+03 0.  0.
        998    1    1    2    0    0 -0.78934724574E+01  0.79089698118E+01  0.14799398406E+04  0.14800158076E+04  0.10000000000E+02 0. -1.
</event>
<event>
 5    1  0.1344348E-008  0.3849130E+03  0.7957747E-01  0.3430041E+00
         13   -1    0    0    0    0  0.00000000000E+00  0.00000000000E+00  0.14999999963E+04  0.15000000000E+04  0.10566000000E+00 0.  1.
        994   -1    0    0    0    0 -0.00000000000E+00 -0.00000000000E+00  0.11368683772E-12  0.17120000000E+03  0.17120000000E+03 0.  0.
         13    1    1    2    0    0  0.11155042807E+02  0.11603675278E+01  0.37215934212E+02  0.38869246920E+02  0.10566000000E+00 0.  1.
        994    1    1    2    0    0 -0.79221361425E+01 -0.69563904021E+01  0.20390510149E+01  0.17153643735E+03  0.17120000000E+03 0.  0.
        998    1    1    2    0    0 -0.32329066644E+01  0.57960228743E+01  0.14607450111E+04  0.14607943157E+04  0.10000000000E+02 0.  1.
</event>
<event>
 5    1  0.1344348E-008  0.4003895E+03  0.7957747E-01  0.3366915E+00
         13   -1    0    0    0    0  0.00000000000E+00  0.00000000000E+00  0.14999999963E+04  0.15000000000E+04  0.10566000000E+00 0. -1.
        994   -1    0    0    0    0 -0.00000000000E+00 -0.00000000000E+00  0.11368683772E-12  0.17120000000E+03  0.17120000000E+03 0.  0.
         13    1    1    2    0    0  0.19045028569E+02  0.89213811720E+02  0.17694903975E+03  0.19907986123E+03  0.10566000000E+00 0. -1.
        994    1    1    2    0    0  0.53016569869E+02 -0.58703843571E+01  0.39251643056E+02  0.18356293083E+03  0.17120000000E+03 0.  0.
        998    1    1    2    0    0 -0.72061598438E+02 -0.83343427363E+02  0.12837993135E+04  0.12885572079E+04  0.10000000000E+02 0. -1.
</event>
<event>
 5    1  0.1344348E-008  0.3789938E+03  0.7957747E-01  0.3455551E+00
         13   -1    0    0    0    0  0.00000000000E+00  0.00000000000E+00  0.14999999963E+04  0.15000000000E+04  0.10566000000E+00 0.  1.
        994   -1    0    0    0    0 -0.00000000000E+00 -0.00000000000E+00  0.11368683772E-12  0.17120000000E+03  0.17120000000E+03 0.  0.
         13    1    1    2    0    0  0.12068881504E+02 -0.91717955887E+01  0.42359732490E-01  0.15158914653E+02  0.10566000000E+00 0.  1.
        994    1    1    2    0    0 -0.14325661386E+02  0.83358642491E+01  0.16768068176E+02  0.17281585378E+03  0.17120000000E+03 0.  0.
        998    1    1    2    0    0  0.22567798814E+01  0.83593133954E+00  0.14831895684E+04  0.14832252316E+04  0.10000000000E+02 0.  1.
</event>
<event>
 5    1  0.1344348E-008  0.3701163E+03  0.7957747E-01  0.3495357E+00
         13   -1    0    0    0    0  0.00000000000E+00  0.00000000000E+00  0.14999999963E+04  0.15000000000E+04  0.10566000000E+00 0. -1.
        994   -1    0    0    0    0 -0.00000000000E+00 -0.00000000000E+00  0.11368683772E-12  0.17120000000E+03  0.17120000000E+03 0.  0.
         13    1    1    2    0    0 -0.74322976329E+01 -0.38357083330E+02  0.74235950315E+02  0.83889763219E+02  0.10566000000E+00 0. -1.
        994    1    1    2    0    0  0.71627771248E+01  0.45198427919E+02  0.16481424289E+02  0.17797550564E+03  0.17120000000E+03 0.  0.
        998    1    1    2    0    0  0.26952050802E+00 -0.68413445895E+01  0.14092826217E+04  0.14093347311E+04  0.10000000000E+02 0. -1.
</event>
<event>
 5    1  0.1344348E-008  0.3781376E+03  0.7957747E-01  0.3459308E+00
         13   -1    0    0    0    0  0.00000000000E+00  0.00000000000E+00  0.14999999963E+04  0.15000000000E+04  0.10566000000E+00 0. -1.
        994   -1    0    0    0    0 -0.00000000000E+00 -0.00000000000E+00  0.11368683772E-12  0.17120000000E+03  0.17120000000E+03 0.  0.
         13    1    1    2    0    0 -0.93993456291E+02  0.10050229023E+03  0.41844457802E+03  0.44048990478E+03  0.10566000000E+00 0. -1.
        994    1    1    2    0    0  0.10010660891E+03 -0.96334022527E+02  0.88501835219E+02  0.23757860148E+03  0.17120000000E+03 0.  0.
        998    1    1    2    0    0 -0.61131526163E+01 -0.41682677056E+01  0.99305358304E+03  0.99313149375E+03  0.10000000000E+02 0.  0.
</event>
<event>
 5    1  0.1344348E-008  0.3825087E+03  0.7957747E-01  0.3440307E+00
         13   -1    0    0    0    0  0.00000000000E+00  0.00000000000E+00  0.14999999963E+04  0.15000000000E+04  0.10566000000E+00 0. -1.
        994   -1    0    0    0    0 -0.00000000000E+00 -0.00000000000E+00  0.11368683772E-12  0.17120000000E+03  0.17120000000E+03 0.  0.
         13    1    1    2    0    0  0.27345239492E+02 -0.79426194265E+01  0.13321467670E+03  0.13622411159E+03  0.10566000000E+00 0. -1.
        994    1    1    2    0    0 -0.22015051942E+02  0.12159248852E+02  0.49719439863E+01  0.17310883880E+03  0.17120000000E+03 0.  0.
        998    1    1    2    0    0 -0.53301875505E+01 -0.42166294256E+01  0.13618133756E+04  0.13618670496E+04  0.10000000000E+02 0.  0.
</event>
<event>
 5    1  0.1344348E-008  0.3830595E+03  0.7957747E-01  0.3437944E+00
         13   -1    0    0    0    0  0.00000000000E+00  0.00000000000E+00  0.14999999963E+04  0.15000000000E+04  0.10566000000E+00 0. -1.
        994   -1    0    0    0    0 -0.00000000000E+00 -0.00000000000E+00  0.11368683772E-12  0.17120000000E+03  0.17120000000E+03 0.  0.
         13    1    1    2    0    0  0.18271047540E+02  0.88879081647E+01  0.83008696494E+02  0.85459235589E+02  0.10566000000E+00 0. -1.
        994    1    1    2    0    0 -0.37112970187E+01 -0.11404605868E+01  0.26465113632E+01  0.17126446916E+03  0.17120000000E+03 0.  0.
        998    1    1    2    0    0 -0.14559750521E+02 -0.77474475779E+01  0.14143447884E+04  0.14144762952E+04  0.10000000000E+02 0. -1.
</event>
<event>
 5    1  0.1344348E-008  0.3850443E+03  0.7957747E-01  0.3429484E+00
         13   -1    0    0    0    0  0.00000000000E+00  0.00000000000E+00  0.14999999963E+04  0.15000000000E+04  0.10566000000E+00 0. -1.
        994   -1    0    0    0    0 -0.00000000000E+00 -0.00000000000E+00  0.11368683772E-12  0.17120000000E+03  0.17120000000E+03 0.  0.
         13    1    1    2    0    0 -0.15845821401E+02 -0.40223831220E+01  0.82489022567E+02  0.84093517169E+02  0.10566000000E+00 0. -1.
        994    1    1    2    0    0  0.10670763418E+02  0.58367631844E+01  0.20947247395E+01  0.17164428586E+03  0.17120000000E+03 0.  0.
        998    1    1    2    0    0  0.51750579824E+01 -0.18143800624E+01  0.14154162490E+04  0.14154621970E+04  0.10000000000E+02 0. -1.
</event>
<event>
 5    1  0.1344348E-008  0.3661174E+03  0.7957747E-01  0.3513927E+00
         13   -1    0    0    0    0  0.00000000000E+00  0.00000000000E+00  0.14999999963E+04  0.15000000000E+04  0.10566000000E+00 0. -1.
        994   -1    0    0    0    0 -0.00000000000E+00 -0.00000000000E+00  0.11368683772E-12  0.17120000000E+03  0.17120000000E+03 0.  0.
         13    1    1    2    0    0  0.99478356076E+02  0.31857071875E+03  0.73449094634E+03  0.80675907655E+03  0.10566000000E+00 0. -1.
        994    1    1    2    0    0 -0.87124036162E+02 -0.29460140559E+03  0.59218948457E+03  0.68875134228E+03  0.17120000000E+03 0.  0.
        998    1    1    2    0    0 -0.12354319915E+02 -0.23969313154E+02  0.17331956537E+03  0.17568958118E+03  0.10000000000E+02 0. -1.
</event>
<event>
 5    1  0.1344348E-008  0.3807106E+03  0.7957747E-01  0.3448070E+00
         13   -1    0    0    0    0  0.00000000000E+00  0.00000000000E+00  0.14999999963E+04  0.15000000000E+04  0.10566000000E+00 0.  1.
        994   -1    0    0    0    0 -0.00000000000E+00 -0.00000000000E+00  0.11368683772E-12  0.17120000000E+03  0.17120000000E+03 0.  0.
         13    1    1    2    0    0 -0.13878600223E+02  0.31603986582E+01  0.25220367219E+02  0.28960002599E+02  0.10566000000E+00 0.  1.
        994    1    1    2    0    0  0.11302195249E+02 -0.10933713611E+01  0.42050113417E+01  0.17162767026E+03  0.17120000000E+03 0.  0.
        998    1    1    2    0    0  0.25764049735E+01 -0.20670272971E+01  0.14705746177E+04  0.14706123271E+04  0.10000000000E+02 0.  1.
</event>
<event>
 5    1  0.1818746E-008  0.3865340E+03  0.7957747E-01  0.3423192E+00
         13   -1    0    0    0    0  0.00000000000E+00  0.00000000000E+00  0.14999999963E+04  0.15000000000E+04  0.10566000000E+00 0. -1.
        994   -1    0    0    0    0 -0.00000000000E+00 -0.00000000000E+00  0.11368683772E-12  0.17120000000E+03  0.17120000000E+03 0.  0.
         13    1    1    2    0    0  0.87745984939E+01  0.65795857719E+01  0.63817780559E+02  0.64753415409E+02  0.10566000000E+00 0. -1.
        994    1    1    2    0    0 -0.86765956358E+01 -0.21384674969E+02  0.26152038792E+01  0.17276824629E+03  0.17120000000E+03 0.  0.
        998    1    1    2    0    0 -0.98002858114E-01  0.14805089197E+02  0.14335670118E+04  0.14336783383E+04  0.10000000000E+02 0. -1.
</event>
<event>
 5    1  0.1843469E-008  0.3858163E+03  0.7957747E-01  0.3426217E+00
         13   -1    0    0    0    0  0.00000000000E+00  0.00000000000E+00  0.14999999963E+04  0.15000000000E+04  0.10566000000E+00 0. -1.
        994   -1    0    0    0    0 -0.00000000000E+00 -0.00000000000E+00  0.11368683772E-12  0.17120000000E+03  0.17120000000E+03 0.  0.
         13    1    1    2    0    0  0.54957198024E+01 -0.10506155604E+02  0.61818311850E+02  0.62945191125E+02  0.10566000000E+00 0. -1.
        994    1    1    2    0    0 -0.32898049309E+02 -0.16382059627E+02  0.56680597636E+01  0.17519195309E+03  0.17120000000E+03 0.  0.
        998    1    1    2    0    0  0.27402329507E+02  0.26888215231E+02  0.14325136247E+04  0.14330628558E+04  0.10000000000E+02 0. -1.
</event>
<event>
 5    1  0.1344348E-008  0.3817867E+03  0.7957747E-01  0.3443416E+00
         13   -1    0    0    0    0  0.00000000000E+00  0.00000000000E+00  0.14999999963E+04  0.15000000000E+04  0.10566000000E+00 0. -1.
        994   -1    0    0    0    0 -0.00000000000E+00 -0.00000000000E+00  0.11368683772E-12  0.17120000000E+03  0.17120000000E+03 0.  0.
         13    1    1    2    0    0  0.10135114587E+02 -0.27907636935E+02  0.12396838946E+03  0.12747442683E+03  0.10566000000E+00 0. -1.
        994    1    1    2    0    0 -0.11488278058E+02  0.29436493341E+02  0.65593123539E+01  0.17421524690E+03  0.17120000000E+03 0.  0.
        998    1    1    2    0    0  0.13531634710E+01 -0.15288564054E+01  0.13694722945E+04  0.13695103263E+04  0.10000000000E+02 0. -1.
</event>
<event>
 5    1  0.1344348E-008  0.3737174E+03  0.7957747E-01  0.3478979E+00
         13   -1    0    0    0    0  0.00000000000E+00  0.00000000000E+00  0.14999999963E+04  0.15000000000E+04  0.10566000000E+00 0. -1.
        994   -1    0    0    0    0 -0.00000000000E+00 -0.00000000000E+00  0.11368683772E-12  0.17120000000E+03  0.17120000000E+03 0.  0.
         13    1    1    2    0    0  0.10657089651E+02 -0.26618893177E+02  0.50524891996E+02  0.58094017842E+02  0.10566000000E+00 0. -1.
        994    1    1    2    0    0 -0.37315202885E+01  0.36536111419E+02  0.11957602110E+02  0.17550280889E+03  0.17120000000E+03 0.  0.
        998    1    1    2    0    0 -0.69255693627E+01 -0.99172182420E+01  0.14375175022E+04  0.14376031733E+04  0.10000000000E+02 0. -1.
</event>
<event>
 5    1  0.1344348E-008  0.3858229E+03  0.7957747E-01  0.3426190E+00
         13   -1    0    0    0    0  0.00000000000E+00  0.00000000000E+00  0.14999999963E+04  0.15000000000E+04  0.10566000000E+00 0. -1.
        994   -1    0    0    0    0 -0.00000000000E+00 -0.00000000000E+00  0.11368683772E-12  0.17120000000E+03  0.17120000000E+03 0.  0.
         13    1    1    2    0    0 -0.90379266018E+01 -0.10086709421E+02  0.75958429909E+02  0.77156464813E+02  0.10566000000E+00 0. -1.
        994    1    1    2    0    0  0.14979407621E+02 -0.16634128076E+01  0.19675292416E+01  0.17187338586E+03  0.17120000000E+03 0.  0.
        998    1    1    2    0    0 -0.59414810194E+01  0.11750122229E+02  0.14220740371E+04  0.14221701493E+04  0.10000000000E+02 0. -1.
</event>
<event>
 5    1  0.1344348E-008  0.3837044E+03  0.7957747E-01  0.3435186E+00
         13   -1    0    0    0    0  0.00000000000E+00  0.00000000000E+00  0.14999999963E+04  0.15000000000E+04  0.10566000000E+00 0.  1.
        994   -1    0    0    0    0 -0.00000000000E+00 -0.00000000000E+00  0.11368683772E-12  0.17120000000E+03  0.17120000000E+03 0.  0.
         13    1    1    2    0    0 -0.23883547307E+01  0.18685358809E+02  0.78233667181E+02  0.80469650905E+02  0.10566000000E+00 0.  1.
        994    1    1    2    0    0  0.23082364096E+01 -0.10195816962E+02  0.26357269474E+01  0.17153912001E+03  0.17120000000E+03 0.  0.
        998    1    1    2    0    0  0.80118321074E-01 -0.84895418471E+01  0.14191306022E+04  0.14191912291E+04  0.10000000000E+02 0.  1.
</event>
<event>
 5    1  0.1344348E-008  0.3735951E+03  0.7957747E-01  0.3479530E+00
         13   -1    0    0    0    0  0.00000000000E+00  0.00000000000E+00  0.14999999963E+04  0.15000000000E+04  0.10566000000E+00 0.  1.
        994   -1    0    0    0    0 -0.00000000000E+00 -0.00000000000E+00  0.11368683772E-12  0.17120000000E+03  0.17120000000E+03 0.  0.
         13    1    1    2    0    0  0.42986563658E+02  0.24047543545E+02  0.16418950754E+03  0.17141859454E+03  0.10566000000E+00 0.  1.
        994    1    1    2    0    0 -0.24988602144E+02 -0.81557472576E+01  0.97653968013E+01  0.17348126534E+03  0.17120000000E+03 0.  0.
        998    1    1    2    0    0 -0.17997961514E+02 -0.15891796288E+02  0.13260450919E+04  0.13263001401E+04  0.10000000000E+02 0.  1.
</event>
<event>
 5    1  0.1344348E-008  0.3805122E+03  0.7957747E-01  0.3448931E+00
         13   -1    0    0    0    0  0.00000000000E+00  0.00000000000E+00  0.14999999963E+04  0.15000000000E+04  0.10566000000E+00 0. -1.
        994   -1    0    0    0    0 -0.00000000000E+00 -0.00000000000E+00  0.11368683772E-12  0.17120000000E+03  0.17120000000E+03 0.  0.
         13    1    1    2    0    0 -0.31996762747E+02 -0.10907823106E+03  0.62551397855E+03  0.63575907532E+03  0.10566000000E+00 0. -1.
        994    1    1    2    0    0  0.25302569928E+02  0.13773384947E+03  0.72362802831E+02  0.23271581074E+03  0.17120000000E+03 0.  0.
        998    1    1    2    0    0  0.66941928193E+01 -0.28655618412E+02  0.80212321489E+03  0.80272511394E+03  0.10000000000E+02 0. -1.
</event>
<event>
 5    1  0.1344348E-008  0.3751086E+03  0.7957747E-01  0.3472737E+00
         13   -1    0    0    0    0  0.00000000000E+00  0.00000000000E+00  0.14999999963E+04  0.15000000000E+04  0.10566000000E+00 0.  1.
        994   -1    0    0    0    0 -0.00000000000E+00 -0.00000000000E+00  0.11368683772E-12  0.17120000000E+03  0.17120000000E+03 0.  0.
         13    1    1    2    0    0 -0.20445368665E+02  0.15818966774E+02  0.45558931128E+02  0.52382059708E+02  0.10566000000E+00 0.  1.
        994    1    1    2    0    0  0.29849513403E+02 -0.15383415837E+02  0.10464247716E+02  0.17477580901E+03  0.17120000000E+03 0.  0.
        998    1    1    2    0    0 -0.94041447383E+01 -0.43555093722E+00  0.14439768174E+04  0.14440421313E+04  0.10000000000E+02 0.  1.
</event>
<event>
 5    1  0.1344348E-008  0.3853743E+03  0.7957747E-01  0.3428086E+00
         13   -1    0    0    0    0  0.00000000000E+00  0.00000000000E+00  0.14999999963E+04  0.15000000000E+04  0.10566000000E+00 0. -1.
        994   -1    0    0    0    0 -0.00000000000E+00 -0.00000000000E+00  0.11368683772E-12  0.17120000000E+03  0.17120000000E+03 0.  0.
         13    1    1    2    0    0  0.15279031756E+00 -0.14021506180E+02  0.70275561022E+02  0.71660949069E+02  0.10566000000E+00 0. -1.
        994    1    1    2    0    0 -0.12868291087E+01  0.52117339553E+01  0.15390730853E+01  0.17129105886E+03  0.17120000000E+03 0.  0.
        998    1    1    2    0    0  0.11340387911E+01  0.88097722243E+01  0.14281853622E+04  0.14282479921E+04  0.10000000000E+02 0. -1.
</event>
<event>
 5    1  0.1344348E-008  0.3761986E+03  0.7957747E-01  0.3467879E+00
         13   -1    0    0    0    0  0.00000000000E+00  0.00000000000E+00  0.14999999963E+04  0.15000000000E+04  0.10566000000E+00 0.  1.
        994   -1    0    0    0    0 -0.00000000000E+00 -0.00000000000E+00  0.11368683772E-12  0.17120000000E+03  0.17120000000E+03 0.  0.
         13    1    1    2    0    0  0.12030377872E+02 -0.17541583166E+02  0.34219944921E+02  0.40292095083E+02  0.10566000000E+00 0.  1.
        994    1    1    2    0    0 -0.36725455892E+01  0.22602803564E+02  0.78417773657E+01  0.17290259626E+03  0.17120000000E+03 0.  0.
        998    1    1    2    0    0 -0.83578322829E+01 -0.50612203987E+01  0.14579382740E+04  0.14580053087E+04  0.10000000000E+02 0.  1.
</event>
<event>
 5    1  0.1344348E-008  0.3830304E+03  0.7957747E-01  0.3438069E+00
         13   -1    0    0    0    0  0.00000000000E+00  0.00000000000E+00  0.14999999963E+04  0.15000000000E+04  0.10566000000E+00 0. -1.
        994   -1    0    0    0    0 -0.00000000000E+00 -0.00000000000E+00  0.11368683772E-12  0.17120000000E+03  0.17120000000E+03 0.  0.
         13    1    1    2    0    0 -0.11812734872E+02 -0.17638685430E+02  0.82112957781E+02  0.84812811111E+02  0.10566000000E+00 0. -1.
        994    1    1    2    0    0  0.10177418569E+02  0.17985511798E+02  0.40259305310E+01  0.17248972897E+03  0.17120000000E+03 0.  0.
        998    1    1    2    0    0  0.16353163026E+01 -0.34682636800E+00  0.14138611080E+04  0.14138974599E+04  0.10000000000E+02 0. -1.
</event>
<event>
 5    1  0.1344348E-008  0.2304922E+03  0.7957747E-01  0.4564616E+00
         13   -1    0    0    0    0  0.00000000000E+00  0.00000000000E+00  0.14999999963E+04  0.15000000000E+04  0.10566000000E+00 0. -1.
        994   -1    0    0    0    0 -0.00000000000E+00 -0.00000000000E+00  0.11368683772E-12  0.17120000000E+03  0.17120000000E+03 0.  0.
         13    1    1    2    0    0  0.11637475829E+03 -0.10073502584E+03  0.12916899147E+03  0.20093598314E+03  0.10566000000E+00 0. -1.
        994    1    1    2    0    0 -0.11515936870E+03  0.10303788556E+03  0.21788733589E+03  0.31727404117E+03  0.17120000000E+03 0.  0.
        998    1    1    2    0    0 -0.12153895991E+01 -0.23028597173E+01  0.11529436689E+04  0.11529899757E+04  0.10000000000E+02 0. -1.
</event>
<event>
 5    1  0.1344348E-008  0.3853300E+03  0.7957747E-01  0.3428274E+00
         13   -1    0    0    0    0  0.00000000000E+00  0.00000000000E+00  0.14999999963E+04  0.15000000000E+04  0.10566000000E+00 0.  1.
        994   -1    0    0    0    0 -0.00000000000E+00 -0.00000000000E+00  0.11368683772E-12  0.17120000000E+03  0.17120000000E+03 0.  0.
         13    1    1    2    0    0  0.13696722511E+02 -0.29398136210E+01  0.73339842584E+02  0.74665831449E+02  0.10566000000E+00 0.  1.
        994    1    1    2    0    0  0.27371606776E+01 -0.18090037812E+01  0.15017467617E+01  0.17123802086E+03  0.17120000000E+03 0.  0.
        998    1    1    2    0    0 -0.16433883189E+02  0.47488174023E+01  0.14251584069E+04  0.14252961477E+04  0.10000000000E+02 0.  1.
</event>
<event>
 5    1  0.1344348E-008  0.3731332E+03  0.7957747E-01  0.3481614E+00
         13   -1    0    0    0    0  0.00000000000E+00  0.00000000000E+00  0.14999999963E+04  0.15000000000E+04  0.10566000000E+00 0. -1.
        994   -1    0    0    0    0 -0.00000000000E+00 -0.00000000000E+00  0.11368683772E-12  0.17120000000E+03  0.17120000000E+03 0.  0.
         13    1    1    2    0    0 -0.14358003153E+01 -0.16747990817E+02  0.56961729746E+01  0.17748641344E+02  0.10566000000E+00 0. -1.
        994    1    1    2    0    0 -0.87087334296E+01  0.40596713514E+01  0.12931648787E+02  0.17195636223E+03  0.17120000000E+03 0.  0.
        998    1    1    2    0    0  0.10144533745E+02  0.12688319466E+02  0.14813721745E+04  0.14814949964E+04  0.10000000000E+02 0. -1.
</event>
<event>
 5    1  0.1344348E-008  0.3696659E+03  0.7957747E-01  0.3497428E+00
         13   -1    0    0    0    0  0.00000000000E+00  0.00000000000E+00  0.14999999963E+04  0.15000000000E+04  0.10566000000E+00 0. -1.
        994   -1    0    0    0    0 -0.00000000000E+00 -0.00000000000E+00  0.11368683772E-12  0.17120000000E+03  0.17120000000E+03 0.  0.
         13    1    1    2    0    0  0.73780895803E+01  0.73532010091E+01  0.13124723765E+01  0.10499500879E+02  0.10566000000E+00 0. -1.
        994    1    1    2    0    0 -0.57115062898E+01 -0.87318763991E+01  0.98207647227E+01  0.17179858669E+03  0.17120000000E+03 0.  0.
        998    1    1    2    0    0 -0.16665832905E+01  0.13786753900E+01  0.14888667592E+04  0.14889019124E+04  0.10000000000E+02 0. -1.
</event>
<event>
 5    1  0.1344348E-008  0.3772706E+03  0.7957747E-01  0.3463130E+00
         13   -1    0    0    0    0  0.00000000000E+00  0.00000000000E+00  0.14999999963E+04  0.15000000000E+04  0.10566000000E+00 0. -1.
        994   -1    0    0    0    0 -0.00000000000E+00 -0.00000000000E+00  0.11368683772E-12  0.17120000000E+03  0.17120000000E+03 0.  0.
         13    1    1    2    0    0 -0.12136940423E+01  0.20776486212E+02  0.79618062898E+01  0.22283109208E+02  0.10566000000E+00 0. -1.
        994    1    1    2    0    0  0.30611488238E+01 -0.20747815688E+02  0.16415546062E+02  0.17325920651E+03  0.17120000000E+03 0.  0.
        998    1    1    2    0    0 -0.18474547815E+01 -0.28670523847E-01  0.14756226439E+04  0.14756576843E+04  0.10000000000E+02 0. -1.
</event>
<event>
 5    1  0.1344348E-008  0.3821391E+03  0.7957747E-01  0.3441897E+00
         13   -1    0    0    0    0  0.00000000000E+00  0.00000000000E+00  0.14999999963E+04  0.15000000000E+04  0.10566000000E+00 0. -1.
        994   -1    0    0    0    0 -0.00000000000E+00 -0.00000000000E+00  0.11368683772E-12  0.17120000000E+03  0.17120000000E+03 0.  0.
         13    1    1    2    0    0  0.60904367109E+01 -0.24782524000E+02  0.11490614335E+03  0.11770598905E+03  0.10566000000E+00 0. -1.
        994    1    1    2    0    0 -0.20677691632E+02 -0.22204228811E+01  0.44942008077E+01  0.17251705727E+03  0.17120000000E+03 0.  0.
        998    1    1    2    0    0  0.14587254921E+02  0.27002946881E+02  0.13805996521E+04  0.13809769537E+04  0.10000000000E+02 0. -1.
</event>
<event>
 5    1  0.1344348E-008  0.3751405E+03  0.7957747E-01  0.3472595E+00
         13   -1    0    0    0    0  0.00000000000E+00  0.00000000000E+00  0.14999999963E+04  0.15000000000E+04  0.10566000000E+00 0. -1.
        994   -1    0    0    0    0 -0.00000000000E+00 -0.00000000000E+00  0.11368683772E-12  0.17120000000E+03  0.17120000000E+03 0.  0.
         13    1    1    2    0    0  0.22900381202E+02  0.53008037428E+02  0.24799852020E+03  0.25463219883E+03  0.10566000000E+00 0. -1.
        994    1    1    2    0    0  0.55565428791E+01 -0.40516875923E+02  0.12310282143E+02  0.17644680629E+03  0.17120000000E+03 0.  0.
        998    1    1    2    0    0 -0.28456924081E+02 -0.12491161506E+02  0.12396911939E+04  0.12401209949E+04  0.10000000000E+02 0. -1.
</event>
<event>
 5    1  0.1344348E-008  0.3712949E+03  0.7957747E-01  0.3489961E+00
         13   -1    0    0    0    0  0.00000000000E+00  0.00000000000E+00  0.14999999963E+04  0.15000000000E+04  0.10566000000E+00 0.  1.
        994   -1    0    0    0    0 -0.00000000000E+00 -0.00000000000E+00  0.11368683772E-12  0.17120000000E+03  0.17120000000E+03 0.  0.
         13    1    1    2    0    0  0.83108480293E+02  0.60790688951E+02  0.43241548616E+03  0.44450612053E+03  0.10566000000E+00 0.  1.
        994    1    1    2    0    0 -0.68414273970E+02 -0.80887935522E+02  0.48279131765E+02  0.20703546933E+03  0.17120000000E+03 0.  0.
        998    1    1    2    0    0 -0.14694206323E+02  0.20097246571E+02  0.10193053784E+04  0.10196584101E+04  0.10000000000E+02 0.  1.
</event>
<event>
 5    1  0.1344348E-008  0.3708907E+03  0.7957747E-01  0.3491807E+00
         13   -1    0    0    0    0  0.00000000000E+00  0.00000000000E+00  0.14999999963E+04  0.15000000000E+04  0.10566000000E+00 0.  1.
        994   -1    0    0    0    0 -0.00000000000E+00 -0.00000000000E+00  0.11368683772E-12  0.17120000000E+03  0.17120000000E+03 0.  0.
         13    1    1    2    0    0  0.86348243512E+01 -0.59319426700E+02  0.18069143673E+03  0.19037531628E+03  0.10566000000E+00 0.  1.
        994    1    1    2    0    0 -0.21802646145E+02  0.54349852503E+02  0.20719480063E+02  0.18212083544E+03  0.17120000000E+03 0.  0.
        998    1    1    2    0    0  0.13167821794E+02  0.49695741968E+01  0.12985890795E+04  0.12987038483E+04  0.10000000000E+02 0.  1.
</event>
<event>
 5    1  0.1344348E-008  0.3752366E+03  0.7957747E-01  0.3472165E+00
         13   -1    0    0    0    0  0.00000000000E+00  0.00000000000E+00  0.14999999963E+04  0.15000000000E+04  0.10566000000E+00 0.  1.
        994   -1    0    0    0    0 -0.00000000000E+00 -0.00000000000E+00  0.11368683772E-12  0.17120000000E+03  0.17120000000E+03 0.  0.
         13    1    1    2    0    0  0.19262925403E+02 -0.25806462380E+01  0.25625021689E+02  0.32161668655E+02  0.10566000000E+00 0.  1.
        994    1    1    2    0    0 -0.21411739321E+02 -0.10008118801E+02  0.84569683316E+01  0.17303059075E+03  0.17120000000E+03 0.  0.
        998    1    1    2    0    0  0.21488139186E+01  0.12588765039E+02  0.14659180063E+04  0.14660077406E+04  0.10000000000E+02 0.  1.
</event>
<event>
 5    1  0.1344348E-008  0.3729424E+03  0.7957747E-01  0.3482476E+00
         13   -1    0    0    0    0  0.00000000000E+00  0.00000000000E+00  0.14999999963E+04  0.15000000000E+04  0.10566000000E+00 0.  1.
        994   -1    0    0    0    0 -0.00000000000E+00 -0.00000000000E+00  0.11368683772E-12  0.17120000000E+03  0.17120000000E+03 0.  0.
         13    1    1    2    0    0 -0.42939606742E+02 -0.56398763869E+02  0.28894800680E+03  0.29751570074E+03  0.10566000000E+00 0.  1.
        994    1    1    2    0    0  0.48061517546E+02  0.34975498456E+02  0.19931432028E+02  0.18231812017E+03  0.17120000000E+03 0.  0.
        998    1    1    2    0    0 -0.51219108042E+01  0.21423265412E+02  0.11911205575E+04  0.11913661791E+04  0.10000000000E+02 0.  1.
</event>
<event>
 5    1  0.1344348E-008  0.3816459E+03  0.7957747E-01  0.3444023E+00
         13   -1    0    0    0    0  0.00000000000E+00  0.00000000000E+00  0.14999999963E+04  0.15000000000E+04  0.10566000000E+00 0.  1.
        994   -1    0    0    0    0 -0.00000000000E+00 -0.00000000000E+00  0.11368683772E-12  0.17120000000E+03  0.17120000000E+03 0.  0.
         13    1    1    2    0    0 -0.38731665760E+01  0.11316089057E+02  0.19707577454E+02  0.23053309177E+02  0.10566000000E+00 0.  1.
        994    1    1    2    0    0  0.80760433961E+01 -0.17399568144E+02  0.45289732707E+01  0.17233084183E+03  0.17120000000E+03 0.  0.
        998    1    1    2    0    0 -0.42028768201E+01  0.60834790861E+01  0.14757634456E+04  0.14758158490E+04  0.10000000000E+02 0.  1.
</event>
<event>
 5    1  0.1344348E-008  0.3737026E+03  0.7957747E-01  0.3479046E+00
         13   -1    0    0    0    0  0.00000000000E+00  0.00000000000E+00  0.14999999963E+04  0.15000000000E+04  0.10566000000E+00 0.  1.
        994   -1    0    0    0    0 -0.00000000000E+00 -0.00000000000E+00  0.11368683772E-12  0.17120000000E+03  0.17120000000E+03 0.  0.
         13    1    1    2    0    0  0.47548176859E+02 -0.25971693256E+02  0.24840574241E+03  0.25424551520E+03  0.10566000000E+00 0.  1.
        994    1    1    2    0    0  0.14980438972E+02  0.23222341140E+02  0.99582442139E+01  0.17370174814E+03  0.17120000000E+03 0.  0.
        998    1    1    2    0    0 -0.62528615831E+02  0.27493521166E+01  0.12416360097E+04  0.12432527367E+04  0.10000000000E+02 0.  1.
</event>
<event>
 5    1  0.1344348E-008  0.3741474E+03  0.7957747E-01  0.3477045E+00
         13   -1    0    0    0    0  0.00000000000E+00  0.00000000000E+00  0.14999999963E+04  0.15000000000E+04  0.10566000000E+00 0. -1.
        994   -1    0    0    0    0 -0.00000000000E+00 -0.00000000000E+00  0.11368683772E-12  0.17120000000E+03  0.17120000000E+03 0.  0.
         13    1    1    2    0    0  0.17835868783E+02 -0.31587639664E+02  0.88012523400E+02  0.95195129256E+02  0.10566000000E+00 0. -1.
        994    1    1    2    0    0  0.11652969771E+02  0.38935965623E+02  0.12769104950E+02  0.17642077872E+03  0.17120000000E+03 0.  0.
        998    1    1    2    0    0 -0.29488838553E+02 -0.73483259590E+01  0.13992183679E+04  0.13995840920E+04  0.10000000000E+02 0. -1.
</event>
<event>
 5    1  0.1344348E-008  0.4053759E+03  0.7957747E-01  0.3347600E+00
         13   -1    0    0    0    0  0.00000000000E+00  0.00000000000E+00  0.14999999963E+04  0.15000000000E+04  0.10566000000E+00 0. -1.
        994   -1    0    0    0    0 -0.00000000000E+00 -0.00000000000E+00  0.11368683772E-12  0.17120000000E+03  0.17120000000E+03 0.  0.
         13    1    1    2    0    0 -0.12220896651E+03  0.73822826075E+01  0.19616813374E+03  0.23123900504E+03  0.10566000000E+00 0. -1.
        994    1    1    2    0    0  0.12575726959E+03 -0.10300026180E+02  0.98152428771E+02  0.23423134007E+03  0.17120000000E+03 0.  0.
        998    1    1    2    0    0 -0.35483030802E+01  0.29177435728E+01  0.12056794338E+04  0.12057296549E+04  0.10000000000E+02 0. -1.
</event>
<event>
 5    1  0.1344348E-008  0.3764861E+03  0.7957747E-01  0.3466603E+00
         13   -1    0    0    0    0  0.00000000000E+00  0.00000000000E+00  0.14999999963E+04  0.15000000000E+04  0.10566000000E+00 0.  1.
        994   -1    0    0    0    0 -0.00000000000E+00 -0.00000000000E+00  0.11368683772E-12  0.17120000000E+03  0.17120000000E+03 0.  0.
         13    1    1    2    0    0 -0.31439094321E+02 -0.99329834658E+02  0.56328237394E+03  0.57283669284E+03  0.10566000000E+00 0.  1.
        994    1    1    2    0    0  0.22006735360E+02  0.10172358860E+03  0.43480264528E+02  0.20501697072E+03  0.17120000000E+03 0.  0.
        998    1    1    2    0    0  0.94323589612E+01 -0.23937539399E+01  0.89323735781E+03  0.89334633645E+03  0.10000000000E+02 0.  1.
</event>
<event>
 5    1  0.1344348E-008  0.3843529E+03  0.7957747E-01  0.3432421E+00
         13   -1    0    0    0    0  0.00000000000E+00  0.00000000000E+00  0.14999999963E+04  0.15000000000E+04  0.10566000000E+00 0.  1.
        994   -1    0    0    0    0 -0.00000000000E+00 -0.00000000000E+00  0.11368683772E-12  0.17120000000E+03  0.17120000000E+03 0.  0.
         13    1    1    2    0    0 -0.78614957790E+01  0.74369446681E+01  0.29417095191E+02  0.31344663268E+02  0.10566000000E+00 0.  1.
        994    1    1    2    0    0  0.80550143029E+01 -0.35428252522E+01  0.22070017387E+01  0.17144021034E+03  0.17120000000E+03 0.  0.
        998    1    1    2    0    0 -0.19351852389E+00 -0.38941194160E+01  0.14683758993E+04  0.14684151264E+04  0.10000000000E+02 0.  1.
</event>
<event>
 5    1  0.1344348E-008  0.3834165E+03  0.7957747E-01  0.3436416E+00
         13   -1    0    0    0    0  0.00000000000E+00  0.00000000000E+00  0.14999999963E+04  0.15000000000E+04  0.10566000000E+00 0.  1.
        994   -1    0    0    0    0 -0.00000000000E+00 -0.00000000000E+00  0.11368683772E-12  0.17120000000E+03  0.17120000000E+03 0.  0.
         13    1    1    2    0    0  0.18520749188E+01  0.18817026885E+02  0.86708448148E+02  0.88746136967E+02  0.10566000000E+00 0.  1.
        994    1    1    2    0    0 -0.11489203234E+02  0.15768787386E+02  0.36776930589E+01  0.17234738719E+03  0.17120000000E+03 0.  0.
        998    1    1    2    0    0  0.96371283150E+01 -0.34585814271E+02  0.14096138551E+04  0.14101064758E+04  0.10000000000E+02 0.  1.
</event>
<event>
 5    1  0.1344348E-008  0.3689903E+03  0.7957747E-01  0.3500544E+00
         13   -1    0    0    0    0  0.00000000000E+00  0.00000000000E+00  0.14999999963E+04  0.15000000000E+04  0.10566000000E+00 0. -1.
        994   -1    0    0    0    0 -0.00000000000E+00 -0.00000000000E+00  0.11368683772E-12  0.17120000000E+03  0.17120000000E+03 0.  0.
         13    1    1    2    0    0  0.10284563949E+03  0.73844358804E+02  0.69592979343E+03  0.70735316741E+03  0.10566000000E+00 0. -1.
        994    1    1    2    0    0 -0.56239944652E+02 -0.68098062197E+02  0.38096242087E+02  0.19636965425E+03  0.17120000000E+03 0.  0.
        998    1    1    2    0    0 -0.46605694835E+02 -0.57462966065E+01  0.76597396076E+03  0.76747717834E+03  0.10000000000E+02 0. -1.
</event>
<event>
 5    1  0.1344348E-008  0.3820107E+03  0.7957747E-01  0.3442450E+00
         13   -1    0    0    0    0  0.00000000000E+00  0.00000000000E+00  0.14999999963E+04  0.15000000000E+04  0.10566000000E+00 0. -1.
        994   -1    0    0    0    0 -0.00000000000E+00 -0.00000000000E+00  0.11368683772E-12  0.17120000000E+03  0.17120000000E+03 0.  0.
         13    1    1    2    0    0 -0.28997305762E+02 -0.11413826753E+02  0.16460675544E+03  0.16753063685E+03  0.10566000000E+00 0. -1.
        994    1    1    2    0    0  0.89460594012E+01  0.48641912072E+01  0.34660266489E+01  0.17153759260E+03  0.17120000000E+03 0.  0.
        998    1    1    2    0    0  0.20051246361E+02  0.65496355461E+01  0.13319272142E+04  0.13321317705E+04  0.10000000000E+02 0. -1.
</event>
<event>
 5    1  0.1344348E-008  0.3851658E+03  0.7957747E-01  0.3428969E+00
         13   -1    0    0    0    0  0.00000000000E+00  0.00000000000E+00  0.14999999963E+04  0.15000000000E+04  0.10566000000E+00 0.  1.
        994   -1    0    0    0    0 -0.00000000000E+00 -0.00000000000E+00  0.11368683772E-12  0.17120000000E+03  0.17120000000E+03 0.  0.
         13    1    1    2    0    0  0.12538144247E+02  0.14088251986E+02  0.10620293293E+03  0.10786453556E+03  0.10566000000E+00 0.  1.
        994    1    1    2    0    0 -0.20533340877E+02 -0.11023440196E+02  0.33350809627E+01  0.17281116019E+03  0.17120000000E+03 0.  0.
        998    1    1    2    0    0  0.79951966301E+01 -0.30648117903E+01  0.13904619824E+04  0.13905243042E+04  0.10000000000E+02 0.  1.
</event>
<event>
 5    1  0.1344348E-008  0.3788191E+03  0.7957747E-01  0.3456316E+00
         13   -1    0    0    0    0  0.00000000000E+00  0.00000000000E+00  0.14999999963E+04  0.15000000000E+04  0.10566000000E+00 0.  1.
        994   -1    0    0    0    0 -0.00000000000E+00 -0.00000000000E+00  0.11368683772E-12  0.17120000000E+03  0.17120000000E+03 0.  0.
         13    1    1    2    0    0  0.18519118763E+02 -0.70209424722E+01  0.42271596096E+02  0.46681370947E+02  0.10566000000E+00 0.  1.
        994    1    1    2    0    0  0.41365928060E+01 -0.68667223485E+01  0.49461327586E+01  0.17145893825E+03  0.17120000000E+03 0.  0.
        998    1    1    2    0    0 -0.22655711569E+02  0.13887664821E+02  0.14527822674E+04  0.14530596908E+04  0.10000000000E+02 0.  1.
</event>
<event>
 5    1  0.1344348E-008  0.3794727E+03  0.7957747E-01  0.3453458E+00
         13   -1    0    0    0    0  0.00000000000E+00  0.00000000000E+00  0.14999999963E+04  0.15000000000E+04  0.10566000000E+00 0.  1.
        994   -1    0    0    0    0 -0.00000000000E+00 -0.00000000000E+00  0.11368683772E-12  0.17120000000E+03  0.17120000000E+03 0.  0.
         13    1    1    2    0    0 -0.19792723503E+02 -0.17867557693E+02  0.80618473710E+02  0.84913785623E+02  0.10566000000E+00 0.  1.
        994    1    1    2    0    0  0.33246938286E+01  0.15439108307E+02  0.52352214533E+01  0.17200659057E+03  0.17120000000E+03 0.  0.
        998    1    1    2    0    0  0.16468029674E+02  0.24284493863E+01  0.14141463011E+04  0.14142796238E+04  0.10000000000E+02 0.  1.
</event>
<event>
 5    1  0.1344348E-008  0.3776660E+03  0.7957747E-01  0.3461385E+00
         13   -1    0    0    0    0  0.00000000000E+00  0.00000000000E+00  0.14999999963E+04  0.15000000000E+04  0.10566000000E+00 0.  1.
        994   -1    0    0    0    0 -0.00000000000E+00 -0.00000000000E+00  0.11368683772E-12  0.17120000000E+03  0.17120000000E+03 0.  0.
         13    1    1    2    0    0 -0.25931704710E+02  0.77556962924E+01  0.70519779811E+02  0.75535783856E+02  0.10566000000E+00 0.  1.
        994    1    1    2    0    0  0.67402499940E+01  0.86562026632E+01  0.57215788604E+01  0.17164654753E+03  0.17120000000E+03 0.  0.
        998    1    1    2    0    0  0.19191454716E+02 -0.16411898956E+02  0.14237586376E+04  0.14240176686E+04  0.10000000000E+02 0.  1.
</event>
<event>
 5    1  0.1344348E-008  0.3733090E+03  0.7957747E-01  0.3480820E+00
         13   -1    0    0    0    0  0.00000000000E+00  0.00000000000E+00  0.14999999963E+04  0.15000000000E+04  0.10566000000E+00 0. -1.
        994   -1    0    0    0    0 -0.00000000000E+00 -0.00000000000E+00  0.11368683772E-12  0.17120000000E+03  0.17120000000E+03 0.  0.
         13    1    1    2    0    0 -0.16171019186E+02  0.34886930218E+02  0.90512134201E+02  0.98341534273E+02  0.10566000000E+00 0. -1.
        994    1    1    2    0    0  0.23492842596E+02 -0.29978884596E+02  0.12525212276E+02  0.17583221581E+03  0.17120000000E+03 0.  0.
        998    1    1    2    0    0 -0.73218234105E+01 -0.49080456224E+01  0.13969626498E+04  0.13970262499E+04  0.10000000000E+02 0. -1.
</event>
<event>
 5    1  0.1344348E-008  0.3769509E+03  0.7957747E-01  0.3464544E+00
         13   -1    0    0    0    0  0.00000000000E+00  0.00000000000E+00  0.14999999963E+04  0.15000000000E+04  0.10566000000E+00 0.  1.
        994   -1    0    0    0    0 -0.00000000000E+00 -0.00000000000E+00  0.11368683772E-12  0.17120000000E+03  0.17120000000E+03 0.  0.
         13    1    1    2    0    0 -0.88789035217E+01 -0.33680669670E+02  0.10983864351E+03  0.11522916823E+03  0.10566000000E+00 0.  1.
        994    1    1    2    0    0 -0.25996530815E+01  0.12240615452E+02  0.62092930801E+01  0.17176899075E+03  0.17120000000E+03 0.  0.
        998    1    1    2    0    0  0.11478556603E+02  0.21440054219E+02  0.13839520597E+04  0.13842018410E+04  0.10000000000E+02 0.  1.
</event>
<event>
 5    1  0.2575132E-008  0.3864636E+03  0.7957747E-01  0.3423489E+00
         13   -1    0    0    0    0  0.00000000000E+00  0.00000000000E+00  0.14999999963E+04  0.15000000000E+04  0.10566000000E+00 0. -1.
        994   -1    0    0    0    0 -0.00000000000E+00 -0.00000000000E+00  0.11368683772E-12  0.17120000000E+03  0.17120000000E+03 0.  0.
         13    1    1    2    0    0 -0.86187747316E+01  0.60318589205E+01  0.60444458456E+02  0.61353160652E+02  0.10566000000E+00 0. -1.
        994    1    1    2    0    0  0.87387625894E+01 -0.67331523898E+01  0.13036595596E+01  0.17156002110E+03  0.17120000000E+03 0.  0.
        998    1    1    2    0    0 -0.11998785785E+00  0.70129346932E+00  0.14382518783E+04  0.14382868182E+04  0.10000000000E+02 0.  0.
</event>
<event>
 5    1  0.1344348E-008  0.3815878E+03  0.7957747E-01  0.3444274E+00
         13   -1    0    0    0    0  0.00000000000E+00  0.00000000000E+00  0.14999999963E+04  0.15000000000E+04  0.10566000000E+00 0. -1.
        994   -1    0    0    0    0 -0.00000000000E+00 -0.00000000000E+00  0.11368683772E-12  0.17120000000E+03  0.17120000000E+03 0.  0.
         13    1    1    2    0    0  0.15472101443E+02 -0.78265962863E+01  0.40911941706E+02  0.44434667442E+02  0.10566000000E+00 0. -1.
        994    1    1    2    0    0 -0.28510602948E+02  0.10813074645E+02  0.64319017112E+01  0.17401317888E+03  0.17120000000E+03 0.  0.
        998    1    1    2    0    0  0.13038501505E+02 -0.29864783582E+01  0.14526561529E+04  0.14527521537E+04  0.10000000000E+02 0. -1.
</event>
<event>
 5    1  0.1344348E-008  0.3759060E+03  0.7957747E-01  0.3469181E+00
         13   -1    0    0    0    0  0.00000000000E+00  0.00000000000E+00  0.14999999963E+04  0.15000000000E+04  0.10566000000E+00 0.  1.
        994   -1    0    0    0    0 -0.00000000000E+00 -0.00000000000E+00  0.11368683772E-12  0.17120000000E+03  0.17120000000E+03 0.  0.
         13    1    1    2    0    0 -0.46888485040E+02  0.17410665864E+02  0.91464248060E+02  0.10424673209E+03  0.10566000000E+00 0.  1.
        994    1    1    2    0    0  0.47780992976E+01 -0.29799282671E+01  0.14209671205E+02  0.17188096160E+03  0.17120000000E+03 0.  0.
        998    1    1    2    0    0  0.42110385742E+02 -0.14430737597E+02  0.13943260770E+04  0.13950723063E+04  0.10000000000E+02 0.  1.
</event>
<event>
 5    1  0.1344348E-008  0.3920073E+03  0.7957747E-01  0.3400487E+00
         13   -1    0    0    0    0  0.00000000000E+00  0.00000000000E+00  0.14999999963E+04  0.15000000000E+04  0.10566000000E+00 0.  1.
        994   -1    0    0    0    0 -0.00000000000E+00 -0.00000000000E+00  0.11368683772E-12  0.17120000000E+03  0.17120000000E+03 0.  0.
         13    1    1    2    0    0  0.56405602191E+02  0.41294812925E+02  0.97355936065E+02  0.11985425726E+03  0.10566000000E+00 0.  1.
        994    1    1    2    0    0 -0.22384104768E+02 -0.58219146213E+02  0.37990885150E+02  0.18612701171E+03  0.17120000000E+03 0.  0.
        998    1    1    2    0    0 -0.34021497424E+02  0.16924333288E+02  0.13646531751E+04  0.13652187310E+04  0.10000000000E+02 0.  1.
</event>
<event>
 5    1  0.1344348E-008  0.3862104E+03  0.7957747E-01  0.3424555E+00
         13   -1    0    0    0    0  0.00000000000E+00  0.00000000000E+00  0.14999999963E+04  0.15000000000E+04  0.10566000000E+00 0.  1.
        994   -1    0    0    0    0 -0.00000000000E+00 -0.00000000000E+00  0.11368683772E-12  0.17120000000E+03  0.17120000000E+03 0.  0.
         13    1    1    2    0    0 -0.10203961592E+03 -0.77612134013E+02  0.36996845483E+03  0.39155126778E+03  0.10566000000E+00 0.  1.
        994    1    1    2    0    0  0.50598083560E+02  0.92081305666E+02  0.61979926335E+02  0.21021437672E+03  0.17120000000E+03 0.  0.
        998    1    1    2    0    0  0.51441532355E+02 -0.14469171654E+02  0.10680516151E+04  0.10694343555E+04  0.10000000000E+02 0.  1.
</event>
<event>
 5    1  0.1344348E-008  0.3816545E+03  0.7957747E-01  0.3443986E+00
         13   -1    0    0    0    0  0.00000000000E+00  0.00000000000E+00  0.14999999963E+04  0.15000000000E+04  0.10566000000E+00 0. -1.
        994   -1    0    0    0    0 -0.00000000000E+00 -0.00000000000E+00  0.11368683772E-12  0.17120000000E+03  0.17120000000E+03 0.  0.
         13    1    1    2    0    0  0.73408973362E+01  0.14357032567E+02  0.37670970036E+02  0.40977143694E+02  0.10566000000E+00 0. -1.
        994    1    1    2    0    0 -0.10712551062E+02 -0.10940012856E+02  0.40801180109E+01  0.17193175970E+03  0.17120000000E+03 0.  0.
        998    1    1    2    0    0  0.33716537253E+01 -0.34170197108E+01  0.14582489082E+04  0.14582910966E+04  0.10000000000E+02 0. -1.
</event>
<event>
 5    1  0.1344348E-008  0.3846026E+03  0.7957747E-01  0.3431359E+00
         13   -1    0    0    0    0  0.00000000000E+00  0.00000000000E+00  0.14999999963E+04  0.15000000000E+04  0.10566000000E+00 0.  1.
        994   -1    0    0    0    0 -0.00000000000E+00 -0.00000000000E+00  0.11368683772E-12  0.17120000000E+03  0.17120000000E+03 0.  0.
         13    1    1    2    0    0  0.12698524431E+02 -0.31876828212E+01  0.46308350306E+02  0.48123677297E+02  0.10566000000E+00 0.  1.
        994    1    1    2    0    0 -0.10201056069E+02  0.11472143991E+01  0.21746239152E+01  0.17152127167E+03  0.17120000000E+03 0.  0.
        998    1    1    2    0    0 -0.24974683622E+01  0.20404684221E+01  0.14515170221E+04  0.14515550510E+04  0.10000000000E+02 0.  1.
</event>
<event>
 5    1  0.1344348E-008  0.3794060E+03  0.7957747E-01  0.3453749E+00
         13   -1    0    0    0    0  0.00000000000E+00  0.00000000000E+00  0.14999999963E+04  0.15000000000E+04  0.10566000000E+00 0.  1.
        994   -1    0    0    0    0 -0.00000000000E+00 -0.00000000000E+00  0.11368683772E-12  0.17120000000E+03  0.17120000000E+03 0.  0.
         13    1    1    2    0    0 -0.39298392582E+01 -0.24223460230E+02  0.65633878855E+02  0.70071655323E+02  0.10566000000E+00 0.  1.
        994    1    1    2    0    0  0.13521079361E+02  0.16121080018E+02  0.59175404120E+01  0.17258958860E+03  0.17120000000E+03 0.  0.
        998    1    1    2    0    0 -0.95912401024E+01  0.81023802122E+01  0.14284485770E+04  0.14285387561E+04  0.10000000000E+02 0.  1.
</event>
<event>
 5    1  0.1344348E-008  0.3817785E+03  0.7957747E-01  0.3443451E+00
         13   -1    0    0    0    0  0.00000000000E+00  0.00000000000E+00  0.14999999963E+04  0.15000000000E+04  0.10566000000E+00 0. -1.
        994   -1    0    0    0    0 -0.00000000000E+00 -0.00000000000E+00  0.11368683772E-12  0.17120000000E+03  0.17120000000E+03 0.  0.
         13    1    1    2    0    0 -0.17417093909E+02  0.49745922984E+01  0.48536481037E+02  0.51806398102E+02  0.10566000000E+00 0. -1.
        994    1    1    2    0    0  0.16863584522E+02 -0.25668076135E+01  0.42056590614E+01  0.17209908934E+03  0.17120000000E+03 0.  0.
        998    1    1    2    0    0  0.55350938723E+00 -0.24077846848E+01  0.14472578562E+04  0.14472945126E+04  0.10000000000E+02 0. -1.
</event>
<event>
 5    1  0.1344348E-008  0.3846974E+03  0.7957747E-01  0.3430956E+00
         13   -1    0    0    0    0  0.00000000000E+00  0.00000000000E+00  0.14999999963E+04  0.15000000000E+04  0.10566000000E+00 0. -1.
        994   -1    0    0    0    0 -0.00000000000E+00 -0.00000000000E+00  0.11368683772E-12  0.17120000000E+03  0.17120000000E+03 0.  0.
         13    1    1    2    0    0  0.64392917506E+01  0.12382494442E+02  0.56592365956E+02  0.58288057914E+02  0.10566000000E+00 0. -1.
        994    1    1    2    0    0 -0.83404661210E+01  0.11420594845E+01  0.20137546682E+01  0.17141867717E+03  0.17120000000E+03 0.  0.
        998    1    1    2    0    0  0.19011743704E+01 -0.13524553926E+02  0.14413938757E+04  0.14414932649E+04  0.10000000000E+02 0. -1.
</event>
<event>
 5    1  0.1344348E-008  0.3813682E+03  0.7957747E-01  0.3445223E+00
         13   -1    0    0    0    0  0.00000000000E+00  0.00000000000E+00  0.14999999963E+04  0.15000000000E+04  0.10566000000E+00 0. -1.
        994   -1    0    0    0    0 -0.00000000000E+00 -0.00000000000E+00  0.11368683772E-12  0.17120000000E+03  0.17120000000E+03 0.  0.
         13    1    1    2    0    0  0.50599728787E+01 -0.15847342165E+02  0.37762193248E+02  0.41264221575E+02  0.10566000000E+00 0. -1.
        994    1    1    2    0    0 -0.19476852618E+02  0.14278195649E+02  0.53873582274E+01  0.17297883769E+03  0.17120000000E+03 0.  0.
        998    1    1    2    0    0  0.14416879740E+02  0.15691465157E+01  0.14568504448E+04  0.14569569407E+04  0.10000000000E+02 0. -1.
</event>
<event>
 5    1  0.1344348E-008  0.3831215E+03  0.7957747E-01  0.3437678E+00
         13   -1    0    0    0    0  0.00000000000E+00  0.00000000000E+00  0.14999999963E+04  0.15000000000E+04  0.10566000000E+00 0.  1.
        994   -1    0    0    0    0 -0.00000000000E+00 -0.00000000000E+00  0.11368683772E-12  0.17120000000E+03  0.17120000000E+03 0.  0.
         13    1    1    2    0    0 -0.72701740030E+01  0.98536803765E+01  0.28413052799E+02  0.30939670011E+02  0.10566000000E+00 0.  1.
        994    1    1    2    0    0  0.94027393957E+01 -0.28123471038E+01  0.28844206232E+01  0.17150533720E+03  0.17120000000E+03 0.  0.
        998    1    1    2    0    0 -0.21325653928E+01 -0.70413332727E+01  0.14687025229E+04  0.14687549928E+04  0.10000000000E+02 0.  1.
</event>
<event>
 5    1  0.1344348E-008  0.3855973E+03  0.7957747E-01  0.3427143E+00
         13   -1    0    0    0    0  0.00000000000E+00  0.00000000000E+00  0.14999999963E+04  0.15000000000E+04  0.10566000000E+00 0. -1.
        994   -1    0    0    0    0 -0.00000000000E+00 -0.00000000000E+00  0.11368683772E-12  0.17120000000E+03  0.17120000000E+03 0.  0.
         13    1    1    2    0    0 -0.93355017493E+01  0.78909794170E+01  0.57981609839E+02  0.59256201301E+02  0.10566000000E+00 0. -1.
        994    1    1    2    0    0 -0.26458855631E-01 -0.60356462815E+01  0.14534382711E+01  0.17131252788E+03  0.17120000000E+03 0.  0.
        998    1    1    2    0    0  0.93619606049E+01 -0.18553331355E+01  0.14405649482E+04  0.14406312708E+04  0.10000000000E+02 0. -1.
</event>
<event>
 5    1  0.1344348E-008  0.3862060E+03  0.7957747E-01  0.3424573E+00
         13   -1    0    0    0    0  0.00000000000E+00  0.00000000000E+00  0.14999999963E+04  0.15000000000E+04  0.10566000000E+00 0. -1.
        994   -1    0    0    0    0 -0.00000000000E+00 -0.00000000000E+00  0.11368683772E-12  0.17120000000E+03  0.17120000000E+03 0.  0.
         13    1    1    2    0    0  0.10238054896E+02  0.71393901646E+01  0.72495027126E+02  0.73561734495E+02  0.10566000000E+00 0. -1.
        994    1    1    2    0    0 -0.14631520822E+02 -0.50913370415E+01  0.18191545132E+01  0.17190914006E+03  0.17120000000E+03 0.  0.
        998    1    1    2    0    0  0.43934659263E+01 -0.20480531231E+01  0.14256858146E+04  0.14257291254E+04  0.10000000000E+02 0. -1.
</event>
<event>
 5    1  0.1344348E-008  0.3855952E+03  0.7957747E-01  0.3427152E+00
         13   -1    0    0    0    0  0.00000000000E+00  0.00000000000E+00  0.14999999963E+04  0.15000000000E+04  0.10566000000E+00 0.  1.
        994   -1    0    0    0    0 -0.00000000000E+00 -0.00000000000E+00  0.11368683772E-12  0.17120000000E+03  0.17120000000E+03 0.  0.
         13    1    1    2    0    0 -0.10569622376E+02  0.10512855321E+01  0.41235716525E+02  0.42581892863E+02  0.10566000000E+00 0.  1.
        994    1    1    2    0    0  0.11675554509E+02 -0.85947395159E+01  0.20251511520E+01  0.17182470532E+03  0.17120000000E+03 0.  0.
        998    1    1    2    0    0 -0.11059321336E+01  0.75434539838E+01  0.14567391286E+04  0.14567934018E+04  0.10000000000E+02 0.  1.
</event>
<event>
 5    1  0.1344348E-008  0.3821651E+03  0.7957747E-01  0.3441785E+00
         13   -1    0    0    0    0  0.00000000000E+00  0.00000000000E+00  0.14999999963E+04  0.15000000000E+04  0.10566000000E+00 0.  1.
        994   -1    0    0    0    0 -0.00000000000E+00 -0.00000000000E+00  0.11368683772E-12  0.17120000000E+03  0.17120000000E+03 0.  0.
         13    1    1    2    0    0 -0.10187539311E+02 -0.10941166467E+00  0.16187011987E+02  0.19126642393E+02  0.10566000000E+00 0.  1.
        994    1    1    2    0    0 -0.12530577768E+01 -0.96378682957E+00  0.30524838118E+01  0.17123450790E+03  0.17120000000E+03 0.  0.
        998    1    1    2    0    0  0.11440597087E+02  0.10731984942E+01  0.14807605005E+04  0.14808388497E+04  0.10000000000E+02 0.  1.
</event>
<event>
 5    1  0.1344348E-008  0.3811136E+03  0.7957747E-01  0.3446324E+00
         13   -1    0    0    0    0  0.00000000000E+00  0.00000000000E+00  0.14999999963E+04  0.15000000000E+04  0.10566000000E+00 0. -1.
        994   -1    0    0    0    0 -0.00000000000E+00 -0.00000000000E+00  0.11368683772E-12  0.17120000000E+03  0.17120000000E+03 0.  0.
         13    1    1    2    0    0  0.65699887209E+01 -0.15532593663E+02  0.38103099887E+02  0.41668736515E+02  0.10566000000E+00 0. -1.
        994    1    1    2    0    0 -0.93740139419E+01  0.11336953672E+02  0.42931367792E+01  0.17188446608E+03  0.17120000000E+03 0.  0.
        998    1    1    2    0    0  0.28040252210E+01  0.41956399903E+01  0.14576037596E+04  0.14576467974E+04  0.10000000000E+02 0. -1.
</event>
<event>
 5    1  0.1344348E-008  0.3831736E+03  0.7957747E-01  0.3437455E+00
         13   -1    0    0    0    0  0.00000000000E+00  0.00000000000E+00  0.14999999963E+04  0.15000000000E+04  0.10566000000E+00 0. -1.
        994   -1    0    0    0    0 -0.00000000000E+00 -0.00000000000E+00  0.11368683772E-12  0.17120000000E+03  0.17120000000E+03 0.  0.
         13    1    1    2    0    0 -0.92031258536E+01  0.13154314794E+02  0.49501934018E+02  0.52040235960E+02  0.10566000000E+00 0. -1.
        994    1    1    2    0    0 -0.55354841589E+01 -0.19690992329E+02  0.39249426174E+01  0.17246223337E+03  0.17120000000E+03 0.  0.
        998    1    1    2    0    0  0.14738610013E+02  0.65366775352E+01  0.14465731196E+04  0.14466975307E+04  0.10000000000E+02 0. -1.
</event>
<event>
 5    1  0.1344348E-008  0.3780162E+03  0.7957747E-01  0.3459842E+00
         13   -1    0    0    0    0  0.00000000000E+00  0.00000000000E+00  0.14999999963E+04  0.15000000000E+04  0.10566000000E+00 0.  1.
        994   -1    0    0    0    0 -0.00000000000E+00 -0.00000000000E+00  0.11368683772E-12  0.17120000000E+03  0.17120000000E+03 0.  0.
         13    1    1    2    0    0 -0.37540194832E+02  0.87937663048E+01  0.41790522588E+02  0.56859963912E+02  0.10566000000E+00 0.  1.
        994    1    1    2    0    0  0.38489779286E+02 -0.30255848837E+01  0.20623121732E+02  0.17670701860E+03  0.17120000000E+03 0.  0.
        998    1    1    2    0    0 -0.94958445386E+00 -0.57681814211E+01  0.14375863520E+04  0.14376330175E+04  0.10000000000E+02 0.  1.
</event>
<event>
 5    1  0.1344348E-008  0.3689789E+03  0.7957747E-01  0.3500597E+00
         13   -1    0    0    0    0  0.00000000000E+00  0.00000000000E+00  0.14999999963E+04  0.15000000000E+04  0.10566000000E+00 0. -1.
        994   -1    0    0    0    0 -0.00000000000E+00 -0.00000000000E+00  0.11368683772E-12  0.17120000000E+03  0.17120000000E+03 0.  0.
         13    1    1    2    0    0 -0.40006842405E+02  0.57521096699E+02  0.23280316966E+03  0.24311838880E+03  0.10566000000E+00 0. -1.
        994    1    1    2    0    0  0.15827145679E+02 -0.52504386676E+02  0.20312032636E+02  0.18091221029E+03  0.17120000000E+03 0.  0.
        998    1    1    2    0    0  0.24179696727E+02 -0.50167100227E+01  0.12468847940E+04  0.12471694009E+04  0.10000000000E+02 0. -1.
</event>
<event>
 5    1  0.1344348E-008  0.3729326E+03  0.7957747E-01  0.3482521E+00
         13   -1    0    0    0    0  0.00000000000E+00  0.00000000000E+00  0.14999999963E+04  0.15000000000E+04  0.10566000000E+00 0.  1.
        994   -1    0    0    0    0 -0.00000000000E+00 -0.00000000000E+00  0.11368683772E-12  0.17120000000E+03  0.17120000000E+03 0.  0.
         13    1    1    2    0    0  0.42770399801E+02 -0.16325222693E+02  0.13946197273E+03  0.14678376271E+03  0.10566000000E+00 0.  1.
        994    1    1    2    0    0 -0.26453633485E+02 -0.20721883801E+02  0.11619315456E+02  0.17485319466E+03  0.17120000000E+03 0.  0.
        998    1    1    2    0    0 -0.16316766316E+02  0.37047106494E+02  0.13489187081E+04  0.13495630426E+04  0.10000000000E+02 0.  1.
</event>
<event>
 5    1  0.1344348E-008  0.3799440E+03  0.7957747E-01  0.3451402E+00
         13   -1    0    0    0    0  0.00000000000E+00  0.00000000000E+00  0.14999999963E+04  0.15000000000E+04  0.10566000000E+00 0. -1.
        994   -1    0    0    0    0 -0.00000000000E+00 -0.00000000000E+00  0.11368683772E-12  0.17120000000E+03  0.17120000000E+03 0.  0.
         13    1    1    2    0    0  0.16787270254E+02  0.32313150066E+02  0.15795580442E+03  0.16209873357E+03  0.10566000000E+00 0. -1.
        994    1    1    2    0    0 -0.18364568768E+02 -0.14561416155E+02  0.60001396948E+01  0.17290093667E+03  0.17120000000E+03 0.  0.
        998    1    1    2    0    0  0.15772985145E+01 -0.17751733910E+02  0.13360440522E+04  0.13362003298E+04  0.10000000000E+02 0. -1.
</event>
<event>
 5    1  0.1344348E-008  0.3744953E+03  0.7957747E-01  0.3475483E+00
         13   -1    0    0    0    0  0.00000000000E+00  0.00000000000E+00  0.14999999963E+04  0.15000000000E+04  0.10566000000E+00 0.  1.
        994   -1    0    0    0    0 -0.00000000000E+00 -0.00000000000E+00  0.11368683772E-12  0.17120000000E+03  0.17120000000E+03 0.  0.
         13    1    1    2    0    0 -0.24837247433E+02 -0.11371642834E+02  0.57990731118E+02  0.64102567659E+02  0.10566000000E+00 0.  1.
        994    1    1    2    0    0 -0.17996876976E+02 -0.99947603812E+01  0.83824575716E+01  0.17263686863E+03  0.17120000000E+03 0.  0.
        998    1    1    2    0    0  0.42834124409E+02  0.21366403215E+02  0.14336268076E+04  0.14344605637E+04  0.10000000000E+02 0.  1.
</event>
<event>
 5    1  0.1344348E-008  0.3766843E+03  0.7957747E-01  0.3465724E+00
         13   -1    0    0    0    0  0.00000000000E+00  0.00000000000E+00  0.14999999963E+04  0.15000000000E+04  0.10566000000E+00 0. -1.
        994   -1    0    0    0    0 -0.00000000000E+00 -0.00000000000E+00  0.11368683772E-12  0.17120000000E+03  0.17120000000E+03 0.  0.
         13    1    1    2    0    0  0.83075386083E+02 -0.21212207050E+02  0.39171787936E+03  0.40099175263E+03  0.10566000000E+00 0. -1.
        994    1    1    2    0    0 -0.10560377951E+03  0.46951003906E+01  0.44570526431E+02  0.20608293001E+03  0.17120000000E+03 0.  0.
        998    1    1    2    0    0  0.22528393424E+02  0.16517106659E+02  0.10637115905E+04  0.10641253174E+04  0.10000000000E+02 0. -1.
</event>
<event>
 5    1  0.1344348E-008  0.3791284E+03  0.7957747E-01  0.3454963E+00
         13   -1    0    0    0    0  0.00000000000E+00  0.00000000000E+00  0.14999999963E+04  0.15000000000E+04  0.10566000000E+00 0. -1.
        994   -1    0    0    0    0 -0.00000000000E+00 -0.00000000000E+00  0.11368683772E-12  0.17120000000E+03  0.17120000000E+03 0.  0.
         13    1    1    2    0    0 -0.43698539560E+02 -0.13024496976E+02  0.19196953271E+03  0.19731070051E+03  0.10566000000E+00 0. -1.
        994    1    1    2    0    0  0.48059167969E+02  0.15061977506E+02  0.13125182659E+02  0.17893646138E+03  0.17120000000E+03 0.  0.
        998    1    1    2    0    0 -0.43606284092E+01 -0.20374805292E+01  0.12949052809E+04  0.12949528381E+04  0.10000000000E+02 0. -1.
</event>
<event>
 5    1  0.2316546E-008  0.3858235E+03  0.7957747E-01  0.3426187E+00
         13   -1    0    0    0    0  0.00000000000E+00  0.00000000000E+00  0.14999999963E+04  0.15000000000E+04  0.10566000000E+00 0. -1.
        994   -1    0    0    0    0 -0.00000000000E+00 -0.00000000000E+00  0.11368683772E-12  0.17120000000E+03  0.17120000000E+03 0.  0.
         13    1    1    2    0    0 -0.19346197974E+01 -0.10965539400E+02  0.50269200689E+02  0.51487760779E+02  0.10566000000E+00 0. -1.
        994    1    1    2    0    0  0.31526007223E+01  0.99323257703E+01  0.15780734347E+01  0.17152410997E+03  0.17120000000E+03 0.  0.
        998    1    1    2    0    0 -0.12179809249E+01  0.10332136295E+01  0.14481527222E+04  0.14481881292E+04  0.10000000000E+02 0. -1.
</event>
<event>
 5    1  0.1937102E-008  0.3860481E+03  0.7957747E-01  0.3425239E+00
         13   -1    0    0    0    0  0.00000000000E+00  0.00000000000E+00  0.14999999963E+04  0.15000000000E+04  0.10566000000E+00 0.  1.
        994   -1    0    0    0    0 -0.00000000000E+00 -0.00000000000E+00  0.11368683772E-12  0.17120000000E+03  0.17120000000E+03 0.  0.
         13    1    1    2    0    0 -0.67310295874E+01  0.76385898622E+01  0.47913479338E+02  0.48983338807E+02  0.10566000000E+00 0.  1.
        994    1    1    2    0    0  0.52181866847E+00 -0.58609906752E+01  0.12241570380E+01  0.17130546421E+03  0.17120000000E+03 0.  0.
        998    1    1    2    0    0  0.62092109190E+01 -0.17775991870E+01  0.14508623599E+04  0.14509111970E+04  0.10000000000E+02 0.  1.
</event>
<event>
 5    1  0.1344348E-008  0.3828066E+03  0.7957747E-01  0.3439028E+00
         13   -1    0    0    0    0  0.00000000000E+00  0.00000000000E+00  0.14999999963E+04  0.15000000000E+04  0.10566000000E+00 0.  1.
        994   -1    0    0    0    0 -0.00000000000E+00 -0.00000000000E+00  0.11368683772E-12  0.17120000000E+03  0.17120000000E+03 0.  0.
         13    1    1    2    0    0  0.45805006827E+01 -0.99619461250E+01  0.21115121148E+02  0.23792453892E+02  0.10566000000E+00 0.  1.
        994    1    1    2    0    0 -0.90524269879E+01  0.33171613740E+01  0.30309776490E+01  0.17149803736E+03  0.17120000000E+03 0.  0.
        998    1    1    2    0    0  0.44719263052E+01  0.66447847511E+01  0.14758538975E+04  0.14759095087E+04  0.10000000000E+02 0.  1.
</event>
<event>
 5    1  0.1344348E-008  0.3838590E+03  0.7957747E-01  0.3434526E+00
         13   -1    0    0    0    0  0.00000000000E+00  0.00000000000E+00  0.14999999963E+04  0.15000000000E+04  0.10566000000E+00 0. -1.
        994   -1    0    0    0    0 -0.00000000000E+00 -0.00000000000E+00  0.11368683772E-12  0.17120000000E+03  0.17120000000E+03 0.  0.
         13    1    1    2    0    0  0.60718738078E+01 -0.10631951463E+02  0.33102035615E+02  0.35293936722E+02  0.10566000000E+00 0. -1.
        994    1    1    2    0    0 -0.81994274262E+01  0.82769106078E+01  0.26458534140E+01  0.17161636985E+03  0.17120000000E+03 0.  0.
        998    1    1    2    0    0  0.21275536184E+01  0.23550408551E+01  0.14642521072E+04  0.14642896934E+04  0.10000000000E+02 0. -1.
</event>
<event>
 5    1  0.1344348E-008  0.3763957E+03  0.7957747E-01  0.3467004E+00
         13   -1    0    0    0    0  0.00000000000E+00  0.00000000000E+00  0.14999999963E+04  0.15000000000E+04  0.10566000000E+00 0. -1.
        994   -1    0    0    0    0 -0.00000000000E+00 -0.00000000000E+00  0.11368683772E-12  0.17120000000E+03  0.17120000000E+03 0.  0.
         13    1    1    2    0    0  0.98824876090E+01 -0.27086125443E+02  0.64285255255E+02  0.70455141474E+02  0.10566000000E+00 0. -1.
        994    1    1    2    0    0 -0.11418818297E+02  0.29516568289E+02  0.93599672292E+01  0.17435213277E+03  0.17120000000E+03 0.  0.
        998    1    1    2    0    0  0.15363306877E+01 -0.24304428453E+01  0.14263547738E+04  0.14263927258E+04  0.10000000000E+02 0. -1.
</event>
<event>
 5    1  0.1344348E-008  0.3782004E+03  0.7957747E-01  0.3459032E+00
         13   -1    0    0    0    0  0.00000000000E+00  0.00000000000E+00  0.14999999963E+04  0.15000000000E+04  0.10566000000E+00 0. -1.
        994   -1    0    0    0    0 -0.00000000000E+00 -0.00000000000E+00  0.11368683772E-12  0.17120000000E+03  0.17120000000E+03 0.  0.
         13    1    1    2    0    0  0.72558103273E+02  0.31976168244E+01  0.37106609225E+03  0.37810707357E+03  0.10566000000E+00 0. -1.
        994    1    1    2    0    0 -0.77928738979E+02 -0.56352996817E+01  0.25856373830E+02  0.18995430248E+03  0.17120000000E+03 0.  0.
        998    1    1    2    0    0  0.53706357063E+01  0.24376828573E+01  0.11030775302E+04  0.11031386240E+04  0.10000000000E+02 0. -1.
</event>
<event>
 5    1  0.1344348E-008  0.3822672E+03  0.7957747E-01  0.3441346E+00
         13   -1    0    0    0    0  0.00000000000E+00  0.00000000000E+00  0.14999999963E+04  0.15000000000E+04  0.10566000000E+00 0.  1.
        994   -1    0    0    0    0 -0.00000000000E+00 -0.00000000000E+00  0.11368683772E-12  0.17120000000E+03  0.17120000000E+03 0.  0.
         13    1    1    2    0    0  0.18550880512E+02  0.14086828558E+02  0.11543492498E+03  0.11776165325E+03  0.10566000000E+00 0.  1.
        994    1    1    2    0    0  0.19886652237E+02  0.12533936503E+02  0.48286883554E+01  0.17287375374E+03  0.17120000000E+03 0.  0.
        998    1    1    2    0    0 -0.38437532749E+02 -0.26620765060E+02  0.13797363829E+04  0.13805645930E+04  0.10000000000E+02 0.  1.
</event>
<event>
 5    1  0.1344348E-008  0.3792806E+03  0.7957747E-01  0.3454297E+00
         13   -1    0    0    0    0  0.00000000000E+00  0.00000000000E+00  0.14999999963E+04  0.15000000000E+04  0.10566000000E+00 0.  1.
        994   -1    0    0    0    0 -0.00000000000E+00 -0.00000000000E+00  0.11368683772E-12  0.17120000000E+03  0.17120000000E+03 0.  0.
         13    1    1    2    0    0  0.24206270968E+02 -0.96736947306E+01  0.66596161630E+02  0.71516318640E+02  0.10566000000E+00 0.  1.
        994    1    1    2    0    0 -0.32577579132E+02  0.31756026272E+02  0.11463656998E+02  0.17751225112E+03  0.17120000000E+03 0.  0.
        998    1    1    2    0    0  0.83713081632E+01 -0.22082331542E+02  0.14219401777E+04  0.14221714302E+04  0.10000000000E+02 0.  1.
</event>
<event>
 5    1  0.1344348E-008  0.3745173E+03  0.7957747E-01  0.3475384E+00
         13   -1    0    0    0    0  0.00000000000E+00  0.00000000000E+00  0.14999999963E+04  0.15000000000E+04  0.10566000000E+00 0.  1.
        994   -1    0    0    0    0 -0.00000000000E+00 -0.00000000000E+00  0.11368683772E-12  0.17120000000E+03  0.17120000000E+03 0.  0.
         13    1    1    2    0    0  0.20420900992E+02  0.25423492534E+02  0.69128093952E+02  0.76433446261E+02  0.10566000000E+00 0.  1.
        994    1    1    2    0    0 -0.26491693518E+02 -0.30759286503E+02  0.12558344939E+02  0.17639471522E+03  0.17120000000E+03 0.  0.
        998    1    1    2    0    0  0.60707925264E+01  0.53357939686E+01  0.14183135574E+04  0.14183718385E+04  0.10000000000E+02 0.  1.
</event>
<event>
 5    1  0.1344348E-008  0.3779202E+03  0.7957747E-01  0.3460265E+00
         13   -1    0    0    0    0  0.00000000000E+00  0.00000000000E+00  0.14999999963E+04  0.15000000000E+04  0.10566000000E+00 0.  1.
        994   -1    0    0    0    0 -0.00000000000E+00 -0.00000000000E+00  0.11368683772E-12  0.17120000000E+03  0.17120000000E+03 0.  0.
         13    1    1    2    0    0  0.29261177266E+02 -0.18369968442E+02  0.10431037469E+03  0.10988329113E+03  0.10566000000E+00 0.  1.
        994    1    1    2    0    0 -0.38492888602E+02  0.10738440968E+02  0.10581265939E+02  0.17612046950E+03  0.17120000000E+03 0.  0.
        998    1    1    2    0    0  0.92317113358E+01  0.76315274737E+01  0.13851083556E+04  0.13851962394E+04  0.10000000000E+02 0.  1.
</event>
<event>
 5    1  0.1344348E-008  0.4024673E+03  0.7957747E-01  0.3358809E+00
         13   -1    0    0    0    0  0.00000000000E+00  0.00000000000E+00  0.14999999963E+04  0.15000000000E+04  0.10566000000E+00 0. -1.
        994   -1    0    0    0    0 -0.00000000000E+00 -0.00000000000E+00  0.11368683772E-12  0.17120000000E+03  0.17120000000E+03 0.  0.
         13    1    1    2    0    0 -0.28299747839E+02 -0.58994395540E+02  0.88227712677E+02  0.10984240930E+03  0.10566000000E+00 0. -1.
        994    1    1    2    0    0 -0.81951852334E+02 -0.51567733574E+02  0.67401195195E+02  0.20791271813E+03  0.17120000000E+03 0.  0.
        998    1    1    2    0    0  0.11025160017E+03  0.11056212911E+03  0.13443710884E+04  0.13534448726E+04  0.10000000000E+02 0. -1.
</event>
<event>
 5    1  0.1344348E-008  0.3771148E+03  0.7957747E-01  0.3463818E+00
         13   -1    0    0    0    0  0.00000000000E+00  0.00000000000E+00  0.14999999963E+04  0.15000000000E+04  0.10566000000E+00 0. -1.
        994   -1    0    0    0    0 -0.00000000000E+00 -0.00000000000E+00  0.11368683772E-12  0.17120000000E+03  0.17120000000E+03 0.  0.
         13    1    1    2    0    0 -0.47571844842E+02 -0.25066038629E+02  0.11512907915E+03  0.12706731580E+03  0.10566000000E+00 0. -1.
        994    1    1    2    0    0 -0.36228793128E+02  0.94466013770E+01  0.19794248449E+02  0.17636047176E+03  0.17120000000E+03 0.  0.
        998    1    1    2    0    0  0.83800637970E+02  0.15619437252E+02  0.13650766687E+04  0.13677722124E+04  0.10000000000E+02 0. -1.
</event>
<event>
 5    1  0.1344348E-008  0.3806873E+03  0.7957747E-01  0.3448171E+00
         13   -1    0    0    0    0  0.00000000000E+00  0.00000000000E+00  0.14999999963E+04  0.15000000000E+04  0.10566000000E+00 0. -1.
        994   -1    0    0    0    0 -0.00000000000E+00 -0.00000000000E+00  0.11368683772E-12  0.17120000000E+03  0.17120000000E+03 0.  0.
         13    1    1    2    0    0  0.21566611016E+02 -0.27619665808E+01  0.61401614368E+02  0.65137674054E+02  0.10566000000E+00 0. -1.
        994    1    1    2    0    0 -0.81491314940E+01  0.42083325439E+02  0.99394253756E+01  0.17676438216E+03  0.17120000000E+03 0.  0.
        998    1    1    2    0    0 -0.13417479522E+02 -0.39321358858E+02  0.14286589565E+04  0.14292979438E+04  0.10000000000E+02 0. -1.
</event>
<event>
 5    1  0.1344348E-008  0.3747715E+03  0.7957747E-01  0.3474245E+00
         13   -1    0    0    0    0  0.00000000000E+00  0.00000000000E+00  0.14999999963E+04  0.15000000000E+04  0.10566000000E+00 0. -1.
        994   -1    0    0    0    0 -0.00000000000E+00 -0.00000000000E+00  0.11368683772E-12  0.17120000000E+03  0.17120000000E+03 0.  0.
         13    1    1    2    0    0 -0.10222933775E+03  0.42078961214E+01  0.30309555110E+03  0.31989915309E+03  0.10566000000E+00 0. -1.
        994    1    1    2    0    0  0.10362584634E+03  0.23889854714E+02  0.54869796558E+02  0.20887598177E+03  0.17120000000E+03 0.  0.
        998    1    1    2    0    0 -0.13965085886E+01 -0.28097750835E+02  0.11420346486E+04  0.11424248651E+04  0.10000000000E+02 0. -1.
</event>
<event>
 5    1  0.1344348E-008  0.3819954E+03  0.7957747E-01  0.3442516E+00
         13   -1    0    0    0    0  0.00000000000E+00  0.00000000000E+00  0.14999999963E+04  0.15000000000E+04  0.10566000000E+00 0. -1.
        994   -1    0    0    0    0 -0.00000000000E+00 -0.00000000000E+00  0.11368683772E-12  0.17120000000E+03  0.17120000000E+03 0.  0.
         13    1    1    2    0    0 -0.15956247242E+02  0.13051532585E+01  0.38083806347E+02  0.41312137696E+02  0.10566000000E+00 0. -1.
        994    1    1    2    0    0  0.22602569223E+02 -0.42163362458E+01  0.48868886240E+01  0.17280617844E+03  0.17120000000E+03 0.  0.
        998    1    1    2    0    0 -0.66463219816E+01  0.29111829873E+01  0.14570293013E+04  0.14570816839E+04  0.10000000000E+02 0. -1.
</event>
<event>
 5    1  0.1344348E-008  0.3827834E+03  0.7957747E-01  0.3439128E+00
         13   -1    0    0    0    0  0.00000000000E+00  0.00000000000E+00  0.14999999963E+04  0.15000000000E+04  0.10566000000E+00 0.  1.
        994   -1    0    0    0    0 -0.00000000000E+00 -0.00000000000E+00  0.11368683772E-12  0.17120000000E+03  0.17120000000E+03 0.  0.
         13    1    1    2    0    0  0.15178824094E+02  0.14752688417E+02  0.78026808367E+02  0.80846969667E+02  0.10566000000E+00 0.  1.
        994    1    1    2    0    0 -0.13175618343E+02 -0.15868546401E+02  0.41450414678E+01  0.17248776494E+03  0.17120000000E+03 0.  0.
        998    1    1    2    0    0 -0.20032057513E+01  0.11158579844E+01  0.14178281464E+04  0.14178652654E+04  0.10000000000E+02 0.  1.
</event>
<event>
 5    1  0.1344348E-008  0.3817075E+03  0.7957747E-01  0.3443757E+00
         13   -1    0    0    0    0  0.00000000000E+00  0.00000000000E+00  0.14999999963E+04  0.15000000000E+04  0.10566000000E+00 0.  1.
        994   -1    0    0    0    0 -0.00000000000E+00 -0.00000000000E+00  0.11368683772E-12  0.17120000000E+03  0.17120000000E+03 0.  0.
         13    1    1    2    0    0  0.10308958525E+02  0.13958415594E+02  0.38822250896E+02  0.42523996995E+02  0.10566000000E+00 0.  1.
        994    1    1    2    0    0 -0.12140628895E+02 -0.53850561271E+02  0.13470332893E+02  0.18038339083E+03  0.17120000000E+03 0.  0.
        998    1    1    2    0    0  0.18316703693E+01  0.39892145676E+02  0.14477074125E+04  0.14482926122E+04  0.10000000000E+02 0.  1.
</event>
<event>
 5    1  0.1344348E-008  0.3809328E+03  0.7957747E-01  0.3447107E+00
         13   -1    0    0    0    0  0.00000000000E+00  0.00000000000E+00  0.14999999963E+04  0.15000000000E+04  0.10566000000E+00 0.  1.
        994   -1    0    0    0    0 -0.00000000000E+00 -0.00000000000E+00  0.11368683772E-12  0.17120000000E+03  0.17120000000E+03 0.  0.
         13    1    1    2    0    0  0.53723730736E+01 -0.16348355864E+02  0.40123096151E+02  0.43657818781E+02  0.10566000000E+00 0.  1.
        994    1    1    2    0    0  0.20514941522E+01  0.48553458511E+01  0.37556268111E+01  0.17132229202E+03  0.17120000000E+03 0.  0.
        998    1    1    2    0    0 -0.74238672258E+01  0.11493010013E+02  0.14561212733E+04  0.14562198892E+04  0.10000000000E+02 0.  1.
</event>
<event>
 5    1  0.1344348E-008  0.3806922E+03  0.7957747E-01  0.3448150E+00
         13   -1    0    0    0    0  0.00000000000E+00  0.00000000000E+00  0.14999999963E+04  0.15000000000E+04  0.10566000000E+00 0.  1.
        994   -1    0    0    0    0 -0.00000000000E+00 -0.00000000000E+00  0.11368683772E-12  0.17120000000E+03  0.17120000000E+03 0.  0.
         13    1    1    2    0    0  0.23631372541E+02 -0.20296627702E+02  0.12160607958E+03  0.12553264364E+03  0.10566000000E+00 0.  1.
        994    1    1    2    0    0 -0.15619537187E+02  0.21710165626E+02  0.61735425558E+01  0.17338642929E+03  0.17120000000E+03 0.  0.
        998    1    1    2    0    0 -0.80118353540E+01 -0.14135379240E+01  0.13722203741E+04  0.13722809271E+04  0.10000000000E+02 0.  1.
</event>
<event>
 5    1  0.1344348E-008  0.3847338E+03  0.7957747E-01  0.3430802E+00
         13   -1    0    0    0    0  0.00000000000E+00  0.00000000000E+00  0.14999999963E+04  0.15000000000E+04  0.10566000000E+00 0. -1.
        994   -1    0    0    0    0 -0.00000000000E+00 -0.00000000000E+00  0.11368683772E-12  0.17120000000E+03  0.17120000000E+03 0.  0.
         13    1    1    2    0    0  0.10617297951E+01  0.16195970342E+02  0.74768903022E+02  0.76510370203E+02  0.10566000000E+00 0. -1.
        994    1    1    2    0    0 -0.39406013928E+01 -0.10068511540E+02  0.21472225850E+01  0.17155452145E+03  0.17120000000E+03 0.  0.
        998    1    1    2    0    0  0.28788715977E+01 -0.61274588023E+01  0.14230838707E+04  0.14231351084E+04  0.10000000000E+02 0. -1.
</event>
<event>
 5    1  0.1344348E-008  0.3747028E+03  0.7957747E-01  0.3474553E+00
         13   -1    0    0    0    0  0.00000000000E+00  0.00000000000E+00  0.14999999963E+04  0.15000000000E+04  0.10566000000E+00 0.  1.
        994   -1    0    0    0    0 -0.00000000000E+00 -0.00000000000E+00  0.11368683772E-12  0.17120000000E+03  0.17120000000E+03 0.  0.
         13    1    1    2    0    0  0.13250057254E+02 -0.19330336170E+02  0.37225307762E+02  0.43988187229E+02  0.10566000000E+00 0.  1.
        994    1    1    2    0    0 -0.16923040455E+02  0.10137163959E+02  0.81566500371E+01  0.17252571499E+03  0.17120000000E+03 0.  0.
        998    1    1    2    0    0  0.36729832015E+01  0.91931722113E+01  0.14546180385E+04  0.14546860978E+04  0.10000000000E+02 0.  1.
</event>
<event>
 5    1  0.1344348E-008  0.3854659E+03  0.7957747E-01  0.3427699E+00
         13   -1    0    0    0    0  0.00000000000E+00  0.00000000000E+00  0.14999999963E+04  0.15000000000E+04  0.10566000000E+00 0.  1.
        994   -1    0    0    0    0 -0.00000000000E+00 -0.00000000000E+00  0.11368683772E-12  0.17120000000E+03  0.17120000000E+03 0.  0.
         13    1    1    2    0    0 -0.97722787806E+01 -0.28522802688E+01  0.36810549647E+02  0.38192416324E+02  0.10566000000E+00 0.  1.
        994    1    1    2    0    0  0.79280336351E+01  0.28845540144E+01  0.16327558626E+01  0.17141551931E+03  0.17120000000E+03 0.  0.
        998    1    1    2    0    0  0.18442451454E+01 -0.32273745624E-01  0.14615566908E+04  0.14615920644E+04  0.10000000000E+02 0.  1.
</event>
<event>
 5    1  0.1344348E-008  0.3687146E+03  0.7957747E-01  0.3501819E+00
         13   -1    0    0    0    0  0.00000000000E+00  0.00000000000E+00  0.14999999963E+04  0.15000000000E+04  0.10566000000E+00 0. -1.
        994   -1    0    0    0    0 -0.00000000000E+00 -0.00000000000E+00  0.11368683772E-12  0.17120000000E+03  0.17120000000E+03 0.  0.
         13    1    1    2    0    0  0.29196829406E+02  0.12826494500E+02  0.46565418033E+02  0.56438666968E+02  0.10566000000E+00 0. -1.
        994    1    1    2    0    0 -0.22416963958E+02 -0.16327304486E+02  0.12618234372E+02  0.17389008305E+03  0.17120000000E+03 0.  0.
        998    1    1    2    0    0 -0.67798654474E+01  0.35008099863E+01  0.14408163439E+04  0.14408712500E+04  0.10000000000E+02 0. -1.
</event>
<event>
 5    1  0.1344348E-008  0.3699195E+03  0.7957747E-01  0.3496261E+00
         13   -1    0    0    0    0  0.00000000000E+00  0.00000000000E+00  0.14999999963E+04  0.15000000000E+04  0.10566000000E+00 0. -1.
        994   -1    0    0    0    0 -0.00000000000E+00 -0.00000000000E+00  0.11368683772E-12  0.17120000000E+03  0.17120000000E+03 0.  0.
         13    1    1    2    0    0  0.21288132117E+02  0.19019117290E+02  0.40571419315E+02  0.49608090276E+02  0.10566000000E+00 0. -1.
        994    1    1    2    0    0 -0.15609348016E+02 -0.47503105846E+01  0.10232423978E+02  0.17227988767E+03  0.17120000000E+03 0.  0.
        998    1    1    2    0    0 -0.56787841012E+01 -0.14268806705E+02  0.14491961530E+04  0.14493120221E+04  0.10000000000E+02 0. -1.
</event>
<event>
 5    1  0.1344348E-008  0.3837789E+03  0.7957747E-01  0.3434867E+00
         13   -1    0    0    0    0  0.00000000000E+00  0.00000000000E+00  0.14999999963E+04  0.15000000000E+04  0.10566000000E+00 0. -1.
        994   -1    0    0    0    0 -0.00000000000E+00 -0.00000000000E+00  0.11368683772E-12  0.17120000000E+03  0.17120000000E+03 0.  0.
         13    1    1    2    0    0  0.22065969830E+02  0.97553667531E+01  0.13487135393E+03  0.13701228952E+03  0.10566000000E+00 0. -1.
        994    1    1    2    0    0 -0.12260664841E+02  0.35774931046E+01  0.27763501176E+01  0.17169819591E+03  0.17120000000E+03 0.  0.
        998    1    1    2    0    0 -0.98053049891E+01 -0.13332859858E+02  0.13623522922E+04  0.13624895146E+04  0.10000000000E+02 0. -1.
</event>
<event>
 5    1  0.1344348E-008  0.3825359E+03  0.7957747E-01  0.3440190E+00
         13   -1    0    0    0    0  0.00000000000E+00  0.00000000000E+00  0.14999999963E+04  0.15000000000E+04  0.10566000000E+00 0.  1.
        994   -1    0    0    0    0 -0.00000000000E+00 -0.00000000000E+00  0.11368683772E-12  0.17120000000E+03  0.17120000000E+03 0.  0.
         13    1    1    2    0    0 -0.10109228655E+02 -0.17447026180E+02  0.69490814519E+02  0.72357305734E+02  0.10566000000E+00 0.  1.
        994    1    1    2    0    0  0.17208215073E+02  0.74600633996E+01  0.40255158794E+01  0.17227135569E+03  0.17120000000E+03 0.  0.
        998    1    1    2    0    0 -0.70989864176E+01  0.99869627805E+01  0.14264836659E+04  0.14265713386E+04  0.10000000000E+02 0.  1.
</event>
<event>
 5    1  0.1344348E-008  0.3785280E+03  0.7957747E-01  0.3457593E+00
         13   -1    0    0    0    0  0.00000000000E+00  0.00000000000E+00  0.14999999963E+04  0.15000000000E+04  0.10566000000E+00 0.  1.
        994   -1    0    0    0    0 -0.00000000000E+00 -0.00000000000E+00  0.11368683772E-12  0.17120000000E+03  0.17120000000E+03 0.  0.
         13    1    1    2    0    0 -0.21873147328E+02  0.16120837583E+02  0.66458946628E+02  0.71799155492E+02  0.10566000000E+00 0.  1.
        994    1    1    2    0    0 -0.84028555983E+01 -0.87835266523E+02  0.31493907628E+02  0.19515877701E+03  0.17120000000E+03 0.  0.
        998    1    1    2    0    0  0.30276002926E+02  0.71714428940E+02  0.14020471420E+04  0.14042420675E+04  0.10000000000E+02 0.  1.
</event>
<event>
 5    1  0.1344348E-008  0.3688929E+03  0.7957747E-01  0.3500994E+00
         13   -1    0    0    0    0  0.00000000000E+00  0.00000000000E+00  0.14999999963E+04  0.15000000000E+04  0.10566000000E+00 0. -1.
        994   -1    0    0    0    0 -0.00000000000E+00 -0.00000000000E+00  0.11368683772E-12  0.17120000000E+03  0.17120000000E+03 0.  0.
         13    1    1    2    0    0 -0.48285995471E+02 -0.70472271793E+02  0.51468563218E+03  0.52172712177E+03  0.10566000000E+00 0. -1.
        994    1    1    2    0    0  0.36781132651E+01  0.15565743543E+02  0.10737291971E+02  0.17228044093E+03  0.17120000000E+03 0.  0.
        998    1    1    2    0    0  0.44607882206E+02  0.54906528250E+02  0.97457707213E+03  0.97719243730E+03  0.10000000000E+02 0. -1.
</event>
<event>
 5    1  0.1470754E-008  0.3857770E+03  0.7957747E-01  0.3426384E+00
         13   -1    0    0    0    0  0.00000000000E+00  0.00000000000E+00  0.14999999963E+04  0.15000000000E+04  0.10566000000E+00 0. -1.
        994   -1    0    0    0    0 -0.00000000000E+00 -0.00000000000E+00  0.11368683772E-12  0.17120000000E+03  0.17120000000E+03 0.  0.
         13    1    1    2    0    0  0.23453153816E+01  0.99797346550E+01  0.45474835689E+02  0.46616171582E+02  0.10566000000E+00 0. -1.
        994    1    1    2    0    0 -0.41052424786E+00  0.42192546013E+01  0.13038292746E+01  0.17125743958E+03  0.17120000000E+03 0.  0.
        998    1    1    2    0    0 -0.19347911337E+01 -0.14198989256E+02  0.14532213313E+04  0.14533263888E+04  0.10000000000E+02 0. -1.
</event>
<event>
 5    1  0.1344348E-008  0.3807720E+03  0.7957747E-01  0.3447804E+00
         13   -1    0    0    0    0  0.00000000000E+00  0.00000000000E+00  0.14999999963E+04  0.15000000000E+04  0.10566000000E+00 0. -1.
        994   -1    0    0    0    0 -0.00000000000E+00 -0.00000000000E+00  0.11368683772E-12  0.17120000000E+03  0.17120000000E+03 0.  0.
         13    1    1    2    0    0  0.10468456688E+02 -0.40729960253E+02  0.25113047160E+03  0.25462726322E+03  0.10566000000E+00 0. -1.
        994    1    1    2    0    0 -0.10472182285E+02  0.14535241945E+02  0.48148131354E+01  0.17220209722E+03  0.17120000000E+03 0.  0.
        998    1    1    2    0    0  0.37255970198E-02  0.26194718307E+02  0.12440547115E+04  0.12443706396E+04  0.10000000000E+02 0.  0.
</event>
<event>
 5    1  0.1344348E-008  0.3747828E+03  0.7957747E-01  0.3474195E+00
         13   -1    0    0    0    0  0.00000000000E+00  0.00000000000E+00  0.14999999963E+04  0.15000000000E+04  0.10566000000E+00 0. -1.
        994   -1    0    0    0    0 -0.00000000000E+00 -0.00000000000E+00  0.11368683772E-12  0.17120000000E+03  0.17120000000E+03 0.  0.
         13    1    1    2    0    0 -0.49320882338E+02 -0.10088562159E+02  0.25003361520E+03  0.25505126625E+03  0.10566000000E+00 0. -1.
        994    1    1    2    0    0 -0.77608872369E+01 -0.27617632719E+02  0.95948825062E+01  0.17385185296E+03  0.17120000000E+03 0.  0.
        998    1    1    2    0    0  0.57081769575E+02  0.37706194879E+02  0.12403714986E+04  0.12422968808E+04  0.10000000000E+02 0. -1.
</event>
<event>
 5    1  0.1344348E-008  0.3840544E+03  0.7957747E-01  0.3433692E+00
         13   -1    0    0    0    0  0.00000000000E+00  0.00000000000E+00  0.14999999963E+04  0.15000000000E+04  0.10566000000E+00 0.  1.
        994   -1    0    0    0    0 -0.00000000000E+00 -0.00000000000E+00  0.11368683772E-12  0.17120000000E+03  0.17120000000E+03 0.  0.
         13    1    1    2    0    0  0.10124258695E+02 -0.11706620000E+02  0.60647378458E+02  0.62591223377E+02  0.10566000000E+00 0.  1.
        994    1    1    2    0    0  0.25728956737E+01 -0.89576186371E+00  0.21248208460E+01  0.17123485932E+03  0.17120000000E+03 0.  0.
        998    1    1    2    0    0 -0.12697154368E+02  0.12602381863E+02  0.14372277970E+04  0.14373739173E+04  0.10000000000E+02 0.  1.
</event>
<event>
 5    1  0.1344348E-008  0.3813498E+03  0.7957747E-01  0.3445302E+00
         13   -1    0    0    0    0  0.00000000000E+00  0.00000000000E+00  0.14999999963E+04  0.15000000000E+04  0.10566000000E+00 0.  1.
        994   -1    0    0    0    0 -0.00000000000E+00 -0.00000000000E+00  0.11368683772E-12  0.17120000000E+03  0.17120000000E+03 0.  0.
         13    1    1    2    0    0  0.33497482590E+02  0.26062266633E+01  0.13732577585E+03  0.14137628385E+03  0.10566000000E+00 0.  1.
        994    1    1    2    0    0 -0.46860927346E+02  0.69559136833E+01  0.10958905956E+02  0.17797153949E+03  0.17120000000E+03 0.  0.
        998    1    1    2    0    0  0.13363444756E+02 -0.95621403466E+01  0.13517153145E+04  0.13518521767E+04  0.10000000000E+02 0.  1.
</event>
<event>
 5    1  0.1500468E-008  0.3837847E+03  0.7957747E-01  0.3434843E+00
         13   -1    0    0    0    0  0.00000000000E+00  0.00000000000E+00  0.14999999963E+04  0.15000000000E+04  0.10566000000E+00 0.  1.
        994   -1    0    0    0    0 -0.00000000000E+00 -0.00000000000E+00  0.11368683772E-12  0.17120000000E+03  0.17120000000E+03 0.  0.
         13    1    1    2    0    0  0.12708700698E+02 -0.34467112876E+01  0.37299342697E+02  0.39555568784E+02  0.10566000000E+00 0.  1.
        994    1    1    2    0    0 -0.13853403975E+02  0.42415886716E+01  0.29280423089E+01  0.17183690322E+03  0.17120000000E+03 0.  0.
        998    1    1    2    0    0  0.11447032775E+01 -0.79487738403E+00  0.14597726113E+04  0.14598075280E+04  0.10000000000E+02 0.  1.
</event>
<event>
 5    1  0.1344348E-008  0.3825488E+03  0.7957747E-01  0.3440135E+00
         13   -1    0    0    0    0  0.00000000000E+00  0.00000000000E+00  0.14999999963E+04  0.15000000000E+04  0.10566000000E+00 0.  1.
        994   -1    0    0    0    0 -0.00000000000E+00 -0.00000000000E+00  0.11368683772E-12  0.17120000000E+03  0.17120000000E+03 0.  0.
         13    1    1    2    0    0 -0.21607181017E+02  0.10463664822E+02  0.99574770489E+02  0.10242804613E+03  0.10566000000E+00 0.  1.
        994    1    1    2    0    0  0.16426592819E+02 -0.24066745212E+01  0.37662420431E+01  0.17204432456E+03  0.17120000000E+03 0.  0.
        998    1    1    2    0    0  0.51805881975E+01 -0.80569903011E+01  0.13966589837E+04  0.13967276293E+04  0.10000000000E+02 0.  1.
</event>
<event>
 5    1  0.1344348E-008  0.3721318E+03  0.7957747E-01  0.3486151E+00
         13   -1    0    0    0    0  0.00000000000E+00  0.00000000000E+00  0.14999999963E+04  0.15000000000E+04  0.10566000000E+00 0. -1.
        994   -1    0    0    0    0 -0.00000000000E+00 -0.00000000000E+00  0.11368683772E-12  0.17120000000E+03  0.17120000000E+03 0.  0.
         13    1    1    2    0    0 -0.27122184723E+02  0.80498193132E+02  0.49018417415E+03  0.49748980669E+03  0.10566000000E+00 0. -1.
        994    1    1    2    0    0 -0.31632486359E+02 -0.41373246122E+01  0.15663619000E+02  0.17484999459E+03  0.17120000000E+03 0.  0.
        998    1    1    2    0    0  0.58754671082E+02 -0.76360868520E+02  0.99415220312E+03  0.99886019872E+03  0.10000000000E+02 0.  1.
</event>
<event>
 5    1  0.1344348E-008  0.3769147E+03  0.7957747E-01  0.3464704E+00
         13   -1    0    0    0    0  0.00000000000E+00  0.00000000000E+00  0.14999999963E+04  0.15000000000E+04  0.10566000000E+00 0.  1.
        994   -1    0    0    0    0 -0.00000000000E+00 -0.00000000000E+00  0.11368683772E-12  0.17120000000E+03  0.17120000000E+03 0.  0.
         13    1    1    2    0    0 -0.22684855182E+02 -0.58477880337E+02  0.26989782290E+03  0.27709043851E+03  0.10566000000E+00 0.  1.
        994    1    1    2    0    0  0.35354918836E+02  0.60025954887E+02  0.22269234999E+02  0.18616778554E+03  0.17120000000E+03 0.  0.
        998    1    1    2    0    0 -0.12670063654E+02 -0.15480745502E+01  0.12078329384E+04  0.12079417759E+04  0.10000000000E+02 0.  0.
</event>
<event>
 5    1  0.1344348E-008  0.4026946E+03  0.7957747E-01  0.3357927E+00
         13   -1    0    0    0    0  0.00000000000E+00  0.00000000000E+00  0.14999999963E+04  0.15000000000E+04  0.10566000000E+00 0.  1.
        994   -1    0    0    0    0 -0.00000000000E+00 -0.00000000000E+00  0.11368683772E-12  0.17120000000E+03  0.17120000000E+03 0.  0.
         13    1    1    2    0    0 -0.91128444760E+02 -0.75472087241E+00  0.15030013034E+03  0.17577002985E+03  0.10566000000E+00 0.  1.
        994    1    1    2    0    0  0.25286948650E+02 -0.13293824355E+02  0.32636316604E+02  0.17660895985E+03  0.17120000000E+03 0.  0.
        998    1    1    2    0    0  0.65841496110E+02  0.14048545227E+02  0.13170635493E+04  0.13188210103E+04  0.10000000000E+02 0.  1.
</event>
<event>
 5    1  0.1344348E-008  0.3739478E+03  0.7957747E-01  0.3477942E+00
         13   -1    0    0    0    0  0.00000000000E+00  0.00000000000E+00  0.14999999963E+04  0.15000000000E+04  0.10566000000E+00 0.  1.
        994   -1    0    0    0    0 -0.00000000000E+00 -0.00000000000E+00  0.11368683772E-12  0.17120000000E+03  0.17120000000E+03 0.  0.
         13    1    1    2    0    0 -0.11198292051E+02  0.11639035760E+01  0.60108472120E+01  0.12763144778E+02  0.10566000000E+00 0.  1.
        994    1    1    2    0    0 -0.34583148764E+02 -0.70474405063E+01  0.11481216494E+02  0.17517682189E+03  0.17120000000E+03 0.  0.
        998    1    1    2    0    0  0.45781440815E+02  0.58835369304E+01  0.14825079326E+04  0.14832600333E+04  0.10000000000E+02 0.  1.
</event>
<event>
 5    1  0.1344348E-008  0.3812933E+03  0.7957747E-01  0.3445547E+00
         13   -1    0    0    0    0  0.00000000000E+00  0.00000000000E+00  0.14999999963E+04  0.15000000000E+04  0.10566000000E+00 0.  1.
        994   -1    0    0    0    0 -0.00000000000E+00 -0.00000000000E+00  0.11368683772E-12  0.17120000000E+03  0.17120000000E+03 0.  0.
         13    1    1    2    0    0 -0.16895554447E+02  0.14679875687E+02  0.67563892187E+02  0.71174779254E+02  0.10566000000E+00 0.  1.
        994    1    1    2    0    0  0.17890627319E+02 -0.16384954956E+02  0.54432712692E+01  0.17299598405E+03  0.17120000000E+03 0.  0.
        998    1    1    2    0    0 -0.99507287156E+00  0.17050792693E+01  0.14269928328E+04  0.14270292367E+04  0.10000000000E+02 0.  1.
</event>
<event>
 5    1  0.1344348E-008  0.3854572E+03  0.7957747E-01  0.3427735E+00
         13   -1    0    0    0    0  0.00000000000E+00  0.00000000000E+00  0.14999999963E+04  0.15000000000E+04  0.10566000000E+00 0. -1.
        994   -1    0    0    0    0 -0.00000000000E+00 -0.00000000000E+00  0.11368683772E-12  0.17120000000E+03  0.17120000000E+03 0.  0.
         13    1    1    2    0    0 -0.13011479290E+02 -0.11063037304E+02  0.10007436204E+03  0.10152132036E+03  0.10566000000E+00 0. -1.
        994    1    1    2    0    0  0.14208372819E+02  0.79403935210E+01  0.22737567742E+01  0.17198702764E+03  0.17120000000E+03 0.  0.
        998    1    1    2    0    0 -0.11968935286E+01  0.31226437830E+01  0.13976518775E+04  0.13976916520E+04  0.10000000000E+02 0. -1.
</event>
<event>
 5    1  0.1344348E-008  0.3741852E+03  0.7957747E-01  0.3476875E+00
         13   -1    0    0    0    0  0.00000000000E+00  0.00000000000E+00  0.14999999963E+04  0.15000000000E+04  0.10566000000E+00 0.  1.
        994   -1    0    0    0    0 -0.00000000000E+00 -0.00000000000E+00  0.11368683772E-12  0.17120000000E+03  0.17120000000E+03 0.  0.
         13    1    1    2    0    0 -0.21051554608E+02 -0.99286307155E+01  0.34794140269E+02  0.41861545843E+02  0.10566000000E+00 0.  1.
        994    1    1    2    0    0  0.18960057504E+02  0.88376967139E+01  0.85907221906E+01  0.17268708455E+03  0.17120000000E+03 0.  0.
        998    1    1    2    0    0  0.20914971032E+01  0.10909340016E+01  0.14566151338E+04  0.14566513696E+04  0.10000000000E+02 0.  1.
</event>
<event>
 5    1  0.1344348E-008  0.3713276E+03  0.7957747E-01  0.3489812E+00
         13   -1    0    0    0    0  0.00000000000E+00  0.00000000000E+00  0.14999999963E+04  0.15000000000E+04  0.10566000000E+00 0.  1.
        994   -1    0    0    0    0 -0.00000000000E+00 -0.00000000000E+00  0.11368683772E-12  0.17120000000E+03  0.17120000000E+03 0.  0.
         13    1    1    2    0    0 -0.10029195531E+02  0.10181841990E+02  0.79180393542E+01  0.16338946740E+02  0.10566000000E+00 0.  1.
        994    1    1    2    0    0  0.10988122702E+02 -0.12077362656E+02  0.94949234348E+01  0.17223877351E+03  0.17120000000E+03 0.  0.
        998    1    1    2    0    0 -0.95892717136E+00  0.18955206664E+01  0.14825870335E+04  0.14826222798E+04  0.10000000000E+02 0.  1.
</event>
<event>
 5    1  0.1344348E-008  0.3780112E+03  0.7957747E-01  0.3459864E+00
         13   -1    0    0    0    0  0.00000000000E+00  0.00000000000E+00  0.14999999963E+04  0.15000000000E+04  0.10566000000E+00 0. -1.
        994   -1    0    0    0    0 -0.00000000000E+00 -0.00000000000E+00  0.11368683772E-12  0.17120000000E+03  0.17120000000E+03 0.  0.
         13    1    1    2    0    0  0.27462463578E+02  0.19856941258E+02  0.12814213040E+03  0.13254773393E+03  0.10566000000E+00 0. -1.
        994    1    1    2    0    0  0.39938718518E+01  0.81908334201E+01  0.54199546944E+01  0.17152800551E+03  0.17120000000E+03 0.  0.
        998    1    1    2    0    0 -0.31456335430E+02 -0.28047774678E+02  0.13664379112E+04  0.13671242606E+04  0.10000000000E+02 0. -1.
</event>
<event>
 5    1  0.1344348E-008  0.3825869E+03  0.7957747E-01  0.3439971E+00
         13   -1    0    0    0    0  0.00000000000E+00  0.00000000000E+00  0.14999999963E+04  0.15000000000E+04  0.10566000000E+00 0.  1.
        994   -1    0    0    0    0 -0.00000000000E+00 -0.00000000000E+00  0.11368683772E-12  0.17120000000E+03  0.17120000000E+03 0.  0.
         13    1    1    2    0    0  0.16642333553E+02 -0.38203888140E+00  0.47857494108E+02  0.50670150248E+02  0.10566000000E+00 0.  1.
        994    1    1    2    0    0 -0.11618189326E+02  0.22652949863E+01  0.32974983922E+01  0.17164040136E+03  0.17120000000E+03 0.  0.
        998    1    1    2    0    0 -0.50241442268E+01 -0.18832561049E+01  0.14488450038E+04  0.14488894484E+04  0.10000000000E+02 0.  1.
</event>
<event>
 5    1  0.1344348E-008  0.3851169E+03  0.7957747E-01  0.3429177E+00
         13   -1    0    0    0    0  0.00000000000E+00  0.00000000000E+00  0.14999999963E+04  0.15000000000E+04  0.10566000000E+00 0. -1.
        994   -1    0    0    0    0 -0.00000000000E+00 -0.00000000000E+00  0.11368683772E-12  0.17120000000E+03  0.17120000000E+03 0.  0.
         13    1    1    2    0    0  0.14622309681E+02 -0.51099007948E+01  0.79005035894E+02  0.80509191321E+02  0.10566000000E+00 0. -1.
        994    1    1    2    0    0 -0.55554976670E+01  0.62577581791E+00  0.16748679130E+01  0.17129944639E+03  0.17120000000E+03 0.  0.
        998    1    1    2    0    0 -0.90668120144E+01  0.44841249769E+01  0.14193200925E+04  0.14193913623E+04  0.10000000000E+02 0. -1.
</event>
<event>
 5    1  0.1344348E-008  0.3713277E+03  0.7957747E-01  0.3489811E+00
         13   -1    0    0    0    0  0.00000000000E+00  0.00000000000E+00  0.14999999963E+04  0.15000000000E+04  0.10566000000E+00 0. -1.
        994   -1    0    0    0    0 -0.00000000000E+00 -0.00000000000E+00  0.11368683772E-12  0.17120000000E+03  0.17120000000E+03 0.  0.
         13    1    1    2    0    0  0.57396515338E+02  0.70923678283E+02  0.38828596220E+03  0.39886153954E+03  0.10566000000E+00 0. -1.
        994    1    1    2    0    0 -0.50424821896E+02 -0.62624491836E+02  0.31166844577E+02  0.19169064099E+03  0.17120000000E+03 0.  0.
        998    1    1    2    0    0 -0.69716934416E+01 -0.82991864477E+01  0.10805471895E+04  0.10806478195E+04  0.10000000000E+02 0.  0.
</event>
<event>
 5    1  0.1344348E-008  0.3757140E+03  0.7957747E-01  0.3470036E+00
         13   -1    0    0    0    0  0.00000000000E+00  0.00000000000E+00  0.14999999963E+04  0.15000000000E+04  0.10566000000E+00 0. -1.
        994   -1    0    0    0    0 -0.00000000000E+00 -0.00000000000E+00  0.11368683772E-12  0.17120000000E+03  0.17120000000E+03 0.  0.
         13    1    1    2    0    0  0.13837974445E+02 -0.31383258692E+02  0.89644492503E+02  0.95982001766E+02  0.10566000000E+00 0. -1.
        994    1    1    2    0    0 -0.64124747078E+01  0.24064439928E+02  0.84185452822E+01  0.17320660786E+03  0.17120000000E+03 0.  0.
        998    1    1    2    0    0 -0.74254997377E+01  0.73188187637E+01  0.14019369585E+04  0.14020113904E+04  0.10000000000E+02 0. -1.
</event>
<event>
 5    1  0.1344348E-008  0.3836009E+03  0.7957747E-01  0.3435628E+00
         13   -1    0    0    0    0  0.00000000000E+00  0.00000000000E+00  0.14999999963E+04  0.15000000000E+04  0.10566000000E+00 0.  1.
        994   -1    0    0    0    0 -0.00000000000E+00 -0.00000000000E+00  0.11368683772E-12  0.17120000000E+03  0.17120000000E+03 0.  0.
         13    1    1    2    0    0 -0.27766404266E+03  0.77956221010E+02  0.96098365909E+03  0.10033265157E+04  0.10566000000E+00 0.  1.
        994    1    1    2    0    0  0.28836102881E+03 -0.81544214251E+02  0.40113108398E+03  0.52916644673E+03  0.17120000000E+03 0.  0.
        998    1    1    2    0    0 -0.10696986149E+02  0.35879932408E+01  0.13788525321E+03  0.13870703753E+03  0.10000000000E+02 0.  1.
</event>
<event>
 5    1  0.1344348E-008  0.3845128E+03  0.7957747E-01  0.3431741E+00
         13   -1    0    0    0    0  0.00000000000E+00  0.00000000000E+00  0.14999999963E+04  0.15000000000E+04  0.10566000000E+00 0. -1.
        994   -1    0    0    0    0 -0.00000000000E+00 -0.00000000000E+00  0.11368683772E-12  0.17120000000E+03  0.17120000000E+03 0.  0.
         13    1    1    2    0    0 -0.95367972003E+01  0.47309034125E+01  0.30673044024E+02  0.32468118850E+02  0.10566000000E+00 0. -1.
        994    1    1    2    0    0 -0.27203585559E+01 -0.73410216620E+01  0.20741254873E+01  0.17139146112E+03  0.17120000000E+03 0.  0.
        998    1    1    2    0    0  0.12257155756E+02  0.26101182495E+01  0.14672528268E+04  0.14673404200E+04  0.10000000000E+02 0. -1.
</event>
<event>
 5    1  0.1344348E-008  0.3833428E+03  0.7957747E-01  0.3436731E+00
         13   -1    0    0    0    0  0.00000000000E+00  0.00000000000E+00  0.14999999963E+04  0.15000000000E+04  0.10566000000E+00 0.  1.
        994   -1    0    0    0    0 -0.00000000000E+00 -0.00000000000E+00  0.11368683772E-12  0.17120000000E+03  0.17120000000E+03 0.  0.
         13    1    1    2    0    0  0.43957477227E+01 -0.13875467604E+02  0.43551246844E+02  0.45919205840E+02  0.10566000000E+00 0.  1.
        994    1    1    2    0    0 -0.39195119670E+01  0.27159672239E+01  0.25303370571E+01  0.17128508884E+03  0.17120000000E+03 0.  0.
        998    1    1    2    0    0 -0.47623575563E+00  0.11159500380E+02  0.14539184124E+04  0.14539957053E+04  0.10000000000E+02 0.  1.
</event>
<event>
 5    1  0.1344348E-008  0.3843321E+03  0.7957747E-01  0.3432510E+00
         13   -1    0    0    0    0  0.00000000000E+00  0.00000000000E+00  0.14999999963E+04  0.15000000000E+04  0.10566000000E+00 0.  1.
        994   -1    0    0    0    0 -0.00000000000E+00 -0.00000000000E+00  0.11368683772E-12  0.17120000000E+03  0.17120000000E+03 0.  0.
         13    1    1    2    0    0 -0.20582950673E+02  0.42592412866E+02  0.51283563999E+02  0.69769524813E+02  0.10566000000E+00 0.  1.
        994    1    1    2    0    0  0.21425529964E+02 -0.41128502971E+02  0.26688582344E+02  0.17936646152E+03  0.17120000000E+03 0.  0.
        998    1    1    2    0    0 -0.84257929063E+00 -0.14639098956E+01  0.14220278499E+04  0.14220640137E+04  0.10000000000E+02 0.  1.
</event>
<event>
 5    1  0.1344348E-008  0.3818219E+03  0.7957747E-01  0.3443263E+00
         13   -1    0    0    0    0  0.00000000000E+00  0.00000000000E+00  0.14999999963E+04  0.15000000000E+04  0.10566000000E+00 0. -1.
        994   -1    0    0    0    0 -0.00000000000E+00 -0.00000000000E+00  0.11368683772E-12  0.17120000000E+03  0.17120000000E+03 0.  0.
         13    1    1    2    0    0  0.46222746368E+01  0.30750092087E+02  0.15149627675E+03  0.15465466892E+03  0.10566000000E+00 0. -1.
        994    1    1    2    0    0 -0.95583974531E+01 -0.15141209510E+02  0.42823659121E+01  0.17218710127E+03  0.17120000000E+03 0.  0.
        998    1    1    2    0    0  0.49361228163E+01 -0.15608882577E+02  0.13442213536E+04  0.13443582298E+04  0.10000000000E+02 0. -1.
</event>
<event>
 5    1  0.1344348E-008  0.3813133E+03  0.7957747E-01  0.3445460E+00
         13   -1    0    0    0    0  0.00000000000E+00  0.00000000000E+00  0.14999999963E+04  0.15000000000E+04  0.10566000000E+00 0. -1.
        994   -1    0    0    0    0 -0.00000000000E+00 -0.00000000000E+00  0.11368683772E-12  0.17120000000E+03  0.17120000000E+03 0.  0.
         13    1    1    2    0    0  0.20512192580E+02 -0.44525634575E+01  0.65865215327E+02  0.69128960067E+02  0.10566000000E+00 0. -1.
        994    1    1    2    0    0 -0.28783688415E+01 -0.78598720655E+01  0.37048992864E+01  0.17144453586E+03  0.17120000000E+03 0.  0.
        998    1    1    2    0    0 -0.17633823739E+02  0.12312435523E+02  0.14304298817E+04  0.14306265041E+04  0.10000000000E+02 0. -1.
</event>
<event>
 5    1  0.1344348E-008  0.3740420E+03  0.7957747E-01  0.3477518E+00
         13   -1    0    0    0    0  0.00000000000E+00  0.00000000000E+00  0.14999999963E+04  0.15000000000E+04  0.10566000000E+00 0.  1.
        994   -1    0    0    0    0 -0.00000000000E+00 -0.00000000000E+00  0.11368683772E-12  0.17120000000E+03  0.17120000000E+03 0.  0.
         13    1    1    2    0    0 -0.45700724980E+02  0.39822047786E+02  0.22471874651E+03  0.23275067766E+03  0.10566000000E+00 0.  1.
        994    1    1    2    0    0  0.42912209017E+02 -0.34438562673E+02  0.17566982176E+02  0.18068068836E+03  0.17120000000E+03 0.  0.
        998    1    1    2    0    0  0.27885159632E+01 -0.53834851122E+01  0.12577142676E+04  0.12577686340E+04  0.10000000000E+02 0.  1.
</event>
<event>
 5    1  0.1344348E-008  0.3942469E+03  0.7957747E-01  0.3391377E+00
         13   -1    0    0    0    0  0.00000000000E+00  0.00000000000E+00  0.14999999963E+04  0.15000000000E+04  0.10566000000E+00 0. -1.
        994   -1    0    0    0    0 -0.00000000000E+00 -0.00000000000E+00  0.11368683772E-12  0.17120000000E+03  0.17120000000E+03 0.  0.
         13    1    1    2    0    0 -0.10849040192E+03 -0.24394426382E+02  0.19964742377E+03  0.22852649809E+03  0.10566000000E+00 0. -1.
        994    1    1    2    0    0  0.12119162487E+03  0.27281645221E+02  0.86201763890E+02  0.22841165076E+03  0.17120000000E+03 0.  0.
        998    1    1    2    0    0 -0.12701222946E+02 -0.28872188397E+01  0.12141508086E+04  0.12142618512E+04  0.10000000000E+02 0. -1.
</event>
<event>
 5    1  0.1344348E-008  0.2691068E+03  0.7957747E-01  0.4144669E+00
         13   -1    0    0    0    0  0.00000000000E+00  0.00000000000E+00  0.14999999963E+04  0.15000000000E+04  0.10566000000E+00 0. -1.
        994   -1    0    0    0    0 -0.00000000000E+00 -0.00000000000E+00  0.11368683772E-12  0.17120000000E+03  0.17120000000E+03 0.  0.
         13    1    1    2    0    0 -0.47925240960E+02 -0.14680571226E+03  0.59116412178E+03  0.61100227162E+03  0.10566000000E+00 0. -1.
        994    1    1    2    0    0  0.41265093586E+02  0.48597085282E+02  0.41633403873E+02  0.18736932770E+03  0.17120000000E+03 0.  0.
        998    1    1    2    0    0  0.66601473739E+01  0.98208626978E+02  0.86720247062E+03  0.87282840068E+03  0.10000000000E+02 0. -1.
</event>
<event>
 5    1  0.1344348E-008  0.3830254E+03  0.7957747E-01  0.3438090E+00
         13   -1    0    0    0    0  0.00000000000E+00  0.00000000000E+00  0.14999999963E+04  0.15000000000E+04  0.10566000000E+00 0.  1.
        994   -1    0    0    0    0 -0.00000000000E+00 -0.00000000000E+00  0.11368683772E-12  0.17120000000E+03  0.17120000000E+03 0.  0.
         13    1    1    2    0    0  0.35383509630E+02 -0.15770773274E+01  0.21414264217E+03  0.21705198061E+03  0.10566000000E+00 0.  1.
        994    1    1    2    0    0 -0.33551579343E+02 -0.13428323738E+02  0.69484421147E+01  0.17511067701E+03  0.17120000000E+03 0.  0.
        998    1    1    2    0    0 -0.18319302876E+01  0.15005401066E+02  0.12789089120E+04  0.12790373424E+04  0.10000000000E+02 0.  1.
</event>
<event>
 5    1  0.1344348E-008  0.3857599E+03  0.7957747E-01  0.3426456E+00
         13   -1    0    0    0    0  0.00000000000E+00  0.00000000000E+00  0.14999999963E+04  0.15000000000E+04  0.10566000000E+00 0. -1.
        994   -1    0    0    0    0 -0.00000000000E+00 -0.00000000000E+00  0.11368683772E-12  0.17120000000E+03  0.17120000000E+03 0.  0.
         13    1    1    2    0    0  0.41592084177E+01 -0.15725788417E+02  0.97191541201E+02  0.98543423328E+02  0.10566000000E+00 0. -1.
        994    1    1    2    0    0 -0.72077214256E+01  0.19677987086E+02  0.26954125720E+01  0.17249892658E+03  0.17120000000E+03 0.  0.
        998    1    1    2    0    0  0.30485130078E+01 -0.39521986683E+01  0.14001130425E+04  0.14001576501E+04  0.10000000000E+02 0. -1.
</event>
<event>
 5    1  0.1344348E-008  0.3836978E+03  0.7957747E-01  0.3435214E+00
         13   -1    0    0    0    0  0.00000000000E+00  0.00000000000E+00  0.14999999963E+04  0.15000000000E+04  0.10566000000E+00 0. -1.
        994   -1    0    0    0    0 -0.00000000000E+00 -0.00000000000E+00  0.11368683772E-12  0.17120000000E+03  0.17120000000E+03 0.  0.
         13    1    1    2    0    0  0.91723449563E+01  0.71285582509E+01  0.29929822305E+02  0.32105352856E+02  0.10566000000E+00 0. -1.
        994    1    1    2    0    0  0.54969860909E+01 -0.56004189415E+01  0.24814235349E+01  0.17139772172E+03  0.17120000000E+03 0.  0.
        998    1    1    2    0    0 -0.14669331047E+02 -0.15281393094E+01  0.14675887504E+04  0.14676969254E+04  0.10000000000E+02 0. -1.
</event>
<event>
 5    1  0.1344348E-008  0.3792323E+03  0.7957747E-01  0.3454508E+00
         13   -1    0    0    0    0  0.00000000000E+00  0.00000000000E+00  0.14999999963E+04  0.15000000000E+04  0.10566000000E+00 0. -1.
        994   -1    0    0    0    0 -0.00000000000E+00 -0.00000000000E+00  0.11368683772E-12  0.17120000000E+03  0.17120000000E+03 0.  0.
         13    1    1    2    0    0 -0.88734583384E+01  0.66806151426E+01  0.11574578255E+02  0.16042160309E+02  0.10566000000E+00 0. -1.
        994    1    1    2    0    0  0.46440390299E+01 -0.11679743159E+02  0.50508074317E+01  0.17173506967E+03  0.17120000000E+03 0.  0.
        998    1    1    2    0    0  0.42294193085E+01  0.49991280162E+01  0.14833746106E+04  0.14834227700E+04  0.10000000000E+02 0. -1.
</event>
<event>
 5    1  0.1344348E-008  0.3775502E+03  0.7957747E-01  0.3461895E+00
         13   -1    0    0    0    0  0.00000000000E+00  0.00000000000E+00  0.14999999963E+04  0.15000000000E+04  0.10566000000E+00 0.  1.
        994   -1    0    0    0    0 -0.00000000000E+00 -0.00000000000E+00  0.11368683772E-12  0.17120000000E+03  0.17120000000E+03 0.  0.
         13    1    1    2    0    0  0.31149349884E+02 -0.89380358109E+01  0.87434925710E+02  0.93247240604E+02  0.10566000000E+00 0.  1.
        994    1    1    2    0    0 -0.37976041113E+02  0.16545448481E+02  0.11179916120E+02  0.17649465173E+03  0.17120000000E+03 0.  0.
        998    1    1    2    0    0  0.68266912290E+01 -0.76074126697E+01  0.14013851544E+04  0.14014581077E+04  0.10000000000E+02 0.  1.
</event>
<event>
 5    1  0.1344348E-008  0.3781787E+03  0.7957747E-01  0.3459127E+00
         13   -1    0    0    0    0  0.00000000000E+00  0.00000000000E+00  0.14999999963E+04  0.15000000000E+04  0.10566000000E+00 0. -1.
        994   -1    0    0    0    0 -0.00000000000E+00 -0.00000000000E+00  0.11368683772E-12  0.17120000000E+03  0.17120000000E+03 0.  0.
         13    1    1    2    0    0  0.45604519869E+01  0.16641275017E+02  0.27667331734E+02  0.32607087663E+02  0.10566000000E+00 0. -1.
        994    1    1    2    0    0  0.66057986281E+01 -0.10098567817E+02  0.55452517119E+01  0.17171431933E+03  0.17120000000E+03 0.  0.
        998    1    1    2    0    0 -0.11166250615E+02 -0.65427072001E+01  0.14667874128E+04  0.14668785930E+04  0.10000000000E+02 0. -1.
</event>
<event>
 5    1  0.1344348E-008  0.3789269E+03  0.7957747E-01  0.3455844E+00
         13   -1    0    0    0    0  0.00000000000E+00  0.00000000000E+00  0.14999999963E+04  0.15000000000E+04  0.10566000000E+00 0. -1.
        994   -1    0    0    0    0 -0.00000000000E+00 -0.00000000000E+00  0.11368683772E-12  0.17120000000E+03  0.17120000000E+03 0.  0.
         13    1    1    2    0    0  0.16425200521E+02  0.59696582252E+01  0.29880836008E+02  0.34616463656E+02  0.10566000000E+00 0. -1.
        994    1    1    2    0    0 -0.19385515117E+02 -0.10645369426E+02  0.63184390988E+01  0.17273819716E+03  0.17120000000E+03 0.  0.
        998    1    1    2    0    0  0.29603145958E+01  0.46757112010E+01  0.14638007212E+04  0.14638453392E+04  0.10000000000E+02 0. -1.
</event>
<event>
 5    1  0.1344348E-008  0.3842093E+03  0.7957747E-01  0.3433033E+00
         13   -1    0    0    0    0  0.00000000000E+00  0.00000000000E+00  0.14999999963E+04  0.15000000000E+04  0.10566000000E+00 0. -1.
        994   -1    0    0    0    0 -0.00000000000E+00 -0.00000000000E+00  0.11368683772E-12  0.17120000000E+03  0.17120000000E+03 0.  0.
         13    1    1    2    0    0 -0.22414325368E+02  0.20308779846E+01  0.11679092485E+03  0.11893972313E+03  0.10566000000E+00 0. -1.
        994    1    1    2    0    0  0.23925237737E+02  0.10177923478E+02  0.42552661903E+01  0.17321534117E+03  0.17120000000E+03 0.  0.
        998    1    1    2    0    0 -0.15109123690E+01 -0.12208801463E+02  0.13789538052E+04  0.13790449357E+04  0.10000000000E+02 0. -1.
</event>
<event>
 5    1  0.1344348E-008  0.3841872E+03  0.7957747E-01  0.3433127E+00
         13   -1    0    0    0    0  0.00000000000E+00  0.00000000000E+00  0.14999999963E+04  0.15000000000E+04  0.10566000000E+00 0.  1.
        994   -1    0    0    0    0 -0.00000000000E+00 -0.00000000000E+00  0.11368683772E-12  0.17120000000E+03  0.17120000000E+03 0.  0.
         13    1    1    2    0    0 -0.24353762644E+01 -0.15399719971E+02  0.60948349507E+02  0.62911007815E+02  0.10566000000E+00 0.  1.
        994    1    1    2    0    0  0.34034479858E+01  0.50853228608E+01  0.21577063751E+01  0.17132291050E+03  0.17120000000E+03 0.  0.
        998    1    1    2    0    0 -0.96807172139E+00  0.10314397110E+02  0.14368939404E+04  0.14369660817E+04  0.10000000000E+02 0.  1.
</event>
<event>
 5    1  0.1344348E-008  0.3805609E+03  0.7957747E-01  0.3448720E+00
         13   -1    0    0    0    0  0.00000000000E+00  0.00000000000E+00  0.14999999963E+04  0.15000000000E+04  0.10566000000E+00 0. -1.
        994   -1    0    0    0    0 -0.00000000000E+00 -0.00000000000E+00  0.11368683772E-12  0.17120000000E+03  0.17120000000E+03 0.  0.
         13    1    1    2    0    0 -0.70857102867E+01 -0.32619852640E+02  0.16924288056E+03  0.17250340826E+03  0.10566000000E+00 0. -1.
        994    1    1    2    0    0  0.86577469122E+01 -0.53485342512E+01  0.41958946798E+01  0.17155351623E+03  0.17120000000E+03 0.  0.
        998    1    1    2    0    0 -0.15720366255E+01  0.37968386891E+02  0.13265612210E+04  0.13271430755E+04  0.10000000000E+02 0. -1.
</event>
<event>
 5    1  0.1344348E-008  0.3837852E+03  0.7957747E-01  0.3434841E+00
         13   -1    0    0    0    0  0.00000000000E+00  0.00000000000E+00  0.14999999963E+04  0.15000000000E+04  0.10566000000E+00 0.  1.
        994   -1    0    0    0    0 -0.00000000000E+00 -0.00000000000E+00  0.11368683772E-12  0.17120000000E+03  0.17120000000E+03 0.  0.
         13    1    1    2    0    0 -0.12731175403E+02 -0.12655403773E+02  0.77727554903E+02  0.79773592291E+02  0.10566000000E+00 0.  1.
        994    1    1    2    0    0 -0.38637497138E+01  0.10868157145E+01  0.22876508198E+01  0.17126232241E+03  0.17120000000E+03 0.  0.
        998    1    1    2    0    0  0.16594925116E+02  0.11568588058E+02  0.14199847906E+04  0.14201640853E+04  0.10000000000E+02 0.  1.
</event>
<event>
 5    1  0.1344348E-008  0.3719770E+03  0.7957747E-01  0.3486854E+00
         13   -1    0    0    0    0  0.00000000000E+00  0.00000000000E+00  0.14999999963E+04  0.15000000000E+04  0.10566000000E+00 0. -1.
        994   -1    0    0    0    0 -0.00000000000E+00 -0.00000000000E+00  0.11368683772E-12  0.17120000000E+03  0.17120000000E+03 0.  0.
         13    1    1    2    0    0 -0.28456000647E+02 -0.78861790327E+01  0.47698900990E+02  0.56099305809E+02  0.10566000000E+00 0. -1.
        994    1    1    2    0    0  0.33765792034E+02  0.42099871508E+01  0.12226085735E+02  0.17497648378E+03  0.17120000000E+03 0.  0.
        998    1    1    2    0    0 -0.53097913866E+01  0.36761918820E+01  0.14400750096E+04  0.14401242104E+04  0.10000000000E+02 0. -1.
</event>
<event>
 5    1  0.1344348E-008  0.3724628E+03  0.7957747E-01  0.3484649E+00
         13   -1    0    0    0    0  0.00000000000E+00  0.00000000000E+00  0.14999999963E+04  0.15000000000E+04  0.10566000000E+00 0. -1.
        994   -1    0    0    0    0 -0.00000000000E+00 -0.00000000000E+00  0.11368683772E-12  0.17120000000E+03  0.17120000000E+03 0.  0.
         13    1    1    2    0    0 -0.76713707167E+01  0.12556898473E+03  0.49600007121E+03  0.51170548332E+03  0.10566000000E+00 0. -1.
        994    1    1    2    0    0 -0.60020708732E+01 -0.10658422166E+03  0.53601162259E+02  0.20875522929E+03  0.17120000000E+03 0.  0.
        998    1    1    2    0    0  0.13673441590E+02 -0.18984763065E+02  0.95039876281E+03  0.95073928738E+03  0.10000000000E+02 0. -1.
</event>
<event>
 5    1  0.1344348E-008  0.3832875E+03  0.7957747E-01  0.3436968E+00
         13   -1    0    0    0    0  0.00000000000E+00  0.00000000000E+00  0.14999999963E+04  0.15000000000E+04  0.10566000000E+00 0.  1.
        994   -1    0    0    0    0 -0.00000000000E+00 -0.00000000000E+00  0.11368683772E-12  0.17120000000E+03  0.17120000000E+03 0.  0.
         13    1    1    2    0    0  0.26072550392E+02  0.55858660322E+01  0.15594688531E+03  0.15821005653E+03  0.10566000000E+00 0.  1.
        994    1    1    2    0    0 -0.26419502581E+01 -0.13381622009E+02  0.30982391317E+01  0.17177044797E+03  0.17120000000E+03 0.  0.
        998    1    1    2    0    0 -0.23430600134E+02  0.77957559765E+01  0.13409548718E+04  0.13412194955E+04  0.10000000000E+02 0.  1.
</event>
<event>
 5    1  0.1344348E-008  0.3849280E+03  0.7957747E-01  0.3429978E+00
         13   -1    0    0    0    0  0.00000000000E+00  0.00000000000E+00  0.14999999963E+04  0.15000000000E+04  0.10566000000E+00 0.  1.
        994   -1    0    0    0    0 -0.00000000000E+00 -0.00000000000E+00  0.11368683772E-12  0.17120000000E+03  0.17120000000E+03 0.  0.
         13    1    1    2    0    0  0.93292212507E+01  0.12589689492E+02  0.85499585127E+02  0.86923672677E+02  0.10566000000E+00 0.  1.
        994    1    1    2    0    0 -0.13223617488E+02  0.21091979834E+02  0.37071150784E+01  0.17304022184E+03  0.17120000000E+03 0.  0.
        998    1    1    2    0    0  0.38943962377E+01 -0.33681669326E+02  0.14107932961E+04  0.14112361055E+04  0.10000000000E+02 0.  1.
</event>
<event>
 5    1  0.1344348E-008  0.3840802E+03  0.7957747E-01  0.3433583E+00
         13   -1    0    0    0    0  0.00000000000E+00  0.00000000000E+00  0.14999999963E+04  0.15000000000E+04  0.10566000000E+00 0.  1.
        994   -1    0    0    0    0 -0.00000000000E+00 -0.00000000000E+00  0.11368683772E-12  0.17120000000E+03  0.17120000000E+03 0.  0.
         13    1    1    2    0    0 -0.66609425973E+01  0.17684887737E+02  0.86916632586E+02  0.88947375423E+02  0.10566000000E+00 0.  1.
        994    1    1    2    0    0 -0.16175063542E+02 -0.16195233695E+02  0.38175483804E+01  0.17276554040E+03  0.17120000000E+03 0.  0.
        998    1    1    2    0    0  0.22836006139E+02 -0.14896540419E+01  0.14092658153E+04  0.14094870842E+04  0.10000000000E+02 0.  1.
</event>
<event>
 5    1  0.1344348E-008  0.3821264E+03  0.7957747E-01  0.3441952E+00
         13   -1    0    0    0    0  0.00000000000E+00  0.00000000000E+00  0.14999999963E+04  0.15000000000E+04  0.10566000000E+00 0. -1.
        994   -1    0    0    0    0 -0.00000000000E+00 -0.00000000000E+00  0.11368683772E-12  0.17120000000E+03  0.17120000000E+03 0.  0.
         13    1    1    2    0    0 -0.15689076477E+02  0.59132501875E+01  0.42423149182E+02  0.45616317246E+02  0.10566000000E+00 0. -1.
        994    1    1    2    0    0  0.22734858079E+02 -0.11043203746E+02  0.51871339663E+01  0.17313339504E+03  0.17120000000E+03 0.  0.
        998    1    1    2    0    0 -0.70457816023E+01  0.51299535590E+01  0.14523897131E+04  0.14524502877E+04  0.10000000000E+02 0. -1.
</event>
<event>
 5    1  0.1344348E-008  0.3811555E+03  0.7957747E-01  0.3446143E+00
         13   -1    0    0    0    0  0.00000000000E+00  0.00000000000E+00  0.14999999963E+04  0.15000000000E+04  0.10566000000E+00 0. -1.
        994   -1    0    0    0    0 -0.00000000000E+00 -0.00000000000E+00  0.11368683772E-12  0.17120000000E+03  0.17120000000E+03 0.  0.
         13    1    1    2    0    0  0.11221738490E+02  0.76544800526E+01  0.23781621564E+02  0.27387865340E+02  0.10566000000E+00 0. -1.
        994    1    1    2    0    0 -0.16779769985E+02 -0.11553006179E+02  0.49343501110E+01  0.17247846371E+03  0.17120000000E+03 0.  0.
        998    1    1    2    0    0  0.55580314942E+01  0.38985261263E+01  0.14712840246E+04  0.14713336710E+04  0.10000000000E+02 0. -1.
</event>
<event>
 5    1  0.1344348E-008  0.3846455E+03  0.7957747E-01  0.3431177E+00
         13   -1    0    0    0    0  0.00000000000E+00  0.00000000000E+00  0.14999999963E+04  0.15000000000E+04  0.10566000000E+00 0. -1.
        994   -1    0    0    0    0 -0.00000000000E+00 -0.00000000000E+00  0.11368683772E-12  0.17120000000E+03  0.17120000000E+03 0.  0.
         13    1    1    2    0    0  0.17317695167E+02  0.41722976349E+01  0.85146858821E+02  0.86990283162E+02  0.10566000000E+00 0. -1.
        994    1    1    2    0    0 -0.14176700686E+02 -0.85144515845E+01  0.27071443007E+01  0.17201814834E+03  0.17120000000E+03 0.  0.
        998    1    1    2    0    0 -0.31409944813E+01  0.43421539496E+01  0.14121459932E+04  0.14121915685E+04  0.10000000000E+02 0. -1.
</event>
<event>
 5    1  0.1344348E-008  0.3831387E+03  0.7957747E-01  0.3437605E+00
         13   -1    0    0    0    0  0.00000000000E+00  0.00000000000E+00  0.14999999963E+04  0.15000000000E+04  0.10566000000E+00 0.  1.
        994   -1    0    0    0    0 -0.00000000000E+00 -0.00000000000E+00  0.11368683772E-12  0.17120000000E+03  0.17120000000E+03 0.  0.
         13    1    1    2    0    0 -0.80828343350E+01  0.14421206306E+02  0.49844470973E+02  0.52514625133E+02  0.10566000000E+00 0.  1.
        994    1    1    2    0    0  0.15533403042E+02 -0.17853198115E+02  0.44121583922E+01  0.17288415322E+03  0.17120000000E+03 0.  0.
        998    1    1    2    0    0 -0.74505687074E+01  0.34319918096E+01  0.14457433669E+04  0.14458012216E+04  0.10000000000E+02 0.  1.
</event>
<event>
 5    1  0.1344348E-008  0.3631811E+03  0.7957747E-01  0.3527829E+00
         13   -1    0    0    0    0  0.00000000000E+00  0.00000000000E+00  0.14999999963E+04  0.15000000000E+04  0.10566000000E+00 0.  1.
        994   -1    0    0    0    0 -0.00000000000E+00 -0.00000000000E+00  0.11368683772E-12  0.17120000000E+03  0.17120000000E+03 0.  0.
         13    1    1    2    0    0 -0.12712890550E+03  0.21706357270E+03  0.10669573112E+04  0.10962099563E+04  0.10566000000E+00 0.  1.
        994    1    1    2    0    0  0.10596579310E+03 -0.20697851179E+03  0.22678717663E+03  0.36716578971E+03  0.17120000000E+03 0.  0.
        998    1    1    2    0    0  0.21163112401E+02 -0.10085060912E+02  0.20625550847E+03  0.20782425401E+03  0.10000000000E+02 0.  1.
</event>
<event>
 5    1  0.1344348E-008  0.3746861E+03  0.7957747E-01  0.3474628E+00
         13   -1    0    0    0    0  0.00000000000E+00  0.00000000000E+00  0.14999999963E+04  0.15000000000E+04  0.10566000000E+00 0.  1.
        994   -1    0    0    0    0 -0.00000000000E+00 -0.00000000000E+00  0.11368683772E-12  0.17120000000E+03  0.17120000000E+03 0.  0.
         13    1    1    2    0    0 -0.64083270629E+01 -0.43737608648E+02  0.67710360502E+02  0.80862532419E+02  0.10566000000E+00 0.  1.
        994    1    1    2    0    0 -0.58749517380E+01  0.31723717250E+02  0.17147143330E+02  0.17505534502E+03  0.17120000000E+03 0.  0.
        998    1    1    2    0    0  0.12283278801E+02  0.12013891397E+02  0.14151424924E+04  0.14152821226E+04  0.10000000000E+02 0.  1.
</event>
<event>
 5    1  0.1344348E-008  0.3698208E+03  0.7957747E-01  0.3496715E+00
         13   -1    0    0    0    0  0.00000000000E+00  0.00000000000E+00  0.14999999963E+04  0.15000000000E+04  0.10566000000E+00 0. -1.
        994   -1    0    0    0    0 -0.00000000000E+00 -0.00000000000E+00  0.11368683772E-12  0.17120000000E+03  0.17120000000E+03 0.  0.
         13    1    1    2    0    0  0.15206050055E+03 -0.13449702885E+03  0.74783002598E+03  0.77489457703E+03  0.10566000000E+00 0. -1.
        994    1    1    2    0    0 -0.14798116620E+03  0.13992201276E+03  0.17376455213E+03  0.31777374779E+03  0.17120000000E+03 0.  0.
        998    1    1    2    0    0 -0.40793343479E+01 -0.54249839068E+01  0.57840541817E+03  0.57853167518E+03  0.10000000000E+02 0. -1.
</event>
<event>
 5    1  0.1344348E-008  0.3724310E+03  0.7957747E-01  0.3484793E+00
         13   -1    0    0    0    0  0.00000000000E+00  0.00000000000E+00  0.14999999963E+04  0.15000000000E+04  0.10566000000E+00 0.  1.
        994   -1    0    0    0    0 -0.00000000000E+00 -0.00000000000E+00  0.11368683772E-12  0.17120000000E+03  0.17120000000E+03 0.  0.
         13    1    1    2    0    0  0.20480260903E+02 -0.23207504581E+02  0.36737717797E+02  0.48038530666E+02  0.10566000000E+00 0.  1.
        994    1    1    2    0    0  0.11472663230E+02  0.19576880358E+01  0.12707811839E+02  0.17206505463E+03  0.17120000000E+03 0.  0.
        998    1    1    2    0    0 -0.31952924133E+02  0.21249816545E+02  0.14505544666E+04  0.14510964147E+04  0.10000000000E+02 0.  1.
</event>
<event>
 5    1  0.1344348E-008  0.3840091E+03  0.7957747E-01  0.3433885E+00
         13   -1    0    0    0    0  0.00000000000E+00  0.00000000000E+00  0.14999999963E+04  0.15000000000E+04  0.10566000000E+00 0.  1.
        994   -1    0    0    0    0 -0.00000000000E+00 -0.00000000000E+00  0.11368683772E-12  0.17120000000E+03  0.17120000000E+03 0.  0.
         13    1    1    2    0    0 -0.12240874751E+01  0.13656164161E+02  0.42982066941E+02  0.45116055372E+02  0.10566000000E+00 0.  1.
        994    1    1    2    0    0 -0.44426087343E+01 -0.13651078892E+02  0.28031143237E+01  0.17182370668E+03  0.17120000000E+03 0.  0.
        998    1    1    2    0    0  0.56666962094E+01 -0.50852689129E-02  0.14542148150E+04  0.14542602379E+04  0.10000000000E+02 0.  1.
</event>
<event>
 5    1  0.1344348E-008  0.3975419E+03  0.7957747E-01  0.3378162E+00
         13   -1    0    0    0    0  0.00000000000E+00  0.00000000000E+00  0.14999999963E+04  0.15000000000E+04  0.10566000000E+00 0.  1.
        994   -1    0    0    0    0 -0.00000000000E+00 -0.00000000000E+00  0.11368683772E-12  0.17120000000E+03  0.17120000000E+03 0.  0.
         13    1    1    2    0    0 -0.27279530465E+02  0.63027957215E+02  0.77434484915E+02  0.10350268978E+03  0.10566000000E+00 0.  1.
        994    1    1    2    0    0  0.26464717800E+02 -0.61410649468E+02  0.43863599878E+02  0.18895794387E+03  0.17120000000E+03 0.  0.
        998    1    1    2    0    0  0.81481266556E+00 -0.16173077471E+01  0.13787019115E+04  0.13787393664E+04  0.10000000000E+02 0.  1.
</event>
<event>
 5    1  0.1344348E-008  0.3691121E+03  0.7957747E-01  0.3499981E+00
         13   -1    0    0    0    0  0.00000000000E+00  0.00000000000E+00  0.14999999963E+04  0.15000000000E+04  0.10566000000E+00 0. -1.
        994   -1    0    0    0    0 -0.00000000000E+00 -0.00000000000E+00  0.11368683772E-12  0.17120000000E+03  0.17120000000E+03 0.  0.
         13    1    1    2    0    0 -0.14242683812E+02  0.13346557898E+02  0.14552220485E+02  0.24346723290E+02  0.10566000000E+00 0. -1.
        994    1    1    2    0    0 -0.61038033584E+01  0.15304917075E+02  0.11416836950E+02  0.17236960599E+03  0.17120000000E+03 0.  0.
        998    1    1    2    0    0  0.20346487170E+02 -0.28651474973E+02  0.14740309388E+04  0.14744836707E+04  0.10000000000E+02 0. -1.
</event>
<event>
 5    1  0.1344348E-008  0.3700818E+03  0.7957747E-01  0.3495515E+00
         13   -1    0    0    0    0  0.00000000000E+00  0.00000000000E+00  0.14999999963E+04  0.15000000000E+04  0.10566000000E+00 0.  1.
        994   -1    0    0    0    0 -0.00000000000E+00 -0.00000000000E+00  0.11368683772E-12  0.17120000000E+03  0.17120000000E+03 0.  0.
         13    1    1    2    0    0 -0.45960156766E+02  0.26156921885E+02  0.14352181675E+03  0.15295438412E+03  0.10566000000E+00 0.  1.
        994    1    1    2    0    0  0.22690615525E-01  0.62729345860E+01  0.11119699677E+02  0.17167538538E+03  0.17120000000E+03 0.  0.
        998    1    1    2    0    0  0.45937466150E+02 -0.32429856471E+02  0.13453584798E+04  0.13465702305E+04  0.10000000000E+02 0.  1.
</event>
<event>
 5    1  0.1633797E-008  0.3852287E+03  0.7957747E-01  0.3428703E+00
         13   -1    0    0    0    0  0.00000000000E+00  0.00000000000E+00  0.14999999963E+04  0.15000000000E+04  0.10566000000E+00 0.  1.
        994   -1    0    0    0    0 -0.00000000000E+00 -0.00000000000E+00  0.11368683772E-12  0.17120000000E+03  0.17120000000E+03 0.  0.
         13    1    1    2    0    0  0.90571123886E+01  0.63592561011E+01  0.41071838591E+02  0.42536790103E+02  0.10566000000E+00 0.  1.
        994    1    1    2    0    0 -0.32984164754E+01 -0.25087655547E+01  0.15730937991E+01  0.17125737380E+03  0.17120000000E+03 0.  0.
        998    1    1    2    0    0 -0.57586959132E+01 -0.38504905464E+01  0.14573550639E+04  0.14574058361E+04  0.10000000000E+02 0.  1.
</event>
<event>
 5    1  0.1344348E-008  0.3833368E+03  0.7957747E-01  0.3436757E+00
         13   -1    0    0    0    0  0.00000000000E+00  0.00000000000E+00  0.14999999963E+04  0.15000000000E+04  0.10566000000E+00 0.  1.
        994   -1    0    0    0    0 -0.00000000000E+00 -0.00000000000E+00  0.11368683772E-12  0.17120000000E+03  0.17120000000E+03 0.  0.
         13    1    1    2    0    0 -0.18679555419E+02  0.11271627317E+02  0.10184125852E+03  0.10415194897E+03  0.10566000000E+00 0.  1.
        994    1    1    2    0    0  0.42649224991E+01 -0.24680428916E+01  0.25384223486E+01  0.17128970894E+03  0.17120000000E+03 0.  0.
        998    1    1    2    0    0  0.14414632920E+02 -0.88035844254E+01  0.13956203154E+04  0.13957583421E+04  0.10000000000E+02 0.  1.
</event>
<event>
 5    1  0.1344348E-008  0.3818252E+03  0.7957747E-01  0.3443250E+00
         13   -1    0    0    0    0  0.00000000000E+00  0.00000000000E+00  0.14999999963E+04  0.15000000000E+04  0.10566000000E+00 0. -1.
        994   -1    0    0    0    0 -0.00000000000E+00 -0.00000000000E+00  0.11368683772E-12  0.17120000000E+03  0.17120000000E+03 0.  0.
         13    1    1    2    0    0 -0.25642058618E+01  0.13591375025E+02  0.28286643993E+02  0.31487235814E+02  0.10566000000E+00 0. -1.
        994    1    1    2    0    0 -0.62995886468E+00 -0.12578290885E+02  0.37418558972E+01  0.17170338300E+03  0.17120000000E+03 0.  0.
        998    1    1    2    0    0  0.31941647265E+01 -0.10130841395E+01  0.14679714964E+04  0.14680093812E+04  0.10000000000E+02 0. -1.
</event>
<event>
 5    1  0.1344348E-008  0.3838025E+03  0.7957747E-01  0.3434767E+00
         13   -1    0    0    0    0  0.00000000000E+00  0.00000000000E+00  0.14999999963E+04  0.15000000000E+04  0.10566000000E+00 0. -1.
        994   -1    0    0    0    0 -0.00000000000E+00 -0.00000000000E+00  0.11368683772E-12  0.17120000000E+03  0.17120000000E+03 0.  0.
         13    1    1    2    0    0 -0.25926013724E+02  0.96309368858E+01  0.15771753728E+03  0.16012415765E+03  0.10566000000E+00 0. -1.
        994    1    1    2    0    0  0.26174733540E+02 -0.50189258721E+01  0.45744164970E+01  0.17332244973E+03  0.17120000000E+03 0.  0.
        998    1    1    2    0    0 -0.24871981633E+00 -0.46120110137E+01  0.13377080425E+04  0.13377533926E+04  0.10000000000E+02 0.  0.
</event>
<event>
 5    1  0.1344348E-008  0.3746091E+03  0.7957747E-01  0.3474973E+00
         13   -1    0    0    0    0  0.00000000000E+00  0.00000000000E+00  0.14999999963E+04  0.15000000000E+04  0.10566000000E+00 0. -1.
        994   -1    0    0    0    0 -0.00000000000E+00 -0.00000000000E+00  0.11368683772E-12  0.17120000000E+03  0.17120000000E+03 0.  0.
         13    1    1    2    0    0  0.13356255404E+02 -0.56632851755E+01  0.12188225908E+02  0.18947991245E+02  0.10566000000E+00 0. -1.
        994    1    1    2    0    0 -0.10066555078E+02  0.79864874570E+01  0.74417908870E+01  0.17184277629E+03  0.17120000000E+03 0.  0.
        998    1    1    2    0    0 -0.32897003260E+01 -0.23232022815E+01  0.14803699795E+04  0.14804092325E+04  0.10000000000E+02 0. -1.
</event>
<event>
 5    1  0.1344348E-008  0.3833273E+03  0.7957747E-01  0.3436798E+00
         13   -1    0    0    0    0  0.00000000000E+00  0.00000000000E+00  0.14999999963E+04  0.15000000000E+04  0.10566000000E+00 0. -1.
        994   -1    0    0    0    0 -0.00000000000E+00 -0.00000000000E+00  0.11368683772E-12  0.17120000000E+03  0.17120000000E+03 0.  0.
         13    1    1    2    0    0 -0.19344243574E+02  0.34658108471E+02  0.19983755833E+03  0.20374112282E+03  0.10566000000E+00 0. -1.
        994    1    1    2    0    0  0.35852856368E+02 -0.68547731456E+02  0.22508294456E+02  0.18920962480E+03  0.17120000000E+03 0.  0.
        998    1    1    2    0    0 -0.16508612794E+02  0.33889622985E+02  0.12776541435E+04  0.12782492524E+04  0.10000000000E+02 0.  1.
</event>
<event>
 5    1  0.1344348E-008  0.3828527E+03  0.7957747E-01  0.3438831E+00
         13   -1    0    0    0    0  0.00000000000E+00  0.00000000000E+00  0.14999999963E+04  0.15000000000E+04  0.10566000000E+00 0. -1.
        994   -1    0    0    0    0 -0.00000000000E+00 -0.00000000000E+00  0.11368683772E-12  0.17120000000E+03  0.17120000000E+03 0.  0.
         13    1    1    2    0    0  0.93519109428E+01  0.78826492297E+01  0.27267304656E+02  0.29884970544E+02  0.10566000000E+00 0. -1.
        994    1    1    2    0    0  0.13039957699E+02 -0.20022283244E+02  0.45930560743E+01  0.17292041085E+03  0.17120000000E+03 0.  0.
        998    1    1    2    0    0 -0.22391868642E+02  0.12139634015E+02  0.14681396355E+04  0.14683946186E+04  0.10000000000E+02 0. -1.
</event>
<event>
 5    1  0.1344348E-008  0.3846314E+03  0.7957747E-01  0.3431237E+00
         13   -1    0    0    0    0  0.00000000000E+00  0.00000000000E+00  0.14999999963E+04  0.15000000000E+04  0.10566000000E+00 0. -1.
        994   -1    0    0    0    0 -0.00000000000E+00 -0.00000000000E+00  0.11368683772E-12  0.17120000000E+03  0.17120000000E+03 0.  0.
         13    1    1    2    0    0  0.41174054271E+01 -0.15698877036E+02  0.67907210223E+02  0.69819826209E+02  0.10566000000E+00 0. -1.
        994    1    1    2    0    0 -0.59872227263E-01  0.22017205922E+02  0.34110091805E+01  0.17264366749E+03  0.17120000000E+03 0.  0.
        998    1    1    2    0    0 -0.40575331998E+01 -0.63183288865E+01  0.14286817769E+04  0.14287365063E+04  0.10000000000E+02 0. -1.
</event>
<event>
 5    1  0.1344348E-008  0.3858361E+03  0.7957747E-01  0.3426134E+00
         13   -1    0    0    0    0  0.00000000000E+00  0.00000000000E+00  0.14999999963E+04  0.15000000000E+04  0.10566000000E+00 0.  1.
        994   -1    0    0    0    0 -0.00000000000E+00 -0.00000000000E+00  0.11368683772E-12  0.17120000000E+03  0.17120000000E+03 0.  0.
         13    1    1    2    0    0 -0.95828229470E+01 -0.40336520549E+01  0.44266527550E+02  0.45471281815E+02  0.10566000000E+00 0.  1.
        994    1    1    2    0    0  0.72316612324E+01  0.65288680740E+01  0.15269774833E+01  0.17148380303E+03  0.17120000000E+03 0.  0.
        998    1    1    2    0    0  0.23511617146E+01 -0.24952160191E+01  0.14542064912E+04  0.14542449152E+04  0.10000000000E+02 0.  1.
</event>
<event>
 5    1  0.1344348E-008  0.3855436E+03  0.7957747E-01  0.3427370E+00
         13   -1    0    0    0    0  0.00000000000E+00  0.00000000000E+00  0.14999999963E+04  0.15000000000E+04  0.10566000000E+00 0.  1.
        994   -1    0    0    0    0 -0.00000000000E+00 -0.00000000000E+00  0.11368683772E-12  0.17120000000E+03  0.17120000000E+03 0.  0.
         13    1    1    2    0    0 -0.16098077272E+02 -0.32207501747E+01  0.95599102166E+02  0.96998560930E+02  0.10566000000E+00 0.  1.
        994    1    1    2    0    0  0.13921479851E+02  0.96137024240E+01  0.23006858101E+01  0.17204930698E+03  0.17120000000E+03 0.  0.
        998    1    1    2    0    0  0.21765974203E+01 -0.63929522494E+01  0.14021002083E+04  0.14021521321E+04  0.10000000000E+02 0.  1.
</event>
<event>
 5    1  0.1344348E-008  0.3848744E+03  0.7957747E-01  0.3430205E+00
         13   -1    0    0    0    0  0.00000000000E+00  0.00000000000E+00  0.14999999963E+04  0.15000000000E+04  0.10566000000E+00 0. -1.
        994   -1    0    0    0    0 -0.00000000000E+00 -0.00000000000E+00  0.11368683772E-12  0.17120000000E+03  0.17120000000E+03 0.  0.
         13    1    1    2    0    0 -0.53498615350E+01 -0.16171678257E+02  0.10207339980E+03  0.10348494725E+03  0.10566000000E+00 0. -1.
        994    1    1    2    0    0 -0.63908791983E+01 -0.91307866126E+01  0.21012995953E+01  0.17157526063E+03  0.17120000000E+03 0.  0.
        998    1    1    2    0    0  0.11740740733E+02  0.25302464869E+02  0.13958252969E+04  0.13961397921E+04  0.10000000000E+02 0. -1.
</event>
<event>
 5    1  0.1652204E-008  0.3859608E+03  0.7957747E-01  0.3425607E+00
         13   -1    0    0    0    0  0.00000000000E+00  0.00000000000E+00  0.14999999963E+04  0.15000000000E+04  0.10566000000E+00 0. -1.
        994   -1    0    0    0    0 -0.00000000000E+00 -0.00000000000E+00  0.11368683772E-12  0.17120000000E+03  0.17120000000E+03 0.  0.
         13    1    1    2    0    0 -0.77864967381E+01 -0.97859968186E+01  0.71454569054E+02  0.72540760045E+02  0.10566000000E+00 0. -1.
        994    1    1    2    0    0  0.21381103911E+01  0.21151189979E+01  0.11835088777E+01  0.17123050528E+03  0.17120000000E+03 0.  0.
        998    1    1    2    0    0  0.56483863470E+01  0.76708778207E+01  0.14273619183E+04  0.14274287347E+04  0.10000000000E+02 0. -1.
</event>
<event>
 5    1  0.1344348E-008  0.3837115E+03  0.7957747E-01  0.3435155E+00
         13   -1    0    0    0    0  0.00000000000E+00  0.00000000000E+00  0.14999999963E+04  0.15000000000E+04  0.10566000000E+00 0.  1.
        994   -1    0    0    0    0 -0.00000000000E+00 -0.00000000000E+00  0.11368683772E-12  0.17120000000E+03  0.17120000000E+03 0.  0.
         13    1    1    2    0    0  0.14567981187E+02 -0.82530926483E+01  0.63916554579E+02  0.66073267873E+02  0.10566000000E+00 0.  1.
        994    1    1    2    0    0 -0.20147598548E+01  0.22236483245E+01  0.23009641249E+01  0.17124175398E+03  0.17120000000E+03 0.  0.
        998    1    1    2    0    0 -0.12553221332E+02  0.60294443239E+01  0.14337824776E+04  0.14338849782E+04  0.10000000000E+02 0.  1.
</event>
<event>
 5    1  0.1344348E-008  0.3790796E+03  0.7957747E-01  0.3455176E+00
         13   -1    0    0    0    0  0.00000000000E+00  0.00000000000E+00  0.14999999963E+04  0.15000000000E+04  0.10566000000E+00 0.  1.
        994   -1    0    0    0    0 -0.00000000000E+00 -0.00000000000E+00  0.11368683772E-12  0.17120000000E+03  0.17120000000E+03 0.  0.
         13    1    1    2    0    0 -0.17243440808E+02  0.26474796401E+01  0.30598830858E+02  0.35222791105E+02  0.10566000000E+00 0.  1.
        994    1    1    2    0    0  0.18894432028E+02 -0.10919722213E+01  0.58004614190E+01  0.17234058523E+03  0.17120000000E+03 0.  0.
        998    1    1    2    0    0 -0.16509912191E+01 -0.15555074188E+01  0.14636007040E+04  0.14636366237E+04  0.10000000000E+02 0.  1.
</event>
<event>
 5    1  0.1344348E-008  0.3813731E+03  0.7957747E-01  0.3445201E+00
         13   -1    0    0    0    0  0.00000000000E+00  0.00000000000E+00  0.14999999963E+04  0.15000000000E+04  0.10566000000E+00 0.  1.
        994   -1    0    0    0    0 -0.00000000000E+00 -0.00000000000E+00  0.11368683772E-12  0.17120000000E+03  0.17120000000E+03 0.  0.
         13    1    1    2    0    0  0.24858910363E+02 -0.31796597845E+02  0.41084947794E+02  0.57593169371E+02  0.10566000000E+00 0.  1.
        994    1    1    2    0    0 -0.21217262152E+02  0.21919845833E+02  0.20480114850E+02  0.17509862067E+03  0.17120000000E+03 0.  0.
        998    1    1    2    0    0 -0.36416482116E+01  0.98767520121E+01  0.14384349336E+04  0.14385082100E+04  0.10000000000E+02 0.  1.
</event>
<event>
 5    1  0.1344348E-008  0.3829938E+03  0.7957747E-01  0.3438226E+00
         13   -1    0    0    0    0  0.00000000000E+00  0.00000000000E+00  0.14999999963E+04  0.15000000000E+04  0.10566000000E+00 0. -1.
        994   -1    0    0    0    0 -0.00000000000E+00 -0.00000000000E+00  0.11368683772E-12  0.17120000000E+03  0.17120000000E+03 0.  0.
         13    1    1    2    0    0  0.11776803476E+02 -0.26756912516E+02  0.15831538282E+03  0.16099191616E+03  0.10566000000E+00 0. -1.
        994    1    1    2    0    0 -0.23648599155E+02  0.11998331465E+02  0.49607379792E+01  0.17331262251E+03  0.17120000000E+03 0.  0.
        998    1    1    2    0    0  0.11871795679E+02  0.14758581051E+02  0.13367238755E+04  0.13368954613E+04  0.10000000000E+02 0. -1.
</event>
<event>
 5    1  0.1344348E-008  0.3857780E+03  0.7957747E-01  0.3426379E+00
         13   -1    0    0    0    0  0.00000000000E+00  0.00000000000E+00  0.14999999963E+04  0.15000000000E+04  0.10566000000E+00 0.  1.
        994   -1    0    0    0    0 -0.00000000000E+00 -0.00000000000E+00  0.11368683772E-12  0.17120000000E+03  0.17120000000E+03 0.  0.
         13    1    1    2    0    0  0.14543518864E+02 -0.60439844046E+01  0.93158447475E+02  0.94480427541E+02  0.10566000000E+00 0.  1.
        994    1    1    2    0    0 -0.13147783566E+02  0.18616654057E+02  0.29501804331E+01  0.17273560023E+03  0.17120000000E+03 0.  0.
        998    1    1    2    0    0 -0.13957352980E+01 -0.12572669652E+02  0.14038913684E+04  0.14039839722E+04  0.10000000000E+02 0.  1.
</event>
<event>
 5    1  0.1344348E-008  0.3838131E+03  0.7957747E-01  0.3434722E+00
         13   -1    0    0    0    0  0.00000000000E+00  0.00000000000E+00  0.14999999963E+04  0.15000000000E+04  0.10566000000E+00 0.  1.
        994   -1    0    0    0    0 -0.00000000000E+00 -0.00000000000E+00  0.11368683772E-12  0.17120000000E+03  0.17120000000E+03 0.  0.
         13    1    1    2    0    0 -0.11375871864E+02  0.13395203673E+02  0.66432453070E+02  0.68717711887E+02  0.10566000000E+00 0.  1.
        994    1    1    2    0    0  0.12071318862E+02 -0.13855882295E+02  0.33362308361E+01  0.17221577352E+03  0.17120000000E+03 0.  0.
        998    1    1    2    0    0 -0.69544699856E+00  0.46067862179E+00  0.14302313124E+04  0.14302665146E+04  0.10000000000E+02 0.  0.
</event>
<event>
 5    1  0.1344348E-008  0.3781019E+03  0.7957747E-01  0.3459465E+00
         13   -1    0    0    0    0  0.00000000000E+00  0.00000000000E+00  0.14999999963E+04  0.15000000000E+04  0.10566000000E+00 0. -1.
        994   -1    0    0    0    0 -0.00000000000E+00 -0.00000000000E+00  0.11368683772E-12  0.17120000000E+03  0.17120000000E+03 0.  0.
         13    1    1    2    0    0  0.18264022485E+02  0.93895150878E+00  0.32914453345E+02  0.37654064194E+02  0.10566000000E+00 0. -1.
        994    1    1    2    0    0  0.10265008089E+02  0.37962269899E+01  0.54974184842E+01  0.17163753477E+03  0.17120000000E+03 0.  0.
        998    1    1    2    0    0 -0.28529030574E+02 -0.47351784986E+01  0.14615881244E+04  0.14619084010E+04  0.10000000000E+02 0. -1.
</event>
<event>
 5    1  0.1344348E-008  0.3850927E+03  0.7957747E-01  0.3429279E+00
         13   -1    0    0    0    0  0.00000000000E+00  0.00000000000E+00  0.14999999963E+04  0.15000000000E+04  0.10566000000E+00 0.  1.
        994   -1    0    0    0    0 -0.00000000000E+00 -0.00000000000E+00  0.11368683772E-12  0.17120000000E+03  0.17120000000E+03 0.  0.
         13    1    1    2    0    0 -0.10158310738E+02 -0.15874559355E+01  0.32283597505E+02  0.33881456953E+02  0.10566000000E+00 0.  1.
        994    1    1    2    0    0  0.12454250865E+02  0.52514579566E+01  0.21849675839E+01  0.17174661644E+03  0.17120000000E+03 0.  0.
        998    1    1    2    0    0 -0.22959401275E+01 -0.36640020211E+01  0.14655314312E+04  0.14655719266E+04  0.10000000000E+02 0.  1.
</event>
<event>
 5    1  0.1344348E-008  0.3819365E+03  0.7957747E-01  0.3442770E+00
         13   -1    0    0    0    0  0.00000000000E+00  0.00000000000E+00  0.14999999963E+04  0.15000000000E+04  0.10566000000E+00 0. -1.
        994   -1    0    0    0    0 -0.00000000000E+00 -0.00000000000E+00  0.11368683772E-12  0.17120000000E+03  0.17120000000E+03 0.  0.
         13    1    1    2    0    0  0.27367078078E+02 -0.15198842112E+02  0.16609644013E+03  0.16902070983E+03  0.10566000000E+00 0. -1.
        994    1    1    2    0    0 -0.66651401309E+01  0.57867215666E+01  0.34176300723E+01  0.17146145466E+03  0.17120000000E+03 0.  0.
        998    1    1    2    0    0 -0.20701937947E+02  0.94121205454E+01  0.13304859261E+04  0.13307178355E+04  0.10000000000E+02 0. -1.
</event>
<event>
 5    1  0.1344348E-008  0.3719473E+03  0.7957747E-01  0.3486989E+00
         13   -1    0    0    0    0  0.00000000000E+00  0.00000000000E+00  0.14999999963E+04  0.15000000000E+04  0.10566000000E+00 0.  1.
        994   -1    0    0    0    0 -0.00000000000E+00 -0.00000000000E+00  0.11368683772E-12  0.17120000000E+03  0.17120000000E+03 0.  0.
         13    1    1    2    0    0  0.54379391573E+02 -0.27989225400E+02  0.20736302499E+03  0.21619424198E+03  0.10566000000E+00 0.  1.
        994    1    1    2    0    0 -0.46397842510E+02  0.18107465965E+02  0.16823286642E+02  0.17908965098E+03  0.17120000000E+03 0.  0.
        998    1    1    2    0    0 -0.79815490626E+01  0.98817594348E+01  0.12758136846E+04  0.12759161070E+04  0.10000000000E+02 0.  1.
</event>
<event>
 5    1  0.1344348E-008  0.3744961E+03  0.7957747E-01  0.3475479E+00
         13   -1    0    0    0    0  0.00000000000E+00  0.00000000000E+00  0.14999999963E+04  0.15000000000E+04  0.10566000000E+00 0.  1.
        994   -1    0    0    0    0 -0.00000000000E+00 -0.00000000000E+00  0.11368683772E-12  0.17120000000E+03  0.17120000000E+03 0.  0.
         13    1    1    2    0    0  0.56738941440E+02  0.73395724276E+02  0.31997697732E+03  0.33315389386E+03  0.10566000000E+00 0.  1.
        994    1    1    2    0    0 -0.17916151112E+02 -0.54538069059E+02  0.25135534422E+02  0.18230914551E+03  0.17120000000E+03 0.  0.
        998    1    1    2    0    0 -0.38822790328E+02 -0.18857655216E+02  0.11548874845E+04  0.11557369606E+04  0.10000000000E+02 0.  1.
</event>
<event>
 5    1  0.1344348E-008  0.3791095E+03  0.7957747E-01  0.3455045E+00
         13   -1    0    0    0    0  0.00000000000E+00  0.00000000000E+00  0.14999999963E+04  0.15000000000E+04  0.10566000000E+00 0.  1.
        994   -1    0    0    0    0 -0.00000000000E+00 -0.00000000000E+00  0.11368683772E-12  0.17120000000E+03  0.17120000000E+03 0.  0.
         13    1    1    2    0    0 -0.37672732126E+02  0.14901220081E+02  0.16693388907E+03  0.17177955521E+03  0.10566000000E+00 0.  1.
        994    1    1    2    0    0  0.32895018327E+02 -0.73824263401E+01  0.84034892461E+01  0.17469012874E+03  0.17120000000E+03 0.  0.
        998    1    1    2    0    0  0.47777137988E+01 -0.75187937409E+01  0.13246626180E+04  0.13247303160E+04  0.10000000000E+02 0.  1.
</event>
<event>
 5    1  0.1344348E-008  0.3855983E+03  0.7957747E-01  0.3427139E+00
         13   -1    0    0    0    0  0.00000000000E+00  0.00000000000E+00  0.14999999963E+04  0.15000000000E+04  0.10566000000E+00 0. -1.
        994   -1    0    0    0    0 -0.00000000000E+00 -0.00000000000E+00  0.11368683772E-12  0.17120000000E+03  0.17120000000E+03 0.  0.
         13    1    1    2    0    0 -0.78119604335E+01 -0.73430735891E+01  0.42339537772E+02  0.43676024068E+02  0.10566000000E+00 0. -1.
        994    1    1    2    0    0  0.55706372951E+01  0.10550729173E+02  0.18007704157E+01  0.17162468546E+03  0.17120000000E+03 0.  0.
        998    1    1    2    0    0  0.22413231384E+01 -0.32076555840E+01  0.14558596881E+04  0.14558992905E+04  0.10000000000E+02 0. -1.
</event>
<event>
 5    1  0.1344348E-008  0.3830769E+03  0.7957747E-01  0.3437870E+00
         13   -1    0    0    0    0  0.00000000000E+00  0.00000000000E+00  0.14999999963E+04  0.15000000000E+04  0.10566000000E+00 0. -1.
        994   -1    0    0    0    0 -0.00000000000E+00 -0.00000000000E+00  0.11368683772E-12  0.17120000000E+03  0.17120000000E+03 0.  0.
         13    1    1    2    0    0  0.12090543634E+02  0.92422907789E+01  0.45220165990E+02  0.47712427735E+02  0.10566000000E+00 0. -1.
        994    1    1    2    0    0  0.71399700405E-01 -0.61015793990E+01  0.27111806143E+01  0.17133016334E+03  0.17120000000E+03 0.  0.
        998    1    1    2    0    0 -0.12161943334E+02 -0.31407113800E+01  0.14520686497E+04  0.14521574089E+04  0.10000000000E+02 0. -1.
</event>
<event>
 5    1  0.1344348E-008  0.3830789E+03  0.7957747E-01  0.3437861E+00
         13   -1    0    0    0    0  0.00000000000E+00  0.00000000000E+00  0.14999999963E+04  0.15000000000E+04  0.10566000000E+00 0. -1.
        994   -1    0    0    0    0 -0.00000000000E+00 -0.00000000000E+00  0.11368683772E-12  0.17120000000E+03  0.17120000000E+03 0.  0.
         13    1    1    2    0    0  0.78371345328E+01 -0.78792855854E+01  0.23584471685E+02  0.26071867745E+02  0.10566000000E+00 0. -1.
        994    1    1    2    0    0 -0.17835661078E+01 -0.25535225516E+01  0.26190349817E+01  0.17124836037E+03  0.17120000000E+03 0.  0.
        998    1    1    2    0    0 -0.60535684249E+01  0.10432808137E+02  0.14737964896E+04  0.14738797719E+04  0.10000000000E+02 0. -1.
</event>
<event>
 5    1  0.1344348E-008  0.3847965E+03  0.7957747E-01  0.3430536E+00
         13   -1    0    0    0    0  0.00000000000E+00  0.00000000000E+00  0.14999999963E+04  0.15000000000E+04  0.10566000000E+00 0.  1.
        994   -1    0    0    0    0 -0.00000000000E+00 -0.00000000000E+00  0.11368683772E-12  0.17120000000E+03  0.17120000000E+03 0.  0.
         13    1    1    2    0    0  0.91637650633E+01  0.13821974332E+02  0.79526901923E+02  0.81237681270E+02  0.10566000000E+00 0.  1.
        994    1    1    2    0    0 -0.14997009925E+02 -0.27931117438E+01  0.24973707344E+01  0.17189644743E+03  0.17120000000E+03 0.  0.
        998    1    1    2    0    0  0.58332448613E+01 -0.11028862588E+02  0.14179757236E+04  0.14180658713E+04  0.10000000000E+02 0.  1.
</event>
<event>
 5    1  0.1344348E-008  0.3822517E+03  0.7957747E-01  0.3441412E+00
         13   -1    0    0    0    0  0.00000000000E+00  0.00000000000E+00  0.14999999963E+04  0.15000000000E+04  0.10566000000E+00 0. -1.
        994   -1    0    0    0    0 -0.00000000000E+00 -0.00000000000E+00  0.11368683772E-12  0.17120000000E+03  0.17120000000E+03 0.  0.
         13    1    1    2    0    0 -0.83924751253E+01 -0.87331335671E+01  0.23214186326E+02  0.26184172155E+02  0.10566000000E+00 0. -1.
        994    1    1    2    0    0  0.56902622032E+01  0.78814110186E+01  0.33144265175E+01  0.17150778742E+03  0.17120000000E+03 0.  0.
        998    1    1    2    0    0  0.27022129221E+01  0.85172254852E+00  0.14734713834E+04  0.14735080404E+04  0.10000000000E+02 0. -1.
</event>
<event>
 5    1  0.1344348E-008  0.3835964E+03  0.7957747E-01  0.3435647E+00
         13   -1    0    0    0    0  0.00000000000E+00  0.00000000000E+00  0.14999999963E+04  0.15000000000E+04  0.10566000000E+00 0. -1.
        994   -1    0    0    0    0 -0.00000000000E+00 -0.00000000000E+00  0.11368683772E-12  0.17120000000E+03  0.17120000000E+03 0.  0.
         13    1    1    2    0    0 -0.14166639132E+01 -0.11820422745E+02  0.29087172123E+02  0.31429350561E+02  0.10566000000E+00 0. -1.
        994    1    1    2    0    0 -0.34052496639E+01  0.14338817610E+02  0.30464888217E+01  0.17186017139E+03  0.17120000000E+03 0.  0.
        998    1    1    2    0    0  0.48219135771E+01 -0.25183948643E+01  0.14678663353E+04  0.14679104781E+04  0.10000000000E+02 0. -1.
</event>
<event>
 5    1  0.1344348E-008  0.3876088E+03  0.7957747E-01  0.3418683E+00
         13   -1    0    0    0    0  0.00000000000E+00  0.00000000000E+00  0.14999999963E+04  0.15000000000E+04  0.10566000000E+00 0. -1.
        994   -1    0    0    0    0 -0.00000000000E+00 -0.00000000000E+00  0.11368683772E-12  0.17120000000E+03  0.17120000000E+03 0.  0.
         13    1    1    2    0    0 -0.35488361436E+02 -0.63568317102E+02  0.11288998903E+03  0.13432987576E+03  0.10566000000E+00 0. -1.
        994    1    1    2    0    0  0.36132052989E+02  0.64887965502E+02  0.41439049519E+02  0.19116120983E+03  0.17120000000E+03 0.  0.
        998    1    1    2    0    0 -0.64369155334E+00 -0.13196484000E+01  0.13456709577E+04  0.13457089144E+04  0.10000000000E+02 0. -1.
</event>
<event>
 5    1  0.1344348E-008  0.3819142E+03  0.7957747E-01  0.3442866E+00
         13   -1    0    0    0    0  0.00000000000E+00  0.00000000000E+00  0.14999999963E+04  0.15000000000E+04  0.10566000000E+00 0. -1.
        994   -1    0    0    0    0 -0.00000000000E+00 -0.00000000000E+00  0.11368683772E-12  0.17120000000E+03  0.17120000000E+03 0.  0.
         13    1    1    2    0    0  0.35298509065E+02 -0.19192675532E+02  0.22758221794E+03  0.23110175383E+03  0.10566000000E+00 0. -1.
        994    1    1    2    0    0 -0.21329487754E+02  0.36829145334E+02  0.92105338166E+01  0.17665108810E+03  0.17120000000E+03 0.  0.
        998    1    1    2    0    0 -0.13969021311E+02 -0.17636469803E+02  0.12632072445E+04  0.12634471581E+04  0.10000000000E+02 0. -1.
</event>
<event>
 5    1  0.1344348E-008  0.3819129E+03  0.7957747E-01  0.3442871E+00
         13   -1    0    0    0    0  0.00000000000E+00  0.00000000000E+00  0.14999999963E+04  0.15000000000E+04  0.10566000000E+00 0.  1.
        994   -1    0    0    0    0 -0.00000000000E+00 -0.00000000000E+00  0.11368683772E-12  0.17120000000E+03  0.17120000000E+03 0.  0.
         13    1    1    2    0    0 -0.25402585404E+02 -0.24638336146E+02  0.17482036673E+03  0.17836622646E+03  0.10566000000E+00 0.  1.
        994    1    1    2    0    0  0.24970453694E+02  0.25991399744E+02  0.74980650460E+01  0.17511349862E+03  0.17120000000E+03 0.  0.
        998    1    1    2    0    0  0.43213170985E+00 -0.13530635984E+01  0.13176815645E+04  0.13177202749E+04  0.10000000000E+02 0.  1.
</event>
<event>
 5    1  0.1344348E-008  0.3726202E+03  0.7957747E-01  0.3483935E+00
         13   -1    0    0    0    0  0.00000000000E+00  0.00000000000E+00  0.14999999963E+04  0.15000000000E+04  0.10566000000E+00 0.  1.
        994   -1    0    0    0    0 -0.00000000000E+00 -0.00000000000E+00  0.11368683772E-12  0.17120000000E+03  0.17120000000E+03 0.  0.
         13    1    1    2    0    0 -0.27035236581E+02  0.48148346417E+01  0.44210837244E+02  0.52045133716E+02  0.10566000000E+00 0.  1.
        994    1    1    2    0    0  0.21342284086E+02 -0.13594118435E+01  0.94746762115E+01  0.17279048174E+03  0.17120000000E+03 0.  0.
        998    1    1    2    0    0  0.56929524957E+01 -0.34554227982E+01  0.14463144828E+04  0.14463643845E+04  0.10000000000E+02 0.  1.
</event>
<event>
 5    1  0.1344348E-008  0.3858086E+03  0.7957747E-01  0.3426250E+00
         13   -1    0    0    0    0  0.00000000000E+00  0.00000000000E+00  0.14999999963E+04  0.15000000000E+04  0.10566000000E+00 0. -1.
        994   -1    0    0    0    0 -0.00000000000E+00 -0.00000000000E+00  0.11368683772E-12  0.17120000000E+03  0.17120000000E+03 0.  0.
         13    1    1    2    0    0  0.12589792698E+02 -0.61629592582E+01  0.81944587392E+02  0.83134899494E+02  0.10566000000E+00 0. -1.
        994    1    1    2    0    0 -0.80187499707E+01 -0.47131331903E-02  0.14401446887E+01  0.17139374081E+03  0.17120000000E+03 0.  0.
        998    1    1    2    0    0 -0.45710427277E+01  0.61676723914E+01  0.14166152642E+04  0.14166713597E+04  0.10000000000E+02 0. -1.
</event>
<event>
 5    1  0.1344348E-008  0.3834412E+03  0.7957747E-01  0.3436310E+00
         13   -1    0    0    0    0  0.00000000000E+00  0.00000000000E+00  0.14999999963E+04  0.15000000000E+04  0.10566000000E+00 0. -1.
        994   -1    0    0    0    0 -0.00000000000E+00 -0.00000000000E+00  0.11368683772E-12  0.17120000000E+03  0.17120000000E+03 0.  0.
         13    1    1    2    0    0  0.10142300942E+02 -0.27749238928E+01  0.22070940467E+02  0.24447986587E+02  0.10566000000E+00 0. -1.
        994    1    1    2    0    0 -0.84536697074E+01  0.61303136077E+00  0.26435535919E+01  0.17143006946E+03  0.17120000000E+03 0.  0.
        998    1    1    2    0    0 -0.16886312347E+01  0.21618925321E+01  0.14752855022E+04  0.14753219440E+04  0.10000000000E+02 0. -1.
</event>
<event>
 5    1  0.1344348E-008  0.3723951E+03  0.7957747E-01  0.3484955E+00
         13   -1    0    0    0    0  0.00000000000E+00  0.00000000000E+00  0.14999999963E+04  0.15000000000E+04  0.10566000000E+00 0. -1.
        994   -1    0    0    0    0 -0.00000000000E+00 -0.00000000000E+00  0.11368683772E-12  0.17120000000E+03  0.17120000000E+03 0.  0.
         13    1    1    2    0    0  0.41004794450E+02  0.21647435604E+02  0.14798041277E+03  0.15507487986E+03  0.10566000000E+00 0. -1.
        994    1    1    2    0    0 -0.62969675064E+01  0.58235676007E+01  0.82748258235E+01  0.17161433064E+03  0.17120000000E+03 0.  0.
        998    1    1    2    0    0 -0.34707826944E+02 -0.27471003205E+02  0.13437447577E+04  0.13445107895E+04  0.10000000000E+02 0. -1.
</event>
<event>
 5    1  0.1344348E-008  0.3841751E+03  0.7957747E-01  0.3433178E+00
         13   -1    0    0    0    0  0.00000000000E+00  0.00000000000E+00  0.14999999963E+04  0.15000000000E+04  0.10566000000E+00 0. -1.
        994   -1    0    0    0    0 -0.00000000000E+00 -0.00000000000E+00  0.11368683772E-12  0.17120000000E+03  0.17120000000E+03 0.  0.
         13    1    1    2    0    0  0.10856321463E+02  0.84348339909E+01  0.44456248190E+02  0.46533593321E+02  0.10566000000E+00 0. -1.
        994    1    1    2    0    0 -0.54575367215E+00 -0.25612156313E+02  0.42072738021E+01  0.17315721628E+03  0.17120000000E+03 0.  0.
        998    1    1    2    0    0 -0.10310567791E+02  0.17177322322E+02  0.14513364743E+04  0.14515091904E+04  0.10000000000E+02 0. -1.
</event>
<event>
 5    1  0.1344348E-008  0.3717817E+03  0.7957747E-01  0.3487743E+00
         13   -1    0    0    0    0  0.00000000000E+00  0.00000000000E+00  0.14999999963E+04  0.15000000000E+04  0.10566000000E+00 0. -1.
        994   -1    0    0    0    0 -0.00000000000E+00 -0.00000000000E+00  0.11368683772E-12  0.17120000000E+03  0.17120000000E+03 0.  0.
         13    1    1    2    0    0  0.10314479554E+02  0.23198353120E+02  0.36641572824E+02  0.44577663678E+02  0.10566000000E+00 0. -1.
        994    1    1    2    0    0 -0.30002494594E+02  0.10445059198E+02  0.11816984764E+02  0.17452315053E+03  0.17120000000E+03 0.  0.
        998    1    1    2    0    0  0.19688015040E+02 -0.33643412318E+02  0.14515414387E+04  0.14520991858E+04  0.10000000000E+02 0. -1.
</event>
<event>
 5    1  0.1344348E-008  0.3832308E+03  0.7957747E-01  0.3437211E+00
         13   -1    0    0    0    0  0.00000000000E+00  0.00000000000E+00  0.14999999963E+04  0.15000000000E+04  0.10566000000E+00 0.  1.
        994   -1    0    0    0    0 -0.00000000000E+00 -0.00000000000E+00  0.11368683772E-12  0.17120000000E+03  0.17120000000E+03 0.  0.
         13    1    1    2    0    0 -0.16197130950E+02 -0.51212641747E+01  0.56639730497E+02  0.59132433000E+02  0.10566000000E+00 0.  1.
        994    1    1    2    0    0  0.10784829622E+02  0.41410716975E+01  0.29526528601E+01  0.17161474058E+03  0.17120000000E+03 0.  0.
        998    1    1    2    0    0  0.54123013274E+01  0.98019247721E+00  0.14404076129E+04  0.14404528264E+04  0.10000000000E+02 0.  1.
</event>
<event>
 5    1  0.1344348E-008  0.3698319E+03  0.7957747E-01  0.3496664E+00
         13   -1    0    0    0    0  0.00000000000E+00  0.00000000000E+00  0.14999999963E+04  0.15000000000E+04  0.10566000000E+00 0. -1.
        994   -1    0    0    0    0 -0.00000000000E+00 -0.00000000000E+00  0.11368683772E-12  0.17120000000E+03  0.17120000000E+03 0.  0.
         13    1    1    2    0    0  0.38371206051E+02  0.22688870888E+02  0.97822538666E+02  0.10750067233E+03  0.10566000000E+00 0. -1.
        994    1    1    2    0    0 -0.33479748829E+02 -0.25123667343E+02  0.15443067734E+02  0.17691811830E+03  0.17120000000E+03 0.  0.
        998    1    1    2    0    0 -0.48914572222E+01  0.24347964547E+01  0.13867343899E+04  0.13867812094E+04  0.10000000000E+02 0. -1.
</event>
<event>
 5    1  0.1754671E-008  0.3860520E+03  0.7957747E-01  0.3425223E+00
         13   -1    0    0    0    0  0.00000000000E+00  0.00000000000E+00  0.14999999963E+04  0.15000000000E+04  0.10566000000E+00 0.  1.
        994   -1    0    0    0    0 -0.00000000000E+00 -0.00000000000E+00  0.11368683772E-12  0.17120000000E+03  0.17120000000E+03 0.  0.
         13    1    1    2    0    0 -0.11245261177E+02 -0.12100083904E+01  0.59365035202E+02  0.60432926355E+02  0.10566000000E+00 0.  1.
        994    1    1    2    0    0  0.52512323802E+01  0.14402248589E+01  0.12059381060E+01  0.17129081696E+03  0.17120000000E+03 0.  0.
        998    1    1    2    0    0  0.59940287973E+01 -0.23021646852E+00  0.14394290230E+04  0.14394762567E+04  0.10000000000E+02 0.  1.
</event>
<event>
 5    1  0.1344348E-008  0.3844337E+03  0.7957747E-01  0.3432077E+00
         13   -1    0    0    0    0  0.00000000000E+00  0.00000000000E+00  0.14999999963E+04  0.15000000000E+04  0.10566000000E+00 0. -1.
        994   -1    0    0    0    0 -0.00000000000E+00 -0.00000000000E+00  0.11368683772E-12  0.17120000000E+03  0.17120000000E+03 0.  0.
         13    1    1    2    0    0 -0.78669438263E+01 -0.63862255293E+01  0.27259552658E+02  0.29082074493E+02  0.10566000000E+00 0. -1.
        994    1    1    2    0    0 -0.56716247786E+01  0.48420153871E+01  0.20947871686E+01  0.17137514573E+03  0.17120000000E+03 0.  0.
        998    1    1    2    0    0  0.13538568605E+02  0.15442101421E+01  0.14706456565E+04  0.14707427798E+04  0.10000000000E+02 0. -1.
</event>
<event>
 5    1  0.1344348E-008  0.3771973E+03  0.7957747E-01  0.3463453E+00
         13   -1    0    0    0    0  0.00000000000E+00  0.00000000000E+00  0.14999999963E+04  0.15000000000E+04  0.10566000000E+00 0.  1.
        994   -1    0    0    0    0 -0.00000000000E+00 -0.00000000000E+00  0.11368683772E-12  0.17120000000E+03  0.17120000000E+03 0.  0.
         13    1    1    2    0    0 -0.18078253807E+01  0.18144713429E+02  0.27700912006E+02  0.33163994754E+02  0.10566000000E+00 0.  1.
        994    1    1    2    0    0  0.14100368551E+02 -0.10275838882E+02  0.65824649176E+01  0.17221260727E+03  0.17120000000E+03 0.  0.
        998    1    1    2    0    0 -0.12292543171E+02 -0.78688745471E+01  0.14657166194E+04  0.14658233980E+04  0.10000000000E+02 0.  1.
</event>
<event>
 5    1  0.1344348E-008  0.3850014E+03  0.7957747E-01  0.3429666E+00
         13   -1    0    0    0    0  0.00000000000E+00  0.00000000000E+00  0.14999999963E+04  0.15000000000E+04  0.10566000000E+00 0. -1.
        994   -1    0    0    0    0 -0.00000000000E+00 -0.00000000000E+00  0.11368683772E-12  0.17120000000E+03  0.17120000000E+03 0.  0.
         13    1    1    2    0    0  0.78535072194E+01  0.72695283391E+01  0.36700757051E+02  0.38229312707E+02  0.10566000000E+00 0. -1.
        994    1    1    2    0    0  0.72682037237E+00  0.31765904344E+01  0.16643696429E+01  0.17123909928E+03  0.17120000000E+03 0.  0.
        998    1    1    2    0    0 -0.85803275918E+01 -0.10446118774E+02  0.14616348696E+04  0.14617315880E+04  0.10000000000E+02 0. -1.
</event>
<event>
 5    1  0.1344348E-008  0.3759933E+03  0.7957747E-01  0.3468792E+00
         13   -1    0    0    0    0  0.00000000000E+00  0.00000000000E+00  0.14999999963E+04  0.15000000000E+04  0.10566000000E+00 0. -1.
        994   -1    0    0    0    0 -0.00000000000E+00 -0.00000000000E+00  0.11368683772E-12  0.17120000000E+03  0.17120000000E+03 0.  0.
         13    1    1    2    0    0 -0.20179916227E+02  0.81885937877E+02  0.42709892079E+03  0.43534587990E+03  0.10566000000E+00 0. -1.
        994    1    1    2    0    0 -0.77544633003E+01 -0.85779184452E+02  0.31730517551E+02  0.19425361240E+03  0.17120000000E+03 0.  0.
        998    1    1    2    0    0  0.27934379527E+02  0.38932465742E+01  0.10411705579E+04  0.10416005077E+04  0.10000000000E+02 0. -1.
</event>
<event>
 5    1  0.1344348E-008  0.3741640E+03  0.7957747E-01  0.3476970E+00
         13   -1    0    0    0    0  0.00000000000E+00  0.00000000000E+00  0.14999999963E+04  0.15000000000E+04  0.10566000000E+00 0. -1.
        994   -1    0    0    0    0 -0.00000000000E+00 -0.00000000000E+00  0.11368683772E-12  0.17120000000E+03  0.17120000000E+03 0.  0.
         13    1    1    2    0    0 -0.11264879636E+02  0.40768441990E+02  0.14253303252E+03  0.14867629233E+03  0.10566000000E+00 0. -1.
        994    1    1    2    0    0 -0.11711470681E+01  0.35975815375E+01  0.71574664053E+01  0.17139131689E+03  0.17120000000E+03 0.  0.
        998    1    1    2    0    0  0.12436026704E+02 -0.44366023528E+02  0.13503094974E+04  0.13511323908E+04  0.10000000000E+02 0. -1.
</event>
<event>
 5    1  0.1344348E-008  0.3778766E+03  0.7957747E-01  0.3460457E+00
         13   -1    0    0    0    0  0.00000000000E+00  0.00000000000E+00  0.14999999963E+04  0.15000000000E+04  0.10566000000E+00 0. -1.
        994   -1    0    0    0    0 -0.00000000000E+00 -0.00000000000E+00  0.11368683772E-12  0.17120000000E+03  0.17120000000E+03 0.  0.
         13    1    1    2    0    0  0.51571556602E+02 -0.29532347921E+02  0.30418710325E+03  0.30993804215E+03  0.10566000000E+00 0. -1.
        994    1    1    2    0    0 -0.33414336887E+02  0.35193827051E+02  0.13178884864E+02  0.17843275030E+03  0.17120000000E+03 0.  0.
        998    1    1    2    0    0 -0.18157219715E+02 -0.56614791302E+01  0.11826340082E+04  0.11828292075E+04  0.10000000000E+02 0. -1.
</event>
<event>
 5    1  0.1344348E-008  0.3803031E+03  0.7957747E-01  0.3449840E+00
         13   -1    0    0    0    0  0.00000000000E+00  0.00000000000E+00  0.14999999963E+04  0.15000000000E+04  0.10566000000E+00 0. -1.
        994   -1    0    0    0    0 -0.00000000000E+00 -0.00000000000E+00  0.11368683772E-12  0.17120000000E+03  0.17120000000E+03 0.  0.
         13    1    1    2    0    0  0.30086377323E+02 -0.69636091316E+01  0.11258263027E+03  0.11674134552E+03  0.10566000000E+00 0. -1.
        994    1    1    2    0    0 -0.23406709095E+02  0.23249990858E+02  0.76236929670E+01  0.17451646570E+03  0.17120000000E+03 0.  0.
        998    1    1    2    0    0 -0.66796682279E+01 -0.16286381726E+02  0.13797936730E+04  0.13799421888E+04  0.10000000000E+02 0. -1.
</event>
<event>
 5    1  0.1344348E-008  0.3856032E+03  0.7957747E-01  0.3427118E+00
         13   -1    0    0    0    0  0.00000000000E+00  0.00000000000E+00  0.14999999963E+04  0.15000000000E+04  0.10566000000E+00 0. -1.
        994   -1    0    0    0    0 -0.00000000000E+00 -0.00000000000E+00  0.11368683772E-12  0.17120000000E+03  0.17120000000E+03 0.  0.
         13    1    1    2    0    0 -0.34212888481E+01 -0.96634660204E+01  0.37013313495E+02  0.38406826643E+02  0.10566000000E+00 0. -1.
        994    1    1    2    0    0  0.35655175733E+00  0.21112909919E+02  0.27958194121E+01  0.17251996609E+03  0.17120000000E+03 0.  0.
        998    1    1    2    0    0  0.30647370908E+01 -0.11449443899E+02  0.14601908634E+04  0.14602732073E+04  0.10000000000E+02 0. -1.
</event>
<event>
 5    1  0.1344348E-008  0.3770941E+03  0.7957747E-01  0.3463910E+00
         13   -1    0    0    0    0  0.00000000000E+00  0.00000000000E+00  0.14999999963E+04  0.15000000000E+04  0.10566000000E+00 0. -1.
        994   -1    0    0    0    0 -0.00000000000E+00 -0.00000000000E+00  0.11368683772E-12  0.17120000000E+03  0.17120000000E+03 0.  0.
         13    1    1    2    0    0  0.16694757523E+02 -0.98633053549E+02  0.49145897225E+03  0.50153676510E+03  0.10566000000E+00 0. -1.
        994    1    1    2    0    0 -0.73758447253E+02  0.11132420153E+03  0.68385210475E+02  0.22763866851E+03  0.17120000000E+03 0.  0.
        998    1    1    2    0    0  0.57063689730E+02 -0.12691147983E+02  0.94015581355E+03  0.94202456639E+03  0.10000000000E+02 0. -1.
</event>
<event>
 5    1  0.1344348E-008  0.3856356E+03  0.7957747E-01  0.3426981E+00
         13   -1    0    0    0    0  0.00000000000E+00  0.00000000000E+00  0.14999999963E+04  0.15000000000E+04  0.10566000000E+00 0.  1.
        994   -1    0    0    0    0 -0.00000000000E+00 -0.00000000000E+00  0.11368683772E-12  0.17120000000E+03  0.17120000000E+03 0.  0.
         13    1    1    2    0    0  0.89336170939E+01 -0.81401491318E+01  0.56832616609E+02  0.58103605886E+02  0.10566000000E+00 0.  1.
        994    1    1    2    0    0 -0.18538997314E+01  0.62806441788E+01  0.14556292154E+01  0.17133138152E+03  0.17120000000E+03 0.  0.
        998    1    1    2    0    0 -0.70797173625E+01  0.18595049530E+01  0.14417117505E+04  0.14417650126E+04  0.10000000000E+02 0.  1.
</event>
<event>
 5    1  0.1344348E-008  0.3846731E+03  0.7957747E-01  0.3431060E+00
         13   -1    0    0    0    0  0.00000000000E+00  0.00000000000E+00  0.14999999963E+04  0.15000000000E+04  0.10566000000E+00 0.  1.
        994   -1    0    0    0    0 -0.00000000000E+00 -0.00000000000E+00  0.11368683772E-12  0.17120000000E+03  0.17120000000E+03 0.  0.
         13    1    1    2    0    0  0.11412075550E+02  0.18211485525E+02  0.12879382286E+03  0.13057470523E+03  0.10566000000E+00 0.  1.
        994    1    1    2    0    0  0.11849927153E+01 -0.16579679448E+02  0.27026224789E+01  0.17202626005E+03  0.17120000000E+03 0.  0.
        998    1    1    2    0    0 -0.12597068265E+02 -0.16318060764E+01  0.13685035509E+04  0.13685990347E+04  0.10000000000E+02 0.  1.
</event>
<event>
 5    1  0.1344348E-008  0.3787521E+03  0.7957747E-01  0.3456610E+00
         13   -1    0    0    0    0  0.00000000000E+00  0.00000000000E+00  0.14999999963E+04  0.15000000000E+04  0.10566000000E+00 0.  1.
        994   -1    0    0    0    0 -0.00000000000E+00 -0.00000000000E+00  0.11368683772E-12  0.17120000000E+03  0.17120000000E+03 0.  0.
         13    1    1    2    0    0  0.13831663211E+02 -0.45372316591E+02  0.25646407835E+03  0.26081372025E+03  0.10566000000E+00 0.  1.
        994    1    1    2    0    0 -0.58392531367E+01  0.15030831616E+02  0.56377237049E+01  0.17205012847E+03  0.17120000000E+03 0.  0.
        998    1    1    2    0    0 -0.79924100746E+01  0.30341484975E+02  0.12378981942E+04  0.12383361513E+04  0.10000000000E+02 0. -1.
</event>
<event>
 5    1  0.1344348E-008  0.3746542E+03  0.7957747E-01  0.3474771E+00
         13   -1    0    0    0    0  0.00000000000E+00  0.00000000000E+00  0.14999999963E+04  0.15000000000E+04  0.10566000000E+00 0.  1.
        994   -1    0    0    0    0 -0.00000000000E+00 -0.00000000000E+00  0.11368683772E-12  0.17120000000E+03  0.17120000000E+03 0.  0.
         13    1    1    2    0    0  0.69353684176E+02 -0.77343378249E+02  0.53667472130E+03  0.54663671603E+03  0.10566000000E+00 0.  1.
        994    1    1    2    0    0 -0.61916636300E+02  0.74285965507E+02  0.39381415373E+02  0.20053032289E+03  0.17120000000E+03 0.  0.
        998    1    1    2    0    0 -0.74370478767E+01  0.30574127424E+01  0.92394385961E+03  0.92403296108E+03  0.10000000000E+02 0.  1.
</event>
<event>
 5    1  0.1344348E-008  0.3805126E+03  0.7957747E-01  0.3448929E+00
         13   -1    0    0    0    0  0.00000000000E+00  0.00000000000E+00  0.14999999963E+04  0.15000000000E+04  0.10566000000E+00 0. -1.
        994   -1    0    0    0    0 -0.00000000000E+00 -0.00000000000E+00  0.11368683772E-12  0.17120000000E+03  0.17120000000E+03 0.  0.
         13    1    1    2    0    0 -0.12132744671E+02 -0.10068422033E+02  0.30187638190E+02  0.34057029803E+02  0.10566000000E+00 0. -1.
        994    1    1    2    0    0  0.47497763458E+01  0.17170446039E+02  0.49345020766E+01  0.17219516225E+03  0.17120000000E+03 0.  0.
        998    1    1    2    0    0  0.73829683252E+01 -0.71020240061E+01  0.14648778560E+04  0.14649478079E+04  0.10000000000E+02 0. -1.
</event>
<event>
 5    1  0.1344348E-008  0.3710161E+03  0.7957747E-01  0.3491234E+00
         13   -1    0    0    0    0  0.00000000000E+00  0.00000000000E+00  0.14999999963E+04  0.15000000000E+04  0.10566000000E+00 0.  1.
        994   -1    0    0    0    0 -0.00000000000E+00 -0.00000000000E+00  0.11368683772E-12  0.17120000000E+03  0.17120000000E+03 0.  0.
         13    1    1    2    0    0 -0.30788231936E+02  0.81533500983E+01  0.50011760347E+02  0.59292323960E+02  0.10566000000E+00 0.  1.
        994    1    1    2    0    0  0.49928293584E+02 -0.11336317239E+02  0.17825687436E+02  0.17957878973E+03  0.17120000000E+03 0.  0.
        998    1    1    2    0    0 -0.19140061648E+02  0.31829671411E+01  0.14321625485E+04  0.14323288863E+04  0.10000000000E+02 0.  1.
</event>
<event>
 5    1  0.1344348E-008  0.3712176E+03  0.7957747E-01  0.3490314E+00
         13   -1    0    0    0    0  0.00000000000E+00  0.00000000000E+00  0.14999999963E+04  0.15000000000E+04  0.10566000000E+00 0. -1.
        994   -1    0    0    0    0 -0.00000000000E+00 -0.00000000000E+00  0.11368683772E-12  0.17120000000E+03  0.17120000000E+03 0.  0.
         13    1    1    2    0    0  0.31428488147E+02 -0.30934740705E+02  0.10907979217E+03  0.11765679017E+03  0.10566000000E+00 0. -1.
        994    1    1    2    0    0 -0.20016186172E+02  0.20199323473E+02  0.11423445284E+02  0.17392123355E+03  0.17120000000E+03 0.  0.
        998    1    1    2    0    0 -0.11412301975E+02  0.10735417232E+02  0.13794967588E+04  0.13796219763E+04  0.10000000000E+02 0. -1.
</event>
<event>
 5    1  0.1344348E-008  0.3842073E+03  0.7957747E-01  0.3433041E+00
         13   -1    0    0    0    0  0.00000000000E+00  0.00000000000E+00  0.14999999963E+04  0.15000000000E+04  0.10566000000E+00 0.  1.
        994   -1    0    0    0    0 -0.00000000000E+00 -0.00000000000E+00  0.11368683772E-12  0.17120000000E+03  0.17120000000E+03 0.  0.
         13    1    1    2    0    0 -0.33165103252E+01 -0.17658591751E+02  0.77402189675E+02  0.79460274565E+02  0.10566000000E+00 0.  1.
        994    1    1    2    0    0  0.33384535997E+01  0.15311338841E+02  0.28343434354E+01  0.17193910513E+03  0.17120000000E+03 0.  0.
        998    1    1    2    0    0 -0.21943274520E-01  0.23472529098E+01  0.14197634632E+04  0.14198006203E+04  0.10000000000E+02 0.  1.
</event>
<event>
 5    1  0.1344348E-008  0.3750859E+03  0.7957747E-01  0.3472839E+00
         13   -1    0    0    0    0  0.00000000000E+00  0.00000000000E+00  0.14999999963E+04  0.15000000000E+04  0.10566000000E+00 0.  1.
        994   -1    0    0    0    0 -0.00000000000E+00 -0.00000000000E+00  0.11368683772E-12  0.17120000000E+03  0.17120000000E+03 0.  0.
         13    1    1    2    0    0 -0.33491320502E+02 -0.32425111071E+02  0.14148018475E+03  0.14896211001E+03  0.10566000000E+00 0.  1.
        994    1    1    2    0    0  0.35768013057E+02  0.41219198644E+02  0.16823917498E+02  0.18047397955E+03  0.17120000000E+03 0.  0.
        998    1    1    2    0    0 -0.22766925557E+01 -0.87940875727E+01  0.13416958940E+04  0.13417639104E+04  0.10000000000E+02 0.  1.
</event>
<event>
 5    1  0.1344348E-008  0.3855041E+03  0.7957747E-01  0.3427537E+00
         13   -1    0    0    0    0  0.00000000000E+00  0.00000000000E+00  0.14999999963E+04  0.15000000000E+04  0.10566000000E+00 0.  1.
        994   -1    0    0    0    0 -0.00000000000E+00 -0.00000000000E+00  0.11368683772E-12  0.17120000000E+03  0.17120000000E+03 0.  0.
         13    1    1    2    0    0  0.13707799534E+02 -0.72864201953E+00  0.75060797097E+02  0.76305760675E+02  0.10566000000E+00 0.  1.
        994    1    1    2    0    0  0.28995606956E+01 -0.38153417672E+00  0.14081518695E+01  0.17123076801E+03  0.17120000000E+03 0.  0.
        998    1    1    2    0    0 -0.16607360229E+02  0.11101761962E+01  0.14235310473E+04  0.14236634713E+04  0.10000000000E+02 0.  1.
</event>
<event>
 5    1  0.1344348E-008  0.3842121E+03  0.7957747E-01  0.3433021E+00
         13   -1    0    0    0    0  0.00000000000E+00  0.00000000000E+00  0.14999999963E+04  0.15000000000E+04  0.10566000000E+00 0. -1.
        994   -1    0    0    0    0 -0.00000000000E+00 -0.00000000000E+00  0.11368683772E-12  0.17120000000E+03  0.17120000000E+03 0.  0.
         13    1    1    2    0    0 -0.14365305510E+02  0.60217124433E+01  0.63970121196E+02  0.65839278497E+02  0.10566000000E+00 0. -1.
        994    1    1    2    0    0 -0.37595577380E+01 -0.39820227862E+01  0.21207120454E+01  0.17130069527E+03  0.17120000000E+03 0.  0.
        998    1    1    2    0    0  0.18124863248E+02 -0.20396896572E+01  0.14339091630E+04  0.14340600262E+04  0.10000000000E+02 0. -1.
</event>
<event>
 5    1  0.1344348E-008  0.3823118E+03  0.7957747E-01  0.3441154E+00
         13   -1    0    0    0    0  0.00000000000E+00  0.00000000000E+00  0.14999999963E+04  0.15000000000E+04  0.10566000000E+00 0.  1.
        994   -1    0    0    0    0 -0.00000000000E+00 -0.00000000000E+00  0.11368683772E-12  0.17120000000E+03  0.17120000000E+03 0.  0.
         13    1    1    2    0    0 -0.16901704405E+02 -0.21388963691E+02  0.14325333491E+03  0.14582415611E+03  0.10566000000E+00 0.  1.
        994    1    1    2    0    0  0.99873453372E+01 -0.11422432293E+02  0.37348410719E+01  0.17191162865E+03  0.17120000000E+03 0.  0.
        998    1    1    2    0    0  0.69143590674E+01  0.32811395984E+02  0.13530118203E+04  0.13534642152E+04  0.10000000000E+02 0.  1.
</event>
<event>
 5    1  0.1344348E-008  0.3855235E+03  0.7957747E-01  0.3427455E+00
         13   -1    0    0    0    0  0.00000000000E+00  0.00000000000E+00  0.14999999963E+04  0.15000000000E+04  0.10566000000E+00 0. -1.
        994   -1    0    0    0    0 -0.00000000000E+00 -0.00000000000E+00  0.11368683772E-12  0.17120000000E+03  0.17120000000E+03 0.  0.
         13    1    1    2    0    0  0.45576186591E+01  0.91046166494E+01  0.38460910107E+02  0.39785910854E+02  0.10566000000E+00 0. -1.
        994    1    1    2    0    0  0.32357299244E+01 -0.64430151101E+01  0.15411496588E+01  0.17135868094E+03  0.17120000000E+03 0.  0.
        998    1    1    2    0    0 -0.77933485835E+01 -0.26616015394E+01  0.14599979365E+04  0.14600554082E+04  0.10000000000E+02 0. -1.
</event>
<event>
 5    1  0.1344348E-008  0.3767464E+03  0.7957747E-01  0.3465449E+00
         13   -1    0    0    0    0  0.00000000000E+00  0.00000000000E+00  0.14999999963E+04  0.15000000000E+04  0.10566000000E+00 0. -1.
        994   -1    0    0    0    0 -0.00000000000E+00 -0.00000000000E+00  0.11368683772E-12  0.17120000000E+03  0.17120000000E+03 0.  0.
         13    1    1    2    0    0 -0.39369661212E+02  0.38809031622E+02  0.22338326417E+03  0.23012215242E+03  0.10566000000E+00 0. -1.
        994    1    1    2    0    0  0.32740849314E+02 -0.46680777935E+02  0.16850995729E+02  0.18123039011E+03  0.17120000000E+03 0.  0.
        998    1    1    2    0    0  0.66288118978E+01  0.78717463133E+01  0.12597657364E+04  0.12598474575E+04  0.10000000000E+02 0.  0.
</event>
<event>
 5    1  0.1344348E-008  0.3793044E+03  0.7957747E-01  0.3454193E+00
         13   -1    0    0    0    0  0.00000000000E+00  0.00000000000E+00  0.14999999963E+04  0.15000000000E+04  0.10566000000E+00 0.  1.
        994   -1    0    0    0    0 -0.00000000000E+00 -0.00000000000E+00  0.11368683772E-12  0.17120000000E+03  0.17120000000E+03 0.  0.
         13    1    1    2    0    0 -0.33928272867E+02  0.54177241400E+01  0.16600518113E+03  0.16952348144E+03  0.10566000000E+00 0.  1.
        994    1    1    2    0    0 -0.14273572571E+02  0.12225422350E+02  0.56689904257E+01  0.17232171447E+03  0.17120000000E+03 0.  0.
        998    1    1    2    0    0  0.48201845438E+02 -0.17643146490E+02  0.13283258247E+04  0.13293548041E+04  0.10000000000E+02 0.  1.
</event>
<event>
 5    1  0.1344348E-008  0.3846763E+03  0.7957747E-01  0.3431046E+00
         13   -1    0    0    0    0  0.00000000000E+00  0.00000000000E+00  0.14999999963E+04  0.15000000000E+04  0.10566000000E+00 0. -1.
        994   -1    0    0    0    0 -0.00000000000E+00 -0.00000000000E+00  0.11368683772E-12  0.17120000000E+03  0.17120000000E+03 0.  0.
         13    1    1    2    0    0  0.13020199834E+02  0.11055328201E+02  0.92136493395E+02  0.93706405675E+02  0.10566000000E+00 0. -1.
        994    1    1    2    0    0  0.44507523912E+01  0.38772974593E+01  0.19056324372E+01  0.17131232900E+03  0.17120000000E+03 0.  0.
        998    1    1    2    0    0 -0.17470952225E+02 -0.14932625661E+02  0.14059578704E+04  0.14061812653E+04  0.10000000000E+02 0. -1.
</event>
<event>
 5    1  0.1344348E-008  0.3841025E+03  0.7957747E-01  0.3433488E+00
         13   -1    0    0    0    0  0.00000000000E+00  0.00000000000E+00  0.14999999963E+04  0.15000000000E+04  0.10566000000E+00 0. -1.
        994   -1    0    0    0    0 -0.00000000000E+00 -0.00000000000E+00  0.11368683772E-12  0.17120000000E+03  0.17120000000E+03 0.  0.
         13    1    1    2    0    0  0.13378533273E+02 -0.57608302474E+00  0.42033248564E+02  0.44114874737E+02  0.10566000000E+00 0. -1.
        994    1    1    2    0    0 -0.12680024977E+02 -0.44853685126E+01  0.26732759443E+01  0.17174832741E+03  0.17120000000E+03 0.  0.
        998    1    1    2    0    0 -0.69850829565E+00  0.50614515373E+01  0.14552934718E+04  0.14553367979E+04  0.10000000000E+02 0. -1.
</event>
<event>
 5    1  0.1344348E-008  0.4016412E+03  0.7957747E-01  0.3362022E+00
         13   -1    0    0    0    0  0.00000000000E+00  0.00000000000E+00  0.14999999963E+04  0.15000000000E+04  0.10566000000E+00 0. -1.
        994   -1    0    0    0    0 -0.00000000000E+00 -0.00000000000E+00  0.11368683772E-12  0.17120000000E+03  0.17120000000E+03 0.  0.
         13    1    1    2    0    0 -0.58930805059E+01  0.45004710092E+02  0.24752084164E+02  0.51699411629E+02  0.10566000000E+00 0. -1.
        994    1    1    2    0    0  0.37858016967E+02 -0.32906450539E+02  0.38744505068E+02  0.18255585613E+03  0.17120000000E+03 0.  0.
        998    1    1    2    0    0 -0.31964936461E+02 -0.12098259553E+02  0.14365034070E+04  0.14369447322E+04  0.10000000000E+02 0. -1.
</event>
<event>
 5    1  0.1344348E-008  0.2539677E+03  0.7957747E-01  0.4291607E+00
         13   -1    0    0    0    0  0.00000000000E+00  0.00000000000E+00  0.14999999963E+04  0.15000000000E+04  0.10566000000E+00 0. -1.
        994   -1    0    0    0    0 -0.00000000000E+00 -0.00000000000E+00  0.11368683772E-12  0.17120000000E+03  0.17120000000E+03 0.  0.
         13    1    1    2    0    0  0.10143874921E+02 -0.16977947021E+03  0.30943842852E+03  0.35310072064E+03  0.10566000000E+00 0. -1.
        994    1    1    2    0    0  0.13030390486E+02  0.17848551971E+03  0.17753555016E+03  0.30472148495E+03  0.17120000000E+03 0.  0.
        998    1    1    2    0    0 -0.23174265407E+02 -0.87060494978E+01  0.10130260176E+04  0.10133777944E+04  0.10000000000E+02 0. -1.
</event>
<event>
 5    1  0.1344348E-008  0.3818430E+03  0.7957747E-01  0.3443173E+00
         13   -1    0    0    0    0  0.00000000000E+00  0.00000000000E+00  0.14999999963E+04  0.15000000000E+04  0.10566000000E+00 0.  1.
        994   -1    0    0    0    0 -0.00000000000E+00 -0.00000000000E+00  0.11368683772E-12  0.17120000000E+03  0.17120000000E+03 0.  0.
         13    1    1    2    0    0  0.23121190363E+02 -0.72893426147E+01  0.88408352122E+02  0.91672088711E+02  0.10566000000E+00 0.  1.
        994    1    1    2    0    0 -0.17914988773E+02  0.84556072123E+01  0.45107473769E+01  0.17240136588E+03  0.17120000000E+03 0.  0.
        998    1    1    2    0    0 -0.52062015906E+01 -0.11662645975E+01  0.14070808968E+04  0.14071265454E+04  0.10000000000E+02 0.  1.
</event>
<event>
 5    1  0.1344348E-008  0.3826807E+03  0.7957747E-01  0.3439568E+00
         13   -1    0    0    0    0  0.00000000000E+00  0.00000000000E+00  0.14999999963E+04  0.15000000000E+04  0.10566000000E+00 0.  1.
        994   -1    0    0    0    0 -0.00000000000E+00 -0.00000000000E+00  0.11368683772E-12  0.17120000000E+03  0.17120000000E+03 0.  0.
         13    1    1    2    0    0 -0.11309267153E+02  0.79316694399E+01  0.33836871230E+02  0.36547994778E+02  0.10566000000E+00 0.  1.
        994    1    1    2    0    0  0.77923323727E+01  0.23845945510E+01  0.30060807469E+01  0.17142019501E+03  0.17120000000E+03 0.  0.
        998    1    1    2    0    0  0.35169347802E+01 -0.10316263991E+02  0.14631570443E+04  0.14632318102E+04  0.10000000000E+02 0.  1.
</event>
<event>
 5    1  0.1344348E-008  0.3827964E+03  0.7957747E-01  0.3439072E+00
         13   -1    0    0    0    0  0.00000000000E+00  0.00000000000E+00  0.14999999963E+04  0.15000000000E+04  0.10566000000E+00 0. -1.
        994   -1    0    0    0    0 -0.00000000000E+00 -0.00000000000E+00  0.11368683772E-12  0.17120000000E+03  0.17120000000E+03 0.  0.
         13    1    1    2    0    0 -0.23062009270E+01  0.15847086185E+02  0.44860537458E+02  0.47633262416E+02  0.10566000000E+00 0. -1.
        994    1    1    2    0    0  0.33834717500E+02 -0.12980963393E+02  0.70903829554E+01  0.17513710929E+03  0.17120000000E+03 0.  0.
        998    1    1    2    0    0 -0.31528516573E+02 -0.28661227923E+01  0.14480490759E+04  0.14484296283E+04  0.10000000000E+02 0. -1.
</event>
<event>
 5    1  0.1344348E-008  0.3747856E+03  0.7957747E-01  0.3474182E+00
         13   -1    0    0    0    0  0.00000000000E+00  0.00000000000E+00  0.14999999963E+04  0.15000000000E+04  0.10566000000E+00 0.  1.
        994   -1    0    0    0    0 -0.00000000000E+00 -0.00000000000E+00  0.11368683772E-12  0.17120000000E+03  0.17120000000E+03 0.  0.
         13    1    1    2    0    0 -0.22355051002E+02  0.19777787771E+02  0.64769366802E+02  0.71316135863E+02  0.10566000000E+00 0.  1.
        994    1    1    2    0    0 -0.15564428795E+00 -0.17496859082E+02  0.78310337621E+01  0.17226993177E+03  0.17120000000E+03 0.  0.
        998    1    1    2    0    0  0.22510695290E+02 -0.22809286887E+01  0.14273995957E+04  0.14276139324E+04  0.10000000000E+02 0.  1.
</event>
<event>
 5    1  0.1344348E-008  0.3796419E+03  0.7957747E-01  0.3452719E+00
         13   -1    0    0    0    0  0.00000000000E+00  0.00000000000E+00  0.14999999963E+04  0.15000000000E+04  0.10566000000E+00 0. -1.
        994   -1    0    0    0    0 -0.00000000000E+00 -0.00000000000E+00  0.11368683772E-12  0.17120000000E+03  0.17120000000E+03 0.  0.
         13    1    1    2    0    0  0.14210672834E+02  0.36540387631E+01  0.22565884116E+02  0.26917011567E+02  0.10566000000E+00 0. -1.
        994    1    1    2    0    0 -0.18752479757E+02 -0.65124612284E+01  0.56339969866E+01  0.17243911845E+03  0.17120000000E+03 0.  0.
        998    1    1    2    0    0  0.45418069228E+01  0.28584224652E+01  0.14718001152E+04  0.14718438700E+04  0.10000000000E+02 0. -1.
</event>
<event>
 5    1  0.1344348E-008  0.3803876E+03  0.7957747E-01  0.3449473E+00
         13   -1    0    0    0    0  0.00000000000E+00  0.00000000000E+00  0.14999999963E+04  0.15000000000E+04  0.10566000000E+00 0. -1.
        994   -1    0    0    0    0 -0.00000000000E+00 -0.00000000000E+00  0.11368683772E-12  0.17120000000E+03  0.17120000000E+03 0.  0.
         13    1    1    2    0    0 -0.48892854538E+01 -0.16452444521E+02  0.36589031169E+02  0.40414804328E+02  0.10566000000E+00 0. -1.
        994    1    1    2    0    0  0.10121489302E+02  0.30832343117E+01  0.43114890578E+01  0.17158082590E+03  0.17120000000E+03 0.  0.
        998    1    1    2    0    0 -0.52322038485E+01  0.13369210209E+02  0.14590994761E+04  0.14592043698E+04  0.10000000000E+02 0. -1.
</event>
<event>
 5    1  0.1344348E-008  0.3852664E+03  0.7957747E-01  0.3428543E+00
         13   -1    0    0    0    0  0.00000000000E+00  0.00000000000E+00  0.14999999963E+04  0.15000000000E+04  0.10566000000E+00 0.  1.
        994   -1    0    0    0    0 -0.00000000000E+00 -0.00000000000E+00  0.11368683772E-12  0.17120000000E+03  0.17120000000E+03 0.  0.
         13    1    1    2    0    0  0.21366437373E+01 -0.16005146121E+02  0.80411777692E+02  0.82017041549E+02  0.10566000000E+00 0.  1.
        994    1    1    2    0    0 -0.48317485618E+01  0.21385866947E+02  0.30790092285E+01  0.17262566842E+03  0.17120000000E+03 0.  0.
        998    1    1    2    0    0  0.26951048244E+01 -0.53807208260E+01  0.14165092094E+04  0.14165572900E+04  0.10000000000E+02 0.  1.
</event>
<event>
 5    1  0.1344348E-008  0.3776616E+03  0.7957747E-01  0.3461404E+00
         13   -1    0    0    0    0  0.00000000000E+00  0.00000000000E+00  0.14999999963E+04  0.15000000000E+04  0.10566000000E+00 0. -1.
        994   -1    0    0    0    0 -0.00000000000E+00 -0.00000000000E+00  0.11368683772E-12  0.17120000000E+03  0.17120000000E+03 0.  0.
         13    1    1    2    0    0  0.13416811512E+02  0.50020624962E+01  0.16749645306E+02  0.22036180301E+02  0.10566000000E+00 0. -1.
        994    1    1    2    0    0 -0.11496149057E+02 -0.14008501892E+02  0.64254035979E+01  0.17227630533E+03  0.17120000000E+03 0.  0.
        998    1    1    2    0    0 -0.19206624548E+01  0.90064393956E+01  0.14768249474E+04  0.14768875144E+04  0.10000000000E+02 0. -1.
</event>
<event>
 5    1  0.1344348E-008  0.3854293E+03  0.7957747E-01  0.3427854E+00
         13   -1    0    0    0    0  0.00000000000E+00  0.00000000000E+00  0.14999999963E+04  0.15000000000E+04  0.10566000000E+00 0.  1.
        994   -1    0    0    0    0 -0.00000000000E+00 -0.00000000000E+00  0.11368683772E-12  0.17120000000E+03  0.17120000000E+03 0.  0.
         13    1    1    2    0    0 -0.13937491797E+02 -0.57024147140E+01  0.80807515312E+02  0.82198764626E+02  0.10566000000E+00 0.  1.
        994    1    1    2    0    0  0.10193098210E+02 -0.82548463085E+00  0.17606970382E+01  0.17151419979E+03  0.17120000000E+03 0.  0.
        998    1    1    2    0    0  0.37443935879E+01  0.65278993449E+01  0.14174317839E+04  0.14174870356E+04  0.10000000000E+02 0.  1.
</event>
<event>
 5    1  0.1344348E-008  0.3796203E+03  0.7957747E-01  0.3452814E+00
         13   -1    0    0    0    0  0.00000000000E+00  0.00000000000E+00  0.14999999963E+04  0.15000000000E+04  0.10566000000E+00 0. -1.
        994   -1    0    0    0    0 -0.00000000000E+00 -0.00000000000E+00  0.11368683772E-12  0.17120000000E+03  0.17120000000E+03 0.  0.
         13    1    1    2    0    0  0.25749066864E+02 -0.29585746353E+02  0.38718181935E+02  0.55112971322E+02  0.10566000000E+00 0. -1.
        994    1    1    2    0    0 -0.26228741298E+02  0.50942054575E+02  0.28095888045E+02  0.18270702975E+03  0.17120000000E+03 0.  0.
        998    1    1    2    0    0  0.47967443457E+00 -0.21356308223E+02  0.14331859263E+04  0.14333799989E+04  0.10000000000E+02 0. -1.
</event>
<event>
 5    1  0.1344348E-008  0.3806996E+03  0.7957747E-01  0.3448118E+00
         13   -1    0    0    0    0  0.00000000000E+00  0.00000000000E+00  0.14999999963E+04  0.15000000000E+04  0.10566000000E+00 0.  1.
        994   -1    0    0    0    0 -0.00000000000E+00 -0.00000000000E+00  0.11368683772E-12  0.17120000000E+03  0.17120000000E+03 0.  0.
         13    1    1    2    0    0  0.74747266274E+01  0.13130179583E+02  0.28859618208E+02  0.32575479754E+02  0.10566000000E+00 0.  1.
        994    1    1    2    0    0 -0.72164184377E+01 -0.58310902941E+01  0.40675747808E+01  0.17149945619E+03  0.17120000000E+03 0.  0.
        998    1    1    2    0    0 -0.25830818965E+00 -0.72990892890E+01  0.14670728033E+04  0.14671250641E+04  0.10000000000E+02 0.  1.
</event>
<event>
 5    1  0.1344348E-008  0.3855454E+03  0.7957747E-01  0.3427362E+00
         13   -1    0    0    0    0  0.00000000000E+00  0.00000000000E+00  0.14999999963E+04  0.15000000000E+04  0.10566000000E+00 0.  1.
        994   -1    0    0    0    0 -0.00000000000E+00 -0.00000000000E+00  0.11368683772E-12  0.17120000000E+03  0.17120000000E+03 0.  0.
         13    1    1    2    0    0  0.72756186635E+01  0.79485775199E+01  0.44394965639E+02  0.45684118134E+02  0.10566000000E+00 0.  1.
        994    1    1    2    0    0  0.22392156990E+01 -0.37702468221E+01  0.14227209907E+01  0.17126205938E+03  0.17120000000E+03 0.  0.
        998    1    1    2    0    0 -0.95148343624E+01 -0.41783306977E+01  0.14541823096E+04  0.14542538225E+04  0.10000000000E+02 0.  1.
</event>
<event>
 5    1  0.1344348E-008  0.3861682E+03  0.7957747E-01  0.3424733E+00
         13   -1    0    0    0    0  0.00000000000E+00  0.00000000000E+00  0.14999999963E+04  0.15000000000E+04  0.10566000000E+00 0.  1.
        994   -1    0    0    0    0 -0.00000000000E+00 -0.00000000000E+00  0.11368683772E-12  0.17120000000E+03  0.17120000000E+03 0.  0.
         13    1    1    2    0    0 -0.42199054688E+01 -0.10294093798E+02  0.63495450954E+02  0.64462853064E+02  0.10566000000E+00 0.  1.
        994    1    1    2    0    0  0.28681527529E+01 -0.15286078116E+01  0.10858435591E+01  0.17123428979E+03  0.17120000000E+03 0.  0.
        998    1    1    2    0    0  0.13517527159E+01  0.11822701610E+02  0.14354187018E+04  0.14355028572E+04  0.10000000000E+02 0.  1.
</event>
<event>
 5    1  0.1344348E-008  0.3834985E+03  0.7957747E-01  0.3436065E+00
         13   -1    0    0    0    0  0.00000000000E+00  0.00000000000E+00  0.14999999963E+04  0.15000000000E+04  0.10566000000E+00 0.  1.
        994   -1    0    0    0    0 -0.00000000000E+00 -0.00000000000E+00  0.11368683772E-12  0.17120000000E+03  0.17120000000E+03 0.  0.
         13    1    1    2    0    0  0.11538059729E+03  0.18242586641E+03  0.11181697111E+04  0.11388131511E+04  0.10566000000E+00 0.  1.
        994    1    1    2    0    0 -0.12462059974E+03 -0.18262455406E+03  0.18544798725E+03  0.33553303503E+03  0.17120000000E+03 0.  0.
        998    1    1    2    0    0  0.92400024511E+01  0.19868764557E+00  0.19638229789E+03  0.19685381390E+03  0.10000000000E+02 0.  0.
</event>
<event>
 5    1  0.1344348E-008  0.3829423E+03  0.7957747E-01  0.3438446E+00
         13   -1    0    0    0    0  0.00000000000E+00  0.00000000000E+00  0.14999999963E+04  0.15000000000E+04  0.10566000000E+00 0.  1.
        994   -1    0    0    0    0 -0.00000000000E+00 -0.00000000000E+00  0.11368683772E-12  0.17120000000E+03  0.17120000000E+03 0.  0.
         13    1    1    2    0    0 -0.23749298980E+01 -0.13338244383E+02  0.34953685652E+02  0.37487602750E+02  0.10566000000E+00 0.  1.
        994    1    1    2    0    0 -0.10376100517E+02  0.14719562356E+01  0.30188961652E+01  0.17154703102E+03  0.17120000000E+03 0.  0.
        998    1    1    2    0    0  0.12751030415E+02  0.11866288148E+02  0.14620274145E+04  0.14621653662E+04  0.10000000000E+02 0.  1.
</event>
<event>
 5    1  0.1344348E-008  0.3798230E+03  0.7957747E-01  0.3451929E+00
         13   -1    0    0    0    0  0.00000000000E+00  0.00000000000E+00  0.14999999963E+04  0.15000000000E+04  0.10566000000E+00 0. -1.
        994   -1    0    0    0    0 -0.00000000000E+00 -0.00000000000E+00  0.11368683772E-12  0.17120000000E+03  0.17120000000E+03 0.  0.
         13    1    1    2    0    0 -0.48182209828E+02  0.64014973223E-01  0.27763302272E+03  0.28178295887E+03  0.10566000000E+00 0. -1.
        994    1    1    2    0    0  0.25847921862E+02 -0.76175511014E+01  0.66551540559E+01  0.17343550163E+03  0.17120000000E+03 0.  0.
        998    1    1    2    0    0  0.22334287966E+02  0.75535361282E+01  0.12157118195E+04  0.12159815395E+04  0.10000000000E+02 0. -1.
</event>
<event>
 5    1  0.1344348E-008  0.3826984E+03  0.7957747E-01  0.3439493E+00
         13   -1    0    0    0    0  0.00000000000E+00  0.00000000000E+00  0.14999999963E+04  0.15000000000E+04  0.10566000000E+00 0.  1.
        994   -1    0    0    0    0 -0.00000000000E+00 -0.00000000000E+00  0.11368683772E-12  0.17120000000E+03  0.17120000000E+03 0.  0.
         13    1    1    2    0    0  0.69480992920E+01  0.14526920015E+02  0.45305527115E+02  0.48082319412E+02  0.10566000000E+00 0.  1.
        994    1    1    2    0    0 -0.24856205658E+01 -0.13481917673E+02  0.34001447000E+01  0.17178166782E+03  0.17120000000E+03 0.  0.
        998    1    1    2    0    0 -0.44624787262E+01 -0.10450023422E+01  0.14512943245E+04  0.14513360128E+04  0.10000000000E+02 0.  1.
</event>
<event>
 5    1  0.1344348E-008  0.3829038E+03  0.7957747E-01  0.3438611E+00
         13   -1    0    0    0    0  0.00000000000E+00  0.00000000000E+00  0.14999999963E+04  0.15000000000E+04  0.10566000000E+00 0. -1.
        994   -1    0    0    0    0 -0.00000000000E+00 -0.00000000000E+00  0.11368683772E-12  0.17120000000E+03  0.17120000000E+03 0.  0.
         13    1    1    2    0    0 -0.11019409892E+01  0.10229705042E+02  0.17860355817E+02  0.20612244253E+02  0.10566000000E+00 0. -1.
        994    1    1    2    0    0  0.23890937676E+01 -0.23906061663E+02  0.45879971745E+01  0.17293842046E+03  0.17120000000E+03 0.  0.
        998    1    1    2    0    0 -0.12871527785E+01  0.13676356621E+02  0.14775516433E+04  0.14776493353E+04  0.10000000000E+02 0. -1.
</event>
<event>
 5    1  0.1344348E-008  0.3821057E+03  0.7957747E-01  0.3442041E+00
         13   -1    0    0    0    0  0.00000000000E+00  0.00000000000E+00  0.14999999963E+04  0.15000000000E+04  0.10566000000E+00 0.  1.
        994   -1    0    0    0    0 -0.00000000000E+00 -0.00000000000E+00  0.11368683772E-12  0.17120000000E+03  0.17120000000E+03 0.  0.
         13    1    1    2    0    0  0.21132151680E+01  0.10730265320E+02  0.18026223694E+02  0.21084595725E+02  0.10566000000E+00 0.  1.
        994    1    1    2    0    0  0.10794156711E+01 -0.12058838696E+02  0.35607290441E+01  0.17166449697E+03  0.17120000000E+03 0.  0.
        998    1    1    2    0    0 -0.31926308391E+01  0.13285733760E+01  0.14784130435E+04  0.14784509073E+04  0.10000000000E+02 0.  1.
</event>
<event>
 5    1  0.1344348E-008  0.3824081E+03  0.7957747E-01  0.3440740E+00
         13   -1    0    0    0    0  0.00000000000E+00  0.00000000000E+00  0.14999999963E+04  0.15000000000E+04  0.10566000000E+00 0. -1.
        994   -1    0    0    0    0 -0.00000000000E+00 -0.00000000000E+00  0.11368683772E-12  0.17120000000E+03  0.17120000000E+03 0.  0.
         13    1    1    2    0    0  0.91213533593E+00 -0.15337568291E+02  0.38676863316E+02  0.41617110807E+02  0.10566000000E+00 0. -1.
        994    1    1    2    0    0 -0.21802556293E+01  0.14953612800E+02  0.36802025125E+01  0.17190505502E+03  0.17120000000E+03 0.  0.
        998    1    1    2    0    0  0.12681202934E+01  0.38395549178E+00  0.14576429305E+04  0.14576778342E+04  0.10000000000E+02 0. -1.
</event>
<event>
 5    1  0.1344348E-008  0.3856249E+03  0.7957747E-01  0.3427026E+00
         13   -1    0    0    0    0  0.00000000000E+00  0.00000000000E+00  0.14999999963E+04  0.15000000000E+04  0.10566000000E+00 0.  1.
        994   -1    0    0    0    0 -0.00000000000E+00 -0.00000000000E+00  0.11368683772E-12  0.17120000000E+03  0.17120000000E+03 0.  0.
         13    1    1    2    0    0  0.17086162635E+02  0.13433978631E+01  0.95511152681E+02  0.97036761704E+02  0.10566000000E+00 0.  1.
        994    1    1    2    0    0 -0.30347007102E+02  0.63228201291E+00  0.43499195459E+01  0.17392441583E+03  0.17120000000E+03 0.  0.
        998    1    1    2    0    0  0.13260844467E+02 -0.19756798760E+01  0.14001389241E+04  0.14002388225E+04  0.10000000000E+02 0.  1.
</event>
<event>
 5    1  0.1344348E-008  0.3847261E+03  0.7957747E-01  0.3430835E+00
         13   -1    0    0    0    0  0.00000000000E+00  0.00000000000E+00  0.14999999963E+04  0.15000000000E+04  0.10566000000E+00 0.  1.
        994   -1    0    0    0    0 -0.00000000000E+00 -0.00000000000E+00  0.11368683772E-12  0.17120000000E+03  0.17120000000E+03 0.  0.
         13    1    1    2    0    0  0.11489497452E+02  0.70939197790E+01  0.53447317989E+02  0.55126755879E+02  0.10566000000E+00 0.  1.
        994    1    1    2    0    0 -0.33406777970E+01  0.13017658841E+01  0.18085042565E+01  0.17124708876E+03  0.17120000000E+03 0.  0.
        998    1    1    2    0    0 -0.81488196548E+01 -0.83956856631E+01  0.14447441740E+04  0.14448261554E+04  0.10000000000E+02 0.  1.
</event>
<event>
 5    1  0.1344348E-008  0.3769860E+03  0.7957747E-01  0.3464388E+00
         13   -1    0    0    0    0  0.00000000000E+00  0.00000000000E+00  0.14999999963E+04  0.15000000000E+04  0.10566000000E+00 0. -1.
        994   -1    0    0    0    0 -0.00000000000E+00 -0.00000000000E+00  0.11368683772E-12  0.17120000000E+03  0.17120000000E+03 0.  0.
         13    1    1    2    0    0  0.45306859022E+02  0.48368525571E+02  0.12754427360E+03  0.14373509882E+03  0.10566000000E+00 0. -1.
        994    1    1    2    0    0 -0.50427781371E+02 -0.58501727660E+02  0.36384266119E+02  0.19130778367E+03  0.17120000000E+03 0.  0.
        998    1    1    2    0    0  0.51209223491E+01  0.10133202089E+02  0.13360714566E+04  0.13361571175E+04  0.10000000000E+02 0. -1.
</event>
<event>
 5    1  0.1459345E-008  0.3858915E+03  0.7957747E-01  0.3425900E+00
         13   -1    0    0    0    0  0.00000000000E+00  0.00000000000E+00  0.14999999963E+04  0.15000000000E+04  0.10566000000E+00 0. -1.
        994   -1    0    0    0    0 -0.00000000000E+00 -0.00000000000E+00  0.11368683772E-12  0.17120000000E+03  0.17120000000E+03 0.  0.
         13    1    1    2    0    0  0.81344744795E+01  0.95133726188E+01  0.63423102410E+02  0.64646539095E+02  0.10566000000E+00 0. -1.
        994    1    1    2    0    0 -0.88105325308E+01 -0.12327268476E+02  0.19413825956E+01  0.17188017919E+03  0.17120000000E+03 0.  0.
        998    1    1    2    0    0  0.67605805129E+00  0.28138958574E+01  0.14346355113E+04  0.14346732817E+04  0.10000000000E+02 0. -1.
</event>
<event>
 5    1  0.1344348E-008  0.3850294E+03  0.7957747E-01  0.3429548E+00
         13   -1    0    0    0    0  0.00000000000E+00  0.00000000000E+00  0.14999999963E+04  0.15000000000E+04  0.10566000000E+00 0. -1.
        994   -1    0    0    0    0 -0.00000000000E+00 -0.00000000000E+00  0.11368683772E-12  0.17120000000E+03  0.17120000000E+03 0.  0.
         13    1    1    2    0    0 -0.54401071611E+01  0.20341593567E+02  0.12568577108E+03  0.12743743332E+03  0.10566000000E+00 0. -1.
        994    1    1    2    0    0  0.40642945721E+01 -0.22962818387E+02  0.34058198084E+01  0.17281449339E+03  0.17120000000E+03 0.  0.
        998    1    1    2    0    0  0.13758125890E+01  0.26212248202E+01  0.13709084054E+04  0.13709480733E+04  0.10000000000E+02 0. -1.
</event>
<event>
 5    1  0.1344348E-008  0.3841532E+03  0.7957747E-01  0.3433271E+00
         13   -1    0    0    0    0  0.00000000000E+00  0.00000000000E+00  0.14999999963E+04  0.15000000000E+04  0.10566000000E+00 0.  1.
        994   -1    0    0    0    0 -0.00000000000E+00 -0.00000000000E+00  0.11368683772E-12  0.17120000000E+03  0.17120000000E+03 0.  0.
         13    1    1    2    0    0 -0.96927001499E+01 -0.10822611315E+02  0.55948559553E+02  0.57804237145E+02  0.10566000000E+00 0.  1.
        994    1    1    2    0    0 -0.11756459513E+02  0.66444312568E+00  0.25085145531E+01  0.17162280871E+03  0.17120000000E+03 0.  0.
        998    1    1    2    0    0  0.21449159663E+02  0.10158168189E+02  0.14415429222E+04  0.14417729541E+04  0.10000000000E+02 0.  1.
</event>
<event>
 5    1  0.1344348E-008  0.2951895E+03  0.7957747E-01  0.3930971E+00
         13   -1    0    0    0    0  0.00000000000E+00  0.00000000000E+00  0.14999999963E+04  0.15000000000E+04  0.10566000000E+00 0.  1.
        994   -1    0    0    0    0 -0.00000000000E+00 -0.00000000000E+00  0.11368683772E-12  0.17120000000E+03  0.17120000000E+03 0.  0.
         13    1    1    2    0    0  0.11571810714E+03 -0.19480325514E+03  0.40869964018E+03  0.46730546282E+03  0.10566000000E+00 0.  1.
        994    1    1    2    0    0 -0.11768130016E+03  0.21769838226E+03  0.34753890982E+03  0.45971100474E+03  0.17120000000E+03 0.  0.
        998    1    1    2    0    0  0.19631930280E+01 -0.22895127115E+02  0.74376144628E+03  0.74418353243E+03  0.10000000000E+02 0.  1.
</event>
<event>
 5    1  0.1344348E-008  0.3732258E+03  0.7957747E-01  0.3481196E+00
         13   -1    0    0    0    0  0.00000000000E+00  0.00000000000E+00  0.14999999963E+04  0.15000000000E+04  0.10566000000E+00 0.  1.
        994   -1    0    0    0    0 -0.00000000000E+00 -0.00000000000E+00  0.11368683772E-12  0.17120000000E+03  0.17120000000E+03 0.  0.
         13    1    1    2    0    0 -0.50802985664E+00 -0.23221031385E+02  0.31777990618E+02  0.39361481739E+02  0.10566000000E+00 0.  1.
        994    1    1    2    0    0 -0.38301674880E+01  0.23563249032E+02  0.95439355906E+01  0.17311967997E+03  0.17120000000E+03 0.  0.
        998    1    1    2    0    0  0.43381973446E+01 -0.34221764687E+00  0.14586780701E+04  0.14587188383E+04  0.10000000000E+02 0.  1.
</event>
<event>
 5    1  0.1344348E-008  0.3809360E+03  0.7957747E-01  0.3447093E+00
         13   -1    0    0    0    0  0.00000000000E+00  0.00000000000E+00  0.14999999963E+04  0.15000000000E+04  0.10566000000E+00 0.  1.
        994   -1    0    0    0    0 -0.00000000000E+00 -0.00000000000E+00  0.11368683772E-12  0.17120000000E+03  0.17120000000E+03 0.  0.
         13    1    1    2    0    0  0.13188803123E+01  0.21946433015E+02  0.63988306939E+02  0.67660179990E+02  0.10566000000E+00 0.  1.
        994    1    1    2    0    0 -0.81436243437E+01 -0.16201018593E+02  0.47579181876E+01  0.17222331261E+03  0.17120000000E+03 0.  0.
        998    1    1    2    0    0  0.68247440315E+01 -0.57454144212E+01  0.14312537712E+04  0.14313165074E+04  0.10000000000E+02 0.  1.
</event>
<event>
 5    1  0.1344348E-008  0.3741057E+03  0.7957747E-01  0.3477232E+00
         13   -1    0    0    0    0  0.00000000000E+00  0.00000000000E+00  0.14999999963E+04  0.15000000000E+04  0.10566000000E+00 0. -1.
        994   -1    0    0    0    0 -0.00000000000E+00 -0.00000000000E+00  0.11368683772E-12  0.17120000000E+03  0.17120000000E+03 0.  0.
         13    1    1    2    0    0  0.12825810515E+02 -0.13071788097E+02  0.21224470494E+02  0.28033236902E+02  0.10566000000E+00 0. -1.
        994    1    1    2    0    0  0.14298740617E+02  0.99762318101E+01  0.81757466051E+01  0.17227960418E+03  0.17120000000E+03 0.  0.
        998    1    1    2    0    0 -0.27124551131E+02  0.30955562872E+01  0.14705997792E+04  0.14708871589E+04  0.10000000000E+02 0. -1.
</event>
<event>
 5    1  0.1344348E-008  0.3857529E+03  0.7957747E-01  0.3426485E+00
         13   -1    0    0    0    0  0.00000000000E+00  0.00000000000E+00  0.14999999963E+04  0.15000000000E+04  0.10566000000E+00 0.  1.
        994   -1    0    0    0    0 -0.00000000000E+00 -0.00000000000E+00  0.11368683772E-12  0.17120000000E+03  0.17120000000E+03 0.  0.
         13    1    1    2    0    0  0.89324774088E+01  0.10426943565E+02  0.76809959518E+02  0.78027503805E+02  0.10566000000E+00 0.  1.
        994    1    1    2    0    0 -0.50036316899E+01 -0.49306098657E+01  0.14186935365E+01  0.17134993416E+03  0.17120000000E+03 0.  0.
        998    1    1    2    0    0 -0.39288457190E+01 -0.54963336991E+01  0.14217713432E+04  0.14218225620E+04  0.10000000000E+02 0.  1.
</event>
<event>
 5    1  0.1344348E-008  0.3819400E+03  0.7957747E-01  0.3442754E+00
         13   -1    0    0    0    0  0.00000000000E+00  0.00000000000E+00  0.14999999963E+04  0.15000000000E+04  0.10566000000E+00 0. -1.
        994   -1    0    0    0    0 -0.00000000000E+00 -0.00000000000E+00  0.11368683772E-12  0.17120000000E+03  0.17120000000E+03 0.  0.
         13    1    1    2    0    0 -0.16637649417E+02  0.73661671458E+00  0.46604318903E+02  0.49490682828E+02  0.10566000000E+00 0. -1.
        994    1    1    2    0    0 -0.95401467799E+01  0.30075817408E+01  0.34894506293E+01  0.17152747947E+03  0.17120000000E+03 0.  0.
        998    1    1    2    0    0  0.26177796197E+02 -0.37441984554E+01  0.14499062267E+04  0.14501818377E+04  0.10000000000E+02 0. -1.
</event>
<event>
 5    1  0.1344348E-008  0.3949921E+03  0.7957747E-01  0.3388369E+00
         13   -1    0    0    0    0  0.00000000000E+00  0.00000000000E+00  0.14999999963E+04  0.15000000000E+04  0.10566000000E+00 0. -1.
        994   -1    0    0    0    0 -0.00000000000E+00 -0.00000000000E+00  0.11368683772E-12  0.17120000000E+03  0.17120000000E+03 0.  0.
         13    1    1    2    0    0 -0.43202560053E+02  0.63608204017E+02  0.11696307653E+03  0.13997441641E+03  0.10566000000E+00 0. -1.
        994    1    1    2    0    0  0.63112186726E+02 -0.18753054473E+01  0.40279291020E+02  0.18686499450E+03  0.17120000000E+03 0.  0.
        998    1    1    2    0    0 -0.19909626674E+02 -0.61732898569E+02  0.13427576287E+04  0.13443605891E+04  0.10000000000E+02 0. -1.
</event>
<event>
 5    1  0.1344348E-008  0.3754229E+03  0.7957747E-01  0.3471334E+00
         13   -1    0    0    0    0  0.00000000000E+00  0.00000000000E+00  0.14999999963E+04  0.15000000000E+04  0.10566000000E+00 0. -1.
        994   -1    0    0    0    0 -0.00000000000E+00 -0.00000000000E+00  0.11368683772E-12  0.17120000000E+03  0.17120000000E+03 0.  0.
         13    1    1    2    0    0  0.15621787268E+02  0.11696240432E+02  0.26254145634E+02  0.32712896611E+02  0.10566000000E+00 0. -1.
        994    1    1    2    0    0 -0.20681954632E+02 -0.74128777375E+01  0.81018785491E+01  0.17279402316E+03  0.17120000000E+03 0.  0.
        998    1    1    2    0    0  0.50601673635E+01 -0.42833626948E+01  0.14656439721E+04  0.14656930802E+04  0.10000000000E+02 0. -1.
</event>
<event>
 5    1  0.1344348E-008  0.3843618E+03  0.7957747E-01  0.3432383E+00
         13   -1    0    0    0    0  0.00000000000E+00  0.00000000000E+00  0.14999999963E+04  0.15000000000E+04  0.10566000000E+00 0. -1.
        994   -1    0    0    0    0 -0.00000000000E+00 -0.00000000000E+00  0.11368683772E-12  0.17120000000E+03  0.17120000000E+03 0.  0.
         13    1    1    2    0    0 -0.44153175256E+02  0.27647855824E+02  0.60827574676E+02  0.80086901687E+02  0.10566000000E+00 0. -1.
        994    1    1    2    0    0  0.62079647079E+02 -0.24111369711E+02  0.35265536216E+02  0.18705170081E+03  0.17120000000E+03 0.  0.
        998    1    1    2    0    0 -0.17926471823E+02 -0.35364861130E+01  0.14039068854E+04  0.14040613975E+04  0.10000000000E+02 0. -1.
</event>
<event>
 5    1  0.1344348E-008  0.3851797E+03  0.7957747E-01  0.3428910E+00
         13   -1    0    0    0    0  0.00000000000E+00  0.00000000000E+00  0.14999999963E+04  0.15000000000E+04  0.10566000000E+00 0. -1.
        994   -1    0    0    0    0 -0.00000000000E+00 -0.00000000000E+00  0.11368683772E-12  0.17120000000E+03  0.17120000000E+03 0.  0.
         13    1    1    2    0    0 -0.12579118345E+02 -0.79002298481E+01  0.68761981896E+02  0.70348199467E+02  0.10566000000E+00 0. -1.
        994    1    1    2    0    0  0.12670527193E+02  0.10187230429E+02  0.24101643002E+01  0.17198712398E+03  0.17120000000E+03 0.  0.
        998    1    1    2    0    0 -0.91408847885E-01 -0.22870005807E+01  0.14288278501E+04  0.14288646766E+04  0.10000000000E+02 0. -1.
</event>
<event>
 5    1  0.1344348E-008  0.3796290E+03  0.7957747E-01  0.3452776E+00
         13   -1    0    0    0    0  0.00000000000E+00  0.00000000000E+00  0.14999999963E+04  0.15000000000E+04  0.10566000000E+00 0. -1.
        994   -1    0    0    0    0 -0.00000000000E+00 -0.00000000000E+00  0.11368683772E-12  0.17120000000E+03  0.17120000000E+03 0.  0.
         13    1    1    2    0    0  0.15372986656E+02 -0.15201960939E+00  0.25769474179E+02  0.30007145686E+02  0.10566000000E+00 0. -1.
        994    1    1    2    0    0 -0.82592694550E+01 -0.61174783515E+01  0.46742121327E+01  0.17157193049E+03  0.17120000000E+03 0.  0.
        998    1    1    2    0    0 -0.71137172008E+01  0.62694979608E+01  0.14695563100E+04  0.14696209238E+04  0.10000000000E+02 0. -1.
</event>
<event>
 5    1  0.1344348E-008  0.3847848E+03  0.7957747E-01  0.3430586E+00
         13   -1    0    0    0    0  0.00000000000E+00  0.00000000000E+00  0.14999999963E+04  0.15000000000E+04  0.10566000000E+00 0.  1.
        994   -1    0    0    0    0 -0.00000000000E+00 -0.00000000000E+00  0.11368683772E-12  0.17120000000E+03  0.17120000000E+03 0.  0.
         13    1    1    2    0    0  0.21603941711E+02  0.13681818475E+01  0.12995544161E+03  0.13174608225E+03  0.10566000000E+00 0.  1.
        994    1    1    2    0    0 -0.17892145322E+02  0.30372394131E+01  0.28216747460E+01  0.17218233224E+03  0.17120000000E+03 0.  0.
        998    1    1    2    0    0 -0.37117963890E+01 -0.44054212606E+01  0.13672228799E+04  0.13672715855E+04  0.10000000000E+02 0.  1.
</event>
<event>
 5    1  0.1344348E-008  0.3723300E+03  0.7957747E-01  0.3485251E+00
         13   -1    0    0    0    0  0.00000000000E+00  0.00000000000E+00  0.14999999963E+04  0.15000000000E+04  0.10566000000E+00 0.  1.
        994   -1    0    0    0    0 -0.00000000000E+00 -0.00000000000E+00  0.11368683772E-12  0.17120000000E+03  0.17120000000E+03 0.  0.
         13    1    1    2    0    0  0.30478010752E+01  0.13910372495E+02  0.27297909314E+01  0.14500016445E+02  0.10566000000E+00 0.  1.
        994    1    1    2    0    0 -0.13206882363E+01 -0.12972112809E+02  0.12775696152E+02  0.17217049207E+03  0.17120000000E+03 0.  0.
        998    1    1    2    0    0 -0.17271128389E+01 -0.93825968665E+00  0.14844945092E+04  0.14845294915E+04  0.10000000000E+02 0.  1.
</event>
<event>
 5    1  0.1344348E-008  0.3971550E+03  0.7957747E-01  0.3379702E+00
         13   -1    0    0    0    0  0.00000000000E+00  0.00000000000E+00  0.14999999963E+04  0.15000000000E+04  0.10566000000E+00 0.  1.
        994   -1    0    0    0    0 -0.00000000000E+00 -0.00000000000E+00  0.11368683772E-12  0.17120000000E+03  0.17120000000E+03 0.  0.
         13    1    1    2    0    0 -0.45396634310E+02  0.10477969962E+03  0.21407334085E+03  0.24262532078E+03  0.10566000000E+00 0.  1.
        994    1    1    2    0    0  0.60024444036E+02 -0.88345056261E+02  0.71756459475E+02  0.21416398466E+03  0.17120000000E+03 0.  0.
        998    1    1    2    0    0 -0.14627809726E+02 -0.16434643355E+02  0.12141701960E+04  0.12144106946E+04  0.10000000000E+02 0.  1.
</event>
<event>
 5    1  0.1344348E-008  0.3704034E+03  0.7957747E-01  0.3494039E+00
         13   -1    0    0    0    0  0.00000000000E+00  0.00000000000E+00  0.14999999963E+04  0.15000000000E+04  0.10566000000E+00 0. -1.
        994   -1    0    0    0    0 -0.00000000000E+00 -0.00000000000E+00  0.11368683772E-12  0.17120000000E+03  0.17120000000E+03 0.  0.
         13    1    1    2    0    0  0.12108650553E+02  0.69884598965E+02  0.25046810953E+03  0.26031665649E+03  0.10566000000E+00 0. -1.
        994    1    1    2    0    0 -0.14167113642E+02 -0.55244655474E+02  0.20374485312E+02  0.18159636208E+03  0.17120000000E+03 0.  0.
        998    1    1    2    0    0  0.20584630890E+01 -0.14639943492E+02  0.12291574014E+04  0.12292869814E+04  0.10000000000E+02 0. -1.
</event>
<event>
 5    1  0.1344348E-008  0.3711062E+03  0.7957747E-01  0.3490822E+00
         13   -1    0    0    0    0  0.00000000000E+00  0.00000000000E+00  0.14999999963E+04  0.15000000000E+04  0.10566000000E+00 0.  1.
        994   -1    0    0    0    0 -0.00000000000E+00 -0.00000000000E+00  0.11368683772E-12  0.17120000000E+03  0.17120000000E+03 0.  0.
         13    1    1    2    0    0  0.74562541581E+02  0.69154978624E+01  0.20515167659E+03  0.21839097575E+03  0.10566000000E+00 0.  1.
        994    1    1    2    0    0 -0.80120599597E+02  0.27614680478E+02  0.37176097617E+02  0.19461085091E+03  0.17120000000E+03 0.  0.
        998    1    1    2    0    0  0.55580580159E+01 -0.34530178340E+02  0.12576722221E+04  0.12581981733E+04  0.10000000000E+02 0.  1.
</event>
<event>
 5    1  0.1344348E-008  0.3858657E+03  0.7957747E-01  0.3426009E+00
         13   -1    0    0    0    0  0.00000000000E+00  0.00000000000E+00  0.14999999963E+04  0.15000000000E+04  0.10566000000E+00 0. -1.
        994   -1    0    0    0    0 -0.00000000000E+00 -0.00000000000E+00  0.11368683772E-12  0.17120000000E+03  0.17120000000E+03 0.  0.
         13    1    1    2    0    0  0.11832767955E+01  0.12255192576E+02  0.59872255787E+02  0.61125183567E+02  0.10566000000E+00 0. -1.
        994    1    1    2    0    0  0.74491423592E+01 -0.18094866981E+02  0.24576977502E+01  0.17233222047E+03  0.17120000000E+03 0.  0.
        998    1    1    2    0    0 -0.86324191547E+01  0.58396744054E+01  0.14376700427E+04  0.14377425960E+04  0.10000000000E+02 0. -1.
</event>
<event>
 5    1  0.1344348E-008  0.3848820E+03  0.7957747E-01  0.3430173E+00
         13   -1    0    0    0    0  0.00000000000E+00  0.00000000000E+00  0.14999999963E+04  0.15000000000E+04  0.10566000000E+00 0.  1.
        994   -1    0    0    0    0 -0.00000000000E+00 -0.00000000000E+00  0.11368683772E-12  0.17120000000E+03  0.17120000000E+03 0.  0.
         13    1    1    2    0    0  0.53501411915E+01  0.89818355921E+01  0.33260902009E+02  0.34865400440E+02  0.10566000000E+00 0.  1.
        994    1    1    2    0    0 -0.22911626230E+01  0.20865271818E+01  0.17203123164E+01  0.17123668560E+03  0.17120000000E+03 0.  0.
        998    1    1    2    0    0 -0.30589785685E+01 -0.11068362774E+02  0.14650187820E+04  0.14650979140E+04  0.10000000000E+02 0.  1.
</event>
<event>
 5    1  0.1344348E-008  0.3783064E+03  0.7957747E-01  0.3458566E+00
         13   -1    0    0    0    0  0.00000000000E+00  0.00000000000E+00  0.14999999963E+04  0.15000000000E+04  0.10566000000E+00 0.  1.
        994   -1    0    0    0    0 -0.00000000000E+00 -0.00000000000E+00  0.11368683772E-12  0.17120000000E+03  0.17120000000E+03 0.  0.
         13    1    1    2    0    0 -0.17515600755E+02  0.15557770829E+02  0.55495081424E+02  0.60237494381E+02  0.10566000000E+00 0.  1.
        994    1    1    2    0    0  0.28198291651E+01 -0.14498459643E+01  0.50243392299E+01  0.17130305740E+03  0.17120000000E+03 0.  0.
        998    1    1    2    0    0  0.14695771590E+02 -0.14107924865E+02  0.14394805756E+04  0.14396594482E+04  0.10000000000E+02 0.  1.
</event>
<event>
 5    1  0.1344348E-008  0.3886516E+03  0.7957747E-01  0.3414331E+00
         13   -1    0    0    0    0  0.00000000000E+00  0.00000000000E+00  0.14999999963E+04  0.15000000000E+04  0.10566000000E+00 0. -1.
        994   -1    0    0    0    0 -0.00000000000E+00 -0.00000000000E+00  0.11368683772E-12  0.17120000000E+03  0.17120000000E+03 0.  0.
         13    1    1    2    0    0  0.32430235518E+02 -0.98848309772E+02  0.20979348152E+03  0.23417093025E+03  0.10566000000E+00 0. -1.
        994    1    1    2    0    0 -0.36548044180E+02  0.10096910874E+03  0.65739827406E+02  0.21251278870E+03  0.17120000000E+03 0.  0.
        998    1    1    2    0    0  0.41178086621E+01 -0.21207989629E+01  0.12244666873E+04  0.12245162811E+04  0.10000000000E+02 0. -1.
</event>
<event>
 5    1  0.1344348E-008  0.3856842E+03  0.7957747E-01  0.3426775E+00
         13   -1    0    0    0    0  0.00000000000E+00  0.00000000000E+00  0.14999999963E+04  0.15000000000E+04  0.10566000000E+00 0. -1.
        994   -1    0    0    0    0 -0.00000000000E+00 -0.00000000000E+00  0.11368683772E-12  0.17120000000E+03  0.17120000000E+03 0.  0.
         13    1    1    2    0    0 -0.76665231946E+01 -0.81833174381E+01  0.51301921470E+02  0.52513241880E+02  0.10566000000E+00 0. -1.
        994    1    1    2    0    0  0.32883790223E+01 -0.24585472623E+01  0.13461230421E+01  0.17125451801E+03  0.17120000000E+03 0.  0.
        998    1    1    2    0    0  0.43781441724E+01  0.10641864700E+02  0.14473519518E+04  0.14474322401E+04  0.10000000000E+02 0. -1.
</event>
<event>
 5    1  0.1344348E-008  0.3851684E+03  0.7957747E-01  0.3428958E+00
         13   -1    0    0    0    0  0.00000000000E+00  0.00000000000E+00  0.14999999963E+04  0.15000000000E+04  0.10566000000E+00 0. -1.
        994   -1    0    0    0    0 -0.00000000000E+00 -0.00000000000E+00  0.11368683772E-12  0.17120000000E+03  0.17120000000E+03 0.  0.
         13    1    1    2    0    0  0.38108011166E+01 -0.95270111982E+01  0.34635357981E+02  0.36123473449E+02  0.10566000000E+00 0. -1.
        994    1    1    2    0    0  0.37982915208E+01  0.44145491429E+01  0.16580235319E+01  0.17130704686E+03  0.17120000000E+03 0.  0.
        998    1    1    2    0    0 -0.76090926374E+01  0.51124620553E+01  0.14637066148E+04  0.14637694797E+04  0.10000000000E+02 0. -1.
</event>
<event>
 5    1  0.1344348E-008  0.3776779E+03  0.7957747E-01  0.3461332E+00
         13   -1    0    0    0    0  0.00000000000E+00  0.00000000000E+00  0.14999999963E+04  0.15000000000E+04  0.10566000000E+00 0. -1.
        994   -1    0    0    0    0 -0.00000000000E+00 -0.00000000000E+00  0.11368683772E-12  0.17120000000E+03  0.17120000000E+03 0.  0.
         13    1    1    2    0    0  0.42721711429E+00  0.12233768995E+02  0.11527222708E+02  0.16814744889E+02  0.10566000000E+00 0. -1.
        994    1    1    2    0    0  0.40793881775E+01 -0.17307317624E+02  0.63757958622E+01  0.17223900669E+03  0.17120000000E+03 0.  0.
        998    1    1    2    0    0 -0.45066052918E+01  0.50735486290E+01  0.14820969777E+04  0.14821462484E+04  0.10000000000E+02 0. -1.
</event>
<event>
 5    1  0.1344348E-008  0.3799022E+03  0.7957747E-01  0.3451584E+00
         13   -1    0    0    0    0  0.00000000000E+00  0.00000000000E+00  0.14999999963E+04  0.15000000000E+04  0.10566000000E+00 0. -1.
        994   -1    0    0    0    0 -0.00000000000E+00 -0.00000000000E+00  0.11368683772E-12  0.17120000000E+03  0.17120000000E+03 0.  0.
         13    1    1    2    0    0 -0.12963876505E+02 -0.79449078913E+00  0.18509159657E+02  0.22611799240E+02  0.10566000000E+00 0. -1.
        994    1    1    2    0    0  0.59457569965E+01  0.16273618709E+02  0.51869573199E+01  0.17215262768E+03  0.17120000000E+03 0.  0.
        998    1    1    2    0    0  0.70181195081E+01 -0.15479127920E+02  0.14763038793E+04  0.14764355731E+04  0.10000000000E+02 0. -1.
</event>
<event>
 5    1  0.1344348E-008  0.3834215E+03  0.7957747E-01  0.3436395E+00
         13   -1    0    0    0    0  0.00000000000E+00  0.00000000000E+00  0.14999999963E+04  0.15000000000E+04  0.10566000000E+00 0.  1.
        994   -1    0    0    0    0 -0.00000000000E+00 -0.00000000000E+00  0.11368683772E-12  0.17120000000E+03  0.17120000000E+03 0.  0.
         13    1    1    2    0    0 -0.16855810519E+02 -0.43978600181E+01  0.65885800347E+02  0.68149903686E+02  0.10566000000E+00 0.  1.
        994    1    1    2    0    0  0.38255272736E+01 -0.12090460353E+02  0.29476506739E+01  0.17169432878E+03  0.17120000000E+03 0.  0.
        998    1    1    2    0    0  0.13030283246E+02  0.16488320371E+02  0.14311665453E+04  0.14313557675E+04  0.10000000000E+02 0.  1.
</event>
<event>
 5    1  0.1344348E-008  0.3735897E+03  0.7957747E-01  0.3479554E+00
         13   -1    0    0    0    0  0.00000000000E+00  0.00000000000E+00  0.14999999963E+04  0.15000000000E+04  0.10566000000E+00 0. -1.
        994   -1    0    0    0    0 -0.00000000000E+00 -0.00000000000E+00  0.11368683772E-12  0.17120000000E+03  0.17120000000E+03 0.  0.
         13    1    1    2    0    0  0.42490373608E+02  0.93050888647E+01  0.11713194685E+03  0.12494767170E+03  0.10566000000E+00 0. -1.
        994    1    1    2    0    0 -0.36653016453E+02 -0.27966547290E+02  0.14699499125E+02  0.17790752277E+03  0.17120000000E+03 0.  0.
        998    1    1    2    0    0 -0.58373571552E+01  0.18661458425E+02  0.13681685503E+04  0.13683448055E+04  0.10000000000E+02 0. -1.
</event>
<event>
 5    1  0.1344348E-008  0.3762713E+03  0.7957747E-01  0.3467557E+00
         13   -1    0    0    0    0  0.00000000000E+00  0.00000000000E+00  0.14999999963E+04  0.15000000000E+04  0.10566000000E+00 0.  1.
        994   -1    0    0    0    0 -0.00000000000E+00 -0.00000000000E+00  0.11368683772E-12  0.17120000000E+03  0.17120000000E+03 0.  0.
         13    1    1    2    0    0 -0.18029797786E+01 -0.11070800184E+02  0.76737585579E+01  0.13590845715E+02  0.10566000000E+00 0.  1.
        994    1    1    2    0    0  0.38952621114E+01  0.88693016844E+01  0.63450258376E+01  0.17159119130E+03  0.17120000000E+03 0.  0.
        998    1    1    2    0    0 -0.20922823328E+01  0.22014985001E+01  0.14859812119E+04  0.14860179630E+04  0.10000000000E+02 0.  1.
</event>
<event>
 5    1  0.1344348E-008  0.3847101E+03  0.7957747E-01  0.3430903E+00
         13   -1    0    0    0    0  0.00000000000E+00  0.00000000000E+00  0.14999999963E+04  0.15000000000E+04  0.10566000000E+00 0. -1.
        994   -1    0    0    0    0 -0.00000000000E+00 -0.00000000000E+00  0.11368683772E-12  0.17120000000E+03  0.17120000000E+03 0.  0.
         13    1    1    2    0    0 -0.12613573618E+02  0.97609407983E+01  0.67115543124E+02  0.68984675817E+02  0.10566000000E+00 0. -1.
        994    1    1    2    0    0  0.17427608545E+02 -0.11679265165E+02  0.32242544845E+01  0.17251076080E+03  0.17120000000E+03 0.  0.
        998    1    1    2    0    0 -0.48140349262E+01  0.19183243665E+01  0.14296601987E+04  0.14297045634E+04  0.10000000000E+02 0. -1.
</event>
<event>
 5    1  0.1344348E-008  0.3977391E+03  0.7957747E-01  0.3377378E+00
         13   -1    0    0    0    0  0.00000000000E+00  0.00000000000E+00  0.14999999963E+04  0.15000000000E+04  0.10566000000E+00 0. -1.
        994   -1    0    0    0    0 -0.00000000000E+00 -0.00000000000E+00  0.11368683772E-12  0.17120000000E+03  0.17120000000E+03 0.  0.
         13    1    1    2    0    0 -0.62950336352E+01 -0.43482599079E+02  0.24592010834E+02  0.50350193963E+02  0.10566000000E+00 0. -1.
        994    1    1    2    0    0  0.88992815431E+01  0.60181836621E+02  0.40934763065E+02  0.18624216896E+03  0.17120000000E+03 0.  0.
        998    1    1    2    0    0 -0.26042479079E+01 -0.16699237542E+02  0.14344732224E+04  0.14346076371E+04  0.10000000000E+02 0. -1.
</event>
<event>
 5    1  0.1344348E-008  0.4078961E+03  0.7957747E-01  0.3338016E+00
         13   -1    0    0    0    0  0.00000000000E+00  0.00000000000E+00  0.14999999963E+04  0.15000000000E+04  0.10566000000E+00 0. -1.
        994   -1    0    0    0    0 -0.00000000000E+00 -0.00000000000E+00  0.11368683772E-12  0.17120000000E+03  0.17120000000E+03 0.  0.
         13    1    1    2    0    0 -0.23990986905E+02  0.10653382449E+03  0.31563898514E+03  0.33399551392E+03  0.10566000000E+00 0. -1.
        994    1    1    2    0    0  0.18505910898E+01  0.62808279164E+02  0.48737323212E+02  0.18876724105E+03  0.17120000000E+03 0.  0.
        998    1    1    2    0    0  0.22140395815E+02 -0.16934210366E+03  0.11356236879E+04  0.11484372450E+04  0.10000000000E+02 0. -1.
</event>
<event>
 5    1  0.1344348E-008  0.3845628E+03  0.7957747E-01  0.3431528E+00
         13   -1    0    0    0    0  0.00000000000E+00  0.00000000000E+00  0.14999999963E+04  0.15000000000E+04  0.10566000000E+00 0.  1.
        994   -1    0    0    0    0 -0.00000000000E+00 -0.00000000000E+00  0.11368683772E-12  0.17120000000E+03  0.17120000000E+03 0.  0.
         13    1    1    2    0    0 -0.79303371616E+01  0.69720757243E+01  0.28792751766E+02  0.30668123609E+02  0.10566000000E+00 0.  1.
        994    1    1    2    0    0  0.15693433210E+02 -0.54886669478E+01  0.27581746557E+01  0.17202748861E+03  0.17120000000E+03 0.  0.
        998    1    1    2    0    0 -0.77630960487E+01 -0.14834087766E+01  0.14684490699E+04  0.14685043878E+04  0.10000000000E+02 0.  1.
</event>
<event>
 5    1  0.1344348E-008  0.3856883E+03  0.7957747E-01  0.3426758E+00
         13   -1    0    0    0    0  0.00000000000E+00  0.00000000000E+00  0.14999999963E+04  0.15000000000E+04  0.10566000000E+00 0.  1.
        994   -1    0    0    0    0 -0.00000000000E+00 -0.00000000000E+00  0.11368683772E-12  0.17120000000E+03  0.17120000000E+03 0.  0.
         13    1    1    2    0    0 -0.29705070237E+01 -0.12057159249E+02  0.53752424204E+02  0.55168227024E+02  0.10566000000E+00 0.  1.
        994    1    1    2    0    0  0.11526173324E+01  0.26896551235E+02  0.36705505754E+01  0.17334262585E+03  0.17120000000E+03 0.  0.
        998    1    1    2    0    0  0.18178896912E+01 -0.14839391986E+02  0.14425770215E+04  0.14426891471E+04  0.10000000000E+02 0.  1.
</event>
<event>
 5    1  0.1344348E-008  0.3776762E+03  0.7957747E-01  0.3461340E+00
         13   -1    0    0    0    0  0.00000000000E+00  0.00000000000E+00  0.14999999963E+04  0.15000000000E+04  0.10566000000E+00 0. -1.
        994   -1    0    0    0    0 -0.00000000000E+00 -0.00000000000E+00  0.11368683772E-12  0.17120000000E+03  0.17120000000E+03 0.  0.
         13    1    1    2    0    0  0.95604110132E+01  0.58827113742E+01  0.96885295303E+01  0.14828571082E+02  0.10566000000E+00 0. -1.
        994    1    1    2    0    0 -0.72287637292E+00  0.43257515312E+01  0.53756086735E+01  0.17134051431E+03  0.17120000000E+03 0.  0.
        998    1    1    2    0    0 -0.88375346403E+01 -0.10208462905E+02  0.14849358581E+04  0.14850309146E+04  0.10000000000E+02 0. -1.
</event>
<event>
 5    1  0.1344348E-008  0.3749791E+03  0.7957747E-01  0.3473316E+00
         13   -1    0    0    0    0  0.00000000000E+00  0.00000000000E+00  0.14999999963E+04  0.15000000000E+04  0.10566000000E+00 0. -1.
        994   -1    0    0    0    0 -0.00000000000E+00 -0.00000000000E+00  0.11368683772E-12  0.17120000000E+03  0.17120000000E+03 0.  0.
         13    1    1    2    0    0  0.64192523099E+02  0.13189746019E+02  0.37606213429E+03  0.38172947152E+03  0.10566000000E+00 0. -1.
        994    1    1    2    0    0 -0.16891015812E+02 -0.12692945091E+02  0.82084988789E+01  0.17269405527E+03  0.17120000000E+03 0.  0.
        998    1    1    2    0    0 -0.47301507287E+02 -0.49680092751E+00  0.11157293631E+04  0.11167764732E+04  0.10000000000E+02 0. -1.
</event>
<event>
 5    1  0.1344348E-008  0.3730049E+03  0.7957747E-01  0.3482194E+00
         13   -1    0    0    0    0  0.00000000000E+00  0.00000000000E+00  0.14999999963E+04  0.15000000000E+04  0.10566000000E+00 0.  1.
        994   -1    0    0    0    0 -0.00000000000E+00 -0.00000000000E+00  0.11368683772E-12  0.17120000000E+03  0.17120000000E+03 0.  0.
         13    1    1    2    0    0  0.65921804973E+01 -0.14949473367E+02  0.13825166640E+02  0.21403037034E+02  0.10566000000E+00 0.  1.
        994    1    1    2    0    0 -0.56321333127E+01  0.13901761368E+02  0.84771467899E+01  0.17206476081E+03  0.17120000000E+03 0.  0.
        998    1    1    2    0    0 -0.96004718464E+00  0.10477119989E+01  0.14776976828E+04  0.14777322022E+04  0.10000000000E+02 0.  1.
</event>
<event>
 5    1  0.1344348E-008  0.3789664E+03  0.7957747E-01  0.3455671E+00
         13   -1    0    0    0    0  0.00000000000E+00  0.00000000000E+00  0.14999999963E+04  0.15000000000E+04  0.10566000000E+00 0.  1.
        994   -1    0    0    0    0 -0.00000000000E+00 -0.00000000000E+00  0.11368683772E-12  0.17120000000E+03  0.17120000000E+03 0.  0.
         13    1    1    2    0    0  0.31141039840E+01 -0.30422835655E+02  0.93093592028E+02  0.97988135066E+02  0.10566000000E+00 0.  1.
        994    1    1    2    0    0 -0.24759050142E+01  0.31238596455E+02  0.79567518690E+01  0.17422608850E+03  0.17120000000E+03 0.  0.
        998    1    1    2    0    0 -0.63819896984E+00 -0.81576079993E+00  0.13989496524E+04  0.13989857764E+04  0.10000000000E+02 0.  1.
</event>
<event>
 5    1  0.1344348E-008  0.3858195E+03  0.7957747E-01  0.3426204E+00
         13   -1    0    0    0    0  0.00000000000E+00  0.00000000000E+00  0.14999999963E+04  0.15000000000E+04  0.10566000000E+00 0. -1.
        994   -1    0    0    0    0 -0.00000000000E+00 -0.00000000000E+00  0.11368683772E-12  0.17120000000E+03  0.17120000000E+03 0.  0.
         13    1    1    2    0    0  0.10880470027E+02 -0.40478997818E+01  0.57372619976E+02  0.58535449153E+02  0.10566000000E+00 0. -1.
        994    1    1    2    0    0 -0.22347232751E+01  0.28758220094E+01  0.12673448758E+01  0.17124342470E+03  0.17120000000E+03 0.  0.
        998    1    1    2    0    0 -0.86457467523E+01  0.11720777725E+01  0.14413600314E+04  0.14414211261E+04  0.10000000000E+02 0. -1.
</event>
<event>
 5    1  0.1344348E-008  0.3839133E+03  0.7957747E-01  0.3434294E+00
         13   -1    0    0    0    0  0.00000000000E+00  0.00000000000E+00  0.14999999963E+04  0.15000000000E+04  0.10566000000E+00 0.  1.
        994   -1    0    0    0    0 -0.00000000000E+00 -0.00000000000E+00  0.11368683772E-12  0.17120000000E+03  0.17120000000E+03 0.  0.
         13    1    1    2    0    0  0.80171708006E+01  0.71255992409E+01  0.25034798771E+02  0.27236033223E+02  0.10566000000E+00 0.  1.
        994    1    1    2    0    0 -0.36143016707E+01 -0.20307191705E+02  0.35759774133E+01  0.17247513683E+03  0.17120000000E+03 0.  0.
        998    1    1    2    0    0 -0.44028691299E+01  0.13181592464E+02  0.14713892201E+04  0.14714888299E+04  0.10000000000E+02 0.  1.
</event>
<event>
 5    1  0.1344348E-008  0.3759735E+03  0.7957747E-01  0.3468881E+00
         13   -1    0    0    0    0  0.00000000000E+00  0.00000000000E+00  0.14999999963E+04  0.15000000000E+04  0.10566000000E+00 0. -1.
        994   -1    0    0    0    0 -0.00000000000E+00 -0.00000000000E+00  0.11368683772E-12  0.17120000000E+03  0.17120000000E+03 0.  0.
         13    1    1    2    0    0  0.37468233915E+02  0.31391316762E+02  0.22304566876E+03  0.22833892537E+03  0.10566000000E+00 0. -1.
        994    1    1    2    0    0 -0.84841769568E+01  0.17118901162E+01  0.64335379163E+01  0.17153933146E+03  0.17120000000E+03 0.  0.
        998    1    1    2    0    0 -0.28984056959E+02 -0.33103206878E+02  0.12705207896E+04  0.12713217432E+04  0.10000000000E+02 0. -1.
</event>
<event>
 5    1  0.1344348E-008  0.3759864E+03  0.7957747E-01  0.3468823E+00
         13   -1    0    0    0    0  0.00000000000E+00  0.00000000000E+00  0.14999999963E+04  0.15000000000E+04  0.10566000000E+00 0. -1.
        994   -1    0    0    0    0 -0.00000000000E+00 -0.00000000000E+00  0.11368683772E-12  0.17120000000E+03  0.17120000000E+03 0.  0.
         13    1    1    2    0    0 -0.22728227265E+02  0.52496822178E+01  0.40411289773E+02  0.46660636335E+02  0.10566000000E+00 0. -1.
        994    1    1    2    0    0  0.25814544947E+02 -0.87200914495E+00  0.84366010020E+01  0.17334291842E+03  0.17120000000E+03 0.  0.
        998    1    1    2    0    0 -0.30863176818E+01 -0.43776730729E+01  0.14511521055E+04  0.14511964452E+04  0.10000000000E+02 0. -1.
</event>
<event>
 5    1  0.1344348E-008  0.3695534E+03  0.7957747E-01  0.3497946E+00
         13   -1    0    0    0    0  0.00000000000E+00  0.00000000000E+00  0.14999999963E+04  0.15000000000E+04  0.10566000000E+00 0. -1.
        994   -1    0    0    0    0 -0.00000000000E+00 -0.00000000000E+00  0.11368683772E-12  0.17120000000E+03  0.17120000000E+03 0.  0.
         13    1    1    2    0    0 -0.79196331173E+01  0.74084660725E+02  0.23389949811E+03  0.24547962018E+03  0.10566000000E+00 0. -1.
        994    1    1    2    0    0  0.37508214760E+02 -0.57712624753E+02  0.27427778497E+02  0.18654580205E+03  0.17120000000E+03 0.  0.
        998    1    1    2    0    0 -0.29588581642E+02 -0.16372035972E+02  0.12386727197E+04  0.12391745778E+04  0.10000000000E+02 0. -1.
</event>
<event>
 5    1  0.1344348E-008  0.3738051E+03  0.7957747E-01  0.3478584E+00
         13   -1    0    0    0    0  0.00000000000E+00  0.00000000000E+00  0.14999999963E+04  0.15000000000E+04  0.10566000000E+00 0.  1.
        994   -1    0    0    0    0 -0.00000000000E+00 -0.00000000000E+00  0.11368683772E-12  0.17120000000E+03  0.17120000000E+03 0.  0.
         13    1    1    2    0    0  0.45100827338E+02  0.14336537657E+01  0.14530192598E+03  0.15214729984E+03  0.10566000000E+00 0.  1.
        994    1    1    2    0    0 -0.15221601992E+02  0.40669900886E+01  0.81413025472E+01  0.17211611889E+03  0.17120000000E+03 0.  0.
        998    1    1    2    0    0 -0.29879225347E+02 -0.55006438543E+01  0.13465567678E+04  0.13469365813E+04  0.10000000000E+02 0.  1.
</event>
<event>
 5    1  0.1344348E-008  0.3825478E+03  0.7957747E-01  0.3440139E+00
         13   -1    0    0    0    0  0.00000000000E+00  0.00000000000E+00  0.14999999963E+04  0.15000000000E+04  0.10566000000E+00 0. -1.
        994   -1    0    0    0    0 -0.00000000000E+00 -0.00000000000E+00  0.11368683772E-12  0.17120000000E+03  0.17120000000E+03 0.  0.
         13    1    1    2    0    0  0.98951776834E+01 -0.15349007954E+02  0.47860254109E+02  0.51226181528E+02  0.10566000000E+00 0. -1.
        994    1    1    2    0    0 -0.71214990423E+02  0.21189705085E+02  0.21374175846E+02  0.18784800732E+03  0.17120000000E+03 0.  0.
        998    1    1    2    0    0  0.61319812739E+02 -0.58406971315E+01  0.14307655663E+04  0.14321258111E+04  0.10000000000E+02 0. -1.
</event>
<event>
 5    1  0.1344348E-008  0.3803845E+03  0.7957747E-01  0.3449486E+00
         13   -1    0    0    0    0  0.00000000000E+00  0.00000000000E+00  0.14999999963E+04  0.15000000000E+04  0.10566000000E+00 0. -1.
        994   -1    0    0    0    0 -0.00000000000E+00 -0.00000000000E+00  0.11368683772E-12  0.17120000000E+03  0.17120000000E+03 0.  0.
         13    1    1    2    0    0 -0.10659989582E+02  0.35077310318E+02  0.20897366851E+03  0.21216516767E+03  0.10566000000E+00 0. -1.
        994    1    1    2    0    0  0.36590128317E+01  0.62162914463E+01  0.41129354946E+01  0.17140124531E+03  0.17120000000E+03 0.  0.
        998    1    1    2    0    0  0.70009767498E+01 -0.41293601764E+02  0.12869133923E+04  0.12876335870E+04  0.10000000000E+02 0. -1.
</event>
<event>
 5    1  0.1344348E-008  0.3776583E+03  0.7957747E-01  0.3461418E+00
         13   -1    0    0    0    0  0.00000000000E+00  0.00000000000E+00  0.14999999963E+04  0.15000000000E+04  0.10566000000E+00 0.  1.
        994   -1    0    0    0    0 -0.00000000000E+00 -0.00000000000E+00  0.11368683772E-12  0.17120000000E+03  0.17120000000E+03 0.  0.
         13    1    1    2    0    0 -0.76347456414E+01  0.14791282776E+02  0.23443348612E+02  0.28751924203E+02  0.10566000000E+00 0.  1.
        994    1    1    2    0    0  0.85479701088E+01 -0.15262057714E+02  0.63514740185E+01  0.17220853469E+03  0.17120000000E+03 0.  0.
        998    1    1    2    0    0 -0.91322446737E+00  0.47077493779E+00  0.14702051736E+04  0.14702395411E+04  0.10000000000E+02 0.  1.
</event>
<event>
 5    1  0.1344348E-008  0.3819419E+03  0.7957747E-01  0.3442746E+00
         13   -1    0    0    0    0  0.00000000000E+00  0.00000000000E+00  0.14999999963E+04  0.15000000000E+04  0.10566000000E+00 0.  1.
        994   -1    0    0    0    0 -0.00000000000E+00 -0.00000000000E+00  0.11368683772E-12  0.17120000000E+03  0.17120000000E+03 0.  0.
         13    1    1    2    0    0 -0.77353444982E+01  0.13703210637E+02  0.39226009732E+02  0.42264696140E+02  0.10566000000E+00 0.  1.
        994    1    1    2    0    0 -0.34392779623E+00 -0.34870426861E+01  0.31968707369E+01  0.17126569340E+03  0.17120000000E+03 0.  0.
        998    1    1    2    0    0  0.80792722944E+01 -0.10216167951E+02  0.14575771158E+04  0.14576696105E+04  0.10000000000E+02 0.  1.
</event>
<event>
 5    1  0.1344348E-008  0.3862484E+03  0.7957747E-01  0.3424395E+00
         13   -1    0    0    0    0  0.00000000000E+00  0.00000000000E+00  0.14999999963E+04  0.15000000000E+04  0.10566000000E+00 0. -1.
        994   -1    0    0    0    0 -0.00000000000E+00 -0.00000000000E+00  0.11368683772E-12  0.17120000000E+03  0.17120000000E+03 0.  0.
         13    1    1    2    0    0  0.10021103866E+03 -0.11039113633E+01  0.55816897541E+03  0.56709442526E+03  0.10566000000E+00 0. -1.
        994    1    1    2    0    0  0.36655960422E+02  0.16855154337E+02  0.25863581340E+02  0.17778110277E+03  0.17120000000E+03 0.  0.
        998    1    1    2    0    0 -0.13686699908E+03 -0.15751242974E+02  0.91596743953E+03  0.92632447197E+03  0.10000000000E+02 0.  1.
</event>
<event>
 5    1  0.1344348E-008  0.3856446E+03  0.7957747E-01  0.3426943E+00
         13   -1    0    0    0    0  0.00000000000E+00  0.00000000000E+00  0.14999999963E+04  0.15000000000E+04  0.10566000000E+00 0. -1.
        994   -1    0    0    0    0 -0.00000000000E+00 -0.00000000000E+00  0.11368683772E-12  0.17120000000E+03  0.17120000000E+03 0.  0.
         13    1    1    2    0    0 -0.13469312277E+02 -0.31195884052E+01  0.73554897341E+02  0.74843091144E+02  0.10566000000E+00 0. -1.
        994    1    1    2    0    0  0.78351357372E+01  0.55786364580E+01  0.16141093798E+01  0.17147756671E+03  0.17120000000E+03 0.  0.
        998    1    1    2    0    0  0.56341765399E+01 -0.24590480528E+01  0.14248309896E+04  0.14248793421E+04  0.10000000000E+02 0. -1.
</event>
<event>
 5    1  0.1344348E-008  0.3784237E+03  0.7957747E-01  0.3458051E+00
         13   -1    0    0    0    0  0.00000000000E+00  0.00000000000E+00  0.14999999963E+04  0.15000000000E+04  0.10566000000E+00 0. -1.
        994   -1    0    0    0    0 -0.00000000000E+00 -0.00000000000E+00  0.11368683772E-12  0.17120000000E+03  0.17120000000E+03 0.  0.
         13    1    1    2    0    0  0.21057940260E+01 -0.16683973511E+02  0.27265568580E+02  0.32034539713E+02  0.10566000000E+00 0. -1.
        994    1    1    2    0    0 -0.17934082461E+01  0.32327304965E+01  0.49769195800E+01  0.17131221961E+03  0.17120000000E+03 0.  0.
        998    1    1    2    0    0 -0.31238577985E+00  0.13451243015E+02  0.14677575081E+04  0.14678532407E+04  0.10000000000E+02 0. -1.
</event>
<event>
 5    1  0.1344348E-008  0.3801790E+03  0.7957747E-01  0.3450380E+00
         13   -1    0    0    0    0  0.00000000000E+00  0.00000000000E+00  0.14999999963E+04  0.15000000000E+04  0.10566000000E+00 0. -1.
        994   -1    0    0    0    0 -0.00000000000E+00 -0.00000000000E+00  0.11368683772E-12  0.17120000000E+03  0.17120000000E+03 0.  0.
         13    1    1    2    0    0 -0.18245997137E+02 -0.11156926956E+02  0.60419019947E+02  0.64092609293E+02  0.10566000000E+00 0. -1.
        994    1    1    2    0    0 -0.12981825280E+02  0.50037996558E+01  0.46897830810E+01  0.17182840238E+03  0.17120000000E+03 0.  0.
        998    1    1    2    0    0  0.31227822417E+02  0.61531272999E+01  0.14348911933E+04  0.14352789883E+04  0.10000000000E+02 0. -1.
</event>
<event>
 5    1  0.1344348E-008  0.3854794E+03  0.7957747E-01  0.3427642E+00
         13   -1    0    0    0    0  0.00000000000E+00  0.00000000000E+00  0.14999999963E+04  0.15000000000E+04  0.10566000000E+00 0.  1.
        994   -1    0    0    0    0 -0.00000000000E+00 -0.00000000000E+00  0.11368683772E-12  0.17120000000E+03  0.17120000000E+03 0.  0.
         13    1    1    2    0    0 -0.13574678715E+02  0.28859072944E+01  0.63700905172E+02  0.65195221044E+02  0.10566000000E+00 0.  1.
        994    1    1    2    0    0  0.21441737362E+02 -0.63187802068E+01  0.30347310276E+01  0.17267983286E+03  0.17120000000E+03 0.  0.
        998    1    1    2    0    0 -0.78670586469E+01  0.34328729124E+01  0.14332643601E+04  0.14333249461E+04  0.10000000000E+02 0.  1.
</event>
<event>
 5    1  0.1344348E-008  0.3718533E+03  0.7957747E-01  0.3487417E+00
         13   -1    0    0    0    0  0.00000000000E+00  0.00000000000E+00  0.14999999963E+04  0.15000000000E+04  0.10566000000E+00 0. -1.
        994   -1    0    0    0    0 -0.00000000000E+00 -0.00000000000E+00  0.11368683772E-12  0.17120000000E+03  0.17120000000E+03 0.  0.
         13    1    1    2    0    0  0.41828636441E+02 -0.47421799219E+02  0.31461623873E+03  0.32090785392E+03  0.10566000000E+00 0. -1.
        994    1    1    2    0    0  0.19612637154E+02  0.16820671357E+02  0.10600611510E+02  0.17346297439E+03  0.17120000000E+03 0.  0.
        998    1    1    2    0    0 -0.61441273595E+02  0.30601127862E+02  0.11747831460E+04  0.11768291717E+04  0.10000000000E+02 0. -1.
</event>
<event>
 5    1  0.1344348E-008  0.3834153E+03  0.7957747E-01  0.3436421E+00
         13   -1    0    0    0    0  0.00000000000E+00  0.00000000000E+00  0.14999999963E+04  0.15000000000E+04  0.10566000000E+00 0. -1.
        994   -1    0    0    0    0 -0.00000000000E+00 -0.00000000000E+00  0.11368683772E-12  0.17120000000E+03  0.17120000000E+03 0.  0.
         13    1    1    2    0    0 -0.20433227986E+02  0.23960473580E+02  0.16876080278E+03  0.17167364625E+03  0.10566000000E+00 0. -1.
        994    1    1    2    0    0  0.23208117503E+02 -0.34886994772E+02  0.82444902590E+01  0.17644582948E+03  0.17120000000E+03 0.  0.
        998    1    1    2    0    0 -0.27748895166E+01  0.10926521192E+02  0.13229947032E+04  0.13230805243E+04  0.10000000000E+02 0. -1.
</event>
<event>
 5    1  0.1344348E-008  0.3833094E+03  0.7957747E-01  0.3436874E+00
         13   -1    0    0    0    0  0.00000000000E+00  0.00000000000E+00  0.14999999963E+04  0.15000000000E+04  0.10566000000E+00 0.  1.
        994   -1    0    0    0    0 -0.00000000000E+00 -0.00000000000E+00  0.11368683772E-12  0.17120000000E+03  0.17120000000E+03 0.  0.
         13    1    1    2    0    0 -0.12201762806E+02  0.70860430540E+01  0.39436932175E+02  0.41885293423E+02  0.10566000000E+00 0.  1.
        994    1    1    2    0    0  0.84883883603E+01 -0.54219806547E+01  0.28073486344E+01  0.17151901299E+03  0.17120000000E+03 0.  0.
        998    1    1    2    0    0  0.37133744453E+01 -0.16640623994E+01  0.14577557155E+04  0.14577956936E+04  0.10000000000E+02 0.  1.
</event>
<event>
 5    1  0.1344348E-008  0.3827828E+03  0.7957747E-01  0.3439130E+00
         13   -1    0    0    0    0  0.00000000000E+00  0.00000000000E+00  0.14999999963E+04  0.15000000000E+04  0.10566000000E+00 0.  1.
        994   -1    0    0    0    0 -0.00000000000E+00 -0.00000000000E+00  0.11368683772E-12  0.17120000000E+03  0.17120000000E+03 0.  0.
         13    1    1    2    0    0  0.71670512154E+01  0.43691650258E+02  0.47243139822E+02  0.64747604972E+02  0.10566000000E+00 0.  1.
        994    1    1    2    0    0  0.56277976315E+01 -0.41585373170E+02  0.24338857886E+02  0.17794053886E+03  0.17120000000E+03 0.  0.
        998    1    1    2    0    0 -0.12794848847E+02 -0.21062770878E+01  0.14284179986E+04  0.14285118562E+04  0.10000000000E+02 0.  1.
</event>
<event>
 5    1  0.1344348E-008  0.3800180E+03  0.7957747E-01  0.3451080E+00
         13   -1    0    0    0    0  0.00000000000E+00  0.00000000000E+00  0.14999999963E+04  0.15000000000E+04  0.10566000000E+00 0. -1.
        994   -1    0    0    0    0 -0.00000000000E+00 -0.00000000000E+00  0.11368683772E-12  0.17120000000E+03  0.17120000000E+03 0.  0.
         13    1    1    2    0    0  0.14671890050E+02  0.30608144643E+02  0.14282396751E+03  0.14680197456E+03  0.10566000000E+00 0. -1.
        994    1    1    2    0    0 -0.20527106668E+02 -0.69194242523E+01  0.56941913675E+01  0.17265892492E+03  0.17120000000E+03 0.  0.
        998    1    1    2    0    0  0.58552166175E+01 -0.23688720390E+02  0.13514818374E+04  0.13517391005E+04  0.10000000000E+02 0. -1.
</event>
<event>
 5    1  0.1344348E-008  0.3832113E+03  0.7957747E-01  0.3437294E+00
         13   -1    0    0    0    0  0.00000000000E+00  0.00000000000E+00  0.14999999963E+04  0.15000000000E+04  0.10566000000E+00 0. -1.
        994   -1    0    0    0    0 -0.00000000000E+00 -0.00000000000E+00  0.11368683772E-12  0.17120000000E+03  0.17120000000E+03 0.  0.
         13    1    1    2    0    0 -0.11234487891E+02  0.17207135086E+02  0.90789466918E+02  0.93086184170E+02  0.10566000000E+00 0. -1.
        994    1    1    2    0    0 -0.49550669771E+01 -0.16473229815E+01  0.26109881357E+01  0.17129951436E+03  0.17120000000E+03 0.  0.
        998    1    1    2    0    0  0.16189554868E+02 -0.15559812104E+02  0.14065995412E+04  0.14068143015E+04  0.10000000000E+02 0. -1.
</event>
<event>
 5    1  0.1344348E-008  0.3844969E+03  0.7957747E-01  0.3431809E+00
         13   -1    0    0    0    0  0.00000000000E+00  0.00000000000E+00  0.14999999963E+04  0.15000000000E+04  0.10566000000E+00 0.  1.
        994   -1    0    0    0    0 -0.00000000000E+00 -0.00000000000E+00  0.11368683772E-12  0.17120000000E+03  0.17120000000E+03 0.  0.
         13    1    1    2    0    0 -0.58719697492E+01 -0.14741511981E+02  0.70991443364E+02  0.72743304841E+02  0.10566000000E+00 0.  1.
        994    1    1    2    0    0 -0.28404512696E+02  0.13077229897E+02  0.51077519273E+01  0.17410732154E+03  0.17120000000E+03 0.  0.
        998    1    1    2    0    0  0.34276482445E+02  0.16642820834E+01  0.14239008010E+04  0.14243493736E+04  0.10000000000E+02 0.  1.
</event>
<event>
 5    1  0.1344348E-008  0.4211726E+03  0.7957747E-01  0.3289396E+00
         13   -1    0    0    0    0  0.00000000000E+00  0.00000000000E+00  0.14999999963E+04  0.15000000000E+04  0.10566000000E+00 0. -1.
        994   -1    0    0    0    0 -0.00000000000E+00 -0.00000000000E+00  0.11368683772E-12  0.17120000000E+03  0.17120000000E+03 0.  0.
         13    1    1    2    0    0  0.72500003920E+02 -0.10312434777E+03  0.28548140493E+03  0.31207455102E+03  0.10566000000E+00 0. -1.
        994    1    1    2    0    0 -0.10516646625E+02 -0.39725577696E+02  0.48373862723E+02  0.18258749129E+03  0.17120000000E+03 0.  0.
        998    1    1    2    0    0 -0.61983357295E+02  0.14284992546E+03  0.11661447286E+04  0.11765379577E+04  0.10000000000E+02 0. -1.
</event>
<event>
 5    1  0.1344348E-008  0.3774835E+03  0.7957747E-01  0.3462190E+00
         13   -1    0    0    0    0  0.00000000000E+00  0.00000000000E+00  0.14999999963E+04  0.15000000000E+04  0.10566000000E+00 0.  1.
        994   -1    0    0    0    0 -0.00000000000E+00 -0.00000000000E+00  0.11368683772E-12  0.17120000000E+03  0.17120000000E+03 0.  0.
         13    1    1    2    0    0  0.61174468234E+01 -0.23829408472E+02  0.14549569498E+02  0.28582599608E+02  0.10566000000E+00 0.  1.
        994    1    1    2    0    0  0.30820122141E+01 -0.92104483847E+00  0.14989098144E+02  0.17188502025E+03  0.17120000000E+03 0.  0.
        998    1    1    2    0    0 -0.91994590375E+01  0.24750453310E+02  0.14704613286E+04  0.14707323801E+04  0.10000000000E+02 0.  1.
</event>
<event>
 5    1  0.1344348E-008  0.3708917E+03  0.7957747E-01  0.3491803E+00
         13   -1    0    0    0    0  0.00000000000E+00  0.00000000000E+00  0.14999999963E+04  0.15000000000E+04  0.10566000000E+00 0. -1.
        994   -1    0    0    0    0 -0.00000000000E+00 -0.00000000000E+00  0.11368683772E-12  0.17120000000E+03  0.17120000000E+03 0.  0.
         13    1    1    2    0    0 -0.10838439448E+02  0.12475451519E+02  0.11645386739E+02  0.20217192105E+02  0.10566000000E+00 0. -1.
        994    1    1    2    0    0  0.47264538607E+01 -0.99497743832E+01  0.92220891140E+01  0.17180170053E+03  0.17120000000E+03 0.  0.
        998    1    1    2    0    0  0.61119855875E+01 -0.25256771361E+01  0.14791325204E+04  0.14791811074E+04  0.10000000000E+02 0. -1.
</event>
<event>
 5    1  0.1344348E-008  0.3778345E+03  0.7957747E-01  0.3460642E+00
         13   -1    0    0    0    0  0.00000000000E+00  0.00000000000E+00  0.14999999963E+04  0.15000000000E+04  0.10566000000E+00 0.  1.
        994   -1    0    0    0    0 -0.00000000000E+00 -0.00000000000E+00  0.11368683772E-12  0.17120000000E+03  0.17120000000E+03 0.  0.
         13    1    1    2    0    0  0.52815206978E+02 -0.94394385099E+02  0.32172082865E+03  0.33941721933E+03  0.10566000000E+00 0.  1.
        994    1    1    2    0    0 -0.64448073810E+02  0.72339782846E+02  0.49713872937E+02  0.20289777614E+03  0.17120000000E+03 0.  0.
        998    1    1    2    0    0  0.11632866832E+02  0.22054602253E+02  0.11285652947E+04  0.11288850045E+04  0.10000000000E+02 0.  1.
</event>
<event>
 5    1  0.1344348E-008  0.3847093E+03  0.7957747E-01  0.3430906E+00
         13   -1    0    0    0    0  0.00000000000E+00  0.00000000000E+00  0.14999999963E+04  0.15000000000E+04  0.10566000000E+00 0.  1.
        994   -1    0    0    0    0 -0.00000000000E+00 -0.00000000000E+00  0.11368683772E-12  0.17120000000E+03  0.17120000000E+03 0.  0.
         13    1    1    2    0    0 -0.84466054390E+01 -0.13454082719E+02  0.67878660063E+02  0.69712847749E+02  0.10566000000E+00 0.  1.
        994    1    1    2    0    0  0.25778712279E+01  0.19286008453E+02  0.30217785782E+01  0.17232865893E+03  0.17120000000E+03 0.  0.
        998    1    1    2    0    0  0.58687342110E+01 -0.58319257337E+01  0.14290995576E+04  0.14291584933E+04  0.10000000000E+02 0.  1.
</event>
<event>
 5    1  0.1344348E-008  0.3732377E+03  0.7957747E-01  0.3481142E+00
         13   -1    0    0    0    0  0.00000000000E+00  0.00000000000E+00  0.14999999963E+04  0.15000000000E+04  0.10566000000E+00 0. -1.
        994   -1    0    0    0    0 -0.00000000000E+00 -0.00000000000E+00  0.11368683772E-12  0.17120000000E+03  0.17120000000E+03 0.  0.
         13    1    1    2    0    0 -0.38039604238E+02 -0.55312697520E+01  0.91633387504E+02  0.99369488804E+02  0.10566000000E+00 0. -1.
        994    1    1    2    0    0  0.28945742674E+02  0.26286443887E+02  0.12832408215E+02  0.17607652840E+03  0.17120000000E+03 0.  0.
        998    1    1    2    0    0  0.90938615640E+01 -0.20755174135E+02  0.13955342006E+04  0.13957539828E+04  0.10000000000E+02 0. -1.
</event>
<event>
 5    1  0.1344348E-008  0.3844074E+03  0.7957747E-01  0.3432189E+00
         13   -1    0    0    0    0  0.00000000000E+00  0.00000000000E+00  0.14999999963E+04  0.15000000000E+04  0.10566000000E+00 0.  1.
        994   -1    0    0    0    0 -0.00000000000E+00 -0.00000000000E+00  0.11368683772E-12  0.17120000000E+03  0.17120000000E+03 0.  0.
         13    1    1    2    0    0  0.13212194023E+02  0.35669295677E+01  0.45830068002E+02  0.47829816584E+02  0.10566000000E+00 0.  1.
        994    1    1    2    0    0 -0.24723400551E+02  0.14146602730E+02  0.46026684746E+01  0.17361450821E+03  0.17120000000E+03 0.  0.
        998    1    1    2    0    0  0.11511206528E+02 -0.17713532298E+02  0.14495672598E+04  0.14497556752E+04  0.10000000000E+02 0.  1.
</event>
<event>
 5    1  0.1344348E-008  0.3776330E+03  0.7957747E-01  0.3461530E+00
         13   -1    0    0    0    0  0.00000000000E+00  0.00000000000E+00  0.14999999963E+04  0.15000000000E+04  0.10566000000E+00 0. -1.
        994   -1    0    0    0    0 -0.00000000000E+00 -0.00000000000E+00  0.11368683772E-12  0.17120000000E+03  0.17120000000E+03 0.  0.
         13    1    1    2    0    0 -0.11515884262E+02  0.15643623076E+02  0.33045369183E+02  0.38332050842E+02  0.10566000000E+00 0. -1.
        994    1    1    2    0    0 -0.77572499166E+01 -0.24225783195E+02  0.75160049850E+01  0.17324258665E+03  0.17120000000E+03 0.  0.
        998    1    1    2    0    0  0.19273134179E+02  0.85821601197E+01  0.14594386221E+04  0.14596253625E+04  0.10000000000E+02 0. -1.
</event>
<event>
 5    1  0.1344348E-008  0.3783965E+03  0.7957747E-01  0.3458170E+00
         13   -1    0    0    0    0  0.00000000000E+00  0.00000000000E+00  0.14999999963E+04  0.15000000000E+04  0.10566000000E+00 0.  1.
        994   -1    0    0    0    0 -0.00000000000E+00 -0.00000000000E+00  0.11368683772E-12  0.17120000000E+03  0.17120000000E+03 0.  0.
         13    1    1    2    0    0 -0.20219130678E+02 -0.28199290440E+02  0.12995903619E+03  0.13451161838E+03  0.10566000000E+00 0.  1.
        994    1    1    2    0    0 -0.14398748986E+02  0.18519566319E+02  0.67963721901E+01  0.17293330791E+03  0.17120000000E+03 0.  0.
        998    1    1    2    0    0  0.34617879664E+02  0.96797241208E+01  0.13632445879E+04  0.13637550737E+04  0.10000000000E+02 0.  1.
</event>
<event>
 5    1  0.1344348E-008  0.3832970E+03  0.7957747E-01  0.3436927E+00
         13   -1    0    0    0    0  0.00000000000E+00  0.00000000000E+00  0.14999999963E+04  0.15000000000E+04  0.10566000000E+00 0.  1.
        994   -1    0    0    0    0 -0.00000000000E+00 -0.00000000000E+00  0.11368683772E-12  0.17120000000E+03  0.17120000000E+03 0.  0.
         13    1    1    2    0    0  0.17189639932E+02 -0.14691737066E+02  0.95859448045E+02  0.98490485848E+02  0.10566000000E+00 0.  1.
        994    1    1    2    0    0 -0.23301230299E+02  0.10964591199E+02  0.46741485461E+01  0.17318907950E+03  0.17120000000E+03 0.  0.
        998    1    1    2    0    0  0.61115903662E+01  0.37271458676E+01  0.13994663997E+04  0.13995204347E+04  0.10000000000E+02 0.  1.
</event>
<event>
 5    1  0.1344348E-008  0.3718575E+03  0.7957747E-01  0.3487398E+00
         13   -1    0    0    0    0  0.00000000000E+00  0.00000000000E+00  0.14999999963E+04  0.15000000000E+04  0.10566000000E+00 0.  1.
        994   -1    0    0    0    0 -0.00000000000E+00 -0.00000000000E+00  0.11368683772E-12  0.17120000000E+03  0.17120000000E+03 0.  0.
         13    1    1    2    0    0  0.33116439006E+02  0.48628660461E+02  0.22124436255E+03  0.22893344944E+03  0.10566000000E+00 0.  1.
        994    1    1    2    0    0 -0.19170572776E+02 -0.13430047495E+02  0.10186000163E+02  0.17309266777E+03  0.17120000000E+03 0.  0.
        998    1    1    2    0    0 -0.13945866231E+02 -0.35198612966E+02  0.12685696336E+04  0.12691738828E+04  0.10000000000E+02 0.  1.
</event>
<event>
 5    1  0.1344348E-008  0.3720413E+03  0.7957747E-01  0.3486562E+00
         13   -1    0    0    0    0  0.00000000000E+00  0.00000000000E+00  0.14999999963E+04  0.15000000000E+04  0.10566000000E+00 0. -1.
        994   -1    0    0    0    0 -0.00000000000E+00 -0.00000000000E+00  0.11368683772E-12  0.17120000000E+03  0.17120000000E+03 0.  0.
         13    1    1    2    0    0 -0.11223845738E+02 -0.40121924661E+01  0.48217272418E+01  0.12858173243E+02  0.10566000000E+00 0. -1.
        994    1    1    2    0    0  0.11411727917E+02  0.72059504925E+01  0.88316327341E+01  0.17195810825E+03  0.17120000000E+03 0.  0.
        998    1    1    2    0    0 -0.18788217981E+00 -0.31937580264E+01  0.14863466363E+04  0.14863837185E+04  0.10000000000E+02 0. -1.
</event>
<event>
 5    1  0.1344348E-008  0.3992141E+03  0.7957747E-01  0.3371538E+00
         13   -1    0    0    0    0  0.00000000000E+00  0.00000000000E+00  0.14999999963E+04  0.15000000000E+04  0.10566000000E+00 0. -1.
        994   -1    0    0    0    0 -0.00000000000E+00 -0.00000000000E+00  0.11368683772E-12  0.17120000000E+03  0.17120000000E+03 0.  0.
         13    1    1    2    0    0  0.53681129759E+02  0.36125205536E+02  0.62569896237E+02  0.90009428653E+02  0.10566000000E+00 0. -1.
        994    1    1    2    0    0 -0.54559168568E+02 -0.55524884990E+02  0.51367447384E+02  0.19495581648E+03  0.17120000000E+03 0.  0.
        998    1    1    2    0    0  0.87803880833E+00  0.19399679454E+02  0.13860626527E+04  0.13862347549E+04  0.10000000000E+02 0. -1.
</event>
<event>
 5    1  0.1344348E-008  0.3759001E+03  0.7957747E-01  0.3469207E+00
         13   -1    0    0    0    0  0.00000000000E+00  0.00000000000E+00  0.14999999963E+04  0.15000000000E+04  0.10566000000E+00 0.  1.
        994   -1    0    0    0    0 -0.00000000000E+00 -0.00000000000E+00  0.11368683772E-12  0.17120000000E+03  0.17120000000E+03 0.  0.
         13    1    1    2    0    0 -0.30909602938E+02 -0.58301370790E+01  0.74965695173E+02  0.81297359545E+02  0.10566000000E+00 0.  1.
        994    1    1    2    0    0  0.25668022086E+02  0.13624672119E+02  0.90844280588E+01  0.17388630159E+03  0.17120000000E+03 0.  0.
        998    1    1    2    0    0  0.52415808517E+01 -0.77945350404E+01  0.14159498730E+04  0.14160163389E+04  0.10000000000E+02 0.  1.
</event>
<event>
 5    1  0.1344348E-008  0.3830279E+03  0.7957747E-01  0.3438080E+00
         13   -1    0    0    0    0  0.00000000000E+00  0.00000000000E+00  0.14999999963E+04  0.15000000000E+04  0.10566000000E+00 0.  1.
        994   -1    0    0    0    0 -0.00000000000E+00 -0.00000000000E+00  0.11368683772E-12  0.17120000000E+03  0.17120000000E+03 0.  0.
         13    1    1    2    0    0 -0.10372232314E+02 -0.89176128090E+01  0.35985406654E+02  0.38497632102E+02  0.10566000000E+00 0.  1.
        994    1    1    2    0    0  0.42727458142E+01 -0.20186300031E+01  0.26863603934E+01  0.17128627428E+03  0.17120000000E+03 0.  0.
        998    1    1    2    0    0  0.60994865002E+01  0.10936242812E+02  0.14613282292E+04  0.14614160936E+04  0.10000000000E+02 0.  1.
</event>
<event>
 5    1  0.1344348E-008  0.3755113E+03  0.7957747E-01  0.3470939E+00
         13   -1    0    0    0    0  0.00000000000E+00  0.00000000000E+00  0.14999999963E+04  0.15000000000E+04  0.10566000000E+00 0.  1.
        994   -1    0    0    0    0 -0.00000000000E+00 -0.00000000000E+00  0.11368683772E-12  0.17120000000E+03  0.17120000000E+03 0.  0.
         13    1    1    2    0    0 -0.15223714370E+03  0.57159486423E+02  0.54452883694E+03  0.56829131634E+03  0.10566000000E+00 0.  1.
        994    1    1    2    0    0  0.14915580576E+03 -0.68224170879E+02  0.11715736623E+03  0.26445657554E+03  0.17120000000E+03 0.  0.
        998    1    1    2    0    0  0.30813379328E+01  0.11064684455E+02  0.83831379311E+03  0.83845210812E+03  0.10000000000E+02 0.  1.
</event>
<event>
 5    1  0.1344348E-008  0.3853845E+03  0.7957747E-01  0.3428043E+00
         13   -1    0    0    0    0  0.00000000000E+00  0.00000000000E+00  0.14999999963E+04  0.15000000000E+04  0.10566000000E+00 0. -1.
        994   -1    0    0    0    0 -0.00000000000E+00 -0.00000000000E+00  0.11368683772E-12  0.17120000000E+03  0.17120000000E+03 0.  0.
         13    1    1    2    0    0 -0.12206964723E+02 -0.20046832353E+00  0.56387505320E+02  0.57694125313E+02  0.10566000000E+00 0. -1.
        994    1    1    2    0    0 -0.47505681489E+01  0.52810814101E+00  0.15144281719E+01  0.17127340800E+03  0.17120000000E+03 0.  0.
        998    1    1    2    0    0  0.16957532872E+02 -0.32763981747E+00  0.14420980628E+04  0.14422324667E+04  0.10000000000E+02 0. -1.
</event>
<event>
 5    1  0.1344348E-008  0.2707492E+03  0.7957747E-01  0.4129850E+00
         13   -1    0    0    0    0  0.00000000000E+00  0.00000000000E+00  0.14999999963E+04  0.15000000000E+04  0.10566000000E+00 0. -1.
        994   -1    0    0    0    0 -0.00000000000E+00 -0.00000000000E+00  0.11368683772E-12  0.17120000000E+03  0.17120000000E+03 0.  0.
         13    1    1    2    0    0 -0.16962424622E+03 -0.46218144373E+02  0.42554298761E+03  0.46042952473E+03  0.10566000000E+00 0. -1.
        994    1    1    2    0    0  0.18254118301E+03  0.30541110677E+02  0.16561942787E+03  0.30165092048E+03  0.17120000000E+03 0.  0.
        998    1    1    2    0    0 -0.12916936785E+02  0.15677033696E+02  0.90883758080E+03  0.90911955480E+03  0.10000000000E+02 0. -1.
</event>
<event>
 5    1  0.1344348E-008  0.3819675E+03  0.7957747E-01  0.3442636E+00
         13   -1    0    0    0    0  0.00000000000E+00  0.00000000000E+00  0.14999999963E+04  0.15000000000E+04  0.10566000000E+00 0. -1.
        994   -1    0    0    0    0 -0.00000000000E+00 -0.00000000000E+00  0.11368683772E-12  0.17120000000E+03  0.17120000000E+03 0.  0.
         13    1    1    2    0    0  0.15269792055E+02  0.16968261215E+02  0.84749968746E+02  0.87770477978E+02  0.10566000000E+00 0. -1.
        994    1    1    2    0    0 -0.12842108827E+02  0.87446896214E+00  0.36937169078E+01  0.17172293964E+03  0.17120000000E+03 0.  0.
        998    1    1    2    0    0 -0.24276832282E+01 -0.17842730177E+02  0.14115563106E+04  0.14117065824E+04  0.10000000000E+02 0. -1.
</event>
<event>
 5    1  0.1344348E-008  0.3815013E+03  0.7957747E-01  0.3444647E+00
         13   -1    0    0    0    0  0.00000000000E+00  0.00000000000E+00  0.14999999963E+04  0.15000000000E+04  0.10566000000E+00 0. -1.
        994   -1    0    0    0    0 -0.00000000000E+00 -0.00000000000E+00  0.11368683772E-12  0.17120000000E+03  0.17120000000E+03 0.  0.
         13    1    1    2    0    0  0.28580111866E+02  0.17101951963E+02  0.17189027913E+03  0.17508734614E+03  0.10566000000E+00 0. -1.
        994    1    1    2    0    0 -0.35859328563E+01 -0.19068425374E+02  0.46304731366E+01  0.17235818821E+03  0.17120000000E+03 0.  0.
        998    1    1    2    0    0 -0.24994179009E+02  0.19664734116E+01  0.13234792440E+04  0.13237544657E+04  0.10000000000E+02 0.  1.
</event>
<event>
 5    1  0.1344348E-008  0.3787265E+03  0.7957747E-01  0.3456723E+00
         13   -1    0    0    0    0  0.00000000000E+00  0.00000000000E+00  0.14999999963E+04  0.15000000000E+04  0.10566000000E+00 0.  1.
        994   -1    0    0    0    0 -0.00000000000E+00 -0.00000000000E+00  0.11368683772E-12  0.17120000000E+03  0.17120000000E+03 0.  0.
         13    1    1    2    0    0 -0.86501252954E+01 -0.25256518051E+02  0.65747489737E+02  0.70960974785E+02  0.10566000000E+00 0.  1.
        994    1    1    2    0    0 -0.34059737543E+01  0.46295516210E+02  0.12045700918E+02  0.17779036641E+03  0.17120000000E+03 0.  0.
        998    1    1    2    0    0  0.12056099050E+02 -0.21038998159E+02  0.14222068056E+04  0.14224486588E+04  0.10000000000E+02 0.  1.
</event>
<event>
 5    1  0.1344348E-008  0.3855529E+03  0.7957747E-01  0.3427331E+00
         13   -1    0    0    0    0  0.00000000000E+00  0.00000000000E+00  0.14999999963E+04  0.15000000000E+04  0.10566000000E+00 0.  1.
        994   -1    0    0    0    0 -0.00000000000E+00 -0.00000000000E+00  0.11368683772E-12  0.17120000000E+03  0.17120000000E+03 0.  0.
         13    1    1    2    0    0  0.11865081034E+02  0.52196614081E+00  0.48608697211E+02  0.50038677093E+02  0.10566000000E+00 0.  1.
        994    1    1    2    0    0 -0.20084434106E+02 -0.50255999934E+01  0.27642913590E+01  0.17246948268E+03  0.17120000000E+03 0.  0.
        998    1    1    2    0    0  0.82193530720E+01  0.45036338526E+01  0.14486270077E+04  0.14486918402E+04  0.10000000000E+02 0.  1.
</event>
<event>
 5    1  0.1344348E-008  0.3820271E+03  0.7957747E-01  0.3442379E+00
         13   -1    0    0    0    0  0.00000000000E+00  0.00000000000E+00  0.14999999963E+04  0.15000000000E+04  0.10566000000E+00 0. -1.
        994   -1    0    0    0    0 -0.00000000000E+00 -0.00000000000E+00  0.11368683772E-12  0.17120000000E+03  0.17120000000E+03 0.  0.
         13    1    1    2    0    0 -0.28357165520E+02 -0.29342680113E+02  0.23045668847E+03  0.23404148807E+03  0.10566000000E+00 0. -1.
        994    1    1    2    0    0  0.26658046255E+02  0.29546706375E+02  0.83900663054E+01  0.17596446374E+03  0.17120000000E+03 0.  0.
        998    1    1    2    0    0  0.16991192652E+01 -0.20402626203E+00  0.12611532415E+04  0.12611940482E+04  0.10000000000E+02 0.  0.
</event>
<event>
 5    1  0.1344348E-008  0.3835026E+03  0.7957747E-01  0.3436048E+00
         13   -1    0    0    0    0  0.00000000000E+00  0.00000000000E+00  0.14999999963E+04  0.15000000000E+04  0.10566000000E+00 0.  1.
        994   -1    0    0    0    0 -0.00000000000E+00 -0.00000000000E+00  0.11368683772E-12  0.17120000000E+03  0.17120000000E+03 0.  0.
         13    1    1    2    0    0 -0.11027963952E+02  0.56816784455E+01  0.31637557320E+02  0.33982990688E+02  0.10566000000E+00 0.  1.
        994    1    1    2    0    0  0.10262712914E+02  0.98387514771E+00  0.27267236104E+01  0.17153182302E+03  0.17120000000E+03 0.  0.
        998    1    1    2    0    0  0.76525103763E+00 -0.66655535932E+01  0.14656357153E+04  0.14656851863E+04  0.10000000000E+02 0.  1.
</event>
<event>
 5    1  0.1344348E-008  0.3715032E+03  0.7957747E-01  0.3489011E+00
         13   -1    0    0    0    0  0.00000000000E+00  0.00000000000E+00  0.14999999963E+04  0.15000000000E+04  0.10566000000E+00 0.  1.
        994   -1    0    0    0    0 -0.00000000000E+00 -0.00000000000E+00  0.11368683772E-12  0.17120000000E+03  0.17120000000E+03 0.  0.
         13    1    1    2    0    0 -0.75711525960E+01 -0.20029154966E+02  0.23153172744E+02  0.31536803459E+02  0.10566000000E+00 0.  1.
        994    1    1    2    0    0  0.72494343234E+01  0.18782142886E+02  0.98809417472E+01  0.17266266591E+03  0.17120000000E+03 0.  0.
        998    1    1    2    0    0  0.32171827257E+00  0.12470120793E+01  0.14669658818E+04  0.14670005306E+04  0.10000000000E+02 0.  1.
</event>
<event>
 5    1  0.1344348E-008  0.3841224E+03  0.7957747E-01  0.3433403E+00
         13   -1    0    0    0    0  0.00000000000E+00  0.00000000000E+00  0.14999999963E+04  0.15000000000E+04  0.10566000000E+00 0.  1.
        994   -1    0    0    0    0 -0.00000000000E+00 -0.00000000000E+00  0.11368683772E-12  0.17120000000E+03  0.17120000000E+03 0.  0.
         13    1    1    2    0    0  0.10598442346E+02  0.21961345809E+02  0.13171151022E+03  0.13394984426E+03  0.10566000000E+00 0.  1.
        994    1    1    2    0    0 -0.11542962624E+02 -0.22840303729E+02  0.42294213337E+01  0.17315382602E+03  0.17120000000E+03 0.  0.
        998    1    1    2    0    0  0.94452027763E+00  0.87895791945E+00  0.13640590647E+04  0.13640963297E+04  0.10000000000E+02 0.  1.
</event>
<event>
 5    1  0.1344348E-008  0.3766039E+03  0.7957747E-01  0.3466080E+00
         13   -1    0    0    0    0  0.00000000000E+00  0.00000000000E+00  0.14999999963E+04  0.15000000000E+04  0.10566000000E+00 0.  1.
        994   -1    0    0    0    0 -0.00000000000E+00 -0.00000000000E+00  0.11368683772E-12  0.17120000000E+03  0.17120000000E+03 0.  0.
         13    1    1    2    0    0 -0.18039963237E+02 -0.42080541230E+01  0.26707695261E+02  0.32503232813E+02  0.10566000000E+00 0.  1.
        994    1    1    2    0    0  0.13673042011E+02  0.69385331880E+01  0.66525984820E+01  0.17201393079E+03  0.17120000000E+03 0.  0.
        998    1    1    2    0    0  0.43669212262E+01 -0.27304790650E+01  0.14666397025E+04  0.14666828364E+04  0.10000000000E+02 0.  1.
</event>
<event>
 5    1  0.1344348E-008  0.3850091E+03  0.7957747E-01  0.3429634E+00
         13   -1    0    0    0    0  0.00000000000E+00  0.00000000000E+00  0.14999999963E+04  0.15000000000E+04  0.10566000000E+00 0.  1.
        994   -1    0    0    0    0 -0.00000000000E+00 -0.00000000000E+00  0.11368683772E-12  0.17120000000E+03  0.17120000000E+03 0.  0.
         13    1    1    2    0    0  0.10615745701E+02  0.73630184536E+01  0.51948768869E+02  0.53531241800E+02  0.10566000000E+00 0.  1.
        994    1    1    2    0    0 -0.47754259792E+01 -0.43478552759E+01  0.17628125730E+01  0.17133083799E+03  0.17120000000E+03 0.  0.
        998    1    1    2    0    0 -0.58403197221E+01 -0.30151631777E+01  0.14462884148E+04  0.14463379202E+04  0.10000000000E+02 0.  1.
</event>
<event>
 5    1  0.1344348E-008  0.3837099E+03  0.7957747E-01  0.3435162E+00
         13   -1    0    0    0    0  0.00000000000E+00  0.00000000000E+00  0.14999999963E+04  0.15000000000E+04  0.10566000000E+00 0.  1.
        994   -1    0    0    0    0 -0.00000000000E+00 -0.00000000000E+00  0.11368683772E-12  0.17120000000E+03  0.17120000000E+03 0.  0.
         13    1    1    2    0    0 -0.19464872194E+02 -0.57769046995E+01  0.10960294472E+03  0.11146780043E+03  0.10566000000E+00 0.  1.
        994    1    1    2    0    0 -0.20176285625E+02  0.23283834531E+02  0.54130919954E+01  0.17403436734E+03  0.17120000000E+03 0.  0.
        998    1    1    2    0    0  0.39641157820E+02 -0.17506929831E+02  0.13849839596E+04  0.13856978322E+04  0.10000000000E+02 0.  1.
</event>
<event>
 5    1  0.1344348E-008  0.3855513E+03  0.7957747E-01  0.3427337E+00
         13   -1    0    0    0    0  0.00000000000E+00  0.00000000000E+00  0.14999999963E+04  0.15000000000E+04  0.10566000000E+00 0. -1.
        994   -1    0    0    0    0 -0.00000000000E+00 -0.00000000000E+00  0.11368683772E-12  0.17120000000E+03  0.17120000000E+03 0.  0.
         13    1    1    2    0    0  0.12087574431E+02 -0.18506717473E+01  0.53598230429E+02  0.54975593773E+02  0.10566000000E+00 0. -1.
        994    1    1    2    0    0 -0.13943456589E+02 -0.17976065772E+01  0.20057681593E+01  0.17178799282E+03  0.17120000000E+03 0.  0.
        998    1    1    2    0    0  0.18558821580E+01  0.36482783244E+01  0.14443959977E+04  0.14444364134E+04  0.10000000000E+02 0. -1.
</event>
<event>
 5    1  0.1344348E-008  0.3852685E+03  0.7957747E-01  0.3428534E+00
         13   -1    0    0    0    0  0.00000000000E+00  0.00000000000E+00  0.14999999963E+04  0.15000000000E+04  0.10566000000E+00 0.  1.
        994   -1    0    0    0    0 -0.00000000000E+00 -0.00000000000E+00  0.11368683772E-12  0.17120000000E+03  0.17120000000E+03 0.  0.
         13    1    1    2    0    0  0.12232552662E+02  0.42240589760E+01  0.59585381100E+02  0.60974640825E+02  0.10566000000E+00 0.  1.
        994    1    1    2    0    0 -0.40414806230E+00  0.38966832630E+01  0.15473442631E+01  0.17125180802E+03  0.17120000000E+03 0.  0.
        998    1    1    2    0    0 -0.11828404599E+02 -0.81207422391E+01  0.14388672709E+04  0.14389735512E+04  0.10000000000E+02 0.  1.
</event>
<event>
 5    1  0.1344348E-008  0.3725407E+03  0.7957747E-01  0.3484295E+00
         13   -1    0    0    0    0  0.00000000000E+00  0.00000000000E+00  0.14999999963E+04  0.15000000000E+04  0.10566000000E+00 0.  1.
        994   -1    0    0    0    0 -0.00000000000E+00 -0.00000000000E+00  0.11368683772E-12  0.17120000000E+03  0.17120000000E+03 0.  0.
         13    1    1    2    0    0  0.80420021341E+02  0.40044765883E+02  0.41371642890E+03  0.42335830902E+03  0.10566000000E+00 0.  1.
        994    1    1    2    0    0 -0.61812860762E+02 -0.45756031338E+02  0.28500062771E+02  0.18983186702E+03  0.17120000000E+03 0.  0.
        998    1    1    2    0    0 -0.18607160580E+02  0.57112654546E+01  0.10577835046E+04  0.10580098240E+04  0.10000000000E+02 0.  1.
</event>
<event>
 5    1  0.1344348E-008  0.3843531E+03  0.7957747E-01  0.3432420E+00
         13   -1    0    0    0    0  0.00000000000E+00  0.00000000000E+00  0.14999999963E+04  0.15000000000E+04  0.10566000000E+00 0. -1.
        994   -1    0    0    0    0 -0.00000000000E+00 -0.00000000000E+00  0.11368683772E-12  0.17120000000E+03  0.17120000000E+03 0.  0.
         13    1    1    2    0    0  0.32719104163E+01  0.20017540546E+02  0.11117878042E+03  0.11301389166E+03  0.10566000000E+00 0. -1.
        994    1    1    2    0    0 -0.27113225251E+01 -0.50803786513E+01  0.20609375991E+01  0.17130922036E+03  0.17120000000E+03 0.  0.
        998    1    1    2    0    0 -0.56058789111E+00 -0.14937161895E+02  0.13867602783E+04  0.13868768880E+04  0.10000000000E+02 0. -1.
</event>
<event>
 5    1  0.1344348E-008  0.3846974E+03  0.7957747E-01  0.3430957E+00
         13   -1    0    0    0    0  0.00000000000E+00  0.00000000000E+00  0.14999999963E+04  0.15000000000E+04  0.10566000000E+00 0. -1.
        994   -1    0    0    0    0 -0.00000000000E+00 -0.00000000000E+00  0.11368683772E-12  0.17120000000E+03  0.17120000000E+03 0.  0.
         13    1    1    2    0    0  0.23180191108E+01  0.19036779695E+02  0.10005478820E+03  0.10187612085E+03  0.10566000000E+00 0. -1.
        994    1    1    2    0    0 -0.22898755634E+01 -0.16080967366E+02  0.26494846160E+01  0.17198924621E+03  0.17120000000E+03 0.  0.
        998    1    1    2    0    0 -0.28143547323E-01 -0.29558123290E+01  0.13972957235E+04  0.13973346329E+04  0.10000000000E+02 0. -1.
</event>
<event>
 5    1  0.1344348E-008  0.3861436E+03  0.7957747E-01  0.3424837E+00
         13   -1    0    0    0    0  0.00000000000E+00  0.00000000000E+00  0.14999999963E+04  0.15000000000E+04  0.10566000000E+00 0.  1.
        994   -1    0    0    0    0 -0.00000000000E+00 -0.00000000000E+00  0.11368683772E-12  0.17120000000E+03  0.17120000000E+03 0.  0.
         13    1    1    2    0    0  0.79274904338E+01  0.61367030084E+01  0.51275577599E+02  0.52246533383E+02  0.10566000000E+00 0.  1.
        994    1    1    2    0    0  0.38739227672E+01 -0.33960532649E+00  0.11129782919E+01  0.17124777759E+03  0.17120000000E+03 0.  0.
        998    1    1    2    0    0 -0.11801413201E+02 -0.57970976819E+01  0.14476114404E+04  0.14477056890E+04  0.10000000000E+02 0.  1.
</event>
<event>
 5    1  0.1344348E-008  0.3783309E+03  0.7957747E-01  0.3458459E+00
         13   -1    0    0    0    0  0.00000000000E+00  0.00000000000E+00  0.14999999963E+04  0.15000000000E+04  0.10566000000E+00 0.  1.
        994   -1    0    0    0    0 -0.00000000000E+00 -0.00000000000E+00  0.11368683772E-12  0.17120000000E+03  0.17120000000E+03 0.  0.
         13    1    1    2    0    0  0.26369889288E+02 -0.40084780761E+02  0.20440736027E+03  0.20996318917E+03  0.10566000000E+00 0.  1.
        994    1    1    2    0    0 -0.21139632140E+02  0.39700692797E+02  0.11808739745E+02  0.17740325642E+03  0.17120000000E+03 0.  0.
        998    1    1    2    0    0 -0.52302571478E+01  0.38408796387E+00  0.12837838963E+04  0.12838335544E+04  0.10000000000E+02 0.  1.
</event>
<event>
 5    1  0.1344348E-008  0.3851232E+03  0.7957747E-01  0.3429150E+00
         13   -1    0    0    0    0  0.00000000000E+00  0.00000000000E+00  0.14999999963E+04  0.15000000000E+04  0.10566000000E+00 0.  1.
        994   -1    0    0    0    0 -0.00000000000E+00 -0.00000000000E+00  0.11368683772E-12  0.17120000000E+03  0.17120000000E+03 0.  0.
         13    1    1    2    0    0  0.74957683467E+01  0.13857552748E+02  0.80592360443E+02  0.82117951978E+02  0.10566000000E+00 0.  1.
        994    1    1    2    0    0  0.19399372609E+02 -0.20669466231E+02  0.42150124047E+01  0.17358216735E+03  0.17120000000E+03 0.  0.
        998    1    1    2    0    0 -0.26895140956E+02  0.68119134831E+01  0.14151926234E+04  0.14154998807E+04  0.10000000000E+02 0.  1.
</event>
<event>
 5    1  0.1344348E-008  0.3853690E+03  0.7957747E-01  0.3428109E+00
         13   -1    0    0    0    0  0.00000000000E+00  0.00000000000E+00  0.14999999963E+04  0.15000000000E+04  0.10566000000E+00 0.  1.
        994   -1    0    0    0    0 -0.00000000000E+00 -0.00000000000E+00  0.11368683772E-12  0.17120000000E+03  0.17120000000E+03 0.  0.
         13    1    1    2    0    0 -0.74642721254E+01  0.12034190502E+02  0.84909846493E+02  0.86082694515E+02  0.10566000000E+00 0.  1.
        994    1    1    2    0    0 -0.21031885329E+02  0.49857180243E+01  0.29831503744E+01  0.17258486831E+03  0.17120000000E+03 0.  0.
        998    1    1    2    0    0  0.28496157455E+02 -0.17019908526E+02  0.14121069994E+04  0.14125324372E+04  0.10000000000E+02 0.  1.
</event>
<event>
 5    1  0.1344348E-008  0.3793777E+03  0.7957747E-01  0.3453873E+00
         13   -1    0    0    0    0  0.00000000000E+00  0.00000000000E+00  0.14999999963E+04  0.15000000000E+04  0.10566000000E+00 0. -1.
        994   -1    0    0    0    0 -0.00000000000E+00 -0.00000000000E+00  0.11368683772E-12  0.17120000000E+03  0.17120000000E+03 0.  0.
         13    1    1    2    0    0  0.12019755289E+02 -0.40055806066E+01  0.16287954009E+02  0.20635595534E+02  0.10566000000E+00 0. -1.
        994    1    1    2    0    0 -0.72737589098E+01 -0.50418738850E+01  0.47100318933E+01  0.17149330151E+03  0.17120000000E+03 0.  0.
        998    1    1    2    0    0 -0.47459963792E+01  0.90474544916E+01  0.14790020104E+04  0.14790711030E+04  0.10000000000E+02 0. -1.
</event>
<event>
 5    1  0.1344348E-008  0.3823167E+03  0.7957747E-01  0.3441132E+00
         13   -1    0    0    0    0  0.00000000000E+00  0.00000000000E+00  0.14999999963E+04  0.15000000000E+04  0.10566000000E+00 0.  1.
        994   -1    0    0    0    0 -0.00000000000E+00 -0.00000000000E+00  0.11368683772E-12  0.17120000000E+03  0.17120000000E+03 0.  0.
         13    1    1    2    0    0  0.17762863674E+02  0.10735466630E+02  0.71418161396E+02  0.74372942061E+02  0.10566000000E+00 0.  1.
        994    1    1    2    0    0 -0.83613114986E+01 -0.12856896392E+02  0.37489181926E+01  0.17192645434E+03  0.17120000000E+03 0.  0.
        998    1    1    2    0    0 -0.94015521753E+01  0.21214297620E+01  0.14248329167E+04  0.14249006036E+04  0.10000000000E+02 0.  1.
</event>
<event>
 5    1  0.1344348E-008  0.3828931E+03  0.7957747E-01  0.3438657E+00
         13   -1    0    0    0    0  0.00000000000E+00  0.00000000000E+00  0.14999999963E+04  0.15000000000E+04  0.10566000000E+00 0.  1.
        994   -1    0    0    0    0 -0.00000000000E+00 -0.00000000000E+00  0.11368683772E-12  0.17120000000E+03  0.17120000000E+03 0.  0.
         13    1    1    2    0    0 -0.48128203808E+00 -0.10688392163E+02  0.20514181705E+02  0.23136900710E+02  0.10566000000E+00 0.  1.
        994    1    1    2    0    0 -0.21286201816E+01  0.51365640877E+01  0.27821759097E+01  0.17131285946E+03  0.17120000000E+03 0.  0.
        998    1    1    2    0    0  0.26099022197E+01  0.55518280754E+01  0.14767036387E+04  0.14767502398E+04  0.10000000000E+02 0.  1.
</event>
<event>
 5    1  0.1344348E-008  0.3819418E+03  0.7957747E-01  0.3442747E+00
         13   -1    0    0    0    0  0.00000000000E+00  0.00000000000E+00  0.14999999963E+04  0.15000000000E+04  0.10566000000E+00 0. -1.
        994   -1    0    0    0    0 -0.00000000000E+00 -0.00000000000E+00  0.11368683772E-12  0.17120000000E+03  0.17120000000E+03 0.  0.
         13    1    1    2    0    0  0.10827795245E+03  0.85952382313E+02  0.35933059762E+03  0.38500703444E+03  0.10566000000E+00 0. -1.
        994    1    1    2    0    0 -0.11512195920E+03 -0.10054481003E+03  0.10851564953E+03  0.25386494541E+03  0.17120000000E+03 0.  0.
        998    1    1    2    0    0  0.68440067486E+01  0.14592427714E+02  0.10321537491E+04  0.10323280202E+04  0.10000000000E+02 0. -1.
</event>
<event>
 5    1  0.1344348E-008  0.3802951E+03  0.7957747E-01  0.3449875E+00
         13   -1    0    0    0    0  0.00000000000E+00  0.00000000000E+00  0.14999999963E+04  0.15000000000E+04  0.10566000000E+00 0. -1.
        994   -1    0    0    0    0 -0.00000000000E+00 -0.00000000000E+00  0.11368683772E-12  0.17120000000E+03  0.17120000000E+03 0.  0.
         13    1    1    2    0    0 -0.18877462925E+01 -0.32753463253E+02  0.12878128312E+03  0.13289463114E+03  0.10566000000E+00 0. -1.
        994    1    1    2    0    0  0.32111499212E+01  0.25748016013E+02  0.62360145965E+01  0.17326742247E+03  0.17120000000E+03 0.  0.
        998    1    1    2    0    0 -0.13234036286E+01  0.70054472397E+01  0.13649826986E+04  0.13650379464E+04  0.10000000000E+02 0. -1.
</event>
<event>
 5    1  0.1344348E-008  0.4113765E+03  0.7957747E-01  0.3324971E+00
         13   -1    0    0    0    0  0.00000000000E+00  0.00000000000E+00  0.14999999963E+04  0.15000000000E+04  0.10566000000E+00 0.  1.
        994   -1    0    0    0    0 -0.00000000000E+00 -0.00000000000E+00  0.11368683772E-12  0.17120000000E+03  0.17120000000E+03 0.  0.
         13    1    1    2    0    0  0.18098664486E+02  0.48556970331E+02  0.22961620860E+02  0.56679698486E+02  0.10566000000E+00 0.  1.
        994    1    1    2    0    0  0.18944253170E+01 -0.84639368568E+02  0.64856708551E+02  0.20170087804E+03  0.17120000000E+03 0.  0.
        998    1    1    2    0    0 -0.19993089803E+02  0.36082398237E+02  0.14121816669E+04  0.14128194235E+04  0.10000000000E+02 0.  1.
</event>
<event>
 5    1  0.1344348E-008  0.3733002E+03  0.7957747E-01  0.3480860E+00
         13   -1    0    0    0    0  0.00000000000E+00  0.00000000000E+00  0.14999999963E+04  0.15000000000E+04  0.10566000000E+00 0. -1.
        994   -1    0    0    0    0 -0.00000000000E+00 -0.00000000000E+00  0.11368683772E-12  0.17120000000E+03  0.17120000000E+03 0.  0.
         13    1    1    2    0    0  0.43066449512E+02 -0.35361021175E+02  0.21611960217E+03  0.22318784577E+03  0.10566000000E+00 0. -1.
        994    1    1    2    0    0 -0.22711410209E+02  0.69936542691E+01  0.94872600513E+01  0.17310161021E+03  0.17120000000E+03 0.  0.
        998    1    1    2    0    0 -0.20355039303E+02  0.28367366906E+02  0.12743931341E+04  0.12749105440E+04  0.10000000000E+02 0. -1.
</event>
<event>
 5    1  0.1344348E-008  0.3739841E+03  0.7957747E-01  0.3477779E+00
         13   -1    0    0    0    0  0.00000000000E+00  0.00000000000E+00  0.14999999963E+04  0.15000000000E+04  0.10566000000E+00 0. -1.
        994   -1    0    0    0    0 -0.00000000000E+00 -0.00000000000E+00  0.11368683772E-12  0.17120000000E+03  0.17120000000E+03 0.  0.
         13    1    1    2    0    0 -0.53134776158E+01  0.10934986706E+03  0.54084707837E+03  0.55181627361E+03  0.10566000000E+00 0. -1.
        994    1    1    2    0    0  0.39393164202E+01 -0.10532176911E+03  0.46091029947E+02  0.20625716061E+03  0.17120000000E+03 0.  0.
        998    1    1    2    0    0  0.13741611956E+01 -0.40280979534E+01  0.91306188796E+03  0.91312656578E+03  0.10000000000E+02 0.  1.
</event>
<event>
 5    1  0.1344348E-008  0.3588281E+03  0.7957747E-01  0.3548865E+00
         13   -1    0    0    0    0  0.00000000000E+00  0.00000000000E+00  0.14999999963E+04  0.15000000000E+04  0.10566000000E+00 0.  1.
        994   -1    0    0    0    0 -0.00000000000E+00 -0.00000000000E+00  0.11368683772E-12  0.17120000000E+03  0.17120000000E+03 0.  0.
         13    1    1    2    0    0 -0.14119503362E+03 -0.21853792285E+03  0.10805193604E+04  0.11114031494E+04  0.10566000000E+00 0.  1.
        994    1    1    2    0    0  0.14940945595E+03  0.16723174382E+03  0.23285442304E+03  0.36581452131E+03  0.17120000000E+03 0.  0.
        998    1    1    2    0    0 -0.82144223312E+01  0.51306179026E+02  0.18662621284E+03  0.19398232924E+03  0.10000000000E+02 0. -1.
</event>
<event>
 5    1  0.1344348E-008  0.3745588E+03  0.7957747E-01  0.3475198E+00
         13   -1    0    0    0    0  0.00000000000E+00  0.00000000000E+00  0.14999999963E+04  0.15000000000E+04  0.10566000000E+00 0.  1.
        994   -1    0    0    0    0 -0.00000000000E+00 -0.00000000000E+00  0.11368683772E-12  0.17120000000E+03  0.17120000000E+03 0.  0.
         13    1    1    2    0    0 -0.22987703072E+02  0.35686955960E+02  0.11509727039E+03  0.12267593950E+03  0.10566000000E+00 0.  1.
        994    1    1    2    0    0  0.10363352476E+02 -0.52716226223E+02  0.16795793311E+02  0.18021636511E+03  0.17120000000E+03 0.  0.
        998    1    1    2    0    0  0.12624350596E+02  0.17029270263E+02  0.13681069326E+04  0.13683076954E+04  0.10000000000E+02 0.  1.
</event>
<event>
 5    1  0.1344348E-008  0.3838498E+03  0.7957747E-01  0.3434565E+00
         13   -1    0    0    0    0  0.00000000000E+00  0.00000000000E+00  0.14999999963E+04  0.15000000000E+04  0.10566000000E+00 0. -1.
        994   -1    0    0    0    0 -0.00000000000E+00 -0.00000000000E+00  0.11368683772E-12  0.17120000000E+03  0.17120000000E+03 0.  0.
         13    1    1    2    0    0 -0.28915085475E+02 -0.62105792625E-01  0.17264766813E+03  0.17505231932E+03  0.10566000000E+00 0. -1.
        994    1    1    2    0    0  0.27513495425E+02 -0.52084036914E+01  0.47949048998E+01  0.17354120840E+03  0.17120000000E+03 0.  0.
        998    1    1    2    0    0  0.14015900494E+01  0.52705094840E+01  0.13225574232E+04  0.13226064723E+04  0.10000000000E+02 0. -1.
</event>
<event>
 5    1  0.1344348E-008  0.3835332E+03  0.7957747E-01  0.3435917E+00
         13   -1    0    0    0    0  0.00000000000E+00  0.00000000000E+00  0.14999999963E+04  0.15000000000E+04  0.10566000000E+00 0.  1.
        994   -1    0    0    0    0 -0.00000000000E+00 -0.00000000000E+00  0.11368683772E-12  0.17120000000E+03  0.17120000000E+03 0.  0.
         13    1    1    2    0    0 -0.19909344662E+02  0.27455875322E+01  0.88389004068E+02  0.90645173396E+02  0.10566000000E+00 0.  1.
        994    1    1    2    0    0  0.57504923714E+01 -0.56127381445E+01  0.25735019685E+01  0.17140780001E+03  0.17120000000E+03 0.  0.
        998    1    1    2    0    0  0.14158852291E+02  0.28671506123E+01  0.14090374902E+04  0.14091470266E+04  0.10000000000E+02 0.  1.
</event>
<event>
 5    1  0.1344348E-008  0.3845461E+03  0.7957747E-01  0.3431600E+00
         13   -1    0    0    0    0  0.00000000000E+00  0.00000000000E+00  0.14999999963E+04  0.15000000000E+04  0.10566000000E+00 0.  1.
        994   -1    0    0    0    0 -0.00000000000E+00 -0.00000000000E+00  0.11368683772E-12  0.17120000000E+03  0.17120000000E+03 0.  0.
         13    1    1    2    0    0  0.10424529464E+02 -0.49339321460E+01  0.35333096957E+02  0.37167908275E+02  0.10566000000E+00 0.  1.
        994    1    1    2    0    0 -0.87576160495E+01  0.20148488561E+01  0.21216743973E+01  0.17144881731E+03  0.17120000000E+03 0.  0.
        998    1    1    2    0    0 -0.16669134147E+01  0.29190832900E+01  0.14625452249E+04  0.14625832744E+04  0.10000000000E+02 0.  1.
</event>
<event>
 5    1  0.1344348E-008  0.3807679E+03  0.7957747E-01  0.3447822E+00
         13   -1    0    0    0    0  0.00000000000E+00  0.00000000000E+00  0.14999999963E+04  0.15000000000E+04  0.10566000000E+00 0.  1.
        994   -1    0    0    0    0 -0.00000000000E+00 -0.00000000000E+00  0.11368683772E-12  0.17120000000E+03  0.17120000000E+03 0.  0.
         13    1    1    2    0    0 -0.19869048669E+02 -0.13481513630E+02  0.75731575649E+02  0.79446919506E+02  0.10566000000E+00 0.  1.
        994    1    1    2    0    0  0.13775082400E+02  0.61209470266E+01  0.45040486804E+01  0.17192133475E+03  0.17120000000E+03 0.  0.
        998    1    1    2    0    0  0.60939662690E+01  0.73605666032E+01  0.14197643719E+04  0.14198317457E+04  0.10000000000E+02 0.  1.
</event>
<event>
 5    1  0.1344348E-008  0.3820529E+03  0.7957747E-01  0.3442268E+00
         13   -1    0    0    0    0  0.00000000000E+00  0.00000000000E+00  0.14999999963E+04  0.15000000000E+04  0.10566000000E+00 0.  1.
        994   -1    0    0    0    0 -0.00000000000E+00 -0.00000000000E+00  0.11368683772E-12  0.17120000000E+03  0.17120000000E+03 0.  0.
         13    1    1    2    0    0  0.26729753829E+02  0.97537501712E+01  0.12872686068E+03  0.13183410487E+03  0.10566000000E+00 0.  1.
        994    1    1    2    0    0 -0.15992600949E+02 -0.88793890164E+01  0.42122431859E+01  0.17222598476E+03  0.17120000000E+03 0.  0.
        998    1    1    2    0    0 -0.10737152880E+02 -0.87436115482E+00  0.13670608924E+04  0.13671399104E+04  0.10000000000E+02 0.  1.
</event>
<event>
 5    1  0.1344348E-008  0.3846890E+03  0.7957747E-01  0.3430992E+00
         13   -1    0    0    0    0  0.00000000000E+00  0.00000000000E+00  0.14999999963E+04  0.15000000000E+04  0.10566000000E+00 0. -1.
        994   -1    0    0    0    0 -0.00000000000E+00 -0.00000000000E+00  0.11368683772E-12  0.17120000000E+03  0.17120000000E+03 0.  0.
         13    1    1    2    0    0  0.12530019721E+02  0.69804550857E+01  0.55462676336E+02  0.57287413782E+02  0.10566000000E+00 0. -1.
        994    1    1    2    0    0 -0.13135770646E+02 -0.90170219921E+01  0.26207476411E+01  0.17195977284E+03  0.17120000000E+03 0.  0.
        998    1    1    2    0    0  0.60575092497E+00  0.20365669064E+01  0.14419165723E+04  0.14419528134E+04  0.10000000000E+02 0. -1.
</event>
<event>
 5    1  0.1344348E-008  0.3831279E+03  0.7957747E-01  0.3437651E+00
         13   -1    0    0    0    0  0.00000000000E+00  0.00000000000E+00  0.14999999963E+04  0.15000000000E+04  0.10566000000E+00 0. -1.
        994   -1    0    0    0    0 -0.00000000000E+00 -0.00000000000E+00  0.11368683772E-12  0.17120000000E+03  0.17120000000E+03 0.  0.
         13    1    1    2    0    0 -0.71830007808E+01  0.84057587899E+01  0.23385509055E+02  0.25867846428E+02  0.10566000000E+00 0. -1.
        994    1    1    2    0    0 -0.28517764027E+01 -0.49698551474E+01  0.26711041216E+01  0.17131668595E+03  0.17120000000E+03 0.  0.
        998    1    1    2    0    0  0.10034777184E+02 -0.34359036425E+01  0.14739433831E+04  0.14740154676E+04  0.10000000000E+02 0. -1.
</event>
<event>
 5    1  0.1344348E-008  0.3827996E+03  0.7957747E-01  0.3439058E+00
         13   -1    0    0    0    0  0.00000000000E+00  0.00000000000E+00  0.14999999963E+04  0.15000000000E+04  0.10566000000E+00 0.  1.
        994   -1    0    0    0    0 -0.00000000000E+00 -0.00000000000E+00  0.11368683772E-12  0.17120000000E+03  0.17120000000E+03 0.  0.
         13    1    1    2    0    0  0.18334835617E+01 -0.27866987063E+02  0.15455804608E+03  0.15706091622E+03  0.10566000000E+00 0.  1.
        994    1    1    2    0    0 -0.55320715015E+01  0.57945770747E+01  0.29391777586E+01  0.17141254244E+03  0.17120000000E+03 0.  0.
        998    1    1    2    0    0  0.36985879397E+01  0.22072409988E+02  0.13425027724E+04  0.13427265413E+04  0.10000000000E+02 0.  1.
</event>
<event>
 5    1  0.1344348E-008  0.3733189E+03  0.7957747E-01  0.3480775E+00
         13   -1    0    0    0    0  0.00000000000E+00  0.00000000000E+00  0.14999999963E+04  0.15000000000E+04  0.10566000000E+00 0. -1.
        994   -1    0    0    0    0 -0.00000000000E+00 -0.00000000000E+00  0.11368683772E-12  0.17120000000E+03  0.17120000000E+03 0.  0.
         13    1    1    2    0    0  0.24794003957E+01 -0.20243953061E+02  0.24101500161E+02  0.31573066622E+02  0.10566000000E+00 0. -1.
        994    1    1    2    0    0 -0.94936055049E+00  0.19122977269E+02  0.87987457966E+01  0.17249187654E+03  0.17120000000E+03 0.  0.
        998    1    1    2    0    0 -0.15300398452E+01  0.11209757922E+01  0.14670997503E+04  0.14671350568E+04  0.10000000000E+02 0. -1.
</event>
<event>
 5    1  0.1344348E-008  0.3856582E+03  0.7957747E-01  0.3426886E+00
         13   -1    0    0    0    0  0.00000000000E+00  0.00000000000E+00  0.14999999963E+04  0.15000000000E+04  0.10566000000E+00 0. -1.
        994   -1    0    0    0    0 -0.00000000000E+00 -0.00000000000E+00  0.11368683772E-12  0.17120000000E+03  0.17120000000E+03 0.  0.
         13    1    1    2    0    0 -0.14010033085E+02  0.55514061769E-01  0.75097891813E+02  0.76393642587E+02  0.10566000000E+00 0. -1.
        994    1    1    2    0    0  0.10442495642E+02  0.13664250830E+01  0.16677891953E+01  0.17153172987E+03  0.17120000000E+03 0.  0.
        998    1    1    2    0    0  0.35675374438E+01 -0.14219391448E+01  0.14232343153E+04  0.14232746275E+04  0.10000000000E+02 0. -1.
</event>
<event>
 5    1  0.1344348E-008  0.3823005E+03  0.7957747E-01  0.3441202E+00
         13   -1    0    0    0    0  0.00000000000E+00  0.00000000000E+00  0.14999999963E+04  0.15000000000E+04  0.10566000000E+00 0. -1.
        994   -1    0    0    0    0 -0.00000000000E+00 -0.00000000000E+00  0.11368683772E-12  0.17120000000E+03  0.17120000000E+03 0.  0.
         13    1    1    2    0    0 -0.57287874291E+01  0.13587606603E+02  0.36468090512E+02  0.39336685781E+02  0.10566000000E+00 0. -1.
        994    1    1    2    0    0  0.31034807833E+01 -0.15731250114E+01  0.30165211308E+01  0.17126192138E+03  0.17120000000E+03 0.  0.
        998    1    1    2    0    0  0.26253066458E+01 -0.12014481592E+02  0.14605153846E+04  0.14606013928E+04  0.10000000000E+02 0. -1.
</event>
<event>
 5    1  0.1344348E-008  0.4032769E+03  0.7957747E-01  0.3355673E+00
         13   -1    0    0    0    0  0.00000000000E+00  0.00000000000E+00  0.14999999963E+04  0.15000000000E+04  0.10566000000E+00 0. -1.
        994   -1    0    0    0    0 -0.00000000000E+00 -0.00000000000E+00  0.11368683772E-12  0.17120000000E+03  0.17120000000E+03 0.  0.
         13    1    1    2    0    0 -0.47735227412E+02 -0.79588675794E+02  0.13550295530E+03  0.16423784981E+03  0.10566000000E+00 0. -1.
        994    1    1    2    0    0  0.34140919374E+02  0.57484981516E+02  0.47712929876E+02  0.18988440998E+03  0.17120000000E+03 0.  0.
        998    1    1    2    0    0  0.13594308038E+02  0.22103694278E+02  0.13167841111E+04  0.13170777402E+04  0.10000000000E+02 0. -1.
</event>
<event>
 5    1  0.1344348E-008  0.3854343E+03  0.7957747E-01  0.3427832E+00
         13   -1    0    0    0    0  0.00000000000E+00  0.00000000000E+00  0.14999999963E+04  0.15000000000E+04  0.10566000000E+00 0. -1.
        994   -1    0    0    0    0 -0.00000000000E+00 -0.00000000000E+00  0.11368683772E-12  0.17120000000E+03  0.17120000000E+03 0.  0.
         13    1    1    2    0    0  0.60592500520E+01  0.80075737837E+01  0.33694442381E+02  0.35159100678E+02  0.10566000000E+00 0. -1.
        994    1    1    2    0    0 -0.70155957218E+01 -0.17767966868E+02  0.26139719232E+01  0.17228230344E+03  0.17120000000E+03 0.  0.
        998    1    1    2    0    0  0.95634566978E+00  0.97603930846E+01  0.14636915820E+04  0.14637585959E+04  0.10000000000E+02 0. -1.
</event>
<event>
 5    1  0.1344348E-008  0.3785200E+03  0.7957747E-01  0.3457628E+00
         13   -1    0    0    0    0  0.00000000000E+00  0.00000000000E+00  0.14999999963E+04  0.15000000000E+04  0.10566000000E+00 0.  1.
        994   -1    0    0    0    0 -0.00000000000E+00 -0.00000000000E+00  0.11368683772E-12  0.17120000000E+03  0.17120000000E+03 0.  0.
         13    1    1    2    0    0 -0.15653811598E+01  0.16661229355E+02  0.26082683026E+02  0.30989748299E+02  0.10566000000E+00 0.  1.
        994    1    1    2    0    0 -0.27361789600E+01 -0.19855560818E+02  0.62328441178E+01  0.17248193620E+03  0.17120000000E+03 0.  0.
        998    1    1    2    0    0  0.43015601198E+01  0.31943314633E+01  0.14676844691E+04  0.14677283155E+04  0.10000000000E+02 0.  1.
</event>
<event>
 5    1  0.1344348E-008  0.3836823E+03  0.7957747E-01  0.3435280E+00
         13   -1    0    0    0    0  0.00000000000E+00  0.00000000000E+00  0.14999999963E+04  0.15000000000E+04  0.10566000000E+00 0.  1.
        994   -1    0    0    0    0 -0.00000000000E+00 -0.00000000000E+00  0.11368683772E-12  0.17120000000E+03  0.17120000000E+03 0.  0.
         13    1    1    2    0    0  0.24216903903E+02  0.44669013283E+01  0.14501261118E+03  0.14708868144E+03  0.10566000000E+00 0.  1.
        994    1    1    2    0    0 -0.33499068960E+01 -0.21724779154E+01  0.23384346013E+01  0.17126251724E+03  0.17120000000E+03 0.  0.
        998    1    1    2    0    0 -0.20866997007E+02 -0.22944234130E+01  0.13526489505E+04  0.13528488013E+04  0.10000000000E+02 0.  1.
</event>
<event>
 5    1  0.1344348E-008  0.3845195E+03  0.7957747E-01  0.3431713E+00
         13   -1    0    0    0    0  0.00000000000E+00  0.00000000000E+00  0.14999999963E+04  0.15000000000E+04  0.10566000000E+00 0. -1.
        994   -1    0    0    0    0 -0.00000000000E+00 -0.00000000000E+00  0.11368683772E-12  0.17120000000E+03  0.17120000000E+03 0.  0.
         13    1    1    2    0    0 -0.17902133704E+02  0.97914147077E+01  0.10554239994E+03  0.10749682573E+03  0.10566000000E+00 0. -1.
        994    1    1    2    0    0  0.16341389944E+02 -0.11307246864E+02  0.31706790391E+01  0.17237861834E+03  0.17120000000E+03 0.  0.
        998    1    1    2    0    0  0.15607437594E+01  0.15158321564E+01  0.13912869173E+04  0.13913245559E+04  0.10000000000E+02 0.  1.
</event>
<event>
 5    1  0.1344348E-008  0.3811911E+03  0.7957747E-01  0.3445989E+00
         13   -1    0    0    0    0  0.00000000000E+00  0.00000000000E+00  0.14999999963E+04  0.15000000000E+04  0.10566000000E+00 0. -1.
        994   -1    0    0    0    0 -0.00000000000E+00 -0.00000000000E+00  0.11368683772E-12  0.17120000000E+03  0.17120000000E+03 0.  0.
         13    1    1    2    0    0  0.51224972364E+01 -0.13283022323E+02  0.28560692747E+02  0.31912426956E+02  0.10566000000E+00 0. -1.
        994    1    1    2    0    0 -0.54219489395E+01 -0.67162033068E+01  0.37812374526E+01  0.17145915745E+03  0.17120000000E+03 0.  0.
        998    1    1    2    0    0  0.29945170315E+00  0.19999225629E+02  0.14676580661E+04  0.14678284156E+04  0.10000000000E+02 0. -1.
</event>
<event>
 5    1  0.1344348E-008  0.3741325E+03  0.7957747E-01  0.3477112E+00
         13   -1    0    0    0    0  0.00000000000E+00  0.00000000000E+00  0.14999999963E+04  0.15000000000E+04  0.10566000000E+00 0. -1.
        994   -1    0    0    0    0 -0.00000000000E+00 -0.00000000000E+00  0.11368683772E-12  0.17120000000E+03  0.17120000000E+03 0.  0.
         13    1    1    2    0    0 -0.22207991266E+02  0.35658123884E+02  0.11244344186E+03  0.12003430949E+03  0.10566000000E+00 0. -1.
        994    1    1    2    0    0  0.75564597699E+01 -0.46202027213E+02  0.14633891530E+02  0.17808795070E+03  0.17120000000E+03 0.  0.
        998    1    1    2    0    0  0.14651531496E+02  0.10543903329E+02  0.13729226629E+04  0.13730777398E+04  0.10000000000E+02 0. -1.
</event>
<event>
 5    1  0.1344348E-008  0.3733492E+03  0.7957747E-01  0.3480639E+00
         13   -1    0    0    0    0  0.00000000000E+00  0.00000000000E+00  0.14999999963E+04  0.15000000000E+04  0.10566000000E+00 0. -1.
        994   -1    0    0    0    0 -0.00000000000E+00 -0.00000000000E+00  0.11368683772E-12  0.17120000000E+03  0.17120000000E+03 0.  0.
         13    1    1    2    0    0  0.62976468217E+02  0.35551331053E+02  0.30786603779E+03  0.31624585543E+03  0.10566000000E+00 0. -1.
        994    1    1    2    0    0 -0.51109147998E+02 -0.25918082996E+02  0.18838423624E+02  0.18151644069E+03  0.17120000000E+03 0.  0.
        998    1    1    2    0    0 -0.11867320220E+02 -0.96332480568E+01  0.11732955349E+04  0.11734377039E+04  0.10000000000E+02 0. -1.
</event>
<event>
 5    1  0.1344348E-008  0.3804460E+03  0.7957747E-01  0.3449219E+00
         13   -1    0    0    0    0  0.00000000000E+00  0.00000000000E+00  0.14999999963E+04  0.15000000000E+04  0.10566000000E+00 0.  1.
        994   -1    0    0    0    0 -0.00000000000E+00 -0.00000000000E+00  0.11368683772E-12  0.17120000000E+03  0.17120000000E+03 0.  0.
         13    1    1    2    0    0  0.86824991308E+00  0.13723548753E+02  0.22438089219E+02  0.26316699264E+02  0.10566000000E+00 0.  1.
        994    1    1    2    0    0 -0.76533762029E+00 -0.12057172576E+02  0.43955294741E+01  0.17168203701E+03  0.17120000000E+03 0.  0.
        998    1    1    2    0    0 -0.10291229278E+00 -0.16663761769E+01  0.14731663776E+04  0.14732012637E+04  0.10000000000E+02 0.  1.
</event>
<event>
 5    1  0.1344348E-008  0.3718113E+03  0.7957747E-01  0.3487608E+00
         13   -1    0    0    0    0  0.00000000000E+00  0.00000000000E+00  0.14999999963E+04  0.15000000000E+04  0.10566000000E+00 0. -1.
        994   -1    0    0    0    0 -0.00000000000E+00 -0.00000000000E+00  0.11368683772E-12  0.17120000000E+03  0.17120000000E+03 0.  0.
         13    1    1    2    0    0  0.53351293718E+02  0.13947187659E+01  0.15700375816E+03  0.16582670781E+03  0.10566000000E+00 0. -1.
        994    1    1    2    0    0 -0.46083393836E+02 -0.78762266307E+01  0.15873575832E+02  0.17817722790E+03  0.17120000000E+03 0.  0.
        998    1    1    2    0    0 -0.72678998824E+01  0.64815078647E+01  0.13271226623E+04  0.13271960643E+04  0.10000000000E+02 0. -1.
</event>
<event>
 5    1  0.1344348E-008  0.3848397E+03  0.7957747E-01  0.3430353E+00
         13   -1    0    0    0    0  0.00000000000E+00  0.00000000000E+00  0.14999999963E+04  0.15000000000E+04  0.10566000000E+00 0. -1.
        994   -1    0    0    0    0 -0.00000000000E+00 -0.00000000000E+00  0.11368683772E-12  0.17120000000E+03  0.17120000000E+03 0.  0.
         13    1    1    2    0    0 -0.10891300311E+02 -0.11636973133E+02  0.75805260287E+02  0.77462818289E+02  0.10566000000E+00 0. -1.
        994    1    1    2    0    0 -0.18907180622E+01  0.11900244743E+02  0.21876404886E+01  0.17163745632E+03  0.17120000000E+03 0.  0.
        998    1    1    2    0    0  0.12782018373E+02 -0.26327161056E+00  0.14220070955E+04  0.14220997254E+04  0.10000000000E+02 0. -1.
</event>
<event>
 5    1  0.1344348E-008  0.3842944E+03  0.7957747E-01  0.3432670E+00
         13   -1    0    0    0    0  0.00000000000E+00  0.00000000000E+00  0.14999999963E+04  0.15000000000E+04  0.10566000000E+00 0.  1.
        994   -1    0    0    0    0 -0.00000000000E+00 -0.00000000000E+00  0.11368683772E-12  0.17120000000E+03  0.17120000000E+03 0.  0.
         13    1    1    2    0    0  0.61859910119E+01  0.82500311842E+01  0.26112158810E+02  0.28074641602E+02  0.10566000000E+00 0.  1.
        994    1    1    2    0    0 -0.24423522742E+01 -0.94740903893E+01  0.22964407819E+01  0.17149471454E+03  0.17120000000E+03 0.  0.
        998    1    1    2    0    0 -0.37436387378E+01  0.12240592051E+01  0.14715913967E+04  0.14716306439E+04  0.10000000000E+02 0.  1.
</event>
<event>
 5    1  0.1344348E-008  0.3857223E+03  0.7957747E-01  0.3426615E+00
         13   -1    0    0    0    0  0.00000000000E+00  0.00000000000E+00  0.14999999963E+04  0.15000000000E+04  0.10566000000E+00 0.  1.
        994   -1    0    0    0    0 -0.00000000000E+00 -0.00000000000E+00  0.11368683772E-12  0.17120000000E+03  0.17120000000E+03 0.  0.
         13    1    1    2    0    0 -0.12016298076E+01 -0.12420698421E+02  0.62717631520E+02  0.63947088527E+02  0.10566000000E+00 0.  1.
        994    1    1    2    0    0 -0.67252492927E+01  0.67046444546E+01  0.15678850927E+01  0.17147034583E+03  0.17120000000E+03 0.  0.
        998    1    1    2    0    0  0.79268791003E+01  0.57160539660E+01  0.14357144797E+04  0.14357825656E+04  0.10000000000E+02 0.  1.
</event>
<event>
 5    1  0.1344348E-008  0.3718863E+03  0.7957747E-01  0.3487266E+00
         13   -1    0    0    0    0  0.00000000000E+00  0.00000000000E+00  0.14999999963E+04  0.15000000000E+04  0.10566000000E+00 0.  1.
        994   -1    0    0    0    0 -0.00000000000E+00 -0.00000000000E+00  0.11368683772E-12  0.17120000000E+03  0.17120000000E+03 0.  0.
         13    1    1    2    0    0 -0.70497979851E+01 -0.13215074161E+02  0.10015281239E+02  0.18018181346E+02  0.10566000000E+00 0.  1.
        994    1    1    2    0    0  0.50294533169E+01  0.22894288618E+00  0.83735091512E+01  0.17147858021E+03  0.17120000000E+03 0.  0.
        998    1    1    2    0    0  0.20203446682E+01  0.12986131274E+02  0.14816112059E+04  0.14817032384E+04  0.10000000000E+02 0.  1.
</event>
<event>
 5    1  0.1344348E-008  0.3767550E+03  0.7957747E-01  0.3465411E+00
         13   -1    0    0    0    0  0.00000000000E+00  0.00000000000E+00  0.14999999963E+04  0.15000000000E+04  0.10566000000E+00 0.  1.
        994   -1    0    0    0    0 -0.00000000000E+00 -0.00000000000E+00  0.11368683772E-12  0.17120000000E+03  0.17120000000E+03 0.  0.
         13    1    1    2    0    0  0.11559055132E+02 -0.16927764341E+01  0.91855777500E+01  0.14861468643E+02  0.10566000000E+00 0.  1.
        994    1    1    2    0    0 -0.85754348763E+01  0.45455059742E+01  0.60986131316E+01  0.17158331151E+03  0.17120000000E+03 0.  0.
        998    1    1    2    0    0 -0.29836202554E+01 -0.28527295401E+01  0.14847158054E+04  0.14847552198E+04  0.10000000000E+02 0.  1.
</event>
<event>
 5    1  0.1344348E-008  0.3812396E+03  0.7957747E-01  0.3445779E+00
         13   -1    0    0    0    0  0.00000000000E+00  0.00000000000E+00  0.14999999963E+04  0.15000000000E+04  0.10566000000E+00 0. -1.
        994   -1    0    0    0    0 -0.00000000000E+00 -0.00000000000E+00  0.11368683772E-12  0.17120000000E+03  0.17120000000E+03 0.  0.
         13    1    1    2    0    0  0.67044436865E+01 -0.89289276458E+01  0.16177497270E+02  0.19657006283E+02  0.10566000000E+00 0. -1.
        994    1    1    2    0    0 -0.49202617780E+01  0.99358011231E+01  0.39180903986E+01  0.17160338153E+03  0.17120000000E+03 0.  0.
        998    1    1    2    0    0 -0.17841819085E+01 -0.10068734772E+01  0.14799044086E+04  0.14799396122E+04  0.10000000000E+02 0. -1.
</event>
<event>
 5    1  0.1344348E-008  0.3769893E+03  0.7957747E-01  0.3464373E+00
         13   -1    0    0    0    0  0.00000000000E+00  0.00000000000E+00  0.14999999963E+04  0.15000000000E+04  0.10566000000E+00 0. -1.
        994   -1    0    0    0    0 -0.00000000000E+00 -0.00000000000E+00  0.11368683772E-12  0.17120000000E+03  0.17120000000E+03 0.  0.
         13    1    1    2    0    0  0.41673158923E+01  0.24984509604E+02  0.54140617787E+02  0.59772986376E+02  0.10566000000E+00 0. -1.
        994    1    1    2    0    0 -0.52337847569E+01 -0.17749619717E+02  0.68178248906E+01  0.17233213351E+03  0.17120000000E+03 0.  0.
        998    1    1    2    0    0  0.10664688646E+01 -0.72348898869E+01  0.14390415536E+04  0.14390948801E+04  0.10000000000E+02 0. -1.
</event>
<event>
 5    1  0.2041806E-008  0.3861118E+03  0.7957747E-01  0.3424971E+00
         13   -1    0    0    0    0  0.00000000000E+00  0.00000000000E+00  0.14999999963E+04  0.15000000000E+04  0.10566000000E+00 0.  1.
        994   -1    0    0    0    0 -0.00000000000E+00 -0.00000000000E+00  0.11368683772E-12  0.17120000000E+03  0.17120000000E+03 0.  0.
         13    1    1    2    0    0  0.10855874912E+02 -0.31845102793E+01  0.65790101089E+02  0.66755821403E+02  0.10566000000E+00 0.  1.
        994    1    1    2    0    0  0.32437610438E+01 -0.25615353786E+01  0.11351308916E+01  0.17125364805E+03  0.17120000000E+03 0.  0.
        998    1    1    2    0    0 -0.14099635956E+02  0.57460456579E+01  0.14330747643E+04  0.14331905305E+04  0.10000000000E+02 0.  1.
</event>
<event>
 5    1  0.1344348E-008  0.3841225E+03  0.7957747E-01  0.3433402E+00
         13   -1    0    0    0    0  0.00000000000E+00  0.00000000000E+00  0.14999999963E+04  0.15000000000E+04  0.10566000000E+00 0. -1.
        994   -1    0    0    0    0 -0.00000000000E+00 -0.00000000000E+00  0.11368683772E-12  0.17120000000E+03  0.17120000000E+03 0.  0.
         13    1    1    2    0    0 -0.11799653432E+02  0.31222403390E+01  0.34652847339E+02  0.36739776790E+02  0.10566000000E+00 0. -1.
        994    1    1    2    0    0  0.13352365649E+02 -0.52285330388E+01  0.27448633887E+01  0.17182141165E+03  0.17120000000E+03 0.  0.
        998    1    1    2    0    0 -0.15527122166E+01  0.21062926997E+01  0.14626022856E+04  0.14626388116E+04  0.10000000000E+02 0. -1.
</event>
<event>
 5    1  0.1344348E-008  0.3811787E+03  0.7957747E-01  0.3446042E+00
         13   -1    0    0    0    0  0.00000000000E+00  0.00000000000E+00  0.14999999963E+04  0.15000000000E+04  0.10566000000E+00 0.  1.
        994   -1    0    0    0    0 -0.00000000000E+00 -0.00000000000E+00  0.11368683772E-12  0.17120000000E+03  0.17120000000E+03 0.  0.
         13    1    1    2    0    0 -0.16504987591E+02  0.65384207191E+02  0.39863863498E+03  0.40430221571E+03  0.10566000000E+00 0.  1.
        994    1    1    2    0    0  0.20274964782E+01 -0.84483731819E+02  0.27697838775E+02  0.19292024766E+03  0.17120000000E+03 0.  0.
        998    1    1    2    0    0  0.14477491112E+02  0.19099524628E+02  0.10736635225E+04  0.10739775366E+04  0.10000000000E+02 0.  1.
</event>
<event>
 5    1  0.1344348E-008  0.3846353E+03  0.7957747E-01  0.3431220E+00
         13   -1    0    0    0    0  0.00000000000E+00  0.00000000000E+00  0.14999999963E+04  0.15000000000E+04  0.10566000000E+00 0. -1.
        994   -1    0    0    0    0 -0.00000000000E+00 -0.00000000000E+00  0.11368683772E-12  0.17120000000E+03  0.17120000000E+03 0.  0.
         13    1    1    2    0    0  0.13097492823E+02  0.11756515494E+02  0.85247775626E+02  0.87045702869E+02  0.10566000000E+00 0. -1.
        994    1    1    2    0    0 -0.55392271034E+01 -0.11104973077E+02  0.23185408724E+01  0.17166484525E+03  0.17120000000E+03 0.  0.
        998    1    1    2    0    0 -0.75582657200E+01 -0.65154241685E+00  0.14124336798E+04  0.14124894519E+04  0.10000000000E+02 0. -1.
</event>
<event>
 5    1  0.1344348E-008  0.3748576E+03  0.7957747E-01  0.3473860E+00
         13   -1    0    0    0    0  0.00000000000E+00  0.00000000000E+00  0.14999999963E+04  0.15000000000E+04  0.10566000000E+00 0. -1.
        994   -1    0    0    0    0 -0.00000000000E+00 -0.00000000000E+00  0.11368683772E-12  0.17120000000E+03  0.17120000000E+03 0.  0.
         13    1    1    2    0    0 -0.63332038572E+01  0.35167518812E+02  0.96391870018E+02  0.10280207984E+03  0.10566000000E+00 0. -1.
        994    1    1    2    0    0  0.42425201120E+02 -0.43774432824E+01  0.12963429081E+02  0.17690831013E+03  0.17120000000E+03 0.  0.
        998    1    1    2    0    0 -0.36091997263E+02 -0.30790075530E+02  0.13906446972E+04  0.13914896100E+04  0.10000000000E+02 0. -1.
</event>
<event>
 5    1  0.1344348E-008  0.3837107E+03  0.7957747E-01  0.3435159E+00
         13   -1    0    0    0    0  0.00000000000E+00  0.00000000000E+00  0.14999999963E+04  0.15000000000E+04  0.10566000000E+00 0. -1.
        994   -1    0    0    0    0 -0.00000000000E+00 -0.00000000000E+00  0.11368683772E-12  0.17120000000E+03  0.17120000000E+03 0.  0.
         13    1    1    2    0    0 -0.12276124691E+02  0.16322340519E+02  0.84323907427E+02  0.86762057175E+02  0.10566000000E+00 0. -1.
        994    1    1    2    0    0  0.22732073951E+02 -0.15458457678E+02  0.47712775923E+01  0.17345868727E+03  0.17120000000E+03 0.  0.
        998    1    1    2    0    0 -0.10455949260E+02 -0.86388284063E+00  0.14109048113E+04  0.14109792556E+04  0.10000000000E+02 0. -1.
</event>
<event>
 5    1  0.1344348E-008  0.3751816E+03  0.7957747E-01  0.3472411E+00
         13   -1    0    0    0    0  0.00000000000E+00  0.00000000000E+00  0.14999999963E+04  0.15000000000E+04  0.10566000000E+00 0. -1.
        994   -1    0    0    0    0 -0.00000000000E+00 -0.00000000000E+00  0.11368683772E-12  0.17120000000E+03  0.17120000000E+03 0.  0.
         13    1    1    2    0    0 -0.40230608198E+02 -0.69710997467E+02  0.39969870146E+03  0.40772194952E+03  0.10566000000E+00 0. -1.
        994    1    1    2    0    0  0.18271519310E+02  0.69832648670E+02  0.24497101902E+02  0.18740329570E+03  0.17120000000E+03 0.  0.
        998    1    1    2    0    0  0.21959088889E+02 -0.12165120369E+00  0.10758041929E+04  0.10760747548E+04  0.10000000000E+02 0. -1.
</event>
<event>
 5    1  0.1344348E-008  0.4011070E+03  0.7957747E-01  0.3364107E+00
         13   -1    0    0    0    0  0.00000000000E+00  0.00000000000E+00  0.14999999963E+04  0.15000000000E+04  0.10566000000E+00 0. -1.
        994   -1    0    0    0    0 -0.00000000000E+00 -0.00000000000E+00  0.11368683772E-12  0.17120000000E+03  0.17120000000E+03 0.  0.
         13    1    1    2    0    0  0.26324964643E+02  0.24420834648E+02  0.10751159906E+02  0.37483056595E+02  0.10566000000E+00 0. -1.
        994    1    1    2    0    0 -0.28503677763E+02 -0.29420186845E+02  0.35068047437E+02  0.17949154574E+03  0.17120000000E+03 0.  0.
        998    1    1    2    0    0  0.21787131199E+01  0.49993521972E+01  0.14541807889E+04  0.14542253977E+04  0.10000000000E+02 0. -1.
</event>
<event>
 5    1  0.1344348E-008  0.3830103E+03  0.7957747E-01  0.3438155E+00
         13   -1    0    0    0    0  0.00000000000E+00  0.00000000000E+00  0.14999999963E+04  0.15000000000E+04  0.10566000000E+00 0.  1.
        994   -1    0    0    0    0 -0.00000000000E+00 -0.00000000000E+00  0.11368683772E-12  0.17120000000E+03  0.17120000000E+03 0.  0.
         13    1    1    2    0    0 -0.21586585641E+02  0.18683727626E+02  0.14480445842E+03  0.14759202112E+03  0.10566000000E+00 0.  1.
        994    1    1    2    0    0  0.29073621545E+02 -0.63291691017E+01  0.55571884130E+01  0.17385527370E+03  0.17120000000E+03 0.  0.
        998    1    1    2    0    0 -0.74870359038E+01 -0.12354558525E+02  0.13496383494E+04  0.13497527052E+04  0.10000000000E+02 0.  1.
</event>
<event>
 5    1  0.1344348E-008  0.3814672E+03  0.7957747E-01  0.3444795E+00
         13   -1    0    0    0    0  0.00000000000E+00  0.00000000000E+00  0.14999999963E+04  0.15000000000E+04  0.10566000000E+00 0.  1.
        994   -1    0    0    0    0 -0.00000000000E+00 -0.00000000000E+00  0.11368683772E-12  0.17120000000E+03  0.17120000000E+03 0.  0.
         13    1    1    2    0    0 -0.58820830725E+01 -0.14939716468E+02  0.35169542562E+02  0.38661375008E+02  0.10566000000E+00 0.  1.
        994    1    1    2    0    0  0.13296703963E+02  0.19625239001E+02  0.52660693890E+01  0.17291363113E+03  0.17120000000E+03 0.  0.
        998    1    1    2    0    0 -0.74146208906E+01 -0.46855225338E+01  0.14595643843E+04  0.14596249939E+04  0.10000000000E+02 0.  1.
</event>
<event>
 5    1  0.1344348E-008  0.3843940E+03  0.7957747E-01  0.3432246E+00
         13   -1    0    0    0    0  0.00000000000E+00  0.00000000000E+00  0.14999999963E+04  0.15000000000E+04  0.10566000000E+00 0. -1.
        994   -1    0    0    0    0 -0.00000000000E+00 -0.00000000000E+00  0.11368683772E-12  0.17120000000E+03  0.17120000000E+03 0.  0.
         13    1    1    2    0    0 -0.37089847828E+01 -0.11841902882E+02  0.35633053524E+02  0.37732120262E+02  0.10566000000E+00 0. -1.
        994    1    1    2    0    0  0.16323882550E+02  0.28196385133E+02  0.54369356962E+01  0.17435740749E+03  0.17120000000E+03 0.  0.
        998    1    1    2    0    0 -0.12614897767E+02 -0.16354482251E+02  0.14589300071E+04  0.14591104723E+04  0.10000000000E+02 0. -1.
</event>
<event>
 5    1  0.1344348E-008  0.3693394E+03  0.7957747E-01  0.3498932E+00
         13   -1    0    0    0    0  0.00000000000E+00  0.00000000000E+00  0.14999999963E+04  0.15000000000E+04  0.10566000000E+00 0. -1.
        994   -1    0    0    0    0 -0.00000000000E+00 -0.00000000000E+00  0.11368683772E-12  0.17120000000E+03  0.17120000000E+03 0.  0.
         13    1    1    2    0    0 -0.43656067657E+02  0.51020000100E+02  0.25736101655E+03  0.26597668442E+03  0.10566000000E+00 0. -1.
        994    1    1    2    0    0 -0.36851621835E+01 -0.86323449152E+01  0.10897268042E+02  0.17180305076E+03  0.17120000000E+03 0.  0.
        998    1    1    2    0    0  0.47341229841E+02 -0.42387655185E+02  0.12317417117E+04  0.12334202648E+04  0.10000000000E+02 0. -1.
</event>
<event>
 5    1  0.1344348E-008  0.3818299E+03  0.7957747E-01  0.3443229E+00
         13   -1    0    0    0    0  0.00000000000E+00  0.00000000000E+00  0.14999999963E+04  0.15000000000E+04  0.10566000000E+00 0.  1.
        994   -1    0    0    0    0 -0.00000000000E+00 -0.00000000000E+00  0.11368683772E-12  0.17120000000E+03  0.17120000000E+03 0.  0.
         13    1    1    2    0    0  0.11443565117E+02  0.32102292056E+01  0.21065136560E+02  0.24187019173E+02  0.10566000000E+00 0.  1.
        994    1    1    2    0    0 -0.37390373336E+01  0.34809407121E+01  0.32990153473E+01  0.17130797077E+03  0.17120000000E+03 0.  0.
        998    1    1    2    0    0 -0.77045277832E+01 -0.66911699177E+01  0.14756358444E+04  0.14757050101E+04  0.10000000000E+02 0.  1.
</event>
<event>
 5    1  0.1344348E-008  0.3801445E+03  0.7957747E-01  0.3450530E+00
         13   -1    0    0    0    0  0.00000000000E+00  0.00000000000E+00  0.14999999963E+04  0.15000000000E+04  0.10566000000E+00 0. -1.
        994   -1    0    0    0    0 -0.00000000000E+00 -0.00000000000E+00  0.11368683772E-12  0.17120000000E+03  0.17120000000E+03 0.  0.
         13    1    1    2    0    0  0.35801307612E+00 -0.16863376884E+02  0.34576794781E+02  0.38471646113E+02  0.10566000000E+00 0. -1.
        994    1    1    2    0    0 -0.68457422276E+01  0.10952446937E+01  0.42208374473E+01  0.17139229626E+03  0.17120000000E+03 0.  0.
        998    1    1    2    0    0  0.64877291515E+01  0.15768132190E+02  0.14612023641E+04  0.14613360576E+04  0.10000000000E+02 0. -1.
</event>
<event>
 5    1  0.1344348E-008  0.3685629E+03  0.7957747E-01  0.3502522E+00
         13   -1    0    0    0    0  0.00000000000E+00  0.00000000000E+00  0.14999999963E+04  0.15000000000E+04  0.10566000000E+00 0.  1.
        994   -1    0    0    0    0 -0.00000000000E+00 -0.00000000000E+00  0.11368683772E-12  0.17120000000E+03  0.17120000000E+03 0.  0.
         13    1    1    2    0    0 -0.25644957784E+02 -0.88321980934E+01  0.31784847798E+02  0.41784677771E+02  0.10566000000E+00 0.  1.
        994    1    1    2    0    0  0.16337335382E+02  0.18528841055E+02  0.12306460317E+02  0.17341025184E+03  0.17120000000E+03 0.  0.
        998    1    1    2    0    0  0.93076224026E+01 -0.96966429615E+01  0.14559086882E+04  0.14560050704E+04  0.10000000000E+02 0.  1.
</event>
<event>
 5    1  0.1344348E-008  0.3827286E+03  0.7957747E-01  0.3439363E+00
         13   -1    0    0    0    0  0.00000000000E+00  0.00000000000E+00  0.14999999963E+04  0.15000000000E+04  0.10566000000E+00 0. -1.
        994   -1    0    0    0    0 -0.00000000000E+00 -0.00000000000E+00  0.11368683772E-12  0.17120000000E+03  0.17120000000E+03 0.  0.
         13    1    1    2    0    0 -0.45482771621E+01 -0.27418723034E+02  0.10120279965E+03  0.10494994530E+03  0.10566000000E+00 0. -1.
        994    1    1    2    0    0 -0.29615638833E+01  0.72132775101E+02  0.20225623378E+02  0.18689682701E+03  0.17120000000E+03 0.  0.
        998    1    1    2    0    0  0.75098410453E+01 -0.44714052067E+02  0.13785715733E+04  0.13793532277E+04  0.10000000000E+02 0. -1.
</event>
<event>
 5    1  0.1344348E-008  0.3825025E+03  0.7957747E-01  0.3440334E+00
         13   -1    0    0    0    0  0.00000000000E+00  0.00000000000E+00  0.14999999963E+04  0.15000000000E+04  0.10566000000E+00 0. -1.
        994   -1    0    0    0    0 -0.00000000000E+00 -0.00000000000E+00  0.11368683772E-12  0.17120000000E+03  0.17120000000E+03 0.  0.
         13    1    1    2    0    0 -0.69334187766E+01 -0.15092574884E+02  0.47842626372E+02  0.50643718019E+02  0.10566000000E+00 0. -1.
        994    1    1    2    0    0  0.56987921839E+01  0.50639100375E+01  0.30679359517E+01  0.17139711680E+03  0.17120000000E+03 0.  0.
        998    1    1    2    0    0  0.12346265926E+01  0.10028664847E+02  0.14490894340E+04  0.14491591652E+04  0.10000000000E+02 0. -1.
</event>
<event>
 5    1  0.1344348E-008  0.3840371E+03  0.7957747E-01  0.3433766E+00
         13   -1    0    0    0    0  0.00000000000E+00  0.00000000000E+00  0.14999999963E+04  0.15000000000E+04  0.10566000000E+00 0. -1.
        994   -1    0    0    0    0 -0.00000000000E+00 -0.00000000000E+00  0.11368683772E-12  0.17120000000E+03  0.17120000000E+03 0.  0.
         13    1    1    2    0    0 -0.15569106838E+02 -0.58977065887E+01  0.59215787849E+02  0.61511793385E+02  0.10566000000E+00 0. -1.
        994    1    1    2    0    0  0.26721588217E+02  0.12169152431E+02  0.49582415530E+01  0.17377041091E+03  0.17120000000E+03 0.  0.
        998    1    1    2    0    0 -0.11152481379E+02 -0.62714458428E+01  0.14358259669E+04  0.14359177957E+04  0.10000000000E+02 0. -1.
</event>
<event>
 5    1  0.1344348E-008  0.3840013E+03  0.7957747E-01  0.3433919E+00
         13   -1    0    0    0    0  0.00000000000E+00  0.00000000000E+00  0.14999999963E+04  0.15000000000E+04  0.10566000000E+00 0.  1.
        994   -1    0    0    0    0 -0.00000000000E+00 -0.00000000000E+00  0.11368683772E-12  0.17120000000E+03  0.17120000000E+03 0.  0.
         13    1    1    2    0    0  0.51689052419E+00 -0.10637251284E+02  0.26145941765E+02  0.28231891993E+02  0.10566000000E+00 0.  1.
        994    1    1    2    0    0 -0.83342817811E+00  0.61776783914E+01  0.22550050207E+01  0.17132829119E+03  0.17120000000E+03 0.  0.
        998    1    1    2    0    0  0.31653765391E+00  0.44595728925E+01  0.14715990495E+04  0.14716398168E+04  0.10000000000E+02 0.  1.
</event>
<event>
 5    1  0.1344348E-008  0.3832024E+03  0.7957747E-01  0.3437332E+00
         13   -1    0    0    0    0  0.00000000000E+00  0.00000000000E+00  0.14999999963E+04  0.15000000000E+04  0.10566000000E+00 0. -1.
        994   -1    0    0    0    0 -0.00000000000E+00 -0.00000000000E+00  0.11368683772E-12  0.17120000000E+03  0.17120000000E+03 0.  0.
         13    1    1    2    0    0 -0.22027944443E+02 -0.13614495989E+02  0.12806072180E+03  0.13065276296E+03  0.10566000000E+00 0. -1.
        994    1    1    2    0    0  0.23012854754E+02  0.10480304487E+01  0.42827203466E+01  0.17279604031E+03  0.17120000000E+03 0.  0.
        998    1    1    2    0    0 -0.98491031119E+00  0.12566465540E+02  0.13676565541E+04  0.13677511967E+04  0.10000000000E+02 0. -1.
</event>
<event>
 5    1  0.1344348E-008  0.3749730E+03  0.7957747E-01  0.3473343E+00
         13   -1    0    0    0    0  0.00000000000E+00  0.00000000000E+00  0.14999999963E+04  0.15000000000E+04  0.10566000000E+00 0. -1.
        994   -1    0    0    0    0 -0.00000000000E+00 -0.00000000000E+00  0.11368683772E-12  0.17120000000E+03  0.17120000000E+03 0.  0.
         13    1    1    2    0    0 -0.53863182574E+02  0.10573529743E+01  0.15238655402E+03  0.16162930874E+03  0.10566000000E+00 0. -1.
        994    1    1    2    0    0  0.98984122024E+02 -0.15478657010E+02  0.41619516352E+02  0.20267972118E+03  0.17120000000E+03 0.  0.
        998    1    1    2    0    0 -0.45120939450E+02  0.14421304036E+02  0.13059939259E+04  0.13068909701E+04  0.10000000000E+02 0. -1.
</event>
<event>
 5    1  0.1344348E-008  0.3801546E+03  0.7957747E-01  0.3450485E+00
         13   -1    0    0    0    0  0.00000000000E+00  0.00000000000E+00  0.14999999963E+04  0.15000000000E+04  0.10566000000E+00 0. -1.
        994   -1    0    0    0    0 -0.00000000000E+00 -0.00000000000E+00  0.11368683772E-12  0.17120000000E+03  0.17120000000E+03 0.  0.
         13    1    1    2    0    0  0.12178804914E+02  0.57459345498E+01  0.20592672755E+02  0.24605048023E+02  0.10566000000E+00 0. -1.
        994    1    1    2    0    0 -0.94433273190E+01 -0.57143433365E+01  0.44622746226E+01  0.17161346697E+03  0.17120000000E+03 0.  0.
        998    1    1    2    0    0 -0.27354775951E+01 -0.31591213245E-01  0.14749450489E+04  0.14749814850E+04  0.10000000000E+02 0. -1.
</event>
<event>
 5    1  0.1344348E-008  0.3819700E+03  0.7957747E-01  0.3442625E+00
         13   -1    0    0    0    0  0.00000000000E+00  0.00000000000E+00  0.14999999963E+04  0.15000000000E+04  0.10566000000E+00 0.  1.
        994   -1    0    0    0    0 -0.00000000000E+00 -0.00000000000E+00  0.11368683772E-12  0.17120000000E+03  0.17120000000E+03 0.  0.
         13    1    1    2    0    0  0.20369343381E+02  0.12818356818E+02  0.87391964796E+02  0.90645392030E+02  0.10566000000E+00 0.  1.
        994    1    1    2    0    0 -0.15494146176E+02 -0.18186426969E+02  0.50401474356E+01  0.17293252377E+03  0.17120000000E+03 0.  0.
        998    1    1    2    0    0 -0.48751972054E+01  0.53680701510E+01  0.14075678840E+04  0.14076220842E+04  0.10000000000E+02 0.  1.
</event>
<event>
 5    1  0.1344348E-008  0.4043604E+03  0.7957747E-01  0.3351495E+00
         13   -1    0    0    0    0  0.00000000000E+00  0.00000000000E+00  0.14999999963E+04  0.15000000000E+04  0.10566000000E+00 0.  1.
        994   -1    0    0    0    0 -0.00000000000E+00 -0.00000000000E+00  0.11368683772E-12  0.17120000000E+03  0.17120000000E+03 0.  0.
         13    1    1    2    0    0  0.31556733350E+01  0.13282095031E+02 -0.10580779226E+02  0.17272416613E+02  0.10566000000E+00 0.  1.
        994    1    1    2    0    0 -0.87695204457E+00 -0.20527908265E+02  0.32097004604E+02  0.17539048368E+03  0.17120000000E+03 0.  0.
        998    1    1    2    0    0 -0.22787212904E+01  0.72458132340E+01  0.14784837709E+04  0.14785370997E+04  0.10000000000E+02 0.  1.
</event>
<event>
 5    1  0.1344348E-008  0.3847453E+03  0.7957747E-01  0.3430753E+00
         13   -1    0    0    0    0  0.00000000000E+00  0.00000000000E+00  0.14999999963E+04  0.15000000000E+04  0.10566000000E+00 0.  1.
        994   -1    0    0    0    0 -0.00000000000E+00 -0.00000000000E+00  0.11368683772E-12  0.17120000000E+03  0.17120000000E+03 0.  0.
         13    1    1    2    0    0 -0.11922806874E+00  0.10990451659E+02  0.33363610154E+02  0.35127565950E+02  0.10566000000E+00 0.  1.
        994    1    1    2    0    0 -0.36892183717E+01 -0.12348182310E+02  0.23035160255E+01  0.17169983729E+03  0.17120000000E+03 0.  0.
        998    1    1    2    0    0  0.38084464404E+01  0.13577306519E+01  0.14643328701E+04  0.14643725968E+04  0.10000000000E+02 0.  1.
</event>
<event>
 5    1  0.1344348E-008  0.3833974E+03  0.7957747E-01  0.3436498E+00
         13   -1    0    0    0    0  0.00000000000E+00  0.00000000000E+00  0.14999999963E+04  0.15000000000E+04  0.10566000000E+00 0.  1.
        994   -1    0    0    0    0 -0.00000000000E+00 -0.00000000000E+00  0.11368683772E-12  0.17120000000E+03  0.17120000000E+03 0.  0.
         13    1    1    2    0    0 -0.44118201449E+00 -0.13344277135E+02  0.29128944743E+02  0.32043266995E+02  0.10566000000E+00 0.  1.
        994    1    1    2    0    0 -0.28056708962E+01  0.66335385434E+02  0.17139784477E+02  0.18442198177E+03  0.17120000000E+03 0.  0.
        998    1    1    2    0    0  0.32468529107E+01 -0.52991108299E+02  0.14537312671E+04  0.14547347512E+04  0.10000000000E+02 0.  1.
</event>
<event>
 5    1  0.1344348E-008  0.3726541E+03  0.7957747E-01  0.3483781E+00
         13   -1    0    0    0    0  0.00000000000E+00  0.00000000000E+00  0.14999999963E+04  0.15000000000E+04  0.10566000000E+00 0. -1.
        994   -1    0    0    0    0 -0.00000000000E+00 -0.00000000000E+00  0.11368683772E-12  0.17120000000E+03  0.17120000000E+03 0.  0.
         13    1    1    2    0    0  0.15669617585E+03 -0.29557507083E+02  0.76660542313E+03  0.78301419124E+03  0.10566000000E+00 0. -1.
        994    1    1    2    0    0 -0.15151857924E+03  0.26492847117E+02  0.93874200907E+02  0.24855895960E+03  0.17120000000E+03 0.  0.
        998    1    1    2    0    0 -0.51775966087E+01  0.30646599662E+01  0.63952037224E+03  0.63962684915E+03  0.10000000000E+02 0.  0.
</event>
<event>
 5    1  0.1344348E-008  0.3818346E+03  0.7957747E-01  0.3443209E+00
         13   -1    0    0    0    0  0.00000000000E+00  0.00000000000E+00  0.14999999963E+04  0.15000000000E+04  0.10566000000E+00 0.  1.
        994   -1    0    0    0    0 -0.00000000000E+00 -0.00000000000E+00  0.11368683772E-12  0.17120000000E+03  0.17120000000E+03 0.  0.
         13    1    1    2    0    0 -0.23490933119E+02 -0.14044074208E+02  0.12647902167E+03  0.12940639105E+03  0.10566000000E+00 0.  1.
        994    1    1    2    0    0 -0.56938824885E+00  0.66569906309E+01  0.33582292415E+01  0.17136323244E+03  0.17120000000E+03 0.  0.
        998    1    1    2    0    0  0.24060321367E+02  0.73870835771E+01  0.13701627454E+04  0.13704303765E+04  0.10000000000E+02 0.  1.
</event>
<event>
 5    1  0.1344348E-008  0.3841604E+03  0.7957747E-01  0.3433241E+00
         13   -1    0    0    0    0  0.00000000000E+00  0.00000000000E+00  0.14999999963E+04  0.15000000000E+04  0.10566000000E+00 0. -1.
        994   -1    0    0    0    0 -0.00000000000E+00 -0.00000000000E+00  0.11368683772E-12  0.17120000000E+03  0.17120000000E+03 0.  0.
         13    1    1    2    0    0  0.17230159098E+02  0.10408734674E-01  0.69274089894E+02  0.71384796600E+02  0.10566000000E+00 0. -1.
        994    1    1    2    0    0 -0.18352160057E+02 -0.16129840421E+02  0.40186407089E+01  0.17298139496E+03  0.17120000000E+03 0.  0.
        998    1    1    2    0    0  0.11220009590E+01  0.16119431686E+02  0.14267072657E+04  0.14268338084E+04  0.10000000000E+02 0. -1.
</event>
<event>
 5    1  0.1344348E-008  0.3828120E+03  0.7957747E-01  0.3439005E+00
         13   -1    0    0    0    0  0.00000000000E+00  0.00000000000E+00  0.14999999963E+04  0.15000000000E+04  0.10566000000E+00 0. -1.
        994   -1    0    0    0    0 -0.00000000000E+00 -0.00000000000E+00  0.11368683772E-12  0.17120000000E+03  0.17120000000E+03 0.  0.
         13    1    1    2    0    0 -0.23920000102E+02 -0.58701863431E+01  0.11882095107E+03  0.12134683791E+03  0.10566000000E+00 0. -1.
        994    1    1    2    0    0  0.38222457134E+01  0.41982236217E+01  0.28271288326E+01  0.17131744599E+03  0.17120000000E+03 0.  0.
        998    1    1    2    0    0  0.20097754388E+02  0.16719627214E+01  0.13783519164E+04  0.13785357161E+04  0.10000000000E+02 0. -1.
</event>
<event>
 5    1  0.1344348E-008  0.3731358E+03  0.7957747E-01  0.3481602E+00
         13   -1    0    0    0    0  0.00000000000E+00  0.00000000000E+00  0.14999999963E+04  0.15000000000E+04  0.10566000000E+00 0.  1.
        994   -1    0    0    0    0 -0.00000000000E+00 -0.00000000000E+00  0.11368683772E-12  0.17120000000E+03  0.17120000000E+03 0.  0.
         13    1    1    2    0    0 -0.33776642065E+02 -0.91860875888E+01  0.74749567655E+02  0.82539413513E+02  0.10566000000E+00 0.  1.
        994    1    1    2    0    0  0.27169633289E+02  0.22070168446E+02  0.11842050567E+02  0.17514267176E+03  0.17120000000E+03 0.  0.
        998    1    1    2    0    0  0.66070087759E+01 -0.12884080857E+02  0.14134083781E+04  0.14135179147E+04  0.10000000000E+02 0.  1.
</event>
<event>
 5    1  0.1344348E-008  0.3740240E+03  0.7957747E-01  0.3477599E+00
         13   -1    0    0    0    0  0.00000000000E+00  0.00000000000E+00  0.14999999963E+04  0.15000000000E+04  0.10566000000E+00 0. -1.
        994   -1    0    0    0    0 -0.00000000000E+00 -0.00000000000E+00  0.11368683772E-12  0.17120000000E+03  0.17120000000E+03 0.  0.
         13    1    1    2    0    0 -0.38741177755E+02  0.10490463871E+03  0.46723972341E+03  0.48043608562E+03  0.10566000000E+00 0. -1.
        994    1    1    2    0    0  0.35675478312E+02 -0.58670114421E+02  0.29996140831E+02  0.18687998968E+03  0.17120000000E+03 0.  0.
        998    1    1    2    0    0  0.30656994424E+01 -0.46234524290E+02  0.10027641320E+04  0.10038839247E+04  0.10000000000E+02 0. -1.
</event>
<event>
 5    1  0.1344348E-008  0.3798732E+03  0.7957747E-01  0.3451711E+00
         13   -1    0    0    0    0  0.00000000000E+00  0.00000000000E+00  0.14999999963E+04  0.15000000000E+04  0.10566000000E+00 0.  1.
        994   -1    0    0    0    0 -0.00000000000E+00 -0.00000000000E+00  0.11368683772E-12  0.17120000000E+03  0.17120000000E+03 0.  0.
         13    1    1    2    0    0 -0.67742086755E+02 -0.11940795319E+03  0.81825363179E+03  0.82969046439E+03  0.10566000000E+00 0.  1.
        994    1    1    2    0    0  0.76274873015E+02  0.12195014346E+03  0.76816649043E+02  0.23643166310E+03  0.17120000000E+03 0.  0.
        998    1    1    2    0    0 -0.85327862592E+01 -0.25421902758E+01  0.60492971545E+03  0.60507787251E+03  0.10000000000E+02 0.  1.
</event>
<event>
 5    1  0.1344348E-008  0.3801337E+03  0.7957747E-01  0.3450576E+00
         13   -1    0    0    0    0  0.00000000000E+00  0.00000000000E+00  0.14999999963E+04  0.15000000000E+04  0.10566000000E+00 0. -1.
        994   -1    0    0    0    0 -0.00000000000E+00 -0.00000000000E+00  0.11368683772E-12  0.17120000000E+03  0.17120000000E+03 0.  0.
         13    1    1    2    0    0  0.46343405588E+02 -0.52749588986E+02  0.13544151270E+03  0.15256029924E+03  0.10566000000E+00 0. -1.
        994    1    1    2    0    0 -0.40480546112E+02  0.50042820137E+02  0.31577858855E+02  0.18560592563E+03  0.17120000000E+03 0.  0.
        998    1    1    2    0    0 -0.58628594765E+01  0.27067688488E+01  0.13329806247E+04  0.13330337751E+04  0.10000000000E+02 0. -1.
</event>
<event>
 5    1  0.1344348E-008  0.3857965E+03  0.7957747E-01  0.3426301E+00
         13   -1    0    0    0    0  0.00000000000E+00  0.00000000000E+00  0.14999999963E+04  0.15000000000E+04  0.10566000000E+00 0.  1.
        994   -1    0    0    0    0 -0.00000000000E+00 -0.00000000000E+00  0.11368683772E-12  0.17120000000E+03  0.17120000000E+03 0.  0.
         13    1    1    2    0    0  0.12736190127E+02  0.15363432321E+00  0.67232450127E+02  0.68428412641E+02  0.10566000000E+00 0.  1.
        994    1    1    2    0    0 -0.64695945997E+01 -0.94506310784E+01  0.16655596322E+01  0.17159074617E+03  0.17120000000E+03 0.  0.
        998    1    1    2    0    0 -0.62665955277E+01  0.92969967552E+01  0.14311019865E+04  0.14311808412E+04  0.10000000000E+02 0.  1.
</event>
<event>
 5    1  0.1344348E-008  0.3844491E+03  0.7957747E-01  0.3432012E+00
         13   -1    0    0    0    0  0.00000000000E+00  0.00000000000E+00  0.14999999963E+04  0.15000000000E+04  0.10566000000E+00 0.  1.
        994   -1    0    0    0    0 -0.00000000000E+00 -0.00000000000E+00  0.11368683772E-12  0.17120000000E+03  0.17120000000E+03 0.  0.
         13    1    1    2    0    0 -0.67401142023E+01 -0.12838266459E+02  0.58734698890E+02  0.60498150739E+02  0.10566000000E+00 0.  1.
        994    1    1    2    0    0 -0.32501784095E+01 -0.75621050317E+00  0.19405663734E+01  0.17124351466E+03  0.17120000000E+03 0.  0.
        998    1    1    2    0    0  0.99902926118E+01  0.13594476962E+02  0.14393247310E+04  0.14394583346E+04  0.10000000000E+02 0.  1.
</event>
<event>
 5    1  0.1344348E-008  0.3808511E+03  0.7957747E-01  0.3447461E+00
         13   -1    0    0    0    0  0.00000000000E+00  0.00000000000E+00  0.14999999963E+04  0.15000000000E+04  0.10566000000E+00 0.  1.
        994   -1    0    0    0    0 -0.00000000000E+00 -0.00000000000E+00  0.11368683772E-12  0.17120000000E+03  0.17120000000E+03 0.  0.
         13    1    1    2    0    0 -0.12557940089E+02 -0.60338396048E+01  0.25234560454E+02  0.28825393058E+02  0.10566000000E+00 0.  1.
        994    1    1    2    0    0  0.14158963209E+01  0.35581097413E+01  0.37530437697E+01  0.17128394626E+03  0.17120000000E+03 0.  0.
        998    1    1    2    0    0  0.11142043768E+02  0.24757298634E+01  0.14710123921E+04  0.14710906607E+04  0.10000000000E+02 0.  1.
</event>
<event>
 5    1  0.1344348E-008  0.3732440E+03  0.7957747E-01  0.3481114E+00
         13   -1    0    0    0    0  0.00000000000E+00  0.00000000000E+00  0.14999999963E+04  0.15000000000E+04  0.10566000000E+00 0.  1.
        994   -1    0    0    0    0 -0.00000000000E+00 -0.00000000000E+00  0.11368683772E-12  0.17120000000E+03  0.17120000000E+03 0.  0.
         13    1    1    2    0    0 -0.20096950814E+03  0.66239173082E+02  0.12203457290E+04  0.12385556430E+04  0.10566000000E+00 0.  1.
        994    1    1    2    0    0  0.19893061712E+03 -0.49975818551E+02  0.15991006663E+03  0.31137058673E+03  0.17120000000E+03 0.  0.
        998    1    1    2    0    0  0.20388910161E+01 -0.16263354531E+02  0.11974420065E+03  0.12127377031E+03  0.10000000000E+02 0.  1.
</event>
<event>
 5    1  0.1344348E-008  0.2929693E+03  0.7957747E-01  0.3947526E+00
         13   -1    0    0    0    0  0.00000000000E+00  0.00000000000E+00  0.14999999963E+04  0.15000000000E+04  0.10566000000E+00 0. -1.
        994   -1    0    0    0    0 -0.00000000000E+00 -0.00000000000E+00  0.11368683772E-12  0.17120000000E+03  0.17120000000E+03 0.  0.
         13    1    1    2    0    0 -0.95334178796E+02 -0.15229721753E+03  0.61069314580E+03  0.63657613654E+03  0.10566000000E+00 0. -1.
        994    1    1    2    0    0  0.80894204097E+02  0.14953581134E+03  0.12803281918E+03  0.27314222287E+03  0.17120000000E+03 0.  0.
        998    1    1    2    0    0  0.14439974699E+02  0.27614061932E+01  0.76127403129E+03  0.76148164059E+03  0.10000000000E+02 0.  1.
</event>
<event>
 5    1  0.1344348E-008  0.3832426E+03  0.7957747E-01  0.3437160E+00
         13   -1    0    0    0    0  0.00000000000E+00  0.00000000000E+00  0.14999999963E+04  0.15000000000E+04  0.10566000000E+00 0. -1.
        994   -1    0    0    0    0 -0.00000000000E+00 -0.00000000000E+00  0.11368683772E-12  0.17120000000E+03  0.17120000000E+03 0.  0.
         13    1    1    2    0    0 -0.54233248844E+01 -0.18125995525E+02  0.72439549427E+02  0.74869644394E+02  0.10566000000E+00 0. -1.
        994    1    1    2    0    0  0.71899627838E+01  0.61053296228E+01  0.27994862792E+01  0.17148249980E+03  0.17120000000E+03 0.  0.
        998    1    1    2    0    0 -0.17666378994E+01  0.12020665902E+02  0.14247609606E+04  0.14248478558E+04  0.10000000000E+02 0. -1.
</event>
<event>
 5    1  0.1344348E-008  0.3764790E+03  0.7957747E-01  0.3466634E+00
         13   -1    0    0    0    0  0.00000000000E+00  0.00000000000E+00  0.14999999963E+04  0.15000000000E+04  0.10566000000E+00 0. -1.
        994   -1    0    0    0    0 -0.00000000000E+00 -0.00000000000E+00  0.11368683772E-12  0.17120000000E+03  0.17120000000E+03 0.  0.
         13    1    1    2    0    0 -0.34445723874E+02  0.64545795638E+02  0.31934554421E+03  0.32761907056E+03  0.10566000000E+00 0. -1.
        994    1    1    2    0    0  0.35580167622E+02 -0.77725075208E+02  0.31050571255E+02  0.19385745696E+03  0.17120000000E+03 0.  0.
        998    1    1    2    0    0 -0.11344437489E+01  0.13179279569E+02  0.11496038808E+04  0.11497234725E+04  0.10000000000E+02 0. -1.
</event>
<event>
 5    1  0.1344348E-008  0.3822180E+03  0.7957747E-01  0.3441557E+00
         13   -1    0    0    0    0  0.00000000000E+00  0.00000000000E+00  0.14999999963E+04  0.15000000000E+04  0.10566000000E+00 0.  1.
        994   -1    0    0    0    0 -0.00000000000E+00 -0.00000000000E+00  0.11368683772E-12  0.17120000000E+03  0.17120000000E+03 0.  0.
         13    1    1    2    0    0  0.14288181153E+02 -0.49316197955E+02  0.68000326974E+02  0.85207365491E+02  0.10566000000E+00 0.  1.
        994    1    1    2    0    0  0.10767871098E+02  0.45349173115E+02  0.25530156468E+02  0.17925881691E+03  0.17120000000E+03 0.  0.
        998    1    1    2    0    0 -0.25056052251E+02  0.39670248396E+01  0.14064695128E+04  0.14067338176E+04  0.10000000000E+02 0.  1.
</event>
<event>
 5    1  0.1344348E-008  0.3852250E+03  0.7957747E-01  0.3428718E+00
         13   -1    0    0    0    0  0.00000000000E+00  0.00000000000E+00  0.14999999963E+04  0.15000000000E+04  0.10566000000E+00 0. -1.
        994   -1    0    0    0    0 -0.00000000000E+00 -0.00000000000E+00  0.11368683772E-12  0.17120000000E+03  0.17120000000E+03 0.  0.
         13    1    1    2    0    0  0.33564898310E+01  0.10091311599E+02  0.35547419325E+02  0.37104322909E+02  0.10566000000E+00 0. -1.
        994    1    1    2    0    0 -0.87330241782E+01 -0.14411328808E+02  0.24521438935E+01  0.17204477649E+03  0.17120000000E+03 0.  0.
        998    1    1    2    0    0  0.53765343472E+01  0.43200172090E+01  0.14620004331E+04  0.14620509006E+04  0.10000000000E+02 0. -1.
</event>
<event>
 5    1  0.1344348E-008  0.3750905E+03  0.7957747E-01  0.3472818E+00
         13   -1    0    0    0    0  0.00000000000E+00  0.00000000000E+00  0.14999999963E+04  0.15000000000E+04  0.10566000000E+00 0.  1.
        994   -1    0    0    0    0 -0.00000000000E+00 -0.00000000000E+00  0.11368683772E-12  0.17120000000E+03  0.17120000000E+03 0.  0.
         13    1    1    2    0    0 -0.13946821839E+02 -0.59987913935E+01  0.14419467137E+02  0.20938756748E+02  0.10566000000E+00 0.  1.
        994    1    1    2    0    0  0.77983002373E+01  0.12669022297E+02  0.73847004246E+01  0.17200375407E+03  0.17120000000E+03 0.  0.
        998    1    1    2    0    0  0.61485216015E+01 -0.66702309038E+01  0.14781958287E+04  0.14782574892E+04  0.10000000000E+02 0.  1.
</event>
<event>
 5    1  0.1344348E-008  0.3838945E+03  0.7957747E-01  0.3434374E+00
         13   -1    0    0    0    0  0.00000000000E+00  0.00000000000E+00  0.14999999963E+04  0.15000000000E+04  0.10566000000E+00 0. -1.
        994   -1    0    0    0    0 -0.00000000000E+00 -0.00000000000E+00  0.11368683772E-12  0.17120000000E+03  0.17120000000E+03 0.  0.
         13    1    1    2    0    0 -0.14195304743E+02 -0.39660769329E+01  0.51324918257E+02  0.53399389895E+02  0.10566000000E+00 0. -1.
        994    1    1    2    0    0 -0.83301702908E+00  0.98160737026E+01  0.25003859789E+01  0.17150143192E+03  0.17120000000E+03 0.  0.
        998    1    1    2    0    0  0.15028321772E+02 -0.58499967697E+01  0.14461746920E+04  0.14462991782E+04  0.10000000000E+02 0. -1.
</event>
<event>
 5    1  0.1344348E-008  0.3836836E+03  0.7957747E-01  0.3435274E+00
         13   -1    0    0    0    0  0.00000000000E+00  0.00000000000E+00  0.14999999963E+04  0.15000000000E+04  0.10566000000E+00 0.  1.
        994   -1    0    0    0    0 -0.00000000000E+00 -0.00000000000E+00  0.11368683772E-12  0.17120000000E+03  0.17120000000E+03 0.  0.
         13    1    1    2    0    0 -0.21198870332E+03 -0.72118251159E+01  0.11653341787E+04  0.11844808905E+04  0.10566000000E+00 0.  1.
        994    1    1    2    0    0  0.21276063493E+03  0.69935467862E+01  0.17001216533E+03  0.32176011846E+03  0.17120000000E+03 0.  0.
        998    1    1    2    0    0 -0.77193161084E+00  0.21827832979E+00  0.16465365228E+03  0.16495899106E+03  0.10000000000E+02 0.  1.
</event>
<event>
 5    1  0.1344348E-008  0.2468083E+03  0.7957747E-01  0.4368386E+00
         13   -1    0    0    0    0  0.00000000000E+00  0.00000000000E+00  0.14999999963E+04  0.15000000000E+04  0.10566000000E+00 0.  1.
        994   -1    0    0    0    0 -0.00000000000E+00 -0.00000000000E+00  0.11368683772E-12  0.17120000000E+03  0.17120000000E+03 0.  0.
         13    1    1    2    0    0  0.72019403697E+02 -0.13891933769E+03  0.55957501445E+03  0.58104180990E+03  0.10566000000E+00 0.  1.
        994    1    1    2    0    0 -0.97342932771E+01 -0.24240773470E+02  0.46551849333E+02  0.17932898885E+03  0.17120000000E+03 0.  0.
        998    1    1    2    0    0 -0.62285110420E+02  0.16316011116E+03  0.89387313250E+03  0.91082920125E+03  0.10000000000E+02 0.  1.
</event>
<event>
 5    1  0.1344348E-008  0.3833282E+03  0.7957747E-01  0.3436793E+00
         13   -1    0    0    0    0  0.00000000000E+00  0.00000000000E+00  0.14999999963E+04  0.15000000000E+04  0.10566000000E+00 0.  1.
        994   -1    0    0    0    0 -0.00000000000E+00 -0.00000000000E+00  0.11368683772E-12  0.17120000000E+03  0.17120000000E+03 0.  0.
         13    1    1    2    0    0 -0.11525256365E+02 -0.15433795950E+01  0.27177230255E+02  0.29560557559E+02  0.10566000000E+00 0.  1.
        994    1    1    2    0    0  0.25977469182E+01 -0.16685386421E+01  0.24939378880E+01  0.17124599860E+03  0.17120000000E+03 0.  0.
        998    1    1    2    0    0  0.89275094464E+01  0.32119182371E+01  0.14703288281E+04  0.14703934438E+04  0.10000000000E+02 0.  1.
</event>
<event>
 5    1  0.1344348E-008  0.3794228E+03  0.7957747E-01  0.3453675E+00
         13   -1    0    0    0    0  0.00000000000E+00  0.00000000000E+00  0.14999999963E+04  0.15000000000E+04  0.10566000000E+00 0.  1.
        994   -1    0    0    0    0 -0.00000000000E+00 -0.00000000000E+00  0.11368683772E-12  0.17120000000E+03  0.17120000000E+03 0.  0.
         13    1    1    2    0    0  0.16625052942E+02  0.47571141531E+01  0.31015685815E+02  0.35510652641E+02  0.10566000000E+00 0.  1.
        994    1    1    2    0    0 -0.20358345022E+02 -0.96918516338E+01  0.61293920502E+01  0.17278716285E+03  0.17120000000E+03 0.  0.
        998    1    1    2    0    0  0.37332920804E+01  0.49347374808E+01  0.14628549184E+04  0.14629021845E+04  0.10000000000E+02 0.  1.
</event>
<event>
 5    1  0.1344348E-008  0.3814660E+03  0.7957747E-01  0.3444800E+00
         13   -1    0    0    0    0  0.00000000000E+00  0.00000000000E+00  0.14999999963E+04  0.15000000000E+04  0.10566000000E+00 0.  1.
        994   -1    0    0    0    0 -0.00000000000E+00 -0.00000000000E+00  0.11368683772E-12  0.17120000000E+03  0.17120000000E+03 0.  0.
         13    1    1    2    0    0  0.23310375164E+02  0.18023547356E+02  0.17172303322E+03  0.17423269829E+03  0.10566000000E+00 0.  1.
        994    1    1    2    0    0  0.18032125573E+02  0.11165556382E+02  0.48928537894E+01  0.17257811918E+03  0.17120000000E+03 0.  0.
        998    1    1    2    0    0 -0.41342500736E+02 -0.29189103737E+02  0.13233841093E+04  0.13243891825E+04  0.10000000000E+02 0.  1.
</event>
<event>
 5    1  0.1344348E-008  0.3844182E+03  0.7957747E-01  0.3432143E+00
         13   -1    0    0    0    0  0.00000000000E+00  0.00000000000E+00  0.14999999963E+04  0.15000000000E+04  0.10566000000E+00 0.  1.
        994   -1    0    0    0    0 -0.00000000000E+00 -0.00000000000E+00  0.11368683772E-12  0.17120000000E+03  0.17120000000E+03 0.  0.
         13    1    1    2    0    0  0.94736116582E+01 -0.16405408947E+02  0.10533152804E+03  0.10702162737E+03  0.10566000000E+00 0.  1.
        994    1    1    2    0    0 -0.44854075427E+01 -0.70174546886E+01  0.21478241174E+01  0.17141591729E+03  0.17120000000E+03 0.  0.
        998    1    1    2    0    0 -0.49882041155E+01  0.23422863636E+02  0.13925206441E+04  0.13927624553E+04  0.10000000000E+02 0.  1.
</event>
<event>
 5    1  0.1344348E-008  0.3850910E+03  0.7957747E-01  0.3429286E+00
         13   -1    0    0    0    0  0.00000000000E+00  0.00000000000E+00  0.14999999963E+04  0.15000000000E+04  0.10566000000E+00 0.  1.
        994   -1    0    0    0    0 -0.00000000000E+00 -0.00000000000E+00  0.11368683772E-12  0.17120000000E+03  0.17120000000E+03 0.  0.
         13    1    1    2    0    0 -0.17200213202E+02  0.52806208722E+01  0.10516651638E+03  0.10669460915E+03  0.10566000000E+00 0.  1.
        994    1    1    2    0    0  0.81682120131E+01 -0.83703798051E+00  0.18066615944E+01  0.17140631361E+03  0.17120000000E+03 0.  0.
        998    1    1    2    0    0  0.90320011886E+01 -0.44435828917E+01  0.13930268183E+04  0.13930990772E+04  0.10000000000E+02 0.  1.
</event>
<event>
 5    1  0.1344348E-008  0.2377090E+03  0.7957747E-01  0.4473859E+00
         13   -1    0    0    0    0  0.00000000000E+00  0.00000000000E+00  0.14999999963E+04  0.15000000000E+04  0.10566000000E+00 0. -1.
        994   -1    0    0    0    0 -0.00000000000E+00 -0.00000000000E+00  0.11368683772E-12  0.17120000000E+03  0.17120000000E+03 0.  0.
         13    1    1    2    0    0  0.81202877056E+02  0.16912322883E+03  0.38164226012E+03  0.42526156615E+03  0.10566000000E+00 0. -1.
        994    1    1    2    0    0 -0.83640619268E+02 -0.30083665650E+02  0.98495876027E+02  0.21659099179E+03  0.17120000000E+03 0.  0.
        998    1    1    2    0    0  0.24377422122E+01 -0.13903956318E+03  0.10198618601E+04  0.10293474421E+04  0.10000000000E+02 0. -1.
</event>
<event>
 5    1  0.1344348E-008  0.3829682E+03  0.7957747E-01  0.3438335E+00
         13   -1    0    0    0    0  0.00000000000E+00  0.00000000000E+00  0.14999999963E+04  0.15000000000E+04  0.10566000000E+00 0. -1.
        994   -1    0    0    0    0 -0.00000000000E+00 -0.00000000000E+00  0.11368683772E-12  0.17120000000E+03  0.17120000000E+03 0.  0.
         13    1    1    2    0    0 -0.14137907354E+02  0.19466323466E+02  0.97608354337E+02  0.10052969797E+03  0.10566000000E+00 0. -1.
        994    1    1    2    0    0  0.25877677645E+02 -0.21601157443E+02  0.64129327956E+01  0.17460478204E+03  0.17120000000E+03 0.  0.
        998    1    1    2    0    0 -0.11739770291E+02  0.21348339776E+01  0.13959787091E+04  0.13960655200E+04  0.10000000000E+02 0. -1.
</event>
<event>
 5    1  0.1344348E-008  0.3703137E+03  0.7957747E-01  0.3494450E+00
         13   -1    0    0    0    0  0.00000000000E+00  0.00000000000E+00  0.14999999963E+04  0.15000000000E+04  0.10566000000E+00 0.  1.
        994   -1    0    0    0    0 -0.00000000000E+00 -0.00000000000E+00  0.11368683772E-12  0.17120000000E+03  0.17120000000E+03 0.  0.
         13    1    1    2    0    0 -0.91250135249E+01 -0.52223496595E+01  0.17927769537E+01  0.10666021800E+02  0.10566000000E+00 0.  1.
        994    1    1    2    0    0  0.10312736488E+02  0.43399941519E+01  0.95376995258E+01  0.17183013646E+03  0.17120000000E+03 0.  0.
        998    1    1    2    0    0 -0.11877229628E+01  0.88235550761E+00  0.14886695198E+04  0.14887038417E+04  0.10000000000E+02 0.  1.
</event>
<event>
 5    1  0.1344348E-008  0.3790360E+03  0.7957747E-01  0.3455367E+00
         13   -1    0    0    0    0  0.00000000000E+00  0.00000000000E+00  0.14999999963E+04  0.15000000000E+04  0.10566000000E+00 0.  1.
        994   -1    0    0    0    0 -0.00000000000E+00 -0.00000000000E+00  0.11368683772E-12  0.17120000000E+03  0.17120000000E+03 0.  0.
         13    1    1    2    0    0  0.21579994549E+02 -0.35929065943E+01  0.58369529481E+02  0.62334727707E+02  0.10566000000E+00 0.  1.
        994    1    1    2    0    0  0.26612040668E+02  0.47710943925E+01  0.70758105887E+01  0.17346605185E+03  0.17120000000E+03 0.  0.
        998    1    1    2    0    0 -0.48192035217E+02 -0.11781877982E+01  0.14345546562E+04  0.14353992204E+04  0.10000000000E+02 0.  1.
</event>
<event>
 5    1  0.1344348E-008  0.3732574E+03  0.7957747E-01  0.3481053E+00
         13   -1    0    0    0    0  0.00000000000E+00  0.00000000000E+00  0.14999999963E+04  0.15000000000E+04  0.10566000000E+00 0.  1.
        994   -1    0    0    0    0 -0.00000000000E+00 -0.00000000000E+00  0.11368683772E-12  0.17120000000E+03  0.17120000000E+03 0.  0.
         13    1    1    2    0    0  0.24654557922E+02  0.37105658453E+02  0.17262237813E+03  0.17827836019E+03  0.10566000000E+00 0.  1.
        994    1    1    2    0    0  0.18976571596E+02  0.20765106173E+02  0.10286767835E+02  0.17380033802E+03  0.17120000000E+03 0.  0.
        998    1    1    2    0    0 -0.43631129518E+02 -0.57870764626E+02  0.13170908503E+04  0.13191213018E+04  0.10000000000E+02 0.  1.
</event>
<event>
 5    1  0.1344348E-008  0.3763763E+03  0.7957747E-01  0.3467090E+00
         13   -1    0    0    0    0  0.00000000000E+00  0.00000000000E+00  0.14999999963E+04  0.15000000000E+04  0.10566000000E+00 0. -1.
        994   -1    0    0    0    0 -0.00000000000E+00 -0.00000000000E+00  0.11368683772E-12  0.17120000000E+03  0.17120000000E+03 0.  0.
         13    1    1    2    0    0 -0.23398608953E+02 -0.29501559450E+02  0.13022828285E+03  0.13556272987E+03  0.10566000000E+00 0. -1.
        994    1    1    2    0    0  0.12583359014E+02 -0.87628606430E+01  0.67695994095E+01  0.17201859239E+03  0.17120000000E+03 0.  0.
        998    1    1    2    0    0  0.10815249939E+02  0.38264420094E+02  0.13630021140E+04  0.13636186777E+04  0.10000000000E+02 0. -1.
</event>
<event>
 5    1  0.1344348E-008  0.3857822E+03  0.7957747E-01  0.3426361E+00
         13   -1    0    0    0    0  0.00000000000E+00  0.00000000000E+00  0.14999999963E+04  0.15000000000E+04  0.10566000000E+00 0.  1.
        994   -1    0    0    0    0 -0.00000000000E+00 -0.00000000000E+00  0.11368683772E-12  0.17120000000E+03  0.17120000000E+03 0.  0.
         13    1    1    2    0    0  0.10848362013E+02  0.75767584716E+01  0.66332512729E+02  0.67639541958E+02  0.10566000000E+00 0.  1.
        994    1    1    2    0    0 -0.13889822992E+02 -0.12191239818E+02  0.23634858176E+01  0.17221085789E+03  0.17120000000E+03 0.  0.
        998    1    1    2    0    0  0.30414609794E+01  0.46144813469E+01  0.14313039977E+04  0.14313496001E+04  0.10000000000E+02 0.  1.
</event>
<event>
 5    1  0.1344348E-008  0.3782153E+03  0.7957747E-01  0.3458966E+00
         13   -1    0    0    0    0  0.00000000000E+00  0.00000000000E+00  0.14999999963E+04  0.15000000000E+04  0.10566000000E+00 0. -1.
        994   -1    0    0    0    0 -0.00000000000E+00 -0.00000000000E+00  0.11368683772E-12  0.17120000000E+03  0.17120000000E+03 0.  0.
         13    1    1    2    0    0  0.59931127401E+02  0.56306794016E+02  0.23593758495E+03  0.24985745984E+03  0.10566000000E+00 0. -1.
        994    1    1    2    0    0 -0.83579847166E+02  0.38090624390E+02  0.46387341984E+02  0.19974411635E+03  0.17120000000E+03 0.  0.
        998    1    1    2    0    0  0.23648719765E+02 -0.94397418406E+02  0.12176750693E+04  0.12215984238E+04  0.10000000000E+02 0. -1.
</event>
<event>
 5    1  0.1344348E-008  0.3770659E+03  0.7957747E-01  0.3464035E+00
         13   -1    0    0    0    0  0.00000000000E+00  0.00000000000E+00  0.14999999963E+04  0.15000000000E+04  0.10566000000E+00 0. -1.
        994   -1    0    0    0    0 -0.00000000000E+00 -0.00000000000E+00  0.11368683772E-12  0.17120000000E+03  0.17120000000E+03 0.  0.
         13    1    1    2    0    0  0.56951463522E+02  0.43309714814E+02  0.42313457008E+03  0.42914109120E+03  0.10566000000E+00 0. -1.
        994    1    1    2    0    0 -0.37825503675E+02 -0.29082616576E+02  0.13345508233E+02  0.17822488576E+03  0.17120000000E+03 0.  0.
        998    1    1    2    0    0 -0.19125959847E+02 -0.14227098238E+02  0.10635199180E+04  0.10638340230E+04  0.10000000000E+02 0. -1.
</event>
<event>
 5    1  0.1344348E-008  0.3812492E+03  0.7957747E-01  0.3445737E+00
         13   -1    0    0    0    0  0.00000000000E+00  0.00000000000E+00  0.14999999963E+04  0.15000000000E+04  0.10566000000E+00 0.  1.
        994   -1    0    0    0    0 -0.00000000000E+00 -0.00000000000E+00  0.11368683772E-12  0.17120000000E+03  0.17120000000E+03 0.  0.
         13    1    1    2    0    0  0.19776929627E+01  0.17023980664E+02  0.44532799008E+02  0.47716962798E+02  0.10566000000E+00 0.  1.
        994    1    1    2    0    0  0.14442098646E+02  0.10862270265E+02  0.45918053375E+01  0.17221233349E+03  0.17120000000E+03 0.  0.
        998    1    1    2    0    0 -0.16419791608E+02 -0.27886250929E+02  0.14508753919E+04  0.14512707037E+04  0.10000000000E+02 0.  1.
</event>
<event>
 5    1  0.1344348E-008  0.3861254E+03  0.7957747E-01  0.3424913E+00
         13   -1    0    0    0    0  0.00000000000E+00  0.00000000000E+00  0.14999999963E+04  0.15000000000E+04  0.10566000000E+00 0.  1.
        994   -1    0    0    0    0 -0.00000000000E+00 -0.00000000000E+00  0.11368683772E-12  0.17120000000E+03  0.17120000000E+03 0.  0.
         13    1    1    2    0    0  0.39172985330E+01  0.93142173353E+01  0.44883448630E+02  0.46006901627E+02  0.10566000000E+00 0.  1.
        994    1    1    2    0    0 -0.51838738533E+02 -0.94918367036E+00  0.99306902633E+01  0.17915416370E+03  0.17120000000E+03 0.  0.
        998    1    1    2    0    0  0.47921440000E+02 -0.83650336650E+01  0.14451858574E+04  0.14460389347E+04  0.10000000000E+02 0.  1.
</event>
<event>
 5    1  0.1344348E-008  0.3841220E+03  0.7957747E-01  0.3433404E+00
         13   -1    0    0    0    0  0.00000000000E+00  0.00000000000E+00  0.14999999963E+04  0.15000000000E+04  0.10566000000E+00 0. -1.
        994   -1    0    0    0    0 -0.00000000000E+00 -0.00000000000E+00  0.11368683772E-12  0.17120000000E+03  0.17120000000E+03 0.  0.
         13    1    1    2    0    0  0.59037930104E+01  0.12076549890E+02  0.43280394047E+02  0.45319990093E+02  0.10566000000E+00 0. -1.
        994    1    1    2    0    0 -0.16659572428E+02 -0.19184048788E+01  0.29946927472E+01  0.17204542951E+03  0.17120000000E+03 0.  0.
        998    1    1    2    0    0  0.10755779418E+02 -0.10158145011E+02  0.14537249095E+04  0.14538345804E+04  0.10000000000E+02 0. -1.
</event>
<event>
 5    1  0.1344348E-008  0.3781549E+03  0.7957747E-01  0.3459232E+00
         13   -1    0    0    0    0  0.00000000000E+00  0.00000000000E+00  0.14999999963E+04  0.15000000000E+04  0.10566000000E+00 0. -1.
        994   -1    0    0    0    0 -0.00000000000E+00 -0.00000000000E+00  0.11368683772E-12  0.17120000000E+03  0.17120000000E+03 0.  0.
         13    1    1    2    0    0  0.37026495323E+02  0.19608243635E+02  0.18785184903E+03  0.19246758928E+03  0.10566000000E+00 0. -1.
        994    1    1    2    0    0 -0.71184250347E+01 -0.91001762912E+01  0.55165407635E+01  0.17167806326E+03  0.17120000000E+03 0.  0.
        998    1    1    2    0    0 -0.29908070289E+02 -0.10508067344E+02  0.13066316065E+04  0.13070543475E+04  0.10000000000E+02 0. -1.
</event>
<event>
 5    1  0.1344348E-008  0.3789822E+03  0.7957747E-01  0.3455602E+00
         13   -1    0    0    0    0  0.00000000000E+00  0.00000000000E+00  0.14999999963E+04  0.15000000000E+04  0.10566000000E+00 0. -1.
        994   -1    0    0    0    0 -0.00000000000E+00 -0.00000000000E+00  0.11368683772E-12  0.17120000000E+03  0.17120000000E+03 0.  0.
         13    1    1    2    0    0  0.36763420816E+02  0.21049594361E+02  0.49767412540E+02  0.65356262499E+02  0.10566000000E+00 0. -1.
        994    1    1    2    0    0 -0.91928777625E+00 -0.72369540528E+02  0.34931745163E+02  0.18912393372E+03  0.17120000000E+03 0.  0.
        998    1    1    2    0    0 -0.35844133040E+02  0.51319946166E+02  0.14153008386E+04  0.14167198038E+04  0.10000000000E+02 0. -1.
</event>
<event>
 5    1  0.1344348E-008  0.3800219E+03  0.7957747E-01  0.3451063E+00
         13   -1    0    0    0    0  0.00000000000E+00  0.00000000000E+00  0.14999999963E+04  0.15000000000E+04  0.10566000000E+00 0.  1.
        994   -1    0    0    0    0 -0.00000000000E+00 -0.00000000000E+00  0.11368683772E-12  0.17120000000E+03  0.17120000000E+03 0.  0.
         13    1    1    2    0    0 -0.11367962275E+02  0.38077546828E+02  0.21460590102E+03  0.21825405851E+03  0.10566000000E+00 0.  1.
        994    1    1    2    0    0  0.63938500092E+00 -0.76754449644E+01  0.43203925008E+01  0.17142761464E+03  0.17120000000E+03 0.  0.
        998    1    1    2    0    0  0.10728577274E+02 -0.30402101864E+02  0.12810737028E+04  0.12815183269E+04  0.10000000000E+02 0.  1.
</event>
<event>
 5    1  0.1344348E-008  0.3846664E+03  0.7957747E-01  0.3431088E+00
         13   -1    0    0    0    0  0.00000000000E+00  0.00000000000E+00  0.14999999963E+04  0.15000000000E+04  0.10566000000E+00 0. -1.
        994   -1    0    0    0    0 -0.00000000000E+00 -0.00000000000E+00  0.11368683772E-12  0.17120000000E+03  0.17120000000E+03 0.  0.
         13    1    1    2    0    0  0.44289711192E+01  0.14803006727E+02  0.69328480445E+02  0.71029530184E+02  0.10566000000E+00 0. -1.
        994    1    1    2    0    0 -0.73203239993E+01 -0.10780544026E+01  0.19761081841E+01  0.17137121797E+03  0.17120000000E+03 0.  0.
        998    1    1    2    0    0  0.28913528801E+01 -0.13724952325E+02  0.14286954076E+04  0.14287992518E+04  0.10000000000E+02 0. -1.
</event>
<event>
 5    1  0.1344348E-008  0.3711967E+03  0.7957747E-01  0.3490409E+00
         13   -1    0    0    0    0  0.00000000000E+00  0.00000000000E+00  0.14999999963E+04  0.15000000000E+04  0.10566000000E+00 0.  1.
        994   -1    0    0    0    0 -0.00000000000E+00 -0.00000000000E+00  0.11368683772E-12  0.17120000000E+03  0.17120000000E+03 0.  0.
         13    1    1    2    0    0  0.14989065539E+02 -0.14041854758E+02  0.21946179559E+02  0.30058139198E+02  0.10566000000E+00 0.  1.
        994    1    1    2    0    0  0.20795490307E+02  0.72301106696E+01  0.10315826233E+02  0.17291785098E+03  0.17120000000E+03 0.  0.
        998    1    1    2    0    0 -0.35784555846E+02  0.68117440880E+01  0.14677379905E+04  0.14682240098E+04  0.10000000000E+02 0.  1.
</event>
<event>
 5    1  0.1344348E-008  0.3844356E+03  0.7957747E-01  0.3432070E+00
         13   -1    0    0    0    0  0.00000000000E+00  0.00000000000E+00  0.14999999963E+04  0.15000000000E+04  0.10566000000E+00 0.  1.
        994   -1    0    0    0    0 -0.00000000000E+00 -0.00000000000E+00  0.11368683772E-12  0.17120000000E+03  0.17120000000E+03 0.  0.
         13    1    1    2    0    0 -0.17997782639E+02  0.30400334866E+01  0.95565561354E+02  0.97293112113E+02  0.10566000000E+00 0.  1.
        994    1    1    2    0    0 -0.90709769248E+00  0.28618685340E+01  0.19403336709E+01  0.17123731490E+03  0.17120000000E+03 0.  0.
        998    1    1    2    0    0  0.18904880332E+02 -0.59019020206E+01  0.14024941013E+04  0.14026695730E+04  0.10000000000E+02 0.  1.
</event>
<event>
 5    1  0.1344348E-008  0.3885819E+03  0.7957747E-01  0.3414621E+00
         13   -1    0    0    0    0  0.00000000000E+00  0.00000000000E+00  0.14999999963E+04  0.15000000000E+04  0.10566000000E+00 0. -1.
        994   -1    0    0    0    0 -0.00000000000E+00 -0.00000000000E+00  0.11368683772E-12  0.17120000000E+03  0.17120000000E+03 0.  0.
         13    1    1    2    0    0  0.98233816014E+02 -0.25033234490E+02  0.30220059310E+03  0.31875030207E+03  0.10566000000E+00 0. -1.
        994    1    1    2    0    0 -0.27413169673E+01  0.47853920175E+02  0.29770304897E+02  0.18025876830E+03  0.17120000000E+03 0.  0.
        998    1    1    2    0    0 -0.95492499046E+02 -0.22820685684E+02  0.11680290983E+04  0.11721909296E+04  0.10000000000E+02 0. -1.
</event>
<event>
 5    1  0.1344348E-008  0.3826943E+03  0.7957747E-01  0.3439510E+00
         13   -1    0    0    0    0  0.00000000000E+00  0.00000000000E+00  0.14999999963E+04  0.15000000000E+04  0.10566000000E+00 0.  1.
        994   -1    0    0    0    0 -0.00000000000E+00 -0.00000000000E+00  0.11368683772E-12  0.17120000000E+03  0.17120000000E+03 0.  0.
         13    1    1    2    0    0  0.20198675667E+02 -0.32283741436E+01  0.77720636655E+02  0.80367390305E+02  0.10566000000E+00 0.  1.
        994    1    1    2    0    0 -0.52703640565E+01 -0.85334903051E+00  0.28736772837E+01  0.17130733482E+03  0.17120000000E+03 0.  0.
        998    1    1    2    0    0 -0.14928311611E+02  0.40817231741E+01  0.14194056823E+04  0.14195252749E+04  0.10000000000E+02 0.  1.
</event>
<event>
 5    1  0.1344348E-008  0.3842621E+03  0.7957747E-01  0.3432808E+00
         13   -1    0    0    0    0  0.00000000000E+00  0.00000000000E+00  0.14999999963E+04  0.15000000000E+04  0.10566000000E+00 0. -1.
        994   -1    0    0    0    0 -0.00000000000E+00 -0.00000000000E+00  0.11368683772E-12  0.17120000000E+03  0.17120000000E+03 0.  0.
         13    1    1    2    0    0  0.22402025868E+01  0.17785943814E+02  0.67841737981E+02  0.70170299139E+02  0.10566000000E+00 0. -1.
        994    1    1    2    0    0 -0.17287421963E+02 -0.38906358892E+02  0.79951007911E+01  0.17659536052E+03  0.17120000000E+03 0.  0.
        998    1    1    2    0    0  0.15047219376E+02  0.21120415079E+02  0.14241631575E+04  0.14244343403E+04  0.10000000000E+02 0. -1.
</event>
<event>
 5    1  0.1344348E-008  0.3852605E+03  0.7957747E-01  0.3428568E+00
         13   -1    0    0    0    0  0.00000000000E+00  0.00000000000E+00  0.14999999963E+04  0.15000000000E+04  0.10566000000E+00 0.  1.
        994   -1    0    0    0    0 -0.00000000000E+00 -0.00000000000E+00  0.11368683772E-12  0.17120000000E+03  0.17120000000E+03 0.  0.
         13    1    1    2    0    0 -0.16292402974E+02  0.57824989047E+01  0.92982790235E+02  0.94576371955E+02  0.10566000000E+00 0.  1.
        994    1    1    2    0    0  0.19423054723E+02 -0.57842029707E+01  0.28515948225E+01  0.17241891907E+03  0.17120000000E+03 0.  0.
        998    1    1    2    0    0 -0.31306517493E+01  0.17040660160E-02  0.14041656112E+04  0.14042047090E+04  0.10000000000E+02 0.  1.
</event>
<event>
 5    1  0.1344348E-008  0.3820865E+03  0.7957747E-01  0.3442124E+00
         13   -1    0    0    0    0  0.00000000000E+00  0.00000000000E+00  0.14999999963E+04  0.15000000000E+04  0.10566000000E+00 0. -1.
        994   -1    0    0    0    0 -0.00000000000E+00 -0.00000000000E+00  0.11368683772E-12  0.17120000000E+03  0.17120000000E+03 0.  0.
         13    1    1    2    0    0  0.11325954964E+01  0.14569822469E+02  0.34423135415E+02  0.37396870392E+02  0.10566000000E+00 0. -1.
        994    1    1    2    0    0 -0.12945661916E+00 -0.25094295858E+01  0.31045735741E+01  0.17124658354E+03  0.17120000000E+03 0.  0.
        998    1    1    2    0    0 -0.10031388773E+01 -0.12060392883E+02  0.14624722873E+04  0.14625565461E+04  0.10000000000E+02 0. -1.
</event>
<event>
 5    1  0.1344348E-008  0.3846830E+03  0.7957747E-01  0.3431018E+00
         13   -1    0    0    0    0  0.00000000000E+00  0.00000000000E+00  0.14999999963E+04  0.15000000000E+04  0.10566000000E+00 0.  1.
        994   -1    0    0    0    0 -0.00000000000E+00 -0.00000000000E+00  0.11368683772E-12  0.17120000000E+03  0.17120000000E+03 0.  0.
         13    1    1    2    0    0 -0.52856125378E+01  0.13196005812E+02  0.55415964961E+02  0.57210249134E+02  0.10566000000E+00 0.  1.
        994    1    1    2    0    0  0.70640436110E+01 -0.10529294738E+02  0.23170322856E+01  0.17168452289E+03  0.17120000000E+03 0.  0.
        998    1    1    2    0    0 -0.17784310732E+01 -0.26667110741E+01  0.14422669990E+04  0.14423052280E+04  0.10000000000E+02 0.  1.
</event>
<event>
 5    1  0.1344348E-008  0.3788863E+03  0.7957747E-01  0.3456022E+00
         13   -1    0    0    0    0  0.00000000000E+00  0.00000000000E+00  0.14999999963E+04  0.15000000000E+04  0.10566000000E+00 0. -1.
        994   -1    0    0    0    0 -0.00000000000E+00 -0.00000000000E+00  0.11368683772E-12  0.17120000000E+03  0.17120000000E+03 0.  0.
         13    1    1    2    0    0  0.24000877445E+01 -0.16701157066E+02  0.29400884752E+02  0.33898558329E+02  0.10566000000E+00 0. -1.
        994    1    1    2    0    0  0.11800732708E+01 -0.10299058866E+00  0.47010899585E+01  0.17126862943E+03  0.17120000000E+03 0.  0.
        998    1    1    2    0    0 -0.35801610153E+01  0.16804147655E+02  0.14658980216E+04  0.14660328122E+04  0.10000000000E+02 0. -1.
</event>
<event>
 5    1  0.1344348E-008  0.3826164E+03  0.7957747E-01  0.3439845E+00
         13   -1    0    0    0    0  0.00000000000E+00  0.00000000000E+00  0.14999999963E+04  0.15000000000E+04  0.10566000000E+00 0. -1.
        994   -1    0    0    0    0 -0.00000000000E+00 -0.00000000000E+00  0.11368683772E-12  0.17120000000E+03  0.17120000000E+03 0.  0.
         13    1    1    2    0    0 -0.23554544426E+02  0.15235746883E+02  0.14792265294E+03  0.15055918094E+03  0.10566000000E+00 0. -1.
        994    1    1    2    0    0  0.86957600541E+01 -0.18491689708E+01  0.30801706709E+01  0.17145834223E+03  0.17120000000E+03 0.  0.
        998    1    1    2    0    0  0.14858784372E+02 -0.13386577912E+02  0.13489971727E+04  0.13491824768E+04  0.10000000000E+02 0. -1.
</event>
<event>
 5    1  0.2663785E-008  0.3862626E+03  0.7957747E-01  0.3424335E+00
         13   -1    0    0    0    0  0.00000000000E+00  0.00000000000E+00  0.14999999963E+04  0.15000000000E+04  0.10566000000E+00 0.  1.
        994   -1    0    0    0    0 -0.00000000000E+00 -0.00000000000E+00  0.11368683772E-12  0.17120000000E+03  0.17120000000E+03 0.  0.
         13    1    1    2    0    0  0.94802386838E+01 -0.77603781492E+01  0.72559225157E+02  0.73586348693E+02  0.10566000000E+00 0.  1.
        994    1    1    2    0    0 -0.11379717407E+02  0.74052535457E+01  0.16085488956E+01  0.17174505285E+03  0.17120000000E+03 0.  0.
        998    1    1    2    0    0  0.18994787235E+01  0.35512460347E+00  0.14258322222E+04  0.14258685985E+04  0.10000000000E+02 0.  1.
</event>
<event>
 5    1  0.1344348E-008  0.3852879E+03  0.7957747E-01  0.3428452E+00
         13   -1    0    0    0    0  0.00000000000E+00  0.00000000000E+00  0.14999999963E+04  0.15000000000E+04  0.10566000000E+00 0.  1.
        994   -1    0    0    0    0 -0.00000000000E+00 -0.00000000000E+00  0.11368683772E-12  0.17120000000E+03  0.17120000000E+03 0.  0.
         13    1    1    2    0    0 -0.14513062696E+02 -0.77648055153E+00  0.76068621690E+02  0.77444678840E+02  0.10566000000E+00 0.  1.
        994    1    1    2    0    0  0.69150152820E+00 -0.39919225613E+01  0.15412125232E+01  0.17125486550E+03  0.17120000000E+03 0.  0.
        998    1    1    2    0    0  0.13821561168E+02  0.47684031128E+01  0.14223901621E+04  0.14225004557E+04  0.10000000000E+02 0.  1.
</event>
<event>
 5    1  0.1344348E-008  0.3830575E+03  0.7957747E-01  0.3437952E+00
         13   -1    0    0    0    0  0.00000000000E+00  0.00000000000E+00  0.14999999963E+04  0.15000000000E+04  0.10566000000E+00 0.  1.
        994   -1    0    0    0    0 -0.00000000000E+00 -0.00000000000E+00  0.11368683772E-12  0.17120000000E+03  0.17120000000E+03 0.  0.
         13    1    1    2    0    0 -0.99177744763E+01  0.13378442170E+02  0.58007086401E+02  0.60350461491E+02  0.10566000000E+00 0.  1.
        994    1    1    2    0    0  0.42537774790E+01  0.14081102218E+02  0.33140178736E+01  0.17186272073E+03  0.17120000000E+03 0.  0.
        998    1    1    2    0    0  0.56639969973E+01 -0.27459544388E+02  0.14386788920E+04  0.14389868178E+04  0.10000000000E+02 0.  1.
</event>
<event>
 5    1  0.1344348E-008  0.3833064E+03  0.7957747E-01  0.3436887E+00
         13   -1    0    0    0    0  0.00000000000E+00  0.00000000000E+00  0.14999999963E+04  0.15000000000E+04  0.10566000000E+00 0. -1.
        994   -1    0    0    0    0 -0.00000000000E+00 -0.00000000000E+00  0.11368683772E-12  0.17120000000E+03  0.17120000000E+03 0.  0.
         13    1    1    2    0    0  0.13326271358E+02 -0.22641408448E+02  0.14559063380E+03  0.14794210590E+03  0.10566000000E+00 0. -1.
        994    1    1    2    0    0 -0.90902614166E+01  0.61165043341E+01  0.28703672119E+01  0.17157425065E+03  0.17120000000E+03 0.  0.
        998    1    1    2    0    0 -0.42360099419E+01  0.16524904114E+02  0.13515389953E+04  0.13516836434E+04  0.10000000000E+02 0. -1.
</event>
<event>
 5    1  0.1344348E-008  0.3789142E+03  0.7957747E-01  0.3455900E+00
         13   -1    0    0    0    0  0.00000000000E+00  0.00000000000E+00  0.14999999963E+04  0.15000000000E+04  0.10566000000E+00 0.  1.
        994   -1    0    0    0    0 -0.00000000000E+00 -0.00000000000E+00  0.11368683772E-12  0.17120000000E+03  0.17120000000E+03 0.  0.
         13    1    1    2    0    0 -0.11578583068E+02 -0.14259703039E+02  0.34454147599E+02  0.39044873766E+02  0.10566000000E+00 0.  1.
        994    1    1    2    0    0  0.10411836776E+02  0.40438714930E+01  0.51009469340E+01  0.17163979405E+03  0.17120000000E+03 0.  0.
        998    1    1    2    0    0  0.11667462917E+01  0.10215831546E+02  0.14604449017E+04  0.14605153322E+04  0.10000000000E+02 0.  1.
</event>
<event>
 5    1  0.1344348E-008  0.3711100E+03  0.7957747E-01  0.3490805E+00
         13   -1    0    0    0    0  0.00000000000E+00  0.00000000000E+00  0.14999999963E+04  0.15000000000E+04  0.10566000000E+00 0. -1.
        994   -1    0    0    0    0 -0.00000000000E+00 -0.00000000000E+00  0.11368683772E-12  0.17120000000E+03  0.17120000000E+03 0.  0.
         13    1    1    2    0    0 -0.17241836368E+01  0.10960536166E+02  0.30189670505E+01  0.11499195117E+02  0.10566000000E+00 0. -1.
        994    1    1    2    0    0  0.73774359551E+00 -0.11206807763E+02  0.91246417633E+01  0.17181046503E+03  0.17120000000E+03 0.  0.
        998    1    1    2    0    0  0.98644004131E+00  0.24627159708E+00  0.14878563875E+04  0.14878903399E+04  0.10000000000E+02 0. -1.
</event>
<event>
 5    1  0.1344348E-008  0.3775953E+03  0.7957747E-01  0.3461696E+00
         13   -1    0    0    0    0  0.00000000000E+00  0.00000000000E+00  0.14999999963E+04  0.15000000000E+04  0.10566000000E+00 0. -1.
        994   -1    0    0    0    0 -0.00000000000E+00 -0.00000000000E+00  0.11368683772E-12  0.17120000000E+03  0.17120000000E+03 0.  0.
         13    1    1    2    0    0  0.74879222787E+02 -0.12423003803E+02  0.42632468222E+03  0.43302883837E+03  0.10566000000E+00 0. -1.
        994    1    1    2    0    0 -0.64490594252E+02  0.16179967677E+02  0.20396708786E+02  0.18478715819E+03  0.17120000000E+03 0.  0.
        998    1    1    2    0    0 -0.10388628536E+02 -0.37569638735E+01  0.10532786053E+04  0.10533840034E+04  0.10000000000E+02 0. -1.
</event>
<event>
 5    1  0.1344348E-008  0.3839870E+03  0.7957747E-01  0.3433980E+00
         13   -1    0    0    0    0  0.00000000000E+00  0.00000000000E+00  0.14999999963E+04  0.15000000000E+04  0.10566000000E+00 0.  1.
        994   -1    0    0    0    0 -0.00000000000E+00 -0.00000000000E+00  0.11368683772E-12  0.17120000000E+03  0.17120000000E+03 0.  0.
         13    1    1    2    0    0 -0.14743041702E+02 -0.14622824872E+02  0.11527988235E+03  0.11713516434E+03  0.10566000000E+00 0.  1.
        994    1    1    2    0    0 -0.45997279095E+00 -0.63709971068E+01  0.22685580055E+01  0.17133414001E+03  0.17120000000E+03 0.  0.
        998    1    1    2    0    0  0.15203014493E+02  0.20993821979E+02  0.13824515559E+04  0.13827306956E+04  0.10000000000E+02 0.  1.
</event>
<event>
 5    1  0.1344348E-008  0.3706195E+03  0.7957747E-01  0.3493048E+00
         13   -1    0    0    0    0  0.00000000000E+00  0.00000000000E+00  0.14999999963E+04  0.15000000000E+04  0.10566000000E+00 0.  1.
        994   -1    0    0    0    0 -0.00000000000E+00 -0.00000000000E+00  0.11368683772E-12  0.17120000000E+03  0.17120000000E+03 0.  0.
         13    1    1    2    0    0 -0.52988499589E+02 -0.28128033583E+02  0.14275048430E+03  0.15484404830E+03  0.10566000000E+00 0.  1.
        994    1    1    2    0    0  0.52401703397E+02  0.25910571843E+02  0.23337434732E+02  0.18240441911E+03  0.17120000000E+03 0.  0.
        998    1    1    2    0    0  0.58679619209E+00  0.22174617401E+01  0.13339120772E+04  0.13339515326E+04  0.10000000000E+02 0.  1.
</event>
<event>
 5    1  0.1344348E-008  0.3775170E+03  0.7957747E-01  0.3462042E+00
         13   -1    0    0    0    0  0.00000000000E+00  0.00000000000E+00  0.14999999963E+04  0.15000000000E+04  0.10566000000E+00 0.  1.
        994   -1    0    0    0    0 -0.00000000000E+00 -0.00000000000E+00  0.11368683772E-12  0.17120000000E+03  0.17120000000E+03 0.  0.
         13    1    1    2    0    0 -0.15541533355E+02 -0.83252955828E+00  0.20750051984E+02  0.25938546333E+02  0.10566000000E+00 0.  1.
        994    1    1    2    0    0 -0.83815851217E+00  0.10377116179E+02  0.57572252850E+01  0.17161285702E+03  0.17120000000E+03 0.  0.
        998    1    1    2    0    0  0.16379691868E+02 -0.95445866211E+01  0.14734927190E+04  0.14736485967E+04  0.10000000000E+02 0.  1.
</event>
<event>
 5    1  0.1344348E-008  0.3844923E+03  0.7957747E-01  0.3431828E+00
         13   -1    0    0    0    0  0.00000000000E+00  0.00000000000E+00  0.14999999963E+04  0.15000000000E+04  0.10566000000E+00 0. -1.
        994   -1    0    0    0    0 -0.00000000000E+00 -0.00000000000E+00  0.11368683772E-12  0.17120000000E+03  0.17120000000E+03 0.  0.
         13    1    1    2    0    0 -0.16144227148E+02 -0.18396652868E+02  0.14439618765E+03  0.14645594245E+03  0.10566000000E+00 0. -1.
        994    1    1    2    0    0  0.17025210077E+02  0.19416717734E+02  0.40822069098E+01  0.17318478894E+03  0.17120000000E+03 0.  0.
        998    1    1    2    0    0 -0.88098292912E+00 -0.10200648660E+01  0.13515216017E+04  0.13515592686E+04  0.10000000000E+02 0. -1.
</event>
<event>
 5    1  0.1344348E-008  0.3822925E+03  0.7957747E-01  0.3441237E+00
         13   -1    0    0    0    0  0.00000000000E+00  0.00000000000E+00  0.14999999963E+04  0.15000000000E+04  0.10566000000E+00 0. -1.
        994   -1    0    0    0    0 -0.00000000000E+00 -0.00000000000E+00  0.11368683772E-12  0.17120000000E+03  0.17120000000E+03 0.  0.
         13    1    1    2    0    0 -0.16115518605E+02  0.70958584797E+01  0.50522158289E+02  0.53502904498E+02  0.10566000000E+00 0. -1.
        994    1    1    2    0    0  0.21984123544E+02  0.14847645290E+02  0.53187774437E+01  0.17332479238E+03  0.17120000000E+03 0.  0.
        998    1    1    2    0    0 -0.58686049387E+01 -0.21943503770E+02  0.14441590605E+04  0.14443723031E+04  0.10000000000E+02 0. -1.
</event>
<event>
 5    1  0.1344348E-008  0.3818541E+03  0.7957747E-01  0.3443125E+00
         13   -1    0    0    0    0  0.00000000000E+00  0.00000000000E+00  0.14999999963E+04  0.15000000000E+04  0.10566000000E+00 0.  1.
        994   -1    0    0    0    0 -0.00000000000E+00 -0.00000000000E+00  0.11368683772E-12  0.17120000000E+03  0.17120000000E+03 0.  0.
         13    1    1    2    0    0  0.40500123737E+01  0.22306920291E+02  0.81922423347E+02  0.85001740595E+02  0.10566000000E+00 0.  1.
        994    1    1    2    0    0 -0.17239368872E+01 -0.77363182399E+01  0.34088789906E+01  0.17141727753E+03  0.17120000000E+03 0.  0.
        998    1    1    2    0    0 -0.23260754865E+01 -0.14570602051E+02  0.14146686939E+04  0.14147809819E+04  0.10000000000E+02 0.  1.
</event>
<event>
 5    1  0.1344348E-008  0.3845398E+03  0.7957747E-01  0.3431626E+00
         13   -1    0    0    0    0  0.00000000000E+00  0.00000000000E+00  0.14999999963E+04  0.15000000000E+04  0.10566000000E+00 0.  1.
        994   -1    0    0    0    0 -0.00000000000E+00 -0.00000000000E+00  0.11368683772E-12  0.17120000000E+03  0.17120000000E+03 0.  0.
         13    1    1    2    0    0  0.49789441846E+01 -0.10378771495E+02  0.35247741757E+02  0.37079957469E+02  0.10566000000E+00 0.  1.
        994    1    1    2    0    0  0.10583816399E+02  0.14152159238E+02  0.28880246701E+01  0.17213390563E+03  0.17120000000E+03 0.  0.
        998    1    1    2    0    0 -0.15562760584E+02 -0.37733877434E+01  0.14618642299E+04  0.14619861369E+04  0.10000000000E+02 0.  1.
</event>
<event>
 5    1  0.1344348E-008  0.3846942E+03  0.7957747E-01  0.3430970E+00
         13   -1    0    0    0    0  0.00000000000E+00  0.00000000000E+00  0.14999999963E+04  0.15000000000E+04  0.10566000000E+00 0.  1.
        994   -1    0    0    0    0 -0.00000000000E+00 -0.00000000000E+00  0.11368683772E-12  0.17120000000E+03  0.17120000000E+03 0.  0.
         13    1    1    2    0    0  0.17556577963E+01  0.10110388975E+02  0.28153345678E+02  0.29965385638E+02  0.10566000000E+00 0.  1.
        994    1    1    2    0    0 -0.85739623968E+01 -0.14493004778E+02  0.27160283687E+01  0.17204760047E+03  0.17120000000E+03 0.  0.
        998    1    1    2    0    0  0.68183046005E+01  0.43826158038E+01  0.14691306222E+04  0.14691870139E+04  0.10000000000E+02 0.  1.
</event>
<event>
 5    1  0.1344348E-008  0.2795003E+03  0.7957747E-01  0.4054189E+00
         13   -1    0    0    0    0  0.00000000000E+00  0.00000000000E+00  0.14999999963E+04  0.15000000000E+04  0.10566000000E+00 0. -1.
        994   -1    0    0    0    0 -0.00000000000E+00 -0.00000000000E+00  0.11368683772E-12  0.17120000000E+03  0.17120000000E+03 0.  0.
         13    1    1    2    0    0 -0.11736565354E+03 -0.15227254371E+03  0.43823995748E+03  0.47855605283E+03  0.10566000000E+00 0. -1.
        994    1    1    2    0    0  0.22111820872E+02  0.24990411972E+03  0.33115724337E+03  0.44935015468E+03  0.17120000000E+03 0.  0.
        998    1    1    2    0    0  0.95253832666E+02 -0.97631576006E+02  0.73060279543E+03  0.74329379249E+03  0.10000000000E+02 0. -1.
</event>
<event>
 5    1  0.1344348E-008  0.3851658E+03  0.7957747E-01  0.3428970E+00
         13   -1    0    0    0    0  0.00000000000E+00  0.00000000000E+00  0.14999999963E+04  0.15000000000E+04  0.10566000000E+00 0.  1.
        994   -1    0    0    0    0 -0.00000000000E+00 -0.00000000000E+00  0.11368683772E-12  0.17120000000E+03  0.17120000000E+03 0.  0.
         13    1    1    2    0    0  0.24104922705E+01 -0.99083870618E+01  0.32194409530E+02  0.33770960546E+02  0.10566000000E+00 0.  1.
        994    1    1    2    0    0 -0.41728339306E+01  0.14703784003E+02  0.23161036531E+01  0.17189653325E+03  0.17120000000E+03 0.  0.
        998    1    1    2    0    0  0.17623416601E+01 -0.47953969408E+01  0.14654894831E+04  0.14655325062E+04  0.10000000000E+02 0.  1.
</event>
<event>
 5    1  0.1344348E-008  0.3735209E+03  0.7957747E-01  0.3479864E+00
         13   -1    0    0    0    0  0.00000000000E+00  0.00000000000E+00  0.14999999963E+04  0.15000000000E+04  0.10566000000E+00 0.  1.
        994   -1    0    0    0    0 -0.00000000000E+00 -0.00000000000E+00  0.11368683772E-12  0.17120000000E+03  0.17120000000E+03 0.  0.
         13    1    1    2    0    0  0.12132353963E+02 -0.31978590494E+02  0.79058402453E+02  0.86139807436E+02  0.10566000000E+00 0.  1.
        994    1    1    2    0    0  0.11021371778E+01  0.11578473817E+02  0.79024984806E+01  0.17177649794E+03  0.17120000000E+03 0.  0.
        998    1    1    2    0    0 -0.13234491141E+02  0.20400116677E+02  0.14130390953E+04  0.14132836946E+04  0.10000000000E+02 0.  1.
</event>
<event>
 5    1  0.1344348E-008  0.3839108E+03  0.7957747E-01  0.3434305E+00
         13   -1    0    0    0    0  0.00000000000E+00  0.00000000000E+00  0.14999999963E+04  0.15000000000E+04  0.10566000000E+00 0. -1.
        994   -1    0    0    0    0 -0.00000000000E+00 -0.00000000000E+00  0.11368683772E-12  0.17120000000E+03  0.17120000000E+03 0.  0.
         13    1    1    2    0    0  0.15083959689E+02 -0.39049314487E+00  0.50555403004E+02  0.52759248116E+02  0.10566000000E+00 0. -1.
        994    1    1    2    0    0 -0.15535559377E+02 -0.40941662633E+01  0.30242144142E+01  0.17197878263E+03  0.17120000000E+03 0.  0.
        998    1    1    2    0    0  0.45159968834E+00  0.44846594082E+01  0.14464203789E+04  0.14464619693E+04  0.10000000000E+02 0. -1.
</event>
<event>
 5    1  0.1344348E-008  0.3841387E+03  0.7957747E-01  0.3433333E+00
         13   -1    0    0    0    0  0.00000000000E+00  0.00000000000E+00  0.14999999963E+04  0.15000000000E+04  0.10566000000E+00 0. -1.
        994   -1    0    0    0    0 -0.00000000000E+00 -0.00000000000E+00  0.11368683772E-12  0.17120000000E+03  0.17120000000E+03 0.  0.
         13    1    1    2    0    0  0.10297084267E+02  0.46581565068E+00  0.24943524507E+02  0.26989581462E+02  0.10566000000E+00 0. -1.
        994    1    1    2    0    0 -0.99274184208E+01 -0.27028609938E+01  0.24075369167E+01  0.17152578619E+03  0.17120000000E+03 0.  0.
        998    1    1    2    0    0 -0.36966584641E+00  0.22370453431E+01  0.14726489349E+04  0.14726846323E+04  0.10000000000E+02 0. -1.
</event>
<event>
 5    1  0.1344348E-008  0.3829967E+03  0.7957747E-01  0.3438213E+00
         13   -1    0    0    0    0  0.00000000000E+00  0.00000000000E+00  0.14999999963E+04  0.15000000000E+04  0.10566000000E+00 0. -1.
        994   -1    0    0    0    0 -0.00000000000E+00 -0.00000000000E+00  0.11368683772E-12  0.17120000000E+03  0.17120000000E+03 0.  0.
         13    1    1    2    0    0 -0.70793571644E+01 -0.34218481701E+02  0.19238134603E+03  0.19552906498E+03  0.10566000000E+00 0. -1.
        994    1    1    2    0    0 -0.49019062050E+01  0.44135494897E+02  0.91831219734E+01  0.17710375581E+03  0.17120000000E+03 0.  0.
        998    1    1    2    0    0  0.11981263369E+02 -0.99170131964E+01  0.12984355283E+04  0.12985671792E+04  0.10000000000E+02 0. -1.
</event>
<event>
 5    1  0.1344348E-008  0.3854941E+03  0.7957747E-01  0.3427579E+00
         13   -1    0    0    0    0  0.00000000000E+00  0.00000000000E+00  0.14999999963E+04  0.15000000000E+04  0.10566000000E+00 0. -1.
        994   -1    0    0    0    0 -0.00000000000E+00 -0.00000000000E+00  0.11368683772E-12  0.17120000000E+03  0.17120000000E+03 0.  0.
         13    1    1    2    0    0 -0.16073418375E+02 -0.47325917145E+01  0.93126596974E+02  0.94622018741E+02  0.10566000000E+00 0. -1.
        994    1    1    2    0    0  0.20330793411E+02  0.83775005825E+01  0.29742258551E+01  0.17263200658E+03  0.17120000000E+03 0.  0.
        998    1    1    2    0    0 -0.42573750352E+01 -0.36449088681E+01  0.14038991734E+04  0.14039459747E+04  0.10000000000E+02 0. -1.
</event>
<event>
 5    1  0.1344348E-008  0.3819947E+03  0.7957747E-01  0.3442519E+00
         13   -1    0    0    0    0  0.00000000000E+00  0.00000000000E+00  0.14999999963E+04  0.15000000000E+04  0.10566000000E+00 0. -1.
        994   -1    0    0    0    0 -0.00000000000E+00 -0.00000000000E+00  0.11368683772E-12  0.17120000000E+03  0.17120000000E+03 0.  0.
         13    1    1    2    0    0 -0.14055131486E+01  0.14776050624E+02  0.33837875499E+02  0.36950238451E+02  0.10566000000E+00 0. -1.
        994    1    1    2    0    0  0.42872665086E+01 -0.11576421652E+02  0.36358892245E+01  0.17168300406E+03  0.17120000000E+03 0.  0.
        998    1    1    2    0    0 -0.28817533600E+01 -0.31996289720E+01  0.14625262316E+04  0.14625667575E+04  0.10000000000E+02 0. -1.
</event>
<event>
 5    1  0.1344348E-008  0.3770833E+03  0.7957747E-01  0.3463957E+00
         13   -1    0    0    0    0  0.00000000000E+00  0.00000000000E+00  0.14999999963E+04  0.15000000000E+04  0.10566000000E+00 0.  1.
        994   -1    0    0    0    0 -0.00000000000E+00 -0.00000000000E+00  0.11368683772E-12  0.17120000000E+03  0.17120000000E+03 0.  0.
         13    1    1    2    0    0  0.12997470668E+02 -0.36243880842E+01  0.13394064777E+02  0.19012694918E+02  0.10566000000E+00 0.  1.
        994    1    1    2    0    0 -0.18798058080E+02  0.99339938045E+01  0.71401346400E+01  0.17266288757E+03  0.17120000000E+03 0.  0.
        998    1    1    2    0    0  0.58005874124E+01 -0.63096057203E+01  0.14794657969E+04  0.14795244175E+04  0.10000000000E+02 0.  1.
</event>
<event>
 5    1  0.1344348E-008  0.3850871E+03  0.7957747E-01  0.3429303E+00
         13   -1    0    0    0    0  0.00000000000E+00  0.00000000000E+00  0.14999999963E+04  0.15000000000E+04  0.10566000000E+00 0.  1.
        994   -1    0    0    0    0 -0.00000000000E+00 -0.00000000000E+00  0.11368683772E-12  0.17120000000E+03  0.17120000000E+03 0.  0.
         13    1    1    2    0    0 -0.89747033047E+01 -0.65501944524E+01  0.38383728760E+02  0.39959631433E+02  0.10566000000E+00 0.  1.
        994    1    1    2    0    0  0.11429885188E+02  0.74533145650E+00  0.20183764004E+01  0.17159461424E+03  0.17120000000E+03 0.  0.
        998    1    1    2    0    0 -0.24551818834E+01  0.58048629959E+01  0.14595978911E+04  0.14596457543E+04  0.10000000000E+02 0.  1.
</event>
<event>
 5    1  0.1344348E-008  0.3748668E+03  0.7957747E-01  0.3473819E+00
         13   -1    0    0    0    0  0.00000000000E+00  0.00000000000E+00  0.14999999963E+04  0.15000000000E+04  0.10566000000E+00 0.  1.
        994   -1    0    0    0    0 -0.00000000000E+00 -0.00000000000E+00  0.11368683772E-12  0.17120000000E+03  0.17120000000E+03 0.  0.
         13    1    1    2    0    0 -0.52841525258E+02 -0.74713601013E+02  0.26345541742E+03  0.27889624791E+03  0.10566000000E+00 0.  1.
        994    1    1    2    0    0  0.51995448040E+02  0.64164391915E+02  0.38210984328E+02  0.19388170396E+03  0.17120000000E+03 0.  0.
        998    1    1    2    0    0  0.84607721806E+00  0.10549209099E+02  0.11983335945E+04  0.11984220481E+04  0.10000000000E+02 0.  1.
</event>
<event>
 5    1  0.1344348E-008  0.3818971E+03  0.7957747E-01  0.3442939E+00
         13   -1    0    0    0    0  0.00000000000E+00  0.00000000000E+00  0.14999999963E+04  0.15000000000E+04  0.10566000000E+00 0.  1.
        994   -1    0    0    0    0 -0.00000000000E+00 -0.00000000000E+00  0.11368683772E-12  0.17120000000E+03  0.17120000000E+03 0.  0.
         13    1    1    2    0    0 -0.14878657182E+02 -0.66312470492E+01  0.39617352073E+02  0.42835658350E+02  0.10566000000E+00 0.  1.
        994    1    1    2    0    0  0.18324522354E+02  0.18487469998E+01  0.43062326960E+01  0.17224166054E+03  0.17120000000E+03 0.  0.
        998    1    1    2    0    0 -0.34458651725E+01  0.47825000493E+01  0.14560764115E+04  0.14561226811E+04  0.10000000000E+02 0.  1.
</event>
<event>
 5    1  0.1344348E-008  0.3701283E+03  0.7957747E-01  0.3495301E+00
         13   -1    0    0    0    0  0.00000000000E+00  0.00000000000E+00  0.14999999963E+04  0.15000000000E+04  0.10566000000E+00 0. -1.
        994   -1    0    0    0    0 -0.00000000000E+00 -0.00000000000E+00  0.11368683772E-12  0.17120000000E+03  0.17120000000E+03 0.  0.
         13    1    1    2    0    0  0.79459962806E+02 -0.11331524215E+02  0.37109191948E+03  0.37967290263E+03  0.10566000000E+00 0. -1.
        994    1    1    2    0    0 -0.10179107417E+02  0.16052501047E+02  0.12271316125E+02  0.17268851212E+03  0.17120000000E+03 0.  0.
        998    1    1    2    0    0 -0.69280855390E+02 -0.47209768316E+01  0.11166367607E+04  0.11188385852E+04  0.10000000000E+02 0. -1.
</event>
<event>
 5    1  0.1344348E-008  0.3843356E+03  0.7957747E-01  0.3432495E+00
         13   -1    0    0    0    0  0.00000000000E+00  0.00000000000E+00  0.14999999963E+04  0.15000000000E+04  0.10566000000E+00 0.  1.
        994   -1    0    0    0    0 -0.00000000000E+00 -0.00000000000E+00  0.11368683772E-12  0.17120000000E+03  0.17120000000E+03 0.  0.
         13    1    1    2    0    0  0.82010941728E+01 -0.69819131403E+01  0.29543827166E+02  0.31446048152E+02  0.10566000000E+00 0.  1.
        994    1    1    2    0    0  0.19310825679E+00  0.58477876975E+01  0.20731966650E+01  0.17131249825E+03  0.17120000000E+03 0.  0.
        998    1    1    2    0    0 -0.83942024296E+01  0.11341254427E+01  0.14683829724E+04  0.14684414536E+04  0.10000000000E+02 0.  1.
</event>
<event>
 5    1  0.1344348E-008  0.3806132E+03  0.7957747E-01  0.3448493E+00
         13   -1    0    0    0    0  0.00000000000E+00  0.00000000000E+00  0.14999999963E+04  0.15000000000E+04  0.10566000000E+00 0.  1.
        994   -1    0    0    0    0 -0.00000000000E+00 -0.00000000000E+00  0.11368683772E-12  0.17120000000E+03  0.17120000000E+03 0.  0.
         13    1    1    2    0    0 -0.40950136749E+02 -0.86659244708E+02  0.21790679522E+03  0.23805486964E+03  0.10566000000E+00 0.  1.
        994    1    1    2    0    0  0.48842722521E+02  0.95170288267E+02  0.59503260654E+02  0.21045919638E+03  0.17120000000E+03 0.  0.
        998    1    1    2    0    0 -0.78925857718E+01 -0.85110435594E+01  0.12225899404E+04  0.12226859340E+04  0.10000000000E+02 0.  1.
</event>
<event>
 5    1  0.1344348E-008  0.3825524E+03  0.7957747E-01  0.3440120E+00
         13   -1    0    0    0    0  0.00000000000E+00  0.00000000000E+00  0.14999999963E+04  0.15000000000E+04  0.10566000000E+00 0.  1.
        994   -1    0    0    0    0 -0.00000000000E+00 -0.00000000000E+00  0.11368683772E-12  0.17120000000E+03  0.17120000000E+03 0.  0.
         13    1    1    2    0    0 -0.11217487240E+02 -0.89169253952E+01  0.35628434319E+02  0.38402344649E+02  0.10566000000E+00 0.  1.
        994    1    1    2    0    0  0.96296366956E+01 -0.35685302715E+01  0.31999158747E+01  0.17153758706E+03  0.17120000000E+03 0.  0.
        998    1    1    2    0    0  0.15878505445E+01  0.12485455667E+02  0.14611716461E+04  0.14612600683E+04  0.10000000000E+02 0.  1.
</event>
<event>
 5    1  0.1344348E-008  0.3793981E+03  0.7957747E-01  0.3453784E+00
         13   -1    0    0    0    0  0.00000000000E+00  0.00000000000E+00  0.14999999963E+04  0.15000000000E+04  0.10566000000E+00 0.  1.
        994   -1    0    0    0    0 -0.00000000000E+00 -0.00000000000E+00  0.11368683772E-12  0.17120000000E+03  0.17120000000E+03 0.  0.
         13    1    1    2    0    0 -0.63222614962E+01 -0.46563712376E+02  0.22253419759E+03  0.22744148821E+03  0.10566000000E+00 0.  1.
        994    1    1    2    0    0 -0.97967842221E+01  0.43132743678E+02  0.11018478701E+02  0.17716449258E+03  0.17120000000E+03 0.  0.
        998    1    1    2    0    0  0.16119045718E+02  0.34309686979E+01  0.12664473200E+04  0.12665940192E+04  0.10000000000E+02 0.  1.
</event>
<event>
 5    1  0.1344348E-008  0.3847656E+03  0.7957747E-01  0.3430667E+00
         13   -1    0    0    0    0  0.00000000000E+00  0.00000000000E+00  0.14999999963E+04  0.15000000000E+04  0.10566000000E+00 0. -1.
        994   -1    0    0    0    0 -0.00000000000E+00 -0.00000000000E+00  0.11368683772E-12  0.17120000000E+03  0.17120000000E+03 0.  0.
         13    1    1    2    0    0  0.15998520718E+01  0.11473016800E+02  0.39845722705E+02  0.41495571126E+02  0.10566000000E+00 0. -1.
        994    1    1    2    0    0  0.78474059271E+01 -0.18456128638E+00  0.19493707842E+01  0.17139094459E+03  0.17120000000E+03 0.  0.
        998    1    1    2    0    0 -0.94472579989E+01 -0.11288455513E+02  0.14582049028E+04  0.14583134843E+04  0.10000000000E+02 0. -1.
</event>
<event>
 5    1  0.1344348E-008  0.3813982E+03  0.7957747E-01  0.3445093E+00
         13   -1    0    0    0    0  0.00000000000E+00  0.00000000000E+00  0.14999999963E+04  0.15000000000E+04  0.10566000000E+00 0.  1.
        994   -1    0    0    0    0 -0.00000000000E+00 -0.00000000000E+00  0.11368683772E-12  0.17120000000E+03  0.17120000000E+03 0.  0.
         13    1    1    2    0    0  0.13537154744E+02  0.76832775844E+00  0.25476255607E+02  0.28859931564E+02  0.10566000000E+00 0.  1.
        994    1    1    2    0    0 -0.91683450656E+01 -0.19975932488E+01  0.37220227615E+01  0.17149735387E+03  0.17120000000E+03 0.  0.
        998    1    1    2    0    0 -0.43688096783E+01  0.12292654903E+01  0.14708017179E+04  0.14708427146E+04  0.10000000000E+02 0.  1.
</event>
<event>
 5    1  0.1344348E-008  0.3714350E+03  0.7957747E-01  0.3489322E+00
         13   -1    0    0    0    0  0.00000000000E+00  0.00000000000E+00  0.14999999963E+04  0.15000000000E+04  0.10566000000E+00 0.  1.
        994   -1    0    0    0    0 -0.00000000000E+00 -0.00000000000E+00  0.11368683772E-12  0.17120000000E+03  0.17120000000E+03 0.  0.
         13    1    1    2    0    0 -0.63142315675E+02  0.11942214996E+03  0.50874946499E+03  0.52637879063E+03  0.10566000000E+00 0.  1.
        994    1    1    2    0    0  0.69897852694E+02 -0.14520334932E+03  0.10395905825E+03  0.25707323521E+03  0.17120000000E+03 0.  0.
        998    1    1    2    0    0 -0.67555370182E+01  0.25781199365E+02  0.88729147303E+03  0.88774797417E+03  0.10000000000E+02 0.  1.
</event>
<event>
 5    1  0.1344348E-008  0.3687034E+03  0.7957747E-01  0.3501871E+00
         13   -1    0    0    0    0  0.00000000000E+00  0.00000000000E+00  0.14999999963E+04  0.15000000000E+04  0.10566000000E+00 0.  1.
        994   -1    0    0    0    0 -0.00000000000E+00 -0.00000000000E+00  0.11368683772E-12  0.17120000000E+03  0.17120000000E+03 0.  0.
         13    1    1    2    0    0 -0.37297632081E+02 -0.40550425882E+02  0.13267138187E+03  0.14365638562E+03  0.10566000000E+00 0.  1.
        994    1    1    2    0    0  0.43094741279E+02  0.34701306814E+02  0.20985903613E+02  0.18113858112E+03  0.17120000000E+03 0.  0.
        998    1    1    2    0    0 -0.57971091981E+01  0.58491190682E+01  0.13463427108E+04  0.13464050333E+04  0.10000000000E+02 0.  1.
</event>
<event>
 5    1  0.1344348E-008  0.3737736E+03  0.7957747E-01  0.3478726E+00
         13   -1    0    0    0    0  0.00000000000E+00  0.00000000000E+00  0.14999999963E+04  0.15000000000E+04  0.10566000000E+00 0.  1.
        994   -1    0    0    0    0 -0.00000000000E+00 -0.00000000000E+00  0.11368683772E-12  0.17120000000E+03  0.17120000000E+03 0.  0.
         13    1    1    2    0    0  0.77809544485E+02 -0.37163426653E+02  0.37815153482E+03  0.38785827301E+03  0.10566000000E+00 0.  1.
        994    1    1    2    0    0 -0.33155315623E+02 -0.42014653740E+02  0.23167048309E+02  0.18086088082E+03  0.17120000000E+03 0.  0.
        998    1    1    2    0    0 -0.44654228862E+02  0.79178080393E+02  0.10986814132E+04  0.11024808462E+04  0.10000000000E+02 0.  1.
</event>
<event>
 5    1  0.1344348E-008  0.3776838E+03  0.7957747E-01  0.3461306E+00
         13   -1    0    0    0    0  0.00000000000E+00  0.00000000000E+00  0.14999999963E+04  0.15000000000E+04  0.10566000000E+00 0.  1.
        994   -1    0    0    0    0 -0.00000000000E+00 -0.00000000000E+00  0.11368683772E-12  0.17120000000E+03  0.17120000000E+03 0.  0.
         13    1    1    2    0    0 -0.13513512732E+02 -0.16519660757E+02  0.41685840071E+02  0.46831983135E+02  0.10566000000E+00 0.  1.
        994    1    1    2    0    0  0.68209352653E+01  0.43188226498E+01  0.55265284296E+01  0.17147932792E+03  0.17120000000E+03 0.  0.
        998    1    1    2    0    0  0.66925774664E+01  0.12200838107E+02  0.14527876278E+04  0.14528886889E+04  0.10000000000E+02 0.  1.
</event>
<event>
 5    1  0.1344348E-008  0.3800585E+03  0.7957747E-01  0.3450904E+00
         13   -1    0    0    0    0  0.00000000000E+00  0.00000000000E+00  0.14999999963E+04  0.15000000000E+04  0.10566000000E+00 0. -1.
        994   -1    0    0    0    0 -0.00000000000E+00 -0.00000000000E+00  0.11368683772E-12  0.17120000000E+03  0.17120000000E+03 0.  0.
         13    1    1    2    0    0  0.14833040726E+02 -0.13562040855E+01  0.25651132069E+02  0.29662267735E+02  0.10566000000E+00 0. -1.
        994    1    1    2    0    0 -0.68630808777E+01 -0.34865898132E+01  0.43016849498E+01  0.17142696019E+03  0.17120000000E+03 0.  0.
        998    1    1    2    0    0 -0.79699598485E+01  0.48427938987E+01  0.14700471793E+04  0.14701107721E+04  0.10000000000E+02 0. -1.
</event>
<event>
 5    1  0.1344348E-008  0.3794654E+03  0.7957747E-01  0.3453490E+00
         13   -1    0    0    0    0  0.00000000000E+00  0.00000000000E+00  0.14999999963E+04  0.15000000000E+04  0.10566000000E+00 0. -1.
        994   -1    0    0    0    0 -0.00000000000E+00 -0.00000000000E+00  0.11368683772E-12  0.17120000000E+03  0.17120000000E+03 0.  0.
         13    1    1    2    0    0  0.83245323937E+01  0.31946242639E+02  0.11653051749E+03  0.12111660881E+03  0.10566000000E+00 0. -1.
        994    1    1    2    0    0  0.99447836308E+01 -0.32498569257E+02  0.82810514829E+01  0.17473714985E+03  0.17120000000E+03 0.  0.
        998    1    1    2    0    0 -0.18269316024E+02  0.55232661840E+00  0.13751884273E+04  0.13753462413E+04  0.10000000000E+02 0. -1.
</event>
<event>
 5    1  0.1344348E-008  0.3845800E+03  0.7957747E-01  0.3431455E+00
         13   -1    0    0    0    0  0.00000000000E+00  0.00000000000E+00  0.14999999963E+04  0.15000000000E+04  0.10566000000E+00 0.  1.
        994   -1    0    0    0    0 -0.00000000000E+00 -0.00000000000E+00  0.11368683772E-12  0.17120000000E+03  0.17120000000E+03 0.  0.
         13    1    1    2    0    0 -0.18225196851E+02 -0.30781050783E+01  0.91562766665E+02  0.93409763593E+02  0.10566000000E+00 0.  1.
        994    1    1    2    0    0  0.14408141638E+02 -0.34930963871E+01  0.25629370788E+01  0.17185984090E+03  0.17120000000E+03 0.  0.
        998    1    1    2    0    0  0.38170552131E+01  0.65712014654E+01  0.14058742925E+04  0.14059303955E+04  0.10000000000E+02 0.  1.
</event>
<event>
 5    1  0.1344348E-008  0.3855091E+03  0.7957747E-01  0.3427516E+00
         13   -1    0    0    0    0  0.00000000000E+00  0.00000000000E+00  0.14999999963E+04  0.15000000000E+04  0.10566000000E+00 0. -1.
        994   -1    0    0    0    0 -0.00000000000E+00 -0.00000000000E+00  0.11368683772E-12  0.17120000000E+03  0.17120000000E+03 0.  0.
         13    1    1    2    0    0 -0.41211542422E+01 -0.10157591795E+02  0.44681548596E+02  0.46006657478E+02  0.10566000000E+00 0. -1.
        994    1    1    2    0    0 -0.29420359418E+01  0.53524212751E+01  0.15000765285E+01  0.17131548155E+03  0.17120000000E+03 0.  0.
        998    1    1    2    0    0  0.70631901841E+01  0.48051705197E+01  0.14538183712E+04  0.14538778610E+04  0.10000000000E+02 0. -1.
</event>
<event>
 5    1  0.1344348E-008  0.3931790E+03  0.7957747E-01  0.3395708E+00
         13   -1    0    0    0    0  0.00000000000E+00  0.00000000000E+00  0.14999999963E+04  0.15000000000E+04  0.10566000000E+00 0.  1.
        994   -1    0    0    0    0 -0.00000000000E+00 -0.00000000000E+00  0.11368683772E-12  0.17120000000E+03  0.17120000000E+03 0.  0.
         13    1    1    2    0    0  0.69948616140E+02  0.49035055857E+02  0.15974416960E+03  0.18115036982E+03  0.10566000000E+00 0.  1.
        994    1    1    2    0    0  0.17047044840E+02 -0.79019814103E+02  0.49111326110E+02  0.19559165399E+03  0.17120000000E+03 0.  0.
        998    1    1    2    0    0 -0.86995660979E+02  0.29984758246E+02  0.12911445006E+04  0.12944579762E+04  0.10000000000E+02 0.  1.
</event>
<event>
 5    1  0.1344348E-008  0.3708125E+03  0.7957747E-01  0.3492165E+00
         13   -1    0    0    0    0  0.00000000000E+00  0.00000000000E+00  0.14999999963E+04  0.15000000000E+04  0.10566000000E+00 0. -1.
        994   -1    0    0    0    0 -0.00000000000E+00 -0.00000000000E+00  0.11368683772E-12  0.17120000000E+03  0.17120000000E+03 0.  0.
         13    1    1    2    0    0  0.10868404161E+03  0.15692236736E+02  0.61022282937E+03  0.62002449939E+03  0.10566000000E+00 0. -1.
        994    1    1    2    0    0 -0.47238784709E+02 -0.38770292410E+02  0.24579996033E+02  0.18343460568E+03  0.17120000000E+03 0.  0.
        998    1    1    2    0    0 -0.61445256906E+02  0.23078055674E+02  0.86519717087E+03  0.86774089493E+03  0.10000000000E+02 0. -1.
</event>
<event>
 5    1  0.1403892E-008  0.3837572E+03  0.7957747E-01  0.3434960E+00
         13   -1    0    0    0    0  0.00000000000E+00  0.00000000000E+00  0.14999999963E+04  0.15000000000E+04  0.10566000000E+00 0. -1.
        994   -1    0    0    0    0 -0.00000000000E+00 -0.00000000000E+00  0.11368683772E-12  0.17120000000E+03  0.17120000000E+03 0.  0.
         13    1    1    2    0    0  0.29717367796E+01  0.10984544052E+02  0.27782285281E+02  0.30022624252E+02  0.10566000000E+00 0. -1.
        994    1    1    2    0    0 -0.45088795450E+01 -0.10149038875E+02  0.26557780809E+01  0.17158037808E+03  0.17120000000E+03 0.  0.
        998    1    1    2    0    0  0.15371427654E+01 -0.83550517678E+00  0.14695619329E+04  0.14695969977E+04  0.10000000000E+02 0. -1.
</event>
<event>
 5    1  0.1344348E-008  0.3691432E+03  0.7957747E-01  0.3499838E+00
         13   -1    0    0    0    0  0.00000000000E+00  0.00000000000E+00  0.14999999963E+04  0.15000000000E+04  0.10566000000E+00 0.  1.
        994   -1    0    0    0    0 -0.00000000000E+00 -0.00000000000E+00  0.11368683772E-12  0.17120000000E+03  0.17120000000E+03 0.  0.
         13    1    1    2    0    0 -0.16693529906E+02  0.19796275820E+02  0.28511829046E+02  0.38516256784E+02  0.10566000000E+00 0.  1.
        994    1    1    2    0    0 -0.65170083476E+01 -0.12839537260E+02  0.11209407005E+02  0.17216972998E+03  0.17120000000E+03 0.  0.
        998    1    1    2    0    0  0.23210538253E+02 -0.69567385599E+01  0.14602787602E+04  0.14605140132E+04  0.10000000000E+02 0.  1.
</event>
<event>
 5    1  0.1344348E-008  0.3811680E+03  0.7957747E-01  0.3446088E+00
         13   -1    0    0    0    0  0.00000000000E+00  0.00000000000E+00  0.14999999963E+04  0.15000000000E+04  0.10566000000E+00 0.  1.
        994   -1    0    0    0    0 -0.00000000000E+00 -0.00000000000E+00  0.11368683772E-12  0.17120000000E+03  0.17120000000E+03 0.  0.
         13    1    1    2    0    0 -0.33377908779E+02 -0.38013938612E+02  0.28652579876E+03  0.29095736602E+03  0.10566000000E+00 0.  1.
        994    1    1    2    0    0  0.30000392015E+02  0.44451350131E+02  0.13181706710E+02  0.17988647376E+03  0.17120000000E+03 0.  0.
        998    1    1    2    0    0  0.33775167635E+01 -0.64374115183E+01  0.12002924908E+04  0.12003561602E+04  0.10000000000E+02 0.  1.
</event>
<event>
 5    1  0.1344348E-008  0.3742246E+03  0.7957747E-01  0.3476698E+00
         13   -1    0    0    0    0  0.00000000000E+00  0.00000000000E+00  0.14999999963E+04  0.15000000000E+04  0.10566000000E+00 0. -1.
        994   -1    0    0    0    0 -0.00000000000E+00 -0.00000000000E+00  0.11368683772E-12  0.17120000000E+03  0.17120000000E+03 0.  0.
         13    1    1    2    0    0 -0.24847890086E+02  0.11775551155E+02  0.22613915592E+02  0.35601707672E+02  0.10566000000E+00 0. -1.
        994    1    1    2    0    0  0.21448965711E+02 -0.25807071463E+02  0.17196644525E+02  0.17530324484E+03  0.17120000000E+03 0.  0.
        998    1    1    2    0    0  0.33989243743E+01  0.14031520308E+02  0.14601894362E+04  0.14602950475E+04  0.10000000000E+02 0. -1.
</event>
<event>
 5    1  0.1344348E-008  0.3786510E+03  0.7957747E-01  0.3457054E+00
         13   -1    0    0    0    0  0.00000000000E+00  0.00000000000E+00  0.14999999963E+04  0.15000000000E+04  0.10566000000E+00 0.  1.
        994   -1    0    0    0    0 -0.00000000000E+00 -0.00000000000E+00  0.11368683772E-12  0.17120000000E+03  0.17120000000E+03 0.  0.
         13    1    1    2    0    0 -0.14775924231E+02 -0.46678088104E+00  0.20939057914E+02  0.25632033310E+02  0.10566000000E+00 0.  1.
        994    1    1    2    0    0  0.47311273624E+01  0.14343135445E+02  0.55820174036E+01  0.17195554082E+03  0.17120000000E+03 0.  0.
        998    1    1    2    0    0  0.10044796868E+02 -0.13876354564E+02  0.14734789210E+04  0.14736124259E+04  0.10000000000E+02 0.  1.
</event>
<event>
 5    1  0.1344348E-008  0.3827918E+03  0.7957747E-01  0.3439092E+00
         13   -1    0    0    0    0  0.00000000000E+00  0.00000000000E+00  0.14999999963E+04  0.15000000000E+04  0.10566000000E+00 0.  1.
        994   -1    0    0    0    0 -0.00000000000E+00 -0.00000000000E+00  0.11368683772E-12  0.17120000000E+03  0.17120000000E+03 0.  0.
         13    1    1    2    0    0  0.25800538822E+02  0.14970168834E+02  0.15391983618E+03  0.15678361168E+03  0.10566000000E+00 0.  1.
        994    1    1    2    0    0 -0.21106531084E+02 -0.12345729783E+02  0.47134432096E+01  0.17300161631E+03  0.17120000000E+03 0.  0.
        998    1    1    2    0    0 -0.46940077380E+01 -0.26244390509E+01  0.13413667169E+04  0.13414147720E+04  0.10000000000E+02 0.  1.
</event>
<event>
 5    1  0.1344348E-008  0.3792486E+03  0.7957747E-01  0.3454437E+00
         13   -1    0    0    0    0  0.00000000000E+00  0.00000000000E+00  0.14999999963E+04  0.15000000000E+04  0.10566000000E+00 0. -1.
        994   -1    0    0    0    0 -0.00000000000E+00 -0.00000000000E+00  0.11368683772E-12  0.17120000000E+03  0.17120000000E+03 0.  0.
         13    1    1    2    0    0  0.14275506828E+02 -0.59004520576E+01  0.24676585945E+02  0.29112720375E+02  0.10566000000E+00 0. -1.
        994    1    1    2    0    0 -0.54905902012E+01  0.10959346078E+02  0.50166452797E+01  0.17171156215E+03  0.17120000000E+03 0.  0.
        998    1    1    2    0    0 -0.87849166266E+01 -0.50588940206E+01  0.14703067651E+04  0.14703757175E+04  0.10000000000E+02 0. -1.
</event>
<event>
 5    1  0.1344348E-008  0.3798870E+03  0.7957747E-01  0.3451651E+00
         13   -1    0    0    0    0  0.00000000000E+00  0.00000000000E+00  0.14999999963E+04  0.15000000000E+04  0.10566000000E+00 0.  1.
        994   -1    0    0    0    0 -0.00000000000E+00 -0.00000000000E+00  0.11368683772E-12  0.17120000000E+03  0.17120000000E+03 0.  0.
         13    1    1    2    0    0 -0.17480016397E+02 -0.11510827921E+02  0.48810736135E+02  0.53108843508E+02  0.10566000000E+00 0.  1.
        994    1    1    2    0    0  0.20528433887E+02  0.12394421252E+02  0.61156065736E+01  0.17297941762E+03  0.17120000000E+03 0.  0.
        998    1    1    2    0    0 -0.30484174897E+01 -0.88359333139E+00  0.14450736536E+04  0.14451117389E+04  0.10000000000E+02 0.  1.
</event>
<event>
 5    1  0.1344348E-008  0.3807045E+03  0.7957747E-01  0.3448096E+00
         13   -1    0    0    0    0  0.00000000000E+00  0.00000000000E+00  0.14999999963E+04  0.15000000000E+04  0.10566000000E+00 0. -1.
        994   -1    0    0    0    0 -0.00000000000E+00 -0.00000000000E+00  0.11368683772E-12  0.17120000000E+03  0.17120000000E+03 0.  0.
         13    1    1    2    0    0 -0.18519186579E+02  0.42393172561E+02  0.24623241616E+03  0.25054052623E+03  0.10566000000E+00 0. -1.
        994    1    1    2    0    0  0.20575467628E+02 -0.37358980566E+02  0.98686290632E+01  0.17670844105E+03  0.17120000000E+03 0.  0.
        998    1    1    2    0    0 -0.20562810490E+01 -0.50341919948E+01  0.12438989511E+04  0.12439510327E+04  0.10000000000E+02 0. -1.
</event>
<event>
 5    1  0.1344348E-008  0.3765993E+03  0.7957747E-01  0.3466101E+00
         13   -1    0    0    0    0  0.00000000000E+00  0.00000000000E+00  0.14999999963E+04  0.15000000000E+04  0.10566000000E+00 0.  1.
        994   -1    0    0    0    0 -0.00000000000E+00 -0.00000000000E+00  0.11368683772E-12  0.17120000000E+03  0.17120000000E+03 0.  0.
         13    1    1    2    0    0 -0.21956365039E+01 -0.60238442072E+02  0.26961829629E+03  0.27627437011E+03  0.10566000000E+00 0.  1.
        994    1    1    2    0    0 -0.89842098448E+01  0.53079841812E+02  0.15721945756E+02  0.18015217238E+03  0.17120000000E+03 0.  0.
        998    1    1    2    0    0  0.11179846349E+02  0.71586002594E+01  0.12146597542E+04  0.12147734575E+04  0.10000000000E+02 0.  1.
</event>
<event>
 5    1  0.1344348E-008  0.3843064E+03  0.7957747E-01  0.3432619E+00
         13   -1    0    0    0    0  0.00000000000E+00  0.00000000000E+00  0.14999999963E+04  0.15000000000E+04  0.10566000000E+00 0.  1.
        994   -1    0    0    0    0 -0.00000000000E+00 -0.00000000000E+00  0.11368683772E-12  0.17120000000E+03  0.17120000000E+03 0.  0.
         13    1    1    2    0    0  0.10348105837E+02  0.16666827232E+02  0.99943630956E+02  0.10185090553E+03  0.10566000000E+00 0.  1.
        994    1    1    2    0    0 -0.22098716410E+02  0.30501632198E+01  0.36168949622E+01  0.17268520114E+03  0.17120000000E+03 0.  0.
        998    1    1    2    0    0  0.11750610573E+02 -0.19716990452E+02  0.13964394704E+04  0.13966638933E+04  0.10000000000E+02 0.  1.
</event>
<event>
 5    1  0.1344348E-008  0.3773615E+03  0.7957747E-01  0.3462728E+00
         13   -1    0    0    0    0  0.00000000000E+00  0.00000000000E+00  0.14999999963E+04  0.15000000000E+04  0.10566000000E+00 0.  1.
        994   -1    0    0    0    0 -0.00000000000E+00 -0.00000000000E+00  0.11368683772E-12  0.17120000000E+03  0.17120000000E+03 0.  0.
         13    1    1    2    0    0  0.17797964056E+02  0.14393024512E+02  0.44647376360E+02  0.50172961434E+02  0.10566000000E+00 0.  1.
        994    1    1    2    0    0 -0.23487459841E+02 -0.68749226975E+01  0.74934308224E+01  0.17310261938E+03  0.17120000000E+03 0.  0.
        998    1    1    2    0    0  0.56894957853E+01 -0.75181018140E+01  0.14478591891E+04  0.14479244192E+04  0.10000000000E+02 0.  1.
</event>
<event>
 5    1  0.1344348E-008  0.3701833E+03  0.7957747E-01  0.3495049E+00
         13   -1    0    0    0    0  0.00000000000E+00  0.00000000000E+00  0.14999999963E+04  0.15000000000E+04  0.10566000000E+00 0. -1.
        994   -1    0    0    0    0 -0.00000000000E+00 -0.00000000000E+00  0.11368683772E-12  0.17120000000E+03  0.17120000000E+03 0.  0.
         13    1    1    2    0    0  0.63293769363E+02  0.10821379469E+03  0.55483863769E+03  0.56882532612E+03  0.10566000000E+00 0. -1.
        994    1    1    2    0    0 -0.64914865661E+02 -0.99367043626E+02  0.59554199563E+02  0.21666539139E+03  0.17120000000E+03 0.  0.
        998    1    1    2    0    0  0.16210962979E+01 -0.88467510609E+01  0.88560715903E+03  0.88570928248E+03  0.10000000000E+02 0.  0.
</event>
<event>
 5    1  0.1344348E-008  0.3843325E+03  0.7957747E-01  0.3432508E+00
         13   -1    0    0    0    0  0.00000000000E+00  0.00000000000E+00  0.14999999963E+04  0.15000000000E+04  0.10566000000E+00 0. -1.
        994   -1    0    0    0    0 -0.00000000000E+00 -0.00000000000E+00  0.11368683772E-12  0.17120000000E+03  0.17120000000E+03 0.  0.
         13    1    1    2    0    0 -0.51006391335E+01 -0.20790401916E+02  0.11072353203E+03  0.11277397324E+03  0.10566000000E+00 0. -1.
        994    1    1    2    0    0  0.19949745767E+02  0.16182786620E+02  0.41397547407E+01  0.17316596810E+03  0.17120000000E+03 0.  0.
        998    1    1    2    0    0 -0.14849106634E+02  0.46076152957E+01  0.13851367095E+04  0.13852600587E+04  0.10000000000E+02 0. -1.
</event>
<event>
 5    1  0.1344348E-008  0.3798990E+03  0.7957747E-01  0.3451598E+00
         13   -1    0    0    0    0  0.00000000000E+00  0.00000000000E+00  0.14999999963E+04  0.15000000000E+04  0.10566000000E+00 0.  1.
        994   -1    0    0    0    0 -0.00000000000E+00 -0.00000000000E+00  0.11368683772E-12  0.17120000000E+03  0.17120000000E+03 0.  0.
         13    1    1    2    0    0 -0.65661113644E+02  0.60885148591E+02  0.49936164347E+03  0.50732676383E+03  0.10566000000E+00 0.  1.
        994    1    1    2    0    0  0.93380899803E+02 -0.58821135498E+02  0.46052655045E+02  0.20883056641E+03  0.17120000000E+03 0.  0.
        998    1    1    2    0    0 -0.27719786160E+02 -0.20640130929E+01  0.95458569776E+03  0.95504266976E+03  0.10000000000E+02 0. -1.
</event>
<event>
 5    1  0.1344348E-008  0.3803243E+03  0.7957747E-01  0.3449748E+00
         13   -1    0    0    0    0  0.00000000000E+00  0.00000000000E+00  0.14999999963E+04  0.15000000000E+04  0.10566000000E+00 0.  1.
        994   -1    0    0    0    0 -0.00000000000E+00 -0.00000000000E+00  0.11368683772E-12  0.17120000000E+03  0.17120000000E+03 0.  0.
         13    1    1    2    0    0 -0.17232518880E+02 -0.33413795261E+02  0.22459722343E+03  0.22772212312E+03  0.10566000000E+00 0.  1.
        994    1    1    2    0    0 -0.32287652672E+01 -0.59930756618E+01  0.41243149485E+01  0.17138492307E+03  0.17120000000E+03 0.  0.
        998    1    1    2    0    0  0.20461284147E+02  0.39406870923E+02  0.12712784579E+04  0.12720929538E+04  0.10000000000E+02 0.  1.
</event>
<event>
 5    1  0.1344348E-008  0.3824859E+03  0.7957747E-01  0.3440405E+00
         13   -1    0    0    0    0  0.00000000000E+00  0.00000000000E+00  0.14999999963E+04  0.15000000000E+04  0.10566000000E+00 0. -1.
        994   -1    0    0    0    0 -0.00000000000E+00 -0.00000000000E+00  0.11368683772E-12  0.17120000000E+03  0.17120000000E+03 0.  0.
         13    1    1    2    0    0  0.84300900594E+01  0.74961005052E+01  0.20935992323E+02  0.23782028504E+02  0.10566000000E+00 0. -1.
        994    1    1    2    0    0 -0.40163595609E+01 -0.80288024073E+01  0.31507708609E+01  0.17146416585E+03  0.17120000000E+03 0.  0.
        998    1    1    2    0    0 -0.44137304985E+01  0.53270190217E+00  0.14759132331E+04  0.14759538056E+04  0.10000000000E+02 0. -1.
</event>
<event>
 5    1  0.1344348E-008  0.3855946E+03  0.7957747E-01  0.3427154E+00
         13   -1    0    0    0    0  0.00000000000E+00  0.00000000000E+00  0.14999999963E+04  0.15000000000E+04  0.10566000000E+00 0. -1.
        994   -1    0    0    0    0 -0.00000000000E+00 -0.00000000000E+00  0.11368683772E-12  0.17120000000E+03  0.17120000000E+03 0.  0.
         13    1    1    2    0    0  0.14108731408E+02 -0.30357349338E+01  0.85989588036E+02  0.87192272611E+02  0.10566000000E+00 0. -1.
        994    1    1    2    0    0  0.11032034939E+01 -0.32544568034E+01  0.13739750617E+01  0.17123999636E+03  0.17120000000E+03 0.  0.
        998    1    1    2    0    0 -0.15211934902E+02  0.62901917372E+01  0.14126364332E+04  0.14127677310E+04  0.10000000000E+02 0. -1.
</event>
<event>
 5    1  0.1344348E-008  0.3702341E+03  0.7957747E-01  0.3494816E+00
         13   -1    0    0    0    0  0.00000000000E+00  0.00000000000E+00  0.14999999963E+04  0.15000000000E+04  0.10566000000E+00 0. -1.
        994   -1    0    0    0    0 -0.00000000000E+00 -0.00000000000E+00  0.11368683772E-12  0.17120000000E+03  0.17120000000E+03 0.  0.
         13    1    1    2    0    0 -0.26988953802E+01  0.14005757551E+02  0.40475185616E+01  0.14826963660E+02  0.10566000000E+00 0. -1.
        994    1    1    2    0    0  0.47805787182E+01 -0.17012113360E+02  0.12155968862E+02  0.17253832477E+03  0.17120000000E+03 0.  0.
        998    1    1    2    0    0 -0.20816833380E+01  0.30063558089E+01  0.14837965089E+04  0.14838347116E+04  0.10000000000E+02 0. -1.
</event>
<event>
 5    1  0.1344348E-008  0.3836880E+03  0.7957747E-01  0.3435256E+00
         13   -1    0    0    0    0  0.00000000000E+00  0.00000000000E+00  0.14999999963E+04  0.15000000000E+04  0.10566000000E+00 0. -1.
        994   -1    0    0    0    0 -0.00000000000E+00 -0.00000000000E+00  0.11368683772E-12  0.17120000000E+03  0.17120000000E+03 0.  0.
         13    1    1    2    0    0  0.22279332618E+02 -0.83888796546E+00  0.11653868012E+03  0.11865221247E+03  0.10566000000E+00 0. -1.
        994    1    1    2    0    0 -0.38405554523E+01  0.59574780405E+00  0.23328245242E+01  0.17125999782E+03  0.17120000000E+03 0.  0.
        998    1    1    2    0    0 -0.18438777165E+02  0.24314016141E+00  0.13811284916E+04  0.13812877897E+04  0.10000000000E+02 0. -1.
</event>
<event>
 5    1  0.1344348E-008  0.3752864E+03  0.7957747E-01  0.3471943E+00
         13   -1    0    0    0    0  0.00000000000E+00  0.00000000000E+00  0.14999999963E+04  0.15000000000E+04  0.10566000000E+00 0. -1.
        994   -1    0    0    0    0 -0.00000000000E+00 -0.00000000000E+00  0.11368683772E-12  0.17120000000E+03  0.17120000000E+03 0.  0.
         13    1    1    2    0    0  0.37489642926E+02 -0.32453007004E+02  0.16303054122E+03  0.17040434127E+03  0.10566000000E+00 0. -1.
        994    1    1    2    0    0 -0.39424448549E+02  0.36561252694E+02  0.16413394626E+02  0.18019392849E+03  0.17120000000E+03 0.  0.
        998    1    1    2    0    0  0.19348056226E+01 -0.41082456903E+01  0.13205560604E+04  0.13206017302E+04  0.10000000000E+02 0. -1.
</event>
<event>
 5    1  0.1344348E-008  0.3118974E+03  0.7957747E-01  0.3814580E+00
         13   -1    0    0    0    0  0.00000000000E+00  0.00000000000E+00  0.14999999963E+04  0.15000000000E+04  0.10566000000E+00 0. -1.
        994   -1    0    0    0    0 -0.00000000000E+00 -0.00000000000E+00  0.11368683772E-12  0.17120000000E+03  0.17120000000E+03 0.  0.
         13    1    1    2    0    0 -0.12676748103E+03 -0.13686520623E+03  0.77512356398E+03  0.79725694072E+03  0.10566000000E+00 0. -1.
        994    1    1    2    0    0  0.10570219564E+03  0.11275118014E+03  0.10544119451E+03  0.25360021350E+03  0.17120000000E+03 0.  0.
        998    1    1    2    0    0  0.21065285389E+02  0.24114026095E+02  0.61943523779E+03  0.62034284578E+03  0.10000000000E+02 0. -1.
</event>
<event>
 5    1  0.1344348E-008  0.3807701E+03  0.7957747E-01  0.3447812E+00
         13   -1    0    0    0    0  0.00000000000E+00  0.00000000000E+00  0.14999999963E+04  0.15000000000E+04  0.10566000000E+00 0.  1.
        994   -1    0    0    0    0 -0.00000000000E+00 -0.00000000000E+00  0.11368683772E-12  0.17120000000E+03  0.17120000000E+03 0.  0.
         13    1    1    2    0    0 -0.28745609948E+02 -0.50629958447E+01  0.10348248591E+03  0.10752013799E+03  0.10566000000E+00 0.  1.
        994    1    1    2    0    0  0.31780568803E+02  0.10520252920E+02  0.74907485002E+01  0.17460306867E+03  0.17120000000E+03 0.  0.
        998    1    1    2    0    0 -0.30349588553E+01 -0.54572570755E+01  0.13890267619E+04  0.13890767933E+04  0.10000000000E+02 0.  1.
</event>
<event>
 5    1  0.1344348E-008  0.3858727E+03  0.7957747E-01  0.3425979E+00
         13   -1    0    0    0    0  0.00000000000E+00  0.00000000000E+00  0.14999999963E+04  0.15000000000E+04  0.10566000000E+00 0. -1.
        994   -1    0    0    0    0 -0.00000000000E+00 -0.00000000000E+00  0.11368683772E-12  0.17120000000E+03  0.17120000000E+03 0.  0.
         13    1    1    2    0    0  0.10103543225E+02 -0.10190653931E+02  0.82839471403E+02  0.84073302538E+02  0.10566000000E+00 0. -1.
        994    1    1    2    0    0 -0.13706188025E+02  0.76375894756E+01  0.20052578022E+01  0.17192921050E+03  0.17120000000E+03 0.  0.
        998    1    1    2    0    0  0.36026448005E+01  0.25530644554E+01  0.14151552671E+04  0.14151974870E+04  0.10000000000E+02 0. -1.
</event>
<event>
 5    1  0.1344348E-008  0.3755436E+03  0.7957747E-01  0.3470795E+00
         13   -1    0    0    0    0  0.00000000000E+00  0.00000000000E+00  0.14999999963E+04  0.15000000000E+04  0.10566000000E+00 0. -1.
        994   -1    0    0    0    0 -0.00000000000E+00 -0.00000000000E+00  0.11368683772E-12  0.17120000000E+03  0.17120000000E+03 0.  0.
         13    1    1    2    0    0  0.26212081173E+02  0.15954122317E+02  0.69129888442E+02  0.75634382779E+02  0.10566000000E+00 0. -1.
        994    1    1    2    0    0 -0.24066090687E+02 -0.13323843474E+02  0.89715567028E+01  0.17362785017E+03  0.17120000000E+03 0.  0.
        998    1    1    2    0    0 -0.21459904864E+01 -0.26302788428E+01  0.14218985511E+04  0.14219377670E+04  0.10000000000E+02 0. -1.
</event>
<event>
 5    1  0.1344348E-008  0.3854643E+03  0.7957747E-01  0.3427706E+00
         13   -1    0    0    0    0  0.00000000000E+00  0.00000000000E+00  0.14999999963E+04  0.15000000000E+04  0.10566000000E+00 0.  1.
        994   -1    0    0    0    0 -0.00000000000E+00 -0.00000000000E+00  0.11368683772E-12  0.17120000000E+03  0.17120000000E+03 0.  0.
         13    1    1    2    0    0  0.15285380110E+02 -0.71563645935E+01  0.96173805269E+02  0.97643578300E+02  0.10566000000E+00 0.  1.
        994    1    1    2    0    0 -0.18082999441E+02  0.44554531424E+01  0.25395756347E+01  0.17222872982E+03  0.17120000000E+03 0.  0.
        998    1    1    2    0    0  0.27976193311E+01  0.27009114512E+01  0.14012866154E+04  0.14013276919E+04  0.10000000000E+02 0.  1.
</event>
<event>
 5    1  0.1344348E-008  0.3780418E+03  0.7957747E-01  0.3459729E+00
         13   -1    0    0    0    0  0.00000000000E+00  0.00000000000E+00  0.14999999963E+04  0.15000000000E+04  0.10566000000E+00 0.  1.
        994   -1    0    0    0    0 -0.00000000000E+00 -0.00000000000E+00  0.11368683772E-12  0.17120000000E+03  0.17120000000E+03 0.  0.
         13    1    1    2    0    0 -0.11084723762E+02  0.60413182284E+02  0.32591804594E+03  0.33165525403E+03  0.10566000000E+00 0.  1.
        994    1    1    2    0    0  0.53601438287E+01 -0.48098084650E+02  0.13046359753E+02  0.17838667100E+03  0.17120000000E+03 0.  0.
        998    1    1    2    0    0  0.57245799329E+01 -0.12315097634E+02  0.11610355906E+04  0.11611580750E+04  0.10000000000E+02 0.  1.
</event>
<event>
 5    1  0.1344348E-008  0.3858831E+03  0.7957747E-01  0.3425935E+00
         13   -1    0    0    0    0  0.00000000000E+00  0.00000000000E+00  0.14999999963E+04  0.15000000000E+04  0.10566000000E+00 0.  1.
        994   -1    0    0    0    0 -0.00000000000E+00 -0.00000000000E+00  0.11368683772E-12  0.17120000000E+03  0.17120000000E+03 0.  0.
         13    1    1    2    0    0 -0.69259650983E+01  0.12149037544E+02  0.78943532580E+02  0.80172692396E+02  0.10566000000E+00 0.  1.
        994    1    1    2    0    0  0.10910717087E+02 -0.11197222139E+02  0.19942362037E+01  0.17192393233E+03  0.17120000000E+03 0.  0.
        998    1    1    2    0    0 -0.39847519886E+01 -0.95181540544E+00  0.14190622275E+04  0.14191033753E+04  0.10000000000E+02 0.  1.
</event>
<event>
 5    1  0.1344348E-008  0.3834658E+03  0.7957747E-01  0.3436205E+00
         13   -1    0    0    0    0  0.00000000000E+00  0.00000000000E+00  0.14999999963E+04  0.15000000000E+04  0.10566000000E+00 0.  1.
        994   -1    0    0    0    0 -0.00000000000E+00 -0.00000000000E+00  0.11368683772E-12  0.17120000000E+03  0.17120000000E+03 0.  0.
         13    1    1    2    0    0  0.15863831988E+01 -0.13188791053E+02  0.39775526983E+02  0.41935242123E+02  0.10566000000E+00 0.  1.
        994    1    1    2    0    0  0.11114006631E+02 -0.12062628210E+02  0.32834376150E+01  0.17201525835E+03  0.17120000000E+03 0.  0.
        998    1    1    2    0    0 -0.12700389829E+02  0.25251419263E+02  0.14569410317E+04  0.14572494995E+04  0.10000000000E+02 0.  1.
</event>
<event>
 5    1  0.1344348E-008  0.3859120E+03  0.7957747E-01  0.3425813E+00
         13   -1    0    0    0    0  0.00000000000E+00  0.00000000000E+00  0.14999999963E+04  0.15000000000E+04  0.10566000000E+00 0.  1.
        994   -1    0    0    0    0 -0.00000000000E+00 -0.00000000000E+00  0.11368683772E-12  0.17120000000E+03  0.17120000000E+03 0.  0.
         13    1    1    2    0    0 -0.10713470588E+02 -0.47590929602E+01  0.61965320135E+02  0.63064565972E+02  0.10566000000E+00 0.  1.
        994    1    1    2    0    0  0.26773682831E+01 -0.35645442072E+01  0.12431694294E+01  0.17126254625E+03  0.17120000000E+03 0.  0.
        998    1    1    2    0    0  0.80361023051E+01  0.83236371674E+01  0.14367915067E+04  0.14368728878E+04  0.10000000000E+02 0.  1.
</event>
<event>
 5    1  0.1344348E-008  0.3774076E+03  0.7957747E-01  0.3462525E+00
         13   -1    0    0    0    0  0.00000000000E+00  0.00000000000E+00  0.14999999963E+04  0.15000000000E+04  0.10566000000E+00 0.  1.
        994   -1    0    0    0    0 -0.00000000000E+00 -0.00000000000E+00  0.11368683772E-12  0.17120000000E+03  0.17120000000E+03 0.  0.
         13    1    1    2    0    0 -0.85144527966E+01  0.88313556757E+01 -0.19210095570E+01  0.12417334305E+02  0.10566000000E+00 0.  1.
        994    1    1    2    0    0  0.10680396008E+02 -0.14859070337E+02  0.16113363267E+02  0.17292756665E+03  0.17120000000E+03 0.  0.
        998    1    1    2    0    0 -0.21659432115E+01  0.60277146609E+01  0.14858076426E+04  0.14858550990E+04  0.10000000000E+02 0.  1.
</event>
<event>
 5    1  0.1344348E-008  0.3814668E+03  0.7957747E-01  0.3444797E+00
         13   -1    0    0    0    0  0.00000000000E+00  0.00000000000E+00  0.14999999963E+04  0.15000000000E+04  0.10566000000E+00 0.  1.
        994   -1    0    0    0    0 -0.00000000000E+00 -0.00000000000E+00  0.11368683772E-12  0.17120000000E+03  0.17120000000E+03 0.  0.
         13    1    1    2    0    0  0.13313521107E+02  0.66676078408E+01  0.32858244733E+02  0.36074676015E+02  0.10566000000E+00 0.  1.
        994    1    1    2    0    0  0.64600444401E+00  0.62968561839E+01  0.35278710968E+01  0.17135330051E+03  0.17120000000E+03 0.  0.
        998    1    1    2    0    0 -0.13959525551E+02 -0.12964464025E+02  0.14636138804E+04  0.14637720235E+04  0.10000000000E+02 0.  1.
</event>
<event>
 5    1  0.1344348E-008  0.3852097E+03  0.7957747E-01  0.3428783E+00
         13   -1    0    0    0    0  0.00000000000E+00  0.00000000000E+00  0.14999999963E+04  0.15000000000E+04  0.10566000000E+00 0. -1.
        994   -1    0    0    0    0 -0.00000000000E+00 -0.00000000000E+00  0.11368683772E-12  0.17120000000E+03  0.17120000000E+03 0.  0.
         13    1    1    2    0    0  0.11385770250E+02 -0.72202134417E+01  0.56825548184E+02  0.58403093555E+02  0.10566000000E+00 0. -1.
        994    1    1    2    0    0 -0.14473656506E+02  0.89020874646E+01  0.24755453386E+01  0.17205900796E+03  0.17120000000E+03 0.  0.
        998    1    1    2    0    0  0.30878862561E+01 -0.16818740229E+01  0.14406989028E+04  0.14407378985E+04  0.10000000000E+02 0. -1.
</event>
<event>
 5    1  0.1344348E-008  0.3823768E+03  0.7957747E-01  0.3440874E+00
         13   -1    0    0    0    0  0.00000000000E+00  0.00000000000E+00  0.14999999963E+04  0.15000000000E+04  0.10566000000E+00 0.  1.
        994   -1    0    0    0    0 -0.00000000000E+00 -0.00000000000E+00  0.11368683772E-12  0.17120000000E+03  0.17120000000E+03 0.  0.
         13    1    1    2    0    0 -0.25397647896E+01  0.10859526236E+02  0.19731834803E+02  0.22665749138E+02  0.10566000000E+00 0.  1.
        994    1    1    2    0    0  0.43664314082E+01 -0.12133500630E+02  0.34898790558E+01  0.17172043215E+03  0.17120000000E+03 0.  0.
        998    1    1    2    0    0 -0.18266666186E+01  0.12739743936E+01  0.14767782824E+04  0.14768138187E+04  0.10000000000E+02 0.  1.
</event>
<event>
 5    1  0.1344348E-008  0.3834750E+03  0.7957747E-01  0.3436166E+00
         13   -1    0    0    0    0  0.00000000000E+00  0.00000000000E+00  0.14999999963E+04  0.15000000000E+04  0.10566000000E+00 0.  1.
        994   -1    0    0    0    0 -0.00000000000E+00 -0.00000000000E+00  0.11368683772E-12  0.17120000000E+03  0.17120000000E+03 0.  0.
         13    1    1    2    0    0  0.18513238520E+01 -0.13881670808E+02  0.44098437187E+02  0.46268904361E+02  0.10566000000E+00 0.  1.
        994    1    1    2    0    0  0.19677378401E+01 -0.10160941045E+02  0.27432562381E+01  0.17153449265E+03  0.17120000000E+03 0.  0.
        998    1    1    2    0    0 -0.38190616921E+01  0.24042611852E+02  0.14531583029E+04  0.14533966030E+04  0.10000000000E+02 0.  1.
</event>
<event>
 5    1  0.1344348E-008  0.3814849E+03  0.7957747E-01  0.3444718E+00
         13   -1    0    0    0    0  0.00000000000E+00  0.00000000000E+00  0.14999999963E+04  0.15000000000E+04  0.10566000000E+00 0.  1.
        994   -1    0    0    0    0 -0.00000000000E+00 -0.00000000000E+00  0.11368683772E-12  0.17120000000E+03  0.17120000000E+03 0.  0.
         13    1    1    2    0    0  0.10726187711E+02 -0.37500714596E+01  0.17630597058E+02  0.20975301081E+02  0.10566000000E+00 0.  1.
        994    1    1    2    0    0 -0.81235689334E+01  0.43444414578E+01  0.36678309007E+01  0.17148690774E+03  0.17120000000E+03 0.  0.
        998    1    1    2    0    0 -0.26026187781E+01 -0.59436999814E+00  0.14787015683E+04  0.14787377912E+04  0.10000000000E+02 0.  1.
</event>
<event>
 5    1  0.1344348E-008  0.3820397E+03  0.7957747E-01  0.3442325E+00
         13   -1    0    0    0    0  0.00000000000E+00  0.00000000000E+00  0.14999999963E+04  0.15000000000E+04  0.10566000000E+00 0. -1.
        994   -1    0    0    0    0 -0.00000000000E+00 -0.00000000000E+00  0.11368683772E-12  0.17120000000E+03  0.17120000000E+03 0.  0.
         13    1    1    2    0    0  0.87601443718E+02 -0.72279088378E+01  0.50925558651E+03  0.51678575751E+03  0.10566000000E+00 0. -1.
        994    1    1    2    0    0 -0.12234503552E+03 -0.95420561132E+01  0.54838858659E+02  0.21766051312E+03  0.17120000000E+03 0.  0.
        998    1    1    2    0    0  0.34743591806E+02  0.16769964951E+02  0.93590555111E+03  0.93675372937E+03  0.10000000000E+02 0. -1.
</event>
<event>
 5    1  0.1344348E-008  0.4385984E+03  0.7957747E-01  0.3229962E+00
         13   -1    0    0    0    0  0.00000000000E+00  0.00000000000E+00  0.14999999963E+04  0.15000000000E+04  0.10566000000E+00 0. -1.
        994   -1    0    0    0    0 -0.00000000000E+00 -0.00000000000E+00  0.11368683772E-12  0.17120000000E+03  0.17120000000E+03 0.  0.
         13    1    1    2    0    0  0.11903948925E+03 -0.81090837196E+01  0.10565287764E+03  0.15936969272E+03  0.10566000000E+00 0. -1.
        994    1    1    2    0    0 -0.12890075596E+03  0.12126941039E+02  0.13752135577E+03  0.25491965574E+03  0.17120000000E+03 0.  0.
        998    1    1    2    0    0  0.98612667060E+01 -0.40178573190E+01  0.12568257629E+04  0.12569106515E+04  0.10000000000E+02 0. -1.
</event>
<event>
 5    1  0.1379015E-008  0.3862700E+03  0.7957747E-01  0.3424304E+00
         13   -1    0    0    0    0  0.00000000000E+00  0.00000000000E+00  0.14999999963E+04  0.15000000000E+04  0.10566000000E+00 0.  1.
        994   -1    0    0    0    0 -0.00000000000E+00 -0.00000000000E+00  0.11368683772E-12  0.17120000000E+03  0.17120000000E+03 0.  0.
         13    1    1    2    0    0  0.12405245188E+02  0.23296676993E+01  0.72690821586E+02  0.73778615917E+02  0.10566000000E+00 0.  1.
        994    1    1    2    0    0 -0.17784417749E+02 -0.24120651027E+02  0.39478425119E+01  0.17384797031E+03  0.17120000000E+03 0.  0.
        998    1    1    2    0    0  0.53791725609E+01  0.21790983327E+02  0.14233613322E+04  0.14235734138E+04  0.10000000000E+02 0.  1.
</event>
<event>
 5    1  0.1344348E-008  0.3776402E+03  0.7957747E-01  0.3461498E+00
         13   -1    0    0    0    0  0.00000000000E+00  0.00000000000E+00  0.14999999963E+04  0.15000000000E+04  0.10566000000E+00 0.  1.
        994   -1    0    0    0    0 -0.00000000000E+00 -0.00000000000E+00  0.11368683772E-12  0.17120000000E+03  0.17120000000E+03 0.  0.
         13    1    1    2    0    0  0.10168054813E+02  0.25516999254E+02  0.73192212596E+02  0.78176836329E+02  0.10566000000E+00 0.  1.
        994    1    1    2    0    0  0.10057464890E+02 -0.62335347152E+01  0.58009893584E+01  0.17170643853E+03  0.17120000000E+03 0.  0.
        998    1    1    2    0    0 -0.20225519704E+02 -0.19283464538E+02  0.14210067943E+04  0.14213167251E+04  0.10000000000E+02 0.  1.
</event>
<event>
 5    1  0.1344348E-008  0.3852276E+03  0.7957747E-01  0.3428707E+00
         13   -1    0    0    0    0  0.00000000000E+00  0.00000000000E+00  0.14999999963E+04  0.15000000000E+04  0.10566000000E+00 0. -1.
        994   -1    0    0    0    0 -0.00000000000E+00 -0.00000000000E+00  0.11368683772E-12  0.17120000000E+03  0.17120000000E+03 0.  0.
         13    1    1    2    0    0 -0.12077816031E+02  0.11814701580E+02  0.88164039385E+02  0.89768423280E+02  0.10566000000E+00 0. -1.
        994    1    1    2    0    0  0.16161238763E+02 -0.11851904627E+02  0.28382098736E+01  0.17239242651E+03  0.17120000000E+03 0.  0.
        998    1    1    2    0    0 -0.40834227322E+01  0.37203047455E-01  0.14089977470E+04  0.14090391502E+04  0.10000000000E+02 0. -1.
</event>
<event>
 5    1  0.1344348E-008  0.3794262E+03  0.7957747E-01  0.3453661E+00
         13   -1    0    0    0    0  0.00000000000E+00  0.00000000000E+00  0.14999999963E+04  0.15000000000E+04  0.10566000000E+00 0.  1.
        994   -1    0    0    0    0 -0.00000000000E+00 -0.00000000000E+00  0.11368683772E-12  0.17120000000E+03  0.17120000000E+03 0.  0.
         13    1    1    2    0    0 -0.35662424007E+01 -0.27178257420E+02  0.88299502169E+02  0.92456416806E+02  0.10566000000E+00 0.  1.
        994    1    1    2    0    0 -0.12386782826E+01  0.50168118571E+01  0.45125398889E+01  0.17133740322E+03  0.17120000000E+03 0.  0.
        998    1    1    2    0    0  0.48049206833E+01  0.22161445563E+02  0.14071879542E+04  0.14074061800E+04  0.10000000000E+02 0.  1.
</event>
<event>
 5    1  0.1344348E-008  0.2655178E+03  0.7957747E-01  0.4177774E+00
         13   -1    0    0    0    0  0.00000000000E+00  0.00000000000E+00  0.14999999963E+04  0.15000000000E+04  0.10566000000E+00 0.  1.
        994   -1    0    0    0    0 -0.00000000000E+00 -0.00000000000E+00  0.11368683772E-12  0.17120000000E+03  0.17120000000E+03 0.  0.
         13    1    1    2    0    0 -0.14316382971E+03  0.45259649210E+02  0.60457293957E+03  0.62293881594E+03  0.10566000000E+00 0.  1.
        994    1    1    2    0    0  0.37913126814E+02  0.17168277913E+02  0.35643984756E+02  0.17975563580E+03  0.17120000000E+03 0.  0.
        998    1    1    2    0    0  0.10525070289E+03 -0.62427927124E+02  0.85978307195E+03  0.86850554826E+03  0.10000000000E+02 0.  1.
</event>
<event>
 5    1  0.1344348E-008  0.3765096E+03  0.7957747E-01  0.3466499E+00
         13   -1    0    0    0    0  0.00000000000E+00  0.00000000000E+00  0.14999999963E+04  0.15000000000E+04  0.10566000000E+00 0. -1.
        994   -1    0    0    0    0 -0.00000000000E+00 -0.00000000000E+00  0.11368683772E-12  0.17120000000E+03  0.17120000000E+03 0.  0.
         13    1    1    2    0    0  0.14534433263E+02 -0.14294762544E+02  0.33263251656E+02  0.39013395921E+02  0.10566000000E+00 0. -1.
        994    1    1    2    0    0 -0.99613950635E+00  0.11491211940E+02  0.63555953610E+01  0.17170577695E+03  0.17120000000E+03 0.  0.
        998    1    1    2    0    0 -0.13538293757E+02  0.28035506037E+01  0.14603811493E+04  0.14604808271E+04  0.10000000000E+02 0. -1.
</event>
<event>
 5    1  0.3412257E-008  0.3865156E+03  0.7957747E-01  0.3423270E+00
         13   -1    0    0    0    0  0.00000000000E+00  0.00000000000E+00  0.14999999963E+04  0.15000000000E+04  0.10566000000E+00 0.  1.
        994   -1    0    0    0    0 -0.00000000000E+00 -0.00000000000E+00  0.11368683772E-12  0.17120000000E+03  0.17120000000E+03 0.  0.
         13    1    1    2    0    0 -0.18259231769E+01 -0.10259008893E+02  0.61084393041E+02  0.61966890322E+02  0.10566000000E+00 0.  1.
        994    1    1    2    0    0  0.42626384081E+01  0.10359044741E+02  0.12902731852E+01  0.17157093198E+03  0.17120000000E+03 0.  0.
        998    1    1    2    0    0 -0.24367152313E+01 -0.10003584861E+00  0.14376253301E+04  0.14376621777E+04  0.10000000000E+02 0.  1.
</event>
<event>
 5    1  0.1344348E-008  0.3764528E+03  0.7957747E-01  0.3466751E+00
         13   -1    0    0    0    0  0.00000000000E+00  0.00000000000E+00  0.14999999963E+04  0.15000000000E+04  0.10566000000E+00 0. -1.
        994   -1    0    0    0    0 -0.00000000000E+00 -0.00000000000E+00  0.11368683772E-12  0.17120000000E+03  0.17120000000E+03 0.  0.
         13    1    1    2    0    0 -0.26422690845E+02 -0.38823784653E+01  0.58983623963E+02  0.64748054132E+02  0.10566000000E+00 0. -1.
        994    1    1    2    0    0  0.94240949525E+01  0.15977133345E+02  0.70993077263E+01  0.17234825942E+03  0.17120000000E+03 0.  0.
        998    1    1    2    0    0  0.16998595892E+02 -0.12094754880E+02  0.14339170646E+04  0.14341036864E+04  0.10000000000E+02 0. -1.
</event>
<event>
 5    1  0.1344348E-008  0.3837069E+03  0.7957747E-01  0.3435175E+00
         13   -1    0    0    0    0  0.00000000000E+00  0.00000000000E+00  0.14999999963E+04  0.15000000000E+04  0.10566000000E+00 0.  1.
        994   -1    0    0    0    0 -0.00000000000E+00 -0.00000000000E+00  0.11368683772E-12  0.17120000000E+03  0.17120000000E+03 0.  0.
         13    1    1    2    0    0  0.44755737505E+01 -0.13761221803E+02  0.45458024853E+02  0.47705819074E+02  0.10566000000E+00 0.  1.
        994    1    1    2    0    0 -0.29313224724E+01  0.92277048972E+01  0.25831446857E+01  0.17149301976E+03  0.17120000000E+03 0.  0.
        998    1    1    2    0    0 -0.15442512781E+01  0.45335169061E+01  0.14519588267E+04  0.14520011612E+04  0.10000000000E+02 0.  1.
</event>
<event>
 5    1  0.1344348E-008  0.3722699E+03  0.7957747E-01  0.3485523E+00
         13   -1    0    0    0    0  0.00000000000E+00  0.00000000000E+00  0.14999999963E+04  0.15000000000E+04  0.10566000000E+00 0. -1.
        994   -1    0    0    0    0 -0.00000000000E+00 -0.00000000000E+00  0.11368683772E-12  0.17120000000E+03  0.17120000000E+03 0.  0.
         13    1    1    2    0    0 -0.11389747174E+02 -0.57697286270E+01  0.63708217472E+01  0.14269360283E+02  0.10566000000E+00 0. -1.
        994    1    1    2    0    0  0.82102523843E+01  0.66802174116E+01  0.84718608296E+01  0.17173597752E+03  0.17120000000E+03 0.  0.
        998    1    1    2    0    0  0.31794947892E+01 -0.91048878461E+00  0.14851573137E+04  0.14851946622E+04  0.10000000000E+02 0. -1.
</event>
<event>
 5    1  0.1344348E-008  0.3834401E+03  0.7957747E-01  0.3436315E+00
         13   -1    0    0    0    0  0.00000000000E+00  0.00000000000E+00  0.14999999963E+04  0.15000000000E+04  0.10566000000E+00 0. -1.
        994   -1    0    0    0    0 -0.00000000000E+00 -0.00000000000E+00  0.11368683772E-12  0.17120000000E+03  0.17120000000E+03 0.  0.
         13    1    1    2    0    0  0.15315099551E+02  0.93781388448E+01  0.64111679950E+02  0.66579429499E+02  0.10566000000E+00 0. -1.
        994    1    1    2    0    0 -0.17254917607E+02 -0.68092612897E+01  0.35447784018E+01  0.17223850811E+03  0.17120000000E+03 0.  0.
        998    1    1    2    0    0  0.19398180560E+01 -0.25688775551E+01  0.14323435379E+04  0.14323820624E+04  0.10000000000E+02 0. -1.
</event>
<event>
 5    1  0.1344348E-008  0.3835762E+03  0.7957747E-01  0.3435733E+00
         13   -1    0    0    0    0  0.00000000000E+00  0.00000000000E+00  0.14999999963E+04  0.15000000000E+04  0.10566000000E+00 0. -1.
        994   -1    0    0    0    0 -0.00000000000E+00 -0.00000000000E+00  0.11368683772E-12  0.17120000000E+03  0.17120000000E+03 0.  0.
         13    1    1    2    0    0  0.17809222243E+02 -0.20505996458E+02  0.15576237585E+03  0.15811259653E+03  0.10566000000E+00 0. -1.
        994    1    1    2    0    0 -0.18671130228E+02  0.68936827516E+01  0.36485608254E+01  0.17239166442E+03  0.17120000000E+03 0.  0.
        998    1    1    2    0    0  0.86190798491E+00  0.13612313706E+02  0.13405890596E+04  0.13406957390E+04  0.10000000000E+02 0. -1.
</event>
<event>
 5    1  0.1344348E-008  0.3849786E+03  0.7957747E-01  0.3429763E+00
         13   -1    0    0    0    0  0.00000000000E+00  0.00000000000E+00  0.14999999963E+04  0.15000000000E+04  0.10566000000E+00 0. -1.
        994   -1    0    0    0    0 -0.00000000000E+00 -0.00000000000E+00  0.11368683772E-12  0.17120000000E+03  0.17120000000E+03 0.  0.
         13    1    1    2    0    0  0.20034563676E+01 -0.15209964180E+02  0.67581439424E+02  0.69300930488E+02  0.10566000000E+00 0. -1.
        994    1    1    2    0    0 -0.86397623375E+01  0.18518902542E+02  0.30153656746E+01  0.17244166456E+03  0.17120000000E+03 0.  0.
        998    1    1    2    0    0  0.66363059699E+01 -0.33089383613E+01  0.14294031912E+04  0.14294574050E+04  0.10000000000E+02 0. -1.
</event>
<event>
 5    1  0.1344348E-008  0.3752616E+03  0.7957747E-01  0.3472054E+00
         13   -1    0    0    0    0  0.00000000000E+00  0.00000000000E+00  0.14999999963E+04  0.15000000000E+04  0.10566000000E+00 0.  1.
        994   -1    0    0    0    0 -0.00000000000E+00 -0.00000000000E+00  0.11368683772E-12  0.17120000000E+03  0.17120000000E+03 0.  0.
         13    1    1    2    0    0 -0.31588458525E+02  0.40273641906E+01  0.69283360860E+02  0.76251200846E+02  0.10566000000E+00 0.  1.
        994    1    1    2    0    0  0.40742133953E+02 -0.13973160355E+02  0.12871136162E+02  0.17700360684E+03  0.17120000000E+03 0.  0.
        998    1    1    2    0    0 -0.91536754276E+01  0.99457961648E+01  0.14178454993E+04  0.14179451923E+04  0.10000000000E+02 0.  1.
</event>
<event>
 5    1  0.1344348E-008  0.3783720E+03  0.7957747E-01  0.3458278E+00
         13   -1    0    0    0    0  0.00000000000E+00  0.00000000000E+00  0.14999999963E+04  0.15000000000E+04  0.10566000000E+00 0.  1.
        994   -1    0    0    0    0 -0.00000000000E+00 -0.00000000000E+00  0.11368683772E-12  0.17120000000E+03  0.17120000000E+03 0.  0.
         13    1    1    2    0    0 -0.13040669326E+02 -0.16405562100E+02  0.42308793454E+02  0.47214899045E+02  0.10566000000E+00 0.  1.
        994    1    1    2    0    0  0.80907822524E+01  0.11827394653E+02  0.56476792894E+01  0.17189148991E+03  0.17120000000E+03 0.  0.
        998    1    1    2    0    0  0.49498870740E+01  0.45781674470E+01  0.14520435235E+04  0.14520936110E+04  0.10000000000E+02 0.  1.
</event>
<event>
 5    1  0.1344348E-008  0.3815503E+03  0.7957747E-01  0.3444436E+00
         13   -1    0    0    0    0  0.00000000000E+00  0.00000000000E+00  0.14999999963E+04  0.15000000000E+04  0.10566000000E+00 0.  1.
        994   -1    0    0    0    0 -0.00000000000E+00 -0.00000000000E+00  0.11368683772E-12  0.17120000000E+03  0.17120000000E+03 0.  0.
         13    1    1    2    0    0  0.37974442446E+02  0.65247678199E+02  0.45319459049E+03  0.45943951267E+03  0.10566000000E+00 0.  1.
        994    1    1    2    0    0 -0.95770600129E+02 -0.63802586228E+02  0.48726739757E+02  0.21195875312E+03  0.17120000000E+03 0.  0.
        998    1    1    2    0    0  0.57796157684E+02 -0.14450919713E+01  0.99807866603E+03  0.99980173421E+03  0.10000000000E+02 0.  1.
</event>
<event>
 5    1  0.1344348E-008  0.3839986E+03  0.7957747E-01  0.3433930E+00
         13   -1    0    0    0    0  0.00000000000E+00  0.00000000000E+00  0.14999999963E+04  0.15000000000E+04  0.10566000000E+00 0.  1.
        994   -1    0    0    0    0 -0.00000000000E+00 -0.00000000000E+00  0.11368683772E-12  0.17120000000E+03  0.17120000000E+03 0.  0.
         13    1    1    2    0    0 -0.20195163971E+02 -0.94761057227E+01  0.13348548780E+03  0.13533672024E+03  0.10566000000E+00 0.  1.
        994    1    1    2    0    0 -0.25854423205E+01 -0.89372261298E+00  0.21528280324E+01  0.17123538747E+03  0.17120000000E+03 0.  0.
        998    1    1    2    0    0  0.22780606291E+02  0.10369828336E+02  0.13643616804E+04  0.13646278923E+04  0.10000000000E+02 0.  1.
</event>
<event>
 5    1  0.1344348E-008  0.3858666E+03  0.7957747E-01  0.3426005E+00
         13   -1    0    0    0    0  0.00000000000E+00  0.00000000000E+00  0.14999999963E+04  0.15000000000E+04  0.10566000000E+00 0. -1.
        994   -1    0    0    0    0 -0.00000000000E+00 -0.00000000000E+00  0.11368683772E-12  0.17120000000E+03  0.17120000000E+03 0.  0.
         13    1    1    2    0    0 -0.13069915748E+01  0.10383512392E+02  0.46169460212E+02  0.47340846812E+02  0.10566000000E+00 0. -1.
        994    1    1    2    0    0  0.18336996889E+02 -0.47133062367E+01  0.23769310175E+01  0.17226012455E+03  0.17120000000E+03 0.  0.
        998    1    1    2    0    0 -0.17030005314E+02 -0.56702061551E+01  0.14514536050E+04  0.14515990286E+04  0.10000000000E+02 0. -1.
</event>
<event>
 5    1  0.1344348E-008  0.3690506E+03  0.7957747E-01  0.3500265E+00
         13   -1    0    0    0    0  0.00000000000E+00  0.00000000000E+00  0.14999999963E+04  0.15000000000E+04  0.10566000000E+00 0. -1.
        994   -1    0    0    0    0 -0.00000000000E+00 -0.00000000000E+00  0.11368683772E-12  0.17120000000E+03  0.17120000000E+03 0.  0.
         13    1    1    2    0    0 -0.10246758490E+02 -0.26354215068E+02  0.32019250011E+02  0.42717493451E+02  0.10566000000E+00 0. -1.
        994    1    1    2    0    0  0.31132917373E+02  0.35095451956E+02  0.18146260376E+02  0.17843675647E+03  0.17120000000E+03 0.  0.
        998    1    1    2    0    0 -0.20886158883E+02 -0.87412368872E+01  0.14498344859E+04  0.14500457501E+04  0.10000000000E+02 0. -1.
</event>
<event>
 5    1  0.1344348E-008  0.3715630E+03  0.7957747E-01  0.3488738E+00
         13   -1    0    0    0    0  0.00000000000E+00  0.00000000000E+00  0.14999999963E+04  0.15000000000E+04  0.10566000000E+00 0. -1.
        994   -1    0    0    0    0 -0.00000000000E+00 -0.00000000000E+00  0.11368683772E-12  0.17120000000E+03  0.17120000000E+03 0.  0.
         13    1    1    2    0    0  0.78713974166E+02  0.36706059534E+01  0.41239114219E+03  0.41985215064E+03  0.10566000000E+00 0. -1.
        994    1    1    2    0    0 -0.30664929403E+02 -0.26705852537E+01  0.11719798765E+02  0.17433950672E+03  0.17120000000E+03 0.  0.
        998    1    1    2    0    0 -0.48049044764E+02 -0.10000206997E+01  0.10758890553E+04  0.10770083426E+04  0.10000000000E+02 0.  0.
</event>
<event>
 5    1  0.1344348E-008  0.3839254E+03  0.7957747E-01  0.3434243E+00
         13   -1    0    0    0    0  0.00000000000E+00  0.00000000000E+00  0.14999999963E+04  0.15000000000E+04  0.10566000000E+00 0.  1.
        994   -1    0    0    0    0 -0.00000000000E+00 -0.00000000000E+00  0.11368683772E-12  0.17120000000E+03  0.17120000000E+03 0.  0.
         13    1    1    2    0    0  0.37862028212E+01  0.11592954095E+02  0.34523104749E+02  0.36614038865E+02  0.10566000000E+00 0.  1.
        994    1    1    2    0    0  0.97416991872E+00 -0.34775702349E+01  0.22076641821E+01  0.17125231760E+03  0.17120000000E+03 0.  0.
        998    1    1    2    0    0 -0.47603727399E+01 -0.81153838597E+01  0.14632692273E+04  0.14633336435E+04  0.10000000000E+02 0.  1.
</event>
<event>
 5    1  0.1344348E-008  0.3799514E+03  0.7957747E-01  0.3451370E+00
         13   -1    0    0    0    0  0.00000000000E+00  0.00000000000E+00  0.14999999963E+04  0.15000000000E+04  0.10566000000E+00 0.  1.
        994   -1    0    0    0    0 -0.00000000000E+00 -0.00000000000E+00  0.11368683772E-12  0.17120000000E+03  0.17120000000E+03 0.  0.
         13    1    1    2    0    0  0.16233429079E+02  0.13729344011E+02  0.47113863955E+02  0.51688939314E+02  0.10566000000E+00 0.  1.
        994    1    1    2    0    0 -0.36166290613E+02 -0.27059293008E+02  0.11009385501E+02  0.17740026066E+03  0.17120000000E+03 0.  0.
        998    1    1    2    0    0  0.19932861534E+02  0.13329948996E+02  0.14418767468E+04  0.14421108000E+04  0.10000000000E+02 0.  1.
</event>
<event>
 5    1  0.1344348E-008  0.3749113E+03  0.7957747E-01  0.3473620E+00
         13   -1    0    0    0    0  0.00000000000E+00  0.00000000000E+00  0.14999999963E+04  0.15000000000E+04  0.10566000000E+00 0. -1.
        994   -1    0    0    0    0 -0.00000000000E+00 -0.00000000000E+00  0.11368683772E-12  0.17120000000E+03  0.17120000000E+03 0.  0.
         13    1    1    2    0    0 -0.13603981898E+02  0.41465544637E+02  0.12768637071E+03  0.13493806040E+03  0.10566000000E+00 0. -1.
        994    1    1    2    0    0  0.11749847881E+02 -0.43105773429E+02  0.13542128565E+02  0.17745139017E+03  0.17120000000E+03 0.  0.
        998    1    1    2    0    0  0.18541340169E+01  0.16402287916E+01  0.13587714970E+04  0.13588105494E+04  0.10000000000E+02 0. -1.
</event>
<event>
 5    1  0.1344348E-008  0.3773655E+03  0.7957747E-01  0.3462710E+00
         13   -1    0    0    0    0  0.00000000000E+00  0.00000000000E+00  0.14999999963E+04  0.15000000000E+04  0.10566000000E+00 0. -1.
        994   -1    0    0    0    0 -0.00000000000E+00 -0.00000000000E+00  0.11368683772E-12  0.17120000000E+03  0.17120000000E+03 0.  0.
         13    1    1    2    0    0 -0.93556979519E+01 -0.46304137793E+01  0.74506126236E+01  0.12825467182E+02  0.10566000000E+00 0. -1.
        994    1    1    2    0    0  0.89643409827E+01  0.20203809680E+01  0.57537829046E+01  0.17154296070E+03  0.17120000000E+03 0.  0.
        998    1    1    2    0    0  0.39135696918E+00  0.26100328113E+01  0.14867956008E+04  0.14868315721E+04  0.10000000000E+02 0. -1.
</event>
<event>
 5    1  0.1344348E-008  0.3851690E+03  0.7957747E-01  0.3428956E+00
         13   -1    0    0    0    0  0.00000000000E+00  0.00000000000E+00  0.14999999963E+04  0.15000000000E+04  0.10566000000E+00 0. -1.
        994   -1    0    0    0    0 -0.00000000000E+00 -0.00000000000E+00  0.11368683772E-12  0.17120000000E+03  0.17120000000E+03 0.  0.
         13    1    1    2    0    0  0.83327163966E+01  0.97919322668E+01  0.52230032660E+02  0.53789437400E+02  0.10566000000E+00 0. -1.
        994    1    1    2    0    0 -0.11083033347E+02 -0.73252955448E+01  0.21265617609E+01  0.17172785402E+03  0.17120000000E+03 0.  0.
        998    1    1    2    0    0  0.27503169502E+01 -0.24666367220E+01  0.14456434019E+04  0.14456827086E+04  0.10000000000E+02 0. -1.
</event>
<event>
 5    1  0.1344348E-008  0.3830307E+03  0.7957747E-01  0.3438067E+00
         13   -1    0    0    0    0  0.00000000000E+00  0.00000000000E+00  0.14999999963E+04  0.15000000000E+04  0.10566000000E+00 0. -1.
        994   -1    0    0    0    0 -0.00000000000E+00 -0.00000000000E+00  0.11368683772E-12  0.17120000000E+03  0.17120000000E+03 0.  0.
         13    1    1    2    0    0 -0.84795549261E+01  0.11638992761E+02  0.38913672025E+02  0.41492819123E+02  0.10566000000E+00 0. -1.
        994    1    1    2    0    0  0.34645308018E+02  0.12887143720E+02  0.71466357174E+01  0.17529087325E+03  0.17120000000E+03 0.  0.
        998    1    1    2    0    0 -0.26165753092E+02 -0.24526136482E+02  0.14539396885E+04  0.14544163076E+04  0.10000000000E+02 0. -1.
</event>
<event>
 5    1  0.1344348E-008  0.3838860E+03  0.7957747E-01  0.3434411E+00
         13   -1    0    0    0    0  0.00000000000E+00  0.00000000000E+00  0.14999999963E+04  0.15000000000E+04  0.10566000000E+00 0.  1.
        994   -1    0    0    0    0 -0.00000000000E+00 -0.00000000000E+00  0.11368683772E-12  0.17120000000E+03  0.17120000000E+03 0.  0.
         13    1    1    2    0    0  0.39178937039E+01 -0.27453793464E+02  0.16225993511E+03  0.16461275276E+03  0.10566000000E+00 0.  1.
        994    1    1    2    0    0 -0.13439321808E+02  0.24118974589E+02  0.47044660655E+01  0.17347597040E+03  0.17120000000E+03 0.  0.
        998    1    1    2    0    0  0.95214281038E+01  0.33348188749E+01  0.13330355951E+04  0.13331112768E+04  0.10000000000E+02 0.  1.
</event>
<event>
 5    1  0.1344348E-008  0.3857634E+03  0.7957747E-01  0.3426441E+00
         13   -1    0    0    0    0  0.00000000000E+00  0.00000000000E+00  0.14999999963E+04  0.15000000000E+04  0.10566000000E+00 0. -1.
        994   -1    0    0    0    0 -0.00000000000E+00 -0.00000000000E+00  0.11368683772E-12  0.17120000000E+03  0.17120000000E+03 0.  0.
         13    1    1    2    0    0  0.75875956811E+00  0.11931368218E+02  0.61098979001E+02  0.62257767890E+02  0.10566000000E+00 0. -1.
        994    1    1    2    0    0 -0.93745984842E+01  0.92351653897E+00  0.15427759365E+01  0.17146590372E+03  0.17120000000E+03 0.  0.
        998    1    1    2    0    0  0.86158389160E+01 -0.12854884757E+02  0.14373582413E+04  0.14374763284E+04  0.10000000000E+02 0. -1.
</event>
<event>
 5    1  0.1344348E-008  0.3792075E+03  0.7957747E-01  0.3454616E+00
         13   -1    0    0    0    0  0.00000000000E+00  0.00000000000E+00  0.14999999963E+04  0.15000000000E+04  0.10566000000E+00 0.  1.
        994   -1    0    0    0    0 -0.00000000000E+00 -0.00000000000E+00  0.11368683772E-12  0.17120000000E+03  0.17120000000E+03 0.  0.
         13    1    1    2    0    0  0.14765010173E+02  0.16590278494E+02  0.52454312788E+02  0.56962346861E+02  0.10566000000E+00 0.  1.
        994    1    1    2    0    0 -0.81681786152E+01 -0.13662607035E+02  0.53834539140E+01  0.17202269487E+03  0.17120000000E+03 0.  0.
        998    1    1    2    0    0 -0.65968315577E+01 -0.29276714589E+01  0.14421622296E+04  0.14422149583E+04  0.10000000000E+02 0.  1.
</event>
<event>
 5    1  0.1344348E-008  0.3856724E+03  0.7957747E-01  0.3426825E+00
         13   -1    0    0    0    0  0.00000000000E+00  0.00000000000E+00  0.14999999963E+04  0.15000000000E+04  0.10566000000E+00 0. -1.
        994   -1    0    0    0    0 -0.00000000000E+00 -0.00000000000E+00  0.11368683772E-12  0.17120000000E+03  0.17120000000E+03 0.  0.
         13    1    1    2    0    0 -0.95228706056E+01  0.95592439721E+01  0.71639847338E+02  0.72899541154E+02  0.10566000000E+00 0. -1.
        994    1    1    2    0    0  0.62453867156E+01 -0.38586772033E+01  0.14735465498E+01  0.17136366471E+03  0.17120000000E+03 0.  0.
        998    1    1    2    0    0  0.32774838900E+01 -0.57005667688E+01  0.14268866024E+04  0.14269367941E+04  0.10000000000E+02 0. -1.
</event>
<event>
 5    1  0.1344348E-008  0.3792524E+03  0.7957747E-01  0.3454420E+00
         13   -1    0    0    0    0  0.00000000000E+00  0.00000000000E+00  0.14999999963E+04  0.15000000000E+04  0.10566000000E+00 0.  1.
        994   -1    0    0    0    0 -0.00000000000E+00 -0.00000000000E+00  0.11368683772E-12  0.17120000000E+03  0.17120000000E+03 0.  0.
         13    1    1    2    0    0  0.46272226947E+01  0.38321202174E+02  0.19107377495E+03  0.19493364093E+03  0.10566000000E+00 0.  1.
        994    1    1    2    0    0 -0.23442036035E+02  0.14536597397E+01  0.63618388309E+01  0.17292066150E+03  0.17120000000E+03 0.  0.
        998    1    1    2    0    0  0.18814813340E+02 -0.39774861914E+02  0.13025643825E+04  0.13033456976E+04  0.10000000000E+02 0.  1.
</event>
<event>
 5    1  0.1344348E-008  0.3686944E+03  0.7957747E-01  0.3501913E+00
         13   -1    0    0    0    0  0.00000000000E+00  0.00000000000E+00  0.14999999963E+04  0.15000000000E+04  0.10566000000E+00 0.  1.
        994   -1    0    0    0    0 -0.00000000000E+00 -0.00000000000E+00  0.11368683772E-12  0.17120000000E+03  0.17120000000E+03 0.  0.
         13    1    1    2    0    0 -0.28066305865E+02  0.50819762789E+00  0.32781767950E+02  0.43158212008E+02  0.10566000000E+00 0.  1.
        994    1    1    2    0    0  0.37118382570E+02 -0.64810831811E+01  0.15207278053E+02  0.17595590376E+03  0.17120000000E+03 0.  0.
        998    1    1    2    0    0 -0.90520767043E+01  0.59728855532E+01  0.14520109503E+04  0.14520858842E+04  0.10000000000E+02 0.  1.
</event>
<event>
 5    1  0.1344348E-008  0.3799473E+03  0.7957747E-01  0.3451388E+00
         13   -1    0    0    0    0  0.00000000000E+00  0.00000000000E+00  0.14999999963E+04  0.15000000000E+04  0.10566000000E+00 0. -1.
        994   -1    0    0    0    0 -0.00000000000E+00 -0.00000000000E+00  0.11368683772E-12  0.17120000000E+03  0.17120000000E+03 0.  0.
         13    1    1    2    0    0  0.16656195289E+02  0.31880931357E+02  0.15870146127E+03  0.16272672675E+03  0.10566000000E+00 0. -1.
        994    1    1    2    0    0  0.13488104506E+01 -0.19552072797E+02  0.54450561673E+01  0.17240415157E+03  0.17120000000E+03 0.  0.
        998    1    1    2    0    0 -0.18005005740E+02 -0.12328858561E+02  0.13358534788E+04  0.13360691217E+04  0.10000000000E+02 0. -1.
</event>
<event>
 5    1  0.1344348E-008  0.3820778E+03  0.7957747E-01  0.3442161E+00
         13   -1    0    0    0    0  0.00000000000E+00  0.00000000000E+00  0.14999999963E+04  0.15000000000E+04  0.10566000000E+00 0. -1.
        994   -1    0    0    0    0 -0.00000000000E+00 -0.00000000000E+00  0.11368683772E-12  0.17120000000E+03  0.17120000000E+03 0.  0.
         13    1    1    2    0    0 -0.25272028461E+02 -0.48454585207E+01  0.11961839230E+03  0.12235491339E+03  0.10566000000E+00 0. -1.
        994    1    1    2    0    0 -0.18582621572E+01 -0.35492596427E+01  0.31412650639E+01  0.17127567816E+03  0.17120000000E+03 0.  0.
        998    1    1    2    0    0  0.27130290618E+02  0.83947181634E+01  0.13772403389E+04  0.13775694085E+04  0.10000000000E+02 0. -1.
</event>
<event>
 5    1  0.1344348E-008  0.3816027E+03  0.7957747E-01  0.3444210E+00
         13   -1    0    0    0    0  0.00000000000E+00  0.00000000000E+00  0.14999999963E+04  0.15000000000E+04  0.10566000000E+00 0.  1.
        994   -1    0    0    0    0 -0.00000000000E+00 -0.00000000000E+00  0.11368683772E-12  0.17120000000E+03  0.17120000000E+03 0.  0.
         13    1    1    2    0    0 -0.94438448706E+01 -0.14845464912E+02  0.46523572072E+02  0.49739601493E+02  0.10566000000E+00 0.  1.
        994    1    1    2    0    0  0.51255569355E+01  0.29314967237E+01  0.34422566643E+01  0.17133637716E+03  0.17120000000E+03 0.  0.
        998    1    1    2    0    0  0.43182879351E+01  0.11913968188E+02  0.14500341675E+04  0.14501240213E+04  0.10000000000E+02 0.  1.
</event>
<event>
 5    1  0.1344348E-008  0.3829154E+03  0.7957747E-01  0.3438561E+00
         13   -1    0    0    0    0  0.00000000000E+00  0.00000000000E+00  0.14999999963E+04  0.15000000000E+04  0.10566000000E+00 0.  1.
        994   -1    0    0    0    0 -0.00000000000E+00 -0.00000000000E+00  0.11368683772E-12  0.17120000000E+03  0.17120000000E+03 0.  0.
         13    1    1    2    0    0  0.76025255018E+01  0.80874806774E+02  0.39652092216E+03  0.40475595813E+03  0.10566000000E+00 0.  1.
        994    1    1    2    0    0 -0.90494642203E+02 -0.15718894528E+03  0.12053380251E+03  0.27701170072E+03  0.17120000000E+03 0.  0.
        998    1    1    2    0    0  0.82892116701E+02  0.76314138510E+02  0.98294527160E+03  0.98943234115E+03  0.10000000000E+02 0. -1.
</event>
<event>
 5    1  0.1344348E-008  0.3850358E+03  0.7957747E-01  0.3429520E+00
         13   -1    0    0    0    0  0.00000000000E+00  0.00000000000E+00  0.14999999963E+04  0.15000000000E+04  0.10566000000E+00 0.  1.
        994   -1    0    0    0    0 -0.00000000000E+00 -0.00000000000E+00  0.11368683772E-12  0.17120000000E+03  0.17120000000E+03 0.  0.
         13    1    1    2    0    0  0.20381872913E+01 -0.11498209180E+02  0.43951146935E+02  0.45476120137E+02  0.10566000000E+00 0.  1.
        994    1    1    2    0    0  0.60601073127E+01  0.12925186841E+01  0.17386261616E+01  0.17132092203E+03  0.17120000000E+03 0.  0.
        998    1    1    2    0    0 -0.80982946040E+01  0.10205690495E+02  0.14543102232E+04  0.14544029578E+04  0.10000000000E+02 0.  1.
</event>
<event>
 5    1  0.1344348E-008  0.3709780E+03  0.7957747E-01  0.3491408E+00
         13   -1    0    0    0    0  0.00000000000E+00  0.00000000000E+00  0.14999999963E+04  0.15000000000E+04  0.10566000000E+00 0. -1.
        994   -1    0    0    0    0 -0.00000000000E+00 -0.00000000000E+00  0.11368683772E-12  0.17120000000E+03  0.17120000000E+03 0.  0.
         13    1    1    2    0    0  0.38242496110E+02 -0.11015278441E+01  0.75412133088E+02  0.84561828582E+02  0.10566000000E+00 0. -1.
        994    1    1    2    0    0  0.49784366549E+02 -0.38349401259E+02  0.25442250752E+02  0.18413556922E+03  0.17120000000E+03 0.  0.
        998    1    1    2    0    0 -0.88026862659E+02  0.39450929103E+02  0.13991456124E+04  0.14025026022E+04  0.10000000000E+02 0. -1.
</event>
<event>
 5    1  0.1344348E-008  0.3787794E+03  0.7957747E-01  0.3456491E+00
         13   -1    0    0    0    0  0.00000000000E+00  0.00000000000E+00  0.14999999963E+04  0.15000000000E+04  0.10566000000E+00 0.  1.
        994   -1    0    0    0    0 -0.00000000000E+00 -0.00000000000E+00  0.11368683772E-12  0.17120000000E+03  0.17120000000E+03 0.  0.
         13    1    1    2    0    0  0.31282290947E+02  0.38457539633E+02  0.29882515667E+03  0.30290930904E+03  0.10566000000E+00 0.  1.
        994    1    1    2    0    0 -0.19631879032E+02  0.49678928046E+00  0.60460776328E+01  0.17242868824E+03  0.17120000000E+03 0.  0.
        998    1    1    2    0    0 -0.11650411915E+02 -0.38954328913E+02  0.11951287620E+04  0.11958620027E+04  0.10000000000E+02 0.  1.
</event>
<event>
 5    1  0.1344348E-008  0.3851043E+03  0.7957747E-01  0.3429230E+00
         13   -1    0    0    0    0  0.00000000000E+00  0.00000000000E+00  0.14999999963E+04  0.15000000000E+04  0.10566000000E+00 0.  1.
        994   -1    0    0    0    0 -0.00000000000E+00 -0.00000000000E+00  0.11368683772E-12  0.17120000000E+03  0.17120000000E+03 0.  0.
         13    1    1    2    0    0  0.66258999109E+01  0.13008093061E+02  0.70090934928E+02  0.71595135015E+02  0.10566000000E+00 0.  1.
        994    1    1    2    0    0 -0.77321296963E+01 -0.83966521316E+00  0.17772651227E+01  0.17138579153E+03  0.17120000000E+03 0.  0.
        998    1    1    2    0    0  0.11062297855E+01 -0.12168427848E+02  0.14281317962E+04  0.14282190735E+04  0.10000000000E+02 0.  1.
</event>
<event>
 5    1  0.1344348E-008  0.3850635E+03  0.7957747E-01  0.3429403E+00
         13   -1    0    0    0    0  0.00000000000E+00  0.00000000000E+00  0.14999999963E+04  0.15000000000E+04  0.10566000000E+00 0.  1.
        994   -1    0    0    0    0 -0.00000000000E+00 -0.00000000000E+00  0.11368683772E-12  0.17120000000E+03  0.17120000000E+03 0.  0.
         13    1    1    2    0    0 -0.58261318842E+01 -0.14804393461E+02  0.68487259164E+02  0.70310950145E+02  0.10566000000E+00 0.  1.
        994    1    1    2    0    0  0.13328781300E+02  0.30460152216E+02  0.52418846609E+01  0.17447749035E+03  0.17120000000E+03 0.  0.
        998    1    1    2    0    0 -0.75026494159E+01 -0.15655758754E+02  0.14262708525E+04  0.14264115595E+04  0.10000000000E+02 0.  1.
</event>
<event>
 5    1  0.1344348E-008  0.3700965E+03  0.7957747E-01  0.3495447E+00
         13   -1    0    0    0    0  0.00000000000E+00  0.00000000000E+00  0.14999999963E+04  0.15000000000E+04  0.10566000000E+00 0. -1.
        994   -1    0    0    0    0 -0.00000000000E+00 -0.00000000000E+00  0.11368683772E-12  0.17120000000E+03  0.17120000000E+03 0.  0.
         13    1    1    2    0    0  0.10952914296E+02 -0.20554321518E+02  0.17870773320E+02  0.29356807861E+02  0.10566000000E+00 0. -1.
        994    1    1    2    0    0 -0.23111083857E+02  0.58299416654E+02  0.24873576097E+02  0.18401380102E+03  0.17120000000E+03 0.  0.
        998    1    1    2    0    0  0.12158169561E+02 -0.37745095135E+02  0.14572556469E+04  0.14578293911E+04  0.10000000000E+02 0. -1.
</event>
<event>
 5    1  0.2058851E-008  0.3860608E+03  0.7957747E-01  0.3425186E+00
         13   -1    0    0    0    0  0.00000000000E+00  0.00000000000E+00  0.14999999963E+04  0.15000000000E+04  0.10566000000E+00 0. -1.
        994   -1    0    0    0    0 -0.00000000000E+00 -0.00000000000E+00  0.11368683772E-12  0.17120000000E+03  0.17120000000E+03 0.  0.
         13    1    1    2    0    0 -0.49062940654E+01  0.10099896856E+02  0.59250634740E+02  0.60305294288E+02  0.10566000000E+00 0. -1.
        994    1    1    2    0    0  0.61917889326E+00 -0.43430409122E+01  0.11674588677E+01  0.17126017735E+03  0.17120000000E+03 0.  0.
        998    1    1    2    0    0  0.42871151721E+01 -0.57568559438E+01  0.14395819027E+04  0.14396345284E+04  0.10000000000E+02 0. -1.
</event>
<event>
 5    1  0.1529913E-008  0.3861732E+03  0.7957747E-01  0.3424712E+00
         13   -1    0    0    0    0  0.00000000000E+00  0.00000000000E+00  0.14999999963E+04  0.15000000000E+04  0.10566000000E+00 0.  1.
        994   -1    0    0    0    0 -0.00000000000E+00 -0.00000000000E+00  0.11368683772E-12  0.17120000000E+03  0.17120000000E+03 0.  0.
         13    1    1    2    0    0 -0.65122690034E+01 -0.90229685502E+01  0.62310543206E+02  0.63296434083E+02  0.10566000000E+00 0.  1.
        994    1    1    2    0    0 -0.21349184766E+01  0.44915012124E+01  0.11298041096E+01  0.17127594086E+03  0.17120000000E+03 0.  0.
        998    1    1    2    0    0  0.86471874799E+01  0.45314673378E+01  0.14365596490E+04  0.14366276251E+04  0.10000000000E+02 0.  1.
</event>
<event>
 5    1  0.1344348E-008  0.3857424E+03  0.7957747E-01  0.3426530E+00
         13   -1    0    0    0    0  0.00000000000E+00  0.00000000000E+00  0.14999999963E+04  0.15000000000E+04  0.10566000000E+00 0.  1.
        994   -1    0    0    0    0 -0.00000000000E+00 -0.00000000000E+00  0.11368683772E-12  0.17120000000E+03  0.17120000000E+03 0.  0.
         13    1    1    2    0    0 -0.87976134216E+01 -0.10611131290E+02  0.77149976313E+02  0.78371704833E+02  0.10566000000E+00 0.  1.
        994    1    1    2    0    0  0.26699596968E+01  0.67895502123E+01  0.14366489661E+01  0.17136140358E+03  0.17120000000E+03 0.  0.
        998    1    1    2    0    0  0.61276537247E+01  0.38215810779E+01  0.14214133710E+04  0.14214668916E+04  0.10000000000E+02 0.  1.
</event>
<event>
 5    1  0.1344348E-008  0.3821746E+03  0.7957747E-01  0.3441744E+00
         13   -1    0    0    0    0  0.00000000000E+00  0.00000000000E+00  0.14999999963E+04  0.15000000000E+04  0.10566000000E+00 0.  1.
        994   -1    0    0    0    0 -0.00000000000E+00 -0.00000000000E+00  0.11368683772E-12  0.17120000000E+03  0.17120000000E+03 0.  0.
         13    1    1    2    0    0  0.11549319719E+02 -0.24800182580E+02  0.11565626106E+03  0.11884787642E+03  0.10566000000E+00 0.  1.
        994    1    1    2    0    0 -0.14997638873E+02  0.20895235775E+02  0.52382226001E+01  0.17320051682E+03  0.17120000000E+03 0.  0.
        998    1    1    2    0    0  0.34483191540E+01  0.39049468052E+01  0.13791055126E+04  0.13791516068E+04  0.10000000000E+02 0.  1.
</event>
<event>
 5    1  0.1344348E-008  0.3821850E+03  0.7957747E-01  0.3441699E+00
         13   -1    0    0    0    0  0.00000000000E+00  0.00000000000E+00  0.14999999963E+04  0.15000000000E+04  0.10566000000E+00 0. -1.
        994   -1    0    0    0    0 -0.00000000000E+00 -0.00000000000E+00  0.11368683772E-12  0.17120000000E+03  0.17120000000E+03 0.  0.
         13    1    1    2    0    0 -0.55055136220E+01  0.18246577356E+02  0.57954682317E+02  0.61008234132E+02  0.10566000000E+00 0. -1.
        994    1    1    2    0    0  0.12454023959E+01 -0.16116650262E+02  0.39019057600E+01  0.17200570430E+03  0.17120000000E+03 0.  0.
        998    1    1    2    0    0  0.42601112261E+01 -0.21299270940E+01  0.14381434082E+04  0.14381860616E+04  0.10000000000E+02 0. -1.
</event>
<event>
 5    1  0.1344348E-008  0.3846865E+03  0.7957747E-01  0.3431003E+00
         13   -1    0    0    0    0  0.00000000000E+00  0.00000000000E+00  0.14999999963E+04  0.15000000000E+04  0.10566000000E+00 0. -1.
        994   -1    0    0    0    0 -0.00000000000E+00 -0.00000000000E+00  0.11368683772E-12  0.17120000000E+03  0.17120000000E+03 0.  0.
         13    1    1    2    0    0 -0.16918912778E+02  0.40321254747E+01  0.84296392681E+02  0.86072066482E+02  0.10566000000E+00 0. -1.
        994    1    1    2    0    0  0.14136219908E+02  0.81814148332E+01  0.26645642925E+01  0.17199798884E+03  0.17120000000E+03 0.  0.
        998    1    1    2    0    0  0.27826928697E+01 -0.12213540308E+02  0.14130390393E+04  0.14131299447E+04  0.10000000000E+02 0. -1.
</event>
<event>
 5    1  0.1344348E-008  0.3827940E+03  0.7957747E-01  0.3439082E+00
         13   -1    0    0    0    0  0.00000000000E+00  0.00000000000E+00  0.14999999963E+04  0.15000000000E+04  0.10566000000E+00 0. -1.
        994   -1    0    0    0    0 -0.00000000000E+00 -0.00000000000E+00  0.11368683772E-12  0.17120000000E+03  0.17120000000E+03 0.  0.
         13    1    1    2    0    0  0.93336183598E+01 -0.10086399997E+02  0.32193889353E+02  0.35004422182E+02  0.10566000000E+00 0. -1.
        994    1    1    2    0    0 -0.15987498063E+02  0.14597593593E+02  0.42833306477E+01  0.17261655991E+03  0.17120000000E+03 0.  0.
        998    1    1    2    0    0  0.66538797030E+01 -0.45111935960E+01  0.14635227763E+04  0.14635790179E+04  0.10000000000E+02 0. -1.
</event>
<event>
 5    1  0.1344348E-008  0.3723011E+03  0.7957747E-01  0.3485382E+00
         13   -1    0    0    0    0  0.00000000000E+00  0.00000000000E+00  0.14999999963E+04  0.15000000000E+04  0.10566000000E+00 0.  1.
        994   -1    0    0    0    0 -0.00000000000E+00 -0.00000000000E+00  0.11368683772E-12  0.17120000000E+03  0.17120000000E+03 0.  0.
         13    1    1    2    0    0  0.86880571130E+02 -0.10360332156E+03  0.62084267482E+03  0.63539556177E+03  0.10566000000E+00 0.  1.
        994    1    1    2    0    0 -0.12500761885E+03  0.78143128876E+02  0.86749733985E+02  0.24200869758E+03  0.17120000000E+03 0.  0.
        998    1    1    2    0    0  0.38127047716E+02  0.25460192680E+02  0.79240758748E+03  0.79379574065E+03  0.10000000000E+02 0.  1.
</event>
<event>
 5    1  0.1344348E-008  0.3862745E+03  0.7957747E-01  0.3424285E+00
         13   -1    0    0    0    0  0.00000000000E+00  0.00000000000E+00  0.14999999963E+04  0.15000000000E+04  0.10566000000E+00 0. -1.
        994   -1    0    0    0    0 -0.00000000000E+00 -0.00000000000E+00  0.11368683772E-12  0.17120000000E+03  0.17120000000E+03 0.  0.
         13    1    1    2    0    0  0.52733480425E+00  0.11099682410E+02  0.62024057804E+02  0.63011712737E+02  0.10566000000E+00 0. -1.
        994    1    1    2    0    0  0.49217182048E+01 -0.94315075893E+01  0.13694447067E+01  0.17153568732E+03  0.17120000000E+03 0.  0.
        998    1    1    2    0    0 -0.54490530090E+01 -0.16681748205E+01  0.14366064938E+04  0.14366525999E+04  0.10000000000E+02 0. -1.
</event>
<event>
 5    1  0.1344348E-008  0.3750692E+03  0.7957747E-01  0.3472913E+00
         13   -1    0    0    0    0  0.00000000000E+00  0.00000000000E+00  0.14999999963E+04  0.15000000000E+04  0.10566000000E+00 0.  1.
        994   -1    0    0    0    0 -0.00000000000E+00 -0.00000000000E+00  0.11368683772E-12  0.17120000000E+03  0.17120000000E+03 0.  0.
         13    1    1    2    0    0  0.10082257767E+02  0.10874542131E+02  0.13622078342E+02  0.20136528267E+02  0.10566000000E+00 0.  1.
        994    1    1    2    0    0 -0.45484149702E+01 -0.10325029494E+02  0.70759157823E+01  0.17171721782E+03  0.17120000000E+03 0.  0.
        998    1    1    2    0    0 -0.55338427970E+01 -0.54951263688E+00  0.14793020022E+04  0.14793462539E+04  0.10000000000E+02 0.  1.
</event>
<event>
 5    1  0.1344348E-008  0.3842171E+03  0.7957747E-01  0.3432999E+00
         13   -1    0    0    0    0  0.00000000000E+00  0.00000000000E+00  0.14999999963E+04  0.15000000000E+04  0.10566000000E+00 0. -1.
        994   -1    0    0    0    0 -0.00000000000E+00 -0.00000000000E+00  0.11368683772E-12  0.17120000000E+03  0.17120000000E+03 0.  0.
         13    1    1    2    0    0 -0.43335086716E+01 -0.13249652572E+02  0.46566328606E+02  0.48608298824E+02  0.10566000000E+00 0. -1.
        994    1    1    2    0    0  0.10359521316E+01  0.14711695310E+02  0.27367782149E+01  0.17185586150E+03  0.17120000000E+03 0.  0.
        998    1    1    2    0    0  0.32975565400E+01 -0.14620427377E+01  0.14506968895E+04  0.14507358397E+04  0.10000000000E+02 0. -1.
</event>
<event>
 5    1  0.1344348E-008  0.3752585E+03  0.7957747E-01  0.3472067E+00
         13   -1    0    0    0    0  0.00000000000E+00  0.00000000000E+00  0.14999999963E+04  0.15000000000E+04  0.10566000000E+00 0. -1.
        994   -1    0    0    0    0 -0.00000000000E+00 -0.00000000000E+00  0.11368683772E-12  0.17120000000E+03  0.17120000000E+03 0.  0.
         13    1    1    2    0    0  0.16390609335E+03 -0.25974692264E-01  0.90608982697E+03  0.92079530506E+03  0.10566000000E+00 0. -1.
        994    1    1    2    0    0 -0.15838597916E+03 -0.37347082965E+02  0.10256385042E+03  0.25750671140E+03  0.17120000000E+03 0.  0.
        998    1    1    2    0    0 -0.55201141863E+01  0.37373057657E+02  0.49134631889E+03  0.49289798355E+03  0.10000000000E+02 0. -1.
</event>
<event>
 5    1  0.1344348E-008  0.3690978E+03  0.7957747E-01  0.3500047E+00
         13   -1    0    0    0    0  0.00000000000E+00  0.00000000000E+00  0.14999999963E+04  0.15000000000E+04  0.10566000000E+00 0.  1.
        994   -1    0    0    0    0 -0.00000000000E+00 -0.00000000000E+00  0.11368683772E-12  0.17120000000E+03  0.17120000000E+03 0.  0.
         13    1    1    2    0    0 -0.34735305382E+02 -0.68622845233E+01  0.52164753191E+02  0.63046054820E+02  0.10566000000E+00 0.  1.
        994    1    1    2    0    0  0.44931358104E+02  0.20272838192E+02  0.18978787413E+02  0.17916319176E+03  0.17120000000E+03 0.  0.
        998    1    1    2    0    0 -0.10196052722E+02 -0.13410553668E+02  0.14288564557E+04  0.14289907534E+04  0.10000000000E+02 0.  1.
</event>
<event>
 5    1  0.1344348E-008  0.3780200E+03  0.7957747E-01  0.3459826E+00
         13   -1    0    0    0    0  0.00000000000E+00  0.00000000000E+00  0.14999999963E+04  0.15000000000E+04  0.10566000000E+00 0. -1.
        994   -1    0    0    0    0 -0.00000000000E+00 -0.00000000000E+00  0.11368683772E-12  0.17120000000E+03  0.17120000000E+03 0.  0.
         13    1    1    2    0    0 -0.68098160285E+01  0.30984783166E+02  0.25618446854E+02  0.40776787091E+02  0.10566000000E+00 0. -1.
        994    1    1    2    0    0  0.29968519127E+01 -0.42703474900E+02  0.21865467437E+02  0.17782043346E+03  0.17120000000E+03 0.  0.
        998    1    1    2    0    0  0.38129641158E+01  0.11718691734E+02  0.14525160820E+04  0.14526027794E+04  0.10000000000E+02 0. -1.
</event>
<event>
 5    1  0.1344348E-008  0.3774436E+03  0.7957747E-01  0.3462366E+00
         13   -1    0    0    0    0  0.00000000000E+00  0.00000000000E+00  0.14999999963E+04  0.15000000000E+04  0.10566000000E+00 0.  1.
        994   -1    0    0    0    0 -0.00000000000E+00 -0.00000000000E+00  0.11368683772E-12  0.17120000000E+03  0.17120000000E+03 0.  0.
         13    1    1    2    0    0 -0.83356545841E+01 -0.96671046026E+01  0.12988778915E+02  0.18211413742E+02  0.10566000000E+00 0.  1.
        994    1    1    2    0    0  0.66140215599E+00 -0.54758609831E+01  0.55317729564E+01  0.17137812876E+03  0.17120000000E+03 0.  0.
        998    1    1    2    0    0  0.76742524281E+01  0.15142965586E+02  0.14814794444E+04  0.14816104575E+04  0.10000000000E+02 0.  1.
</event>
<event>
 5    1  0.1344348E-008  0.3792220E+03  0.7957747E-01  0.3454553E+00
         13   -1    0    0    0    0  0.00000000000E+00  0.00000000000E+00  0.14999999963E+04  0.15000000000E+04  0.10566000000E+00 0. -1.
        994   -1    0    0    0    0 -0.00000000000E+00 -0.00000000000E+00  0.11368683772E-12  0.17120000000E+03  0.17120000000E+03 0.  0.
         13    1    1    2    0    0 -0.21426929311E+02  0.73219554104E+01  0.59983770230E+02  0.64115428610E+02  0.10566000000E+00 0. -1.
        994    1    1    2    0    0 -0.91618176802E+01 -0.30851994088E+01  0.48396935733E+01  0.17154101548E+03  0.17120000000E+03 0.  0.
        998    1    1    2    0    0  0.30588746991E+02 -0.42367560016E+01  0.14351765325E+04  0.14355435559E+04  0.10000000000E+02 0. -1.
</event>
<event>
 5    1  0.1344348E-008  0.3860058E+03  0.7957747E-01  0.3425418E+00
         13   -1    0    0    0    0  0.00000000000E+00  0.00000000000E+00  0.14999999963E+04  0.15000000000E+04  0.10566000000E+00 0.  1.
        994   -1    0    0    0    0 -0.00000000000E+00 -0.00000000000E+00  0.11368683772E-12  0.17120000000E+03  0.17120000000E+03 0.  0.
         13    1    1    2    0    0 -0.61393268433E+01  0.99388849944E+01  0.66599915494E+02  0.67616807650E+02  0.10566000000E+00 0.  1.
        994    1    1    2    0    0  0.11486339954E+02  0.10712517637E+02  0.19406866730E+01  0.17192992847E+03  0.17120000000E+03 0.  0.
        998    1    1    2    0    0 -0.53470131104E+01 -0.20651402631E+02  0.14314593941E+04  0.14316532639E+04  0.10000000000E+02 0.  1.
</event>
<event>
 5    1  0.1344348E-008  0.3840043E+03  0.7957747E-01  0.3433906E+00
         13   -1    0    0    0    0  0.00000000000E+00  0.00000000000E+00  0.14999999963E+04  0.15000000000E+04  0.10566000000E+00 0. -1.
        994   -1    0    0    0    0 -0.00000000000E+00 -0.00000000000E+00  0.11368683772E-12  0.17120000000E+03  0.17120000000E+03 0.  0.
         13    1    1    2    0    0  0.10145093777E+02  0.42975152354E+01  0.27628896473E+02  0.29744892827E+02  0.10566000000E+00 0. -1.
        994    1    1    2    0    0 -0.12375486722E+02  0.20181907971E+01  0.26442116379E+01  0.17167893762E+03  0.17120000000E+03 0.  0.
        998    1    1    2    0    0  0.22303929452E+01 -0.63157060325E+01  0.14697268882E+04  0.14697761696E+04  0.10000000000E+02 0. -1.
</event>
<event>
 5    1  0.1344348E-008  0.3760341E+03  0.7957747E-01  0.3468611E+00
         13   -1    0    0    0    0  0.00000000000E+00  0.00000000000E+00  0.14999999963E+04  0.15000000000E+04  0.10566000000E+00 0.  1.
        994   -1    0    0    0    0 -0.00000000000E+00 -0.00000000000E+00  0.11368683772E-12  0.17120000000E+03  0.17120000000E+03 0.  0.
         13    1    1    2    0    0  0.16511723838E+02 -0.48431749212E+02  0.16571181358E+03  0.17343208377E+03  0.10566000000E+00 0.  1.
        994    1    1    2    0    0 -0.40811185771E+02  0.64382284966E+02  0.26092601993E+02  0.18921124539E+03  0.17120000000E+03 0.  0.
        998    1    1    2    0    0  0.24299461933E+02 -0.15950535754E+02  0.13081955807E+04  0.13085566708E+04  0.10000000000E+02 0.  1.
</event>
<event>
 5    1  0.1344348E-008  0.3785852E+03  0.7957747E-01  0.3457342E+00
         13   -1    0    0    0    0  0.00000000000E+00  0.00000000000E+00  0.14999999963E+04  0.15000000000E+04  0.10566000000E+00 0.  1.
        994   -1    0    0    0    0 -0.00000000000E+00 -0.00000000000E+00  0.11368683772E-12  0.17120000000E+03  0.17120000000E+03 0.  0.
         13    1    1    2    0    0 -0.16899493425E+02 -0.43819619366E+02  0.21359861352E+03  0.21870100773E+03  0.10566000000E+00 0.  1.
        994    1    1    2    0    0  0.10420471962E+02  0.33327796841E+02  0.89552204913E+01  0.17495417758E+03  0.17120000000E+03 0.  0.
        998    1    1    2    0    0  0.64790214634E+01  0.10491822525E+02  0.12774461623E+04  0.12775448147E+04  0.10000000000E+02 0.  1.
</event>
<event>
 5    1  0.1344348E-008  0.3862212E+03  0.7957747E-01  0.3424510E+00
         13   -1    0    0    0    0  0.00000000000E+00  0.00000000000E+00  0.14999999963E+04  0.15000000000E+04  0.10566000000E+00 0. -1.
        994   -1    0    0    0    0 -0.00000000000E+00 -0.00000000000E+00  0.11368683772E-12  0.17120000000E+03  0.17120000000E+03 0.  0.
         13    1    1    2    0    0 -0.10186636763E+02  0.10738317672E+01  0.52960890456E+02  0.53942448638E+02  0.10566000000E+00 0. -1.
        994    1    1    2    0    0  0.48065757640E+01  0.40847599224E+01  0.11554075029E+01  0.17132006129E+03  0.17120000000E+03 0.  0.
        998    1    1    2    0    0  0.53800609988E+01 -0.51585916896E+01  0.14458836983E+04  0.14459374901E+04  0.10000000000E+02 0. -1.
</event>
<event>
 5    1  0.1344348E-008  0.3706188E+03  0.7957747E-01  0.3493052E+00
         13   -1    0    0    0    0  0.00000000000E+00  0.00000000000E+00  0.14999999963E+04  0.15000000000E+04  0.10566000000E+00 0. -1.
        994   -1    0    0    0    0 -0.00000000000E+00 -0.00000000000E+00  0.11368683772E-12  0.17120000000E+03  0.17120000000E+03 0.  0.
         13    1    1    2    0    0  0.10756250030E+03  0.10722779968E+03  0.60181974776E+03  0.62068874039E+03  0.10566000000E+00 0. -1.
        994    1    1    2    0    0 -0.99699767047E+02 -0.10653250883E+03  0.90075538629E+02  0.24230613209E+03  0.17120000000E+03 0.  0.
        998    1    1    2    0    0 -0.78627332504E+01 -0.69529084484E+00  0.80810470989E+03  0.80820512752E+03  0.10000000000E+02 0. -1.
</event>
<event>
 5    1  0.1344348E-008  0.2125006E+03  0.7957747E-01  0.4824103E+00
         13   -1    0    0    0    0  0.00000000000E+00  0.00000000000E+00  0.14999999963E+04  0.15000000000E+04  0.10566000000E+00 0.  1.
        994   -1    0    0    0    0 -0.00000000000E+00 -0.00000000000E+00  0.11368683772E-12  0.17120000000E+03  0.17120000000E+03 0.  0.
         13    1    1    2    0    0  0.18130541536E+03 -0.43988305917E+02  0.35991333013E+03  0.40539393319E+03  0.10566000000E+00 0.  1.
        994    1    1    2    0    0 -0.85116986031E+01 -0.44636421708E+02  0.91544934491E+02  0.19938599296E+03  0.17120000000E+03 0.  0.
        998    1    1    2    0    0 -0.17279371676E+03  0.88624727624E+02  0.10485417317E+04  0.10664200739E+04  0.10000000000E+02 0.  1.
</event>
<event>
 5    1  0.1344348E-008  0.3821084E+03  0.7957747E-01  0.3442029E+00
         13   -1    0    0    0    0  0.00000000000E+00  0.00000000000E+00  0.14999999963E+04  0.15000000000E+04  0.10566000000E+00 0. -1.
        994   -1    0    0    0    0 -0.00000000000E+00 -0.00000000000E+00  0.11368683772E-12  0.17120000000E+03  0.17120000000E+03 0.  0.
         13    1    1    2    0    0 -0.72604264472E+01  0.27885747661E+02  0.10230591481E+03  0.10628659409E+03  0.10566000000E+00 0. -1.
        994    1    1    2    0    0  0.62131083694E+01 -0.65424555266E+02  0.17545689606E+02  0.18421798601E+03  0.17120000000E+03 0.  0.
        998    1    1    2    0    0  0.10473180778E+01  0.37538807605E+02  0.13801483919E+04  0.13806954199E+04  0.10000000000E+02 0. -1.
</event>
<event>
 5    1  0.1344348E-008  0.3794204E+03  0.7957747E-01  0.3453686E+00
         13   -1    0    0    0    0  0.00000000000E+00  0.00000000000E+00  0.14999999963E+04  0.15000000000E+04  0.10566000000E+00 0. -1.
        994   -1    0    0    0    0 -0.00000000000E+00 -0.00000000000E+00  0.11368683772E-12  0.17120000000E+03  0.17120000000E+03 0.  0.
         13    1    1    2    0    0 -0.97630199939E+01  0.67251211045E+01  0.14148016829E+02  0.18458639102E+02  0.10566000000E+00 0. -1.
        994    1    1    2    0    0  0.10227482175E+02  0.10032650130E+02  0.51137853545E+01  0.17187450730E+03  0.17120000000E+03 0.  0.
        998    1    1    2    0    0 -0.46446218076E+00 -0.16757771235E+02  0.14807381941E+04  0.14808668536E+04  0.10000000000E+02 0. -1.
</event>
<event>
 5    1  0.1344348E-008  0.3846527E+03  0.7957747E-01  0.3431147E+00
         13   -1    0    0    0    0  0.00000000000E+00  0.00000000000E+00  0.14999999963E+04  0.15000000000E+04  0.10566000000E+00 0.  1.
        994   -1    0    0    0    0 -0.00000000000E+00 -0.00000000000E+00  0.11368683772E-12  0.17120000000E+03  0.17120000000E+03 0.  0.
         13    1    1    2    0    0 -0.16802606387E+02  0.26020647452E+01  0.77902519697E+02  0.79736516487E+02  0.10566000000E+00 0.  1.
        994    1    1    2    0    0  0.15019956809E+02 -0.18890716667E+01  0.25575366923E+01  0.17188702304E+03  0.17120000000E+03 0.  0.
        998    1    1    2    0    0  0.17826495779E+01 -0.71299307852E+00  0.14195399399E+04  0.14195764605E+04  0.10000000000E+02 0.  0.
</event>
<event>
 5    1  0.1344348E-008  0.3755935E+03  0.7957747E-01  0.3470573E+00
         13   -1    0    0    0    0  0.00000000000E+00  0.00000000000E+00  0.14999999963E+04  0.15000000000E+04  0.10566000000E+00 0. -1.
        994   -1    0    0    0    0 -0.00000000000E+00 -0.00000000000E+00  0.11368683772E-12  0.17120000000E+03  0.17120000000E+03 0.  0.
         13    1    1    2    0    0  0.95287604034E+01  0.74059259601E+02  0.38339452174E+03  0.39059818442E+03  0.10566000000E+00 0. -1.
        994    1    1    2    0    0 -0.63597052920E+01 -0.56619710198E+02  0.17467511708E+02  0.18127545725E+03  0.17120000000E+03 0.  0.
        998    1    1    2    0    0 -0.31690551114E+01 -0.17439549403E+02  0.10991379628E+04  0.10993263583E+04  0.10000000000E+02 0. -1.
</event>
<event>
 5    1  0.1344348E-008  0.3709160E+03  0.7957747E-01  0.3491692E+00
         13   -1    0    0    0    0  0.00000000000E+00  0.00000000000E+00  0.14999999963E+04  0.15000000000E+04  0.10566000000E+00 0. -1.
        994   -1    0    0    0    0 -0.00000000000E+00 -0.00000000000E+00  0.11368683772E-12  0.17120000000E+03  0.17120000000E+03 0.  0.
         13    1    1    2    0    0 -0.30043371244E+01  0.19735744854E+02  0.12332415351E+02  0.23465406430E+02  0.10566000000E+00 0. -1.
        994    1    1    2    0    0  0.25747530560E+01 -0.18409875759E+02  0.12636828997E+02  0.17266928599E+03  0.17120000000E+03 0.  0.
        998    1    1    2    0    0  0.42958406835E+00 -0.13258690948E+01  0.14750307519E+04  0.14750653076E+04  0.10000000000E+02 0. -1.
</event>
<event>
 5    1  0.1344348E-008  0.3751389E+03  0.7957747E-01  0.3472602E+00
         13   -1    0    0    0    0  0.00000000000E+00  0.00000000000E+00  0.14999999963E+04  0.15000000000E+04  0.10566000000E+00 0.  1.
        994   -1    0    0    0    0 -0.00000000000E+00 -0.00000000000E+00  0.11368683772E-12  0.17120000000E+03  0.17120000000E+03 0.  0.
         13    1    1    2    0    0  0.62723617269E+02  0.70896948447E+01  0.32222219125E+03  0.32834687091E+03  0.10566000000E+00 0.  1.
        994    1    1    2    0    0 -0.26324894185E+02 -0.61009295902E+01  0.90924046232E+01  0.17355786706E+03  0.17120000000E+03 0.  0.
        998    1    1    2    0    0 -0.36398723084E+02 -0.98876525451E+00  0.11686854004E+04  0.11692952620E+04  0.10000000000E+02 0.  1.
</event>
<event>
 5    1  0.1344348E-008  0.3832993E+03  0.7957747E-01  0.3436917E+00
         13   -1    0    0    0    0  0.00000000000E+00  0.00000000000E+00  0.14999999963E+04  0.15000000000E+04  0.10566000000E+00 0.  1.
        994   -1    0    0    0    0 -0.00000000000E+00 -0.00000000000E+00  0.11368683772E-12  0.17120000000E+03  0.17120000000E+03 0.  0.
         13    1    1    2    0    0  0.13621050338E+02  0.12123039886E+02  0.71366877161E+02  0.73659645860E+02  0.10566000000E+00 0.  1.
        994    1    1    2    0    0 -0.13064189460E+02  0.15787681308E+02  0.38667185451E+01  0.17246540360E+03  0.17120000000E+03 0.  0.
        998    1    1    2    0    0 -0.55686087781E+00 -0.27910721194E+02  0.14247664006E+04  0.14250749505E+04  0.10000000000E+02 0.  1.
</event>
<event>
 5    1  0.1344348E-008  0.3779814E+03  0.7957747E-01  0.3459995E+00
         13   -1    0    0    0    0  0.00000000000E+00  0.00000000000E+00  0.14999999963E+04  0.15000000000E+04  0.10566000000E+00 0. -1.
        994   -1    0    0    0    0 -0.00000000000E+00 -0.00000000000E+00  0.11368683772E-12  0.17120000000E+03  0.17120000000E+03 0.  0.
         13    1    1    2    0    0  0.36871401940E+02  0.19014570954E+02  0.21025458853E+03  0.21430832311E+03  0.10566000000E+00 0. -1.
        994    1    1    2    0    0  0.51276712605E+01  0.10934907260E+02  0.56466576305E+01  0.17171834483E+03  0.17120000000E+03 0.  0.
        998    1    1    2    0    0 -0.41999073201E+02 -0.29949478214E+02  0.12840987501E+04  0.12851733321E+04  0.10000000000E+02 0. -1.
</event>
<event>
 5    1  0.1344348E-008  0.2950967E+03  0.7957747E-01  0.3931658E+00
         13   -1    0    0    0    0  0.00000000000E+00  0.00000000000E+00  0.14999999963E+04  0.15000000000E+04  0.10566000000E+00 0.  1.
        994   -1    0    0    0    0 -0.00000000000E+00 -0.00000000000E+00  0.11368683772E-12  0.17120000000E+03  0.17120000000E+03 0.  0.
         13    1    1    2    0    0  0.13702462729E+03 -0.12302012674E+03  0.68061382486E+03  0.70508502312E+03  0.10566000000E+00 0.  1.
        994    1    1    2    0    0 -0.98419300300E+02  0.88676616172E+02  0.89351813349E+02  0.23418601042E+03  0.17120000000E+03 0.  0.
        998    1    1    2    0    0 -0.38605326986E+02  0.34343510569E+02  0.73003435807E+03  0.73192896646E+03  0.10000000000E+02 0.  1.
</event>
<event>
 5    1  0.1344348E-008  0.3774275E+03  0.7957747E-01  0.3462437E+00
         13   -1    0    0    0    0  0.00000000000E+00  0.00000000000E+00  0.14999999963E+04  0.15000000000E+04  0.10566000000E+00 0. -1.
        994   -1    0    0    0    0 -0.00000000000E+00 -0.00000000000E+00  0.11368683772E-12  0.17120000000E+03  0.17120000000E+03 0.  0.
         13    1    1    2    0    0 -0.58081611191E+02 -0.17375244135E+02  0.27862754132E+03  0.28514678783E+03  0.10566000000E+00 0. -1.
        994    1    1    2    0    0  0.54822848742E+02  0.22719701989E+02  0.17404776878E+02  0.18202773377E+03  0.17120000000E+03 0.  0.
        998    1    1    2    0    0  0.32587624485E+01 -0.53444578537E+01  0.12039676781E+04  0.12040254784E+04  0.10000000000E+02 0.  1.
</event>
<event>
 5    1  0.1344348E-008  0.4340865E+03  0.7957747E-01  0.3244904E+00
         13   -1    0    0    0    0  0.00000000000E+00  0.00000000000E+00  0.14999999963E+04  0.15000000000E+04  0.10566000000E+00 0. -1.
        994   -1    0    0    0    0 -0.00000000000E+00 -0.00000000000E+00  0.11368683772E-12  0.17120000000E+03  0.17120000000E+03 0.  0.
         13    1    1    2    0    0 -0.61913994200E+02 -0.39135802045E+02  0.32166959545E+02  0.79997988287E+02  0.10566000000E+00 0. -1.
        994    1    1    2    0    0  0.96804295695E+02  0.42840067807E+02  0.10341677191E+03  0.22629805962E+03  0.17120000000E+03 0.  0.
        998    1    1    2    0    0 -0.34890301495E+02 -0.37042657613E+01  0.13644162648E+04  0.13649039521E+04  0.10000000000E+02 0. -1.
</event>
<event>
 5    1  0.1344348E-008  0.3762275E+03  0.7957747E-01  0.3467751E+00
         13   -1    0    0    0    0  0.00000000000E+00  0.00000000000E+00  0.14999999963E+04  0.15000000000E+04  0.10566000000E+00 0. -1.
        994   -1    0    0    0    0 -0.00000000000E+00 -0.00000000000E+00  0.11368683772E-12  0.17120000000E+03  0.17120000000E+03 0.  0.
         13    1    1    2    0    0 -0.39142127998E+00  0.11829504853E+02  0.90309419177E+01  0.14888232657E+02  0.10566000000E+00 0. -1.
        994    1    1    2    0    0 -0.12175076469E+02  0.37867462565E+00  0.65521713794E+01  0.17175781447E+03  0.17120000000E+03 0.  0.
        998    1    1    2    0    0  0.12566497749E+02 -0.12208179479E+02  0.14844168830E+04  0.14845539529E+04  0.10000000000E+02 0. -1.
</event>
<event>
 5    1  0.1344348E-008  0.3875326E+03  0.7957747E-01  0.3419002E+00
         13   -1    0    0    0    0  0.00000000000E+00  0.00000000000E+00  0.14999999963E+04  0.15000000000E+04  0.10566000000E+00 0. -1.
        994   -1    0    0    0    0 -0.00000000000E+00 -0.00000000000E+00  0.11368683772E-12  0.17120000000E+03  0.17120000000E+03 0.  0.
         13    1    1    2    0    0 -0.46961391774E+01  0.22782261984E+02  0.38476568393E+01  0.23577548886E+02  0.10566000000E+00 0. -1.
        994    1    1    2    0    0  0.14562119791E+02 -0.34738368604E+02  0.25833725295E+02  0.17718812305E+03  0.17120000000E+03 0.  0.
        998    1    1    2    0    0 -0.98659806133E+01  0.11956106620E+02  0.14703186141E+04  0.14704343281E+04  0.10000000000E+02 0. -1.
</event>
<event>
 5    1  0.1344348E-008  0.3845999E+03  0.7957747E-01  0.3431371E+00
         13   -1    0    0    0    0  0.00000000000E+00  0.00000000000E+00  0.14999999963E+04  0.15000000000E+04  0.10566000000E+00 0.  1.
        994   -1    0    0    0    0 -0.00000000000E+00 -0.00000000000E+00  0.11368683772E-12  0.17120000000E+03  0.17120000000E+03 0.  0.
         13    1    1    2    0    0 -0.43964572947E+01 -0.10097053218E+02  0.35439833035E+02  0.37111618801E+02  0.10566000000E+00 0.  1.
        994    1    1    2    0    0 -0.77099040189E+01 -0.69590853070E+01  0.21842014932E+01  0.17152866298E+03  0.17120000000E+03 0.  0.
        998    1    1    2    0    0  0.12106361314E+02  0.17056138525E+02  0.14623759618E+04  0.14625597182E+04  0.10000000000E+02 0.  1.
</event>
<event>
 5    1  0.1539022E-008  0.3852242E+03  0.7957747E-01  0.3428722E+00
         13   -1    0    0    0    0  0.00000000000E+00  0.00000000000E+00  0.14999999963E+04  0.15000000000E+04  0.10566000000E+00 0.  1.
        994   -1    0    0    0    0 -0.00000000000E+00 -0.00000000000E+00  0.11368683772E-12  0.17120000000E+03  0.17120000000E+03 0.  0.
         13    1    1    2    0    0 -0.36327136771E+01  0.96992557487E+01  0.34248816327E+02  0.35780787506E+02  0.10566000000E+00 0.  1.
        994    1    1    2    0    0  0.55165477940E+01 -0.11731718902E+02  0.20713897444E+01  0.17170263884E+03  0.17120000000E+03 0.  0.
        998    1    1    2    0    0 -0.18838341169E+01  0.20324631528E+01  0.14636797902E+04  0.14637165737E+04  0.10000000000E+02 0.  1.
</event>
<event>
 5    1  0.1344348E-008  0.3830648E+03  0.7957747E-01  0.3437921E+00
         13   -1    0    0    0    0  0.00000000000E+00  0.00000000000E+00  0.14999999963E+04  0.15000000000E+04  0.10566000000E+00 0. -1.
        994   -1    0    0    0    0 -0.00000000000E+00 -0.00000000000E+00  0.11368683772E-12  0.17120000000E+03  0.17120000000E+03 0.  0.
         13    1    1    2    0    0  0.60757089622E+01 -0.21322787940E+02  0.63921196260E+02  0.67657268791E+02  0.10566000000E+00 0. -1.
        994    1    1    2    0    0  0.64335860575E+01  0.98732236045E+02  0.35695908118E+02  0.20093054352E+03  0.17120000000E+03 0.  0.
        998    1    1    2    0    0 -0.12509295020E+02 -0.77409448104E+02  0.14003828919E+04  0.14026121877E+04  0.10000000000E+02 0. -1.
</event>
<event>
 5    1  0.1344348E-008  0.3832809E+03  0.7957747E-01  0.3436996E+00
         13   -1    0    0    0    0  0.00000000000E+00  0.00000000000E+00  0.14999999963E+04  0.15000000000E+04  0.10566000000E+00 0.  1.
        994   -1    0    0    0    0 -0.00000000000E+00 -0.00000000000E+00  0.11368683772E-12  0.17120000000E+03  0.17120000000E+03 0.  0.
         13    1    1    2    0    0 -0.11898323048E+02  0.10091943333E+02  0.48484937320E+02  0.50933463681E+02  0.10566000000E+00 0.  1.
        994    1    1    2    0    0 -0.99919485083E+00 -0.15617852995E+02  0.32964224005E+01  0.17194540448E+03  0.17120000000E+03 0.  0.
        998    1    1    2    0    0  0.12897517899E+02  0.55259096621E+01  0.14482186366E+04  0.14483211318E+04  0.10000000000E+02 0.  1.
</event>
<event>
 5    1  0.1344348E-008  0.3842169E+03  0.7957747E-01  0.3433000E+00
         13   -1    0    0    0    0  0.00000000000E+00  0.00000000000E+00  0.14999999963E+04  0.15000000000E+04  0.10566000000E+00 0. -1.
        994   -1    0    0    0    0 -0.00000000000E+00 -0.00000000000E+00  0.11368683772E-12  0.17120000000E+03  0.17120000000E+03 0.  0.
         13    1    1    2    0    0 -0.15988729676E+02  0.13747556644E+02  0.10761956004E+03  0.10966592752E+03  0.10566000000E+00 0. -1.
        994    1    1    2    0    0  0.68444907558E+01 -0.16478727424E+02  0.30698837598E+01  0.17215475508E+03  0.17120000000E+03 0.  0.
        998    1    1    2    0    0  0.91442389197E+01  0.27311707803E+01  0.13893105525E+04  0.13893793174E+04  0.10000000000E+02 0. -1.
</event>
<event>
 5    1  0.1344348E-008  0.3876030E+03  0.7957747E-01  0.3418707E+00
         13   -1    0    0    0    0  0.00000000000E+00  0.00000000000E+00  0.14999999963E+04  0.15000000000E+04  0.10566000000E+00 0. -1.
        994   -1    0    0    0    0 -0.00000000000E+00 -0.00000000000E+00  0.11368683772E-12  0.17120000000E+03  0.17120000000E+03 0.  0.
         13    1    1    2    0    0  0.30819835054E+02 -0.21667537209E+02  0.25709736714E+02  0.45610811519E+02  0.10566000000E+00 0. -1.
        994    1    1    2    0    0 -0.34020995294E+02  0.20354980812E+02  0.26449533415E+02  0.17770979484E+03  0.17120000000E+03 0.  0.
        998    1    1    2    0    0  0.32011602399E+01  0.13125563968E+01  0.14478407261E+04  0.14478793936E+04  0.10000000000E+02 0. -1.
</event>
<event>
 5    1  0.1344348E-008  0.3851377E+03  0.7957747E-01  0.3429088E+00
         13   -1    0    0    0    0  0.00000000000E+00  0.00000000000E+00  0.14999999963E+04  0.15000000000E+04  0.10566000000E+00 0.  1.
        994   -1    0    0    0    0 -0.00000000000E+00 -0.00000000000E+00  0.11368683772E-12  0.17120000000E+03  0.17120000000E+03 0.  0.
         13    1    1    2    0    0  0.21134146916E+01  0.11524517738E+02  0.45034449013E+02  0.46533791944E+02  0.10566000000E+00 0.  1.
        994    1    1    2    0    0 -0.13366914393E+02 -0.10331487208E+01  0.21528555346E+01  0.17173763881E+03  0.17120000000E+03 0.  0.
        998    1    1    2    0    0  0.11253499702E+02 -0.10491369017E+02  0.14528126917E+04  0.14529285692E+04  0.10000000000E+02 0.  1.
</event>
<event>
 5    1  0.1344348E-008  0.3725655E+03  0.7957747E-01  0.3484183E+00
         13   -1    0    0    0    0  0.00000000000E+00  0.00000000000E+00  0.14999999963E+04  0.15000000000E+04  0.10566000000E+00 0. -1.
        994   -1    0    0    0    0 -0.00000000000E+00 -0.00000000000E+00  0.11368683772E-12  0.17120000000E+03  0.17120000000E+03 0.  0.
         13    1    1    2    0    0 -0.25661671873E+02  0.10238742210E+03  0.30304047976E+03  0.32089756800E+03  0.10566000000E+00 0. -1.
        994    1    1    2    0    0  0.63548656920E+02 -0.17489261917E+03  0.13784684052E+03  0.28798793634E+03  0.17120000000E+03 0.  0.
        998    1    1    2    0    0 -0.37886985047E+02  0.72505197064E+02  0.10591126760E+04  0.10623144957E+04  0.10000000000E+02 0. -1.
</event>
<event>
 5    1  0.1344348E-008  0.3893664E+03  0.7957747E-01  0.3411362E+00
         13   -1    0    0    0    0  0.00000000000E+00  0.00000000000E+00  0.14999999963E+04  0.15000000000E+04  0.10566000000E+00 0. -1.
        994   -1    0    0    0    0 -0.00000000000E+00 -0.00000000000E+00  0.11368683772E-12  0.17120000000E+03  0.17120000000E+03 0.  0.
         13    1    1    2    0    0 -0.12485322617E+03 -0.40630033742E+02  0.42496016022E+03  0.44478115592E+03  0.10566000000E+00 0. -1.
        994    1    1    2    0    0  0.66114635445E+02  0.10726120641E+02  0.38609443887E+02  0.18784654333E+03  0.17120000000E+03 0.  0.
        998    1    1    2    0    0  0.58738590724E+02  0.29903913101E+02  0.10364303922E+04  0.10385723007E+04  0.10000000000E+02 0.  1.
</event>
<event>
 5    1  0.1344348E-008  0.3861321E+03  0.7957747E-01  0.3424885E+00
         13   -1    0    0    0    0  0.00000000000E+00  0.00000000000E+00  0.14999999963E+04  0.15000000000E+04  0.10566000000E+00 0. -1.
        994   -1    0    0    0    0 -0.00000000000E+00 -0.00000000000E+00  0.11368683772E-12  0.17120000000E+03  0.17120000000E+03 0.  0.
         13    1    1    2    0    0 -0.71842848306E+01  0.85088209649E+01  0.54598108160E+02  0.55722334494E+02  0.10566000000E+00 0. -1.
        994    1    1    2    0    0  0.16107654433E+02 -0.10123463010E+02  0.22559583762E+01  0.17226859953E+03  0.17120000000E+03 0.  0.
        998    1    1    2    0    0 -0.89233696024E+01  0.16146420453E+01  0.14431459297E+04  0.14432090660E+04  0.10000000000E+02 0. -1.
</event>
<event>
 5    1  0.1344348E-008  0.3688705E+03  0.7957747E-01  0.3501098E+00
         13   -1    0    0    0    0  0.00000000000E+00  0.00000000000E+00  0.14999999963E+04  0.15000000000E+04  0.10566000000E+00 0. -1.
        994   -1    0    0    0    0 -0.00000000000E+00 -0.00000000000E+00  0.11368683772E-12  0.17120000000E+03  0.17120000000E+03 0.  0.
         13    1    1    2    0    0  0.41812911616E+01  0.26248320509E+02  0.31324008772E+02  0.41081166183E+02  0.10566000000E+00 0. -1.
        994    1    1    2    0    0 -0.71774211083E+01  0.10187839024E+01  0.10525837850E+02  0.17167640070E+03  0.17120000000E+03 0.  0.
        998    1    1    2    0    0  0.29961299467E+01 -0.27267104412E+02  0.14581501497E+04  0.14584424331E+04  0.10000000000E+02 0. -1.
</event>
<event>
 5    1  0.1344348E-008  0.3843672E+03  0.7957747E-01  0.3432360E+00
         13   -1    0    0    0    0  0.00000000000E+00  0.00000000000E+00  0.14999999963E+04  0.15000000000E+04  0.10566000000E+00 0.  1.
        994   -1    0    0    0    0 -0.00000000000E+00 -0.00000000000E+00  0.11368683772E-12  0.17120000000E+03  0.17120000000E+03 0.  0.
         13    1    1    2    0    0  0.78287727415E+01 -0.12690428895E+02  0.57513187193E+02  0.59414766963E+02  0.10566000000E+00 0.  1.
        994    1    1    2    0    0  0.26292187644E+01  0.10823388538E+02  0.23535560911E+01  0.17157808064E+03  0.17120000000E+03 0.  0.
        998    1    1    2    0    0 -0.10457991506E+02  0.18670403573E+01  0.14401332530E+04  0.14402071524E+04  0.10000000000E+02 0.  1.
</event>
<event>
 5    1  0.1344348E-008  0.3825915E+03  0.7957747E-01  0.3439952E+00
         13   -1    0    0    0    0  0.00000000000E+00  0.00000000000E+00  0.14999999963E+04  0.15000000000E+04  0.10566000000E+00 0.  1.
        994   -1    0    0    0    0 -0.00000000000E+00 -0.00000000000E+00  0.11368683772E-12  0.17120000000E+03  0.17120000000E+03 0.  0.
         13    1    1    2    0    0 -0.26009322866E+00  0.21663332492E+02  0.87744243523E+02  0.90379372971E+02  0.10566000000E+00 0.  1.
        994    1    1    2    0    0 -0.17751258618E+02 -0.24806382307E+01  0.38962055007E+01  0.17217979314E+03  0.17120000000E+03 0.  0.
        998    1    1    2    0    0  0.18011351847E+02 -0.19182694262E+02  0.14083595473E+04  0.14086408339E+04  0.10000000000E+02 0.  1.
</event>
<event>
 5    1  0.1344348E-008  0.3735977E+03  0.7957747E-01  0.3479518E+00
         13   -1    0    0    0    0  0.00000000000E+00  0.00000000000E+00  0.14999999963E+04  0.15000000000E+04  0.10566000000E+00 0.  1.
        994   -1    0    0    0    0 -0.00000000000E+00 -0.00000000000E+00  0.11368683772E-12  0.17120000000E+03  0.17120000000E+03 0.  0.
         13    1    1    2    0    0  0.23251336307E+02 -0.39162154274E+02  0.13035169848E+03  0.13807923605E+03  0.10566000000E+00 0.  1.
        994    1    1    2    0    0 -0.10735541473E+02  0.39246485768E+02  0.13075971736E+02  0.17645384533E+03  0.17120000000E+03 0.  0.
        998    1    1    2    0    0 -0.12515794834E+02 -0.84331493974E-01  0.13565723261E+04  0.13566669186E+04  0.10000000000E+02 0.  1.
</event>
<event>
 5    1  0.1344348E-008  0.3847083E+03  0.7957747E-01  0.3430910E+00
         13   -1    0    0    0    0  0.00000000000E+00  0.00000000000E+00  0.14999999963E+04  0.15000000000E+04  0.10566000000E+00 0. -1.
        994   -1    0    0    0    0 -0.00000000000E+00 -0.00000000000E+00  0.11368683772E-12  0.17120000000E+03  0.17120000000E+03 0.  0.
         13    1    1    2    0    0  0.93644726492E+01 -0.51500841653E+01  0.31641539210E+02  0.33397827512E+02  0.10566000000E+00 0. -1.
        994    1    1    2    0    0 -0.79440749572E+01  0.37123688182E+01  0.20281882379E+01  0.17143641258E+03  0.17120000000E+03 0.  0.
        998    1    1    2    0    0 -0.14203976920E+01  0.14377153471E+01  0.14663302688E+04  0.14663657599E+04  0.10000000000E+02 0. -1.
</event>
<event>
 5    1  0.1344348E-008  0.3840710E+03  0.7957747E-01  0.3433622E+00
         13   -1    0    0    0    0  0.00000000000E+00  0.00000000000E+00  0.14999999963E+04  0.15000000000E+04  0.10566000000E+00 0. -1.
        994   -1    0    0    0    0 -0.00000000000E+00 -0.00000000000E+00  0.11368683772E-12  0.17120000000E+03  0.17120000000E+03 0.  0.
         13    1    1    2    0    0 -0.26221516896E+02  0.14500391135E+02  0.18070253067E+03  0.18316998948E+03  0.10566000000E+00 0. -1.
        994    1    1    2    0    0  0.21801348875E+02 -0.37144073310E+02  0.82350083809E+01  0.17672644499E+03  0.17120000000E+03 0.  0.
        998    1    1    2    0    0  0.44201680209E+01  0.22643682175E+02  0.13110624572E+04  0.13113035655E+04  0.10000000000E+02 0. -1.
</event>
<event>
 5    1  0.1344348E-008  0.3852251E+03  0.7957747E-01  0.3428718E+00
         13   -1    0    0    0    0  0.00000000000E+00  0.00000000000E+00  0.14999999963E+04  0.15000000000E+04  0.10566000000E+00 0.  1.
        994   -1    0    0    0    0 -0.00000000000E+00 -0.00000000000E+00  0.11368683772E-12  0.17120000000E+03  0.17120000000E+03 0.  0.
         13    1    1    2    0    0 -0.11171771242E+02 -0.79085311527E+01  0.58665813573E+02  0.60241532052E+02  0.10566000000E+00 0.  1.
        994    1    1    2    0    0  0.17006531965E+02  0.64331007044E+01  0.26056212618E+01  0.17218256641E+03  0.17120000000E+03 0.  0.
        998    1    1    2    0    0 -0.58347607230E+01  0.14754304483E+01  0.14387285614E+04  0.14387759015E+04  0.10000000000E+02 0.  1.
</event>
<event>
 5    1  0.1344348E-008  0.3761914E+03  0.7957747E-01  0.3467912E+00
         13   -1    0    0    0    0  0.00000000000E+00  0.00000000000E+00  0.14999999963E+04  0.15000000000E+04  0.10566000000E+00 0.  1.
        994   -1    0    0    0    0 -0.00000000000E+00 -0.00000000000E+00  0.11368683772E-12  0.17120000000E+03  0.17120000000E+03 0.  0.
         13    1    1    2    0    0 -0.30691759554E+02 -0.28080186536E+02  0.13770682999E+03  0.14385292201E+03  0.10566000000E+00 0.  1.
        994    1    1    2    0    0  0.22438955937E+02  0.17875669737E+02  0.88597220852E+01  0.17381306334E+03  0.17120000000E+03 0.  0.
        998    1    1    2    0    0  0.82528036175E+01  0.10204516800E+02  0.13534334442E+04  0.13535340147E+04  0.10000000000E+02 0.  1.
</event>
<event>
 5    1  0.1344348E-008  0.3766834E+03  0.7957747E-01  0.3465728E+00
         13   -1    0    0    0    0  0.00000000000E+00  0.00000000000E+00  0.14999999963E+04  0.15000000000E+04  0.10566000000E+00 0.  1.
        994   -1    0    0    0    0 -0.00000000000E+00 -0.00000000000E+00  0.11368683772E-12  0.17120000000E+03  0.17120000000E+03 0.  0.
         13    1    1    2    0    0  0.26864229569E+02  0.27522640815E+02  0.13601918017E+03  0.14135208215E+03  0.10566000000E+00 0.  1.
        994    1    1    2    0    0 -0.23169909247E+01 -0.74892040193E+01  0.60245483025E+01  0.17148525244E+03  0.17120000000E+03 0.  0.
        998    1    1    2    0    0 -0.24547238644E+02 -0.20033436795E+02  0.13579562678E+04  0.13583626654E+04  0.10000000000E+02 0.  1.
</event>
<event>
 5    1  0.1344348E-008  0.3698486E+03  0.7957747E-01  0.3496587E+00
         13   -1    0    0    0    0  0.00000000000E+00  0.00000000000E+00  0.14999999963E+04  0.15000000000E+04  0.10566000000E+00 0.  1.
        994   -1    0    0    0    0 -0.00000000000E+00 -0.00000000000E+00  0.11368683772E-12  0.17120000000E+03  0.17120000000E+03 0.  0.
         13    1    1    2    0    0  0.33141594464E+02 -0.52868896800E+02  0.33814475134E+03  0.34385370371E+03  0.10566000000E+00 0.  1.
        994    1    1    2    0    0 -0.56240967783E+01 -0.36936027255E+02  0.14192702402E+02  0.17580322345E+03  0.17120000000E+03 0.  0.
        998    1    1    2    0    0 -0.27517497685E+02  0.89804924055E+02  0.11476625425E+04  0.11515430728E+04  0.10000000000E+02 0.  1.
</event>
<event>
 5    1  0.1344348E-008  0.3816595E+03  0.7957747E-01  0.3443964E+00
         13   -1    0    0    0    0  0.00000000000E+00  0.00000000000E+00  0.14999999963E+04  0.15000000000E+04  0.10566000000E+00 0.  1.
        994   -1    0    0    0    0 -0.00000000000E+00 -0.00000000000E+00  0.11368683772E-12  0.17120000000E+03  0.17120000000E+03 0.  0.
         13    1    1    2    0    0  0.17960779534E+02  0.16877010989E+02  0.10014383652E+03  0.10313206222E+03  0.10566000000E+00 0.  1.
        994    1    1    2    0    0 -0.20651745735E+01  0.41956966056E+01  0.33704746653E+01  0.17129701958E+03  0.17120000000E+03 0.  0.
        998    1    1    2    0    0 -0.15895604960E+02 -0.21072707595E+02  0.13964856851E+04  0.13967709182E+04  0.10000000000E+02 0.  1.
</event>
<event>
 5    1  0.1344348E-008  0.3761443E+03  0.7957747E-01  0.3468121E+00
         13   -1    0    0    0    0  0.00000000000E+00  0.00000000000E+00  0.14999999963E+04  0.15000000000E+04  0.10566000000E+00 0.  1.
        994   -1    0    0    0    0 -0.00000000000E+00 -0.00000000000E+00  0.11368683772E-12  0.17120000000E+03  0.17120000000E+03 0.  0.
         13    1    1    2    0    0  0.44548417426E+02 -0.12330477734E+02  0.16528569086E+03  0.17162742480E+03  0.10566000000E+00 0.  1.
        994    1    1    2    0    0 -0.32447080626E+02  0.16076022297E+02  0.10545222622E+02  0.17530514326E+03  0.17120000000E+03 0.  0.
        998    1    1    2    0    0 -0.12101336800E+02 -0.37455445633E+01  0.13241690828E+04  0.13242674319E+04  0.10000000000E+02 0.  1.
</event>
<event>
 5    1  0.1344348E-008  0.3738430E+03  0.7957747E-01  0.3478414E+00
         13   -1    0    0    0    0  0.00000000000E+00  0.00000000000E+00  0.14999999963E+04  0.15000000000E+04  0.10566000000E+00 0.  1.
        994   -1    0    0    0    0 -0.00000000000E+00 -0.00000000000E+00  0.11368683772E-12  0.17120000000E+03  0.17120000000E+03 0.  0.
         13    1    1    2    0    0  0.81483495057E+01  0.23438801946E+02  0.39591445923E+02  0.46725440508E+02  0.10566000000E+00 0.  1.
        994    1    1    2    0    0  0.14060888720E+02 -0.20831684323E+02  0.94326496555E+01  0.17329189982E+03  0.17120000000E+03 0.  0.
        998    1    1    2    0    0 -0.22209238225E+02 -0.26071176225E+01  0.14509759007E+04  0.14511826597E+04  0.10000000000E+02 0.  1.
</event>
<event>
 5    1  0.1344348E-008  0.3821823E+03  0.7957747E-01  0.3441711E+00
         13   -1    0    0    0    0  0.00000000000E+00  0.00000000000E+00  0.14999999963E+04  0.15000000000E+04  0.10566000000E+00 0. -1.
        994   -1    0    0    0    0 -0.00000000000E+00 -0.00000000000E+00  0.11368683772E-12  0.17120000000E+03  0.17120000000E+03 0.  0.
         13    1    1    2    0    0  0.17045512522E+02 -0.24963887326E+02  0.15073806563E+03  0.15373913217E+03  0.10566000000E+00 0. -1.
        994    1    1    2    0    0 -0.87668285991E+01  0.14389258057E+02  0.39784299422E+01  0.17207317030E+03  0.17120000000E+03 0.  0.
        998    1    1    2    0    0 -0.82786839225E+01  0.10574629269E+02  0.13452835007E+04  0.13453876975E+04  0.10000000000E+02 0. -1.
</event>
<event>
 5    1  0.1344348E-008  0.3821557E+03  0.7957747E-01  0.3441825E+00
         13   -1    0    0    0    0  0.00000000000E+00  0.00000000000E+00  0.14999999963E+04  0.15000000000E+04  0.10566000000E+00 0.  1.
        994   -1    0    0    0    0 -0.00000000000E+00 -0.00000000000E+00  0.11368683772E-12  0.17120000000E+03  0.17120000000E+03 0.  0.
         13    1    1    2    0    0 -0.50022062478E+01 -0.32468267808E+02  0.17219976395E+03  0.17530539167E+03  0.10566000000E+00 0.  1.
        994    1    1    2    0    0  0.54580390890E+01  0.21487561926E+02  0.46820392679E+01  0.17269298480E+03  0.17120000000E+03 0.  0.
        998    1    1    2    0    0 -0.45583284121E+00  0.10980705882E+02  0.13231181931E+04  0.13232016235E+04  0.10000000000E+02 0.  1.
</event>
<event>
 5    1  0.1344348E-008  0.3863809E+03  0.7957747E-01  0.3423837E+00
         13   -1    0    0    0    0  0.00000000000E+00  0.00000000000E+00  0.14999999963E+04  0.15000000000E+04  0.10566000000E+00 0.  1.
        994   -1    0    0    0    0 -0.00000000000E+00 -0.00000000000E+00  0.11368683772E-12  0.17120000000E+03  0.17120000000E+03 0.  0.
         13    1    1    2    0    0  0.60357235549E+01  0.81959569898E+01  0.55969507258E+02  0.56887613560E+02  0.10566000000E+00 0.  1.
        994    1    1    2    0    0  0.51140754021E+01 -0.12055136922E+02  0.15077216731E+01  0.17170670726E+03  0.17120000000E+03 0.  0.
        998    1    1    2    0    0 -0.11149798957E+02  0.38591799318E+01  0.14425227673E+04  0.14426056792E+04  0.10000000000E+02 0.  1.
</event>
<event>
 5    1  0.1344348E-008  0.3847693E+03  0.7957747E-01  0.3430651E+00
         13   -1    0    0    0    0  0.00000000000E+00  0.00000000000E+00  0.14999999963E+04  0.15000000000E+04  0.10566000000E+00 0.  1.
        994   -1    0    0    0    0 -0.00000000000E+00 -0.00000000000E+00  0.11368683772E-12  0.17120000000E+03  0.17120000000E+03 0.  0.
         13    1    1    2    0    0  0.16814224709E+02  0.17109909636E+01  0.81348564424E+02  0.83085773395E+02  0.10566000000E+00 0.  1.
        994    1    1    2    0    0 -0.11945343980E+02  0.16461952112E+01  0.22233802611E+01  0.17163852895E+03  0.17120000000E+03 0.  0.
        998    1    1    2    0    0 -0.48688807286E+01 -0.33571861748E+01  0.14164280516E+04  0.14164756977E+04  0.10000000000E+02 0.  1.
</event>
<event>
 5    1  0.1344348E-008  0.3832244E+03  0.7957747E-01  0.3437238E+00
         13   -1    0    0    0    0  0.00000000000E+00  0.00000000000E+00  0.14999999963E+04  0.15000000000E+04  0.10566000000E+00 0.  1.
        994   -1    0    0    0    0 -0.00000000000E+00 -0.00000000000E+00  0.11368683772E-12  0.17120000000E+03  0.17120000000E+03 0.  0.
         13    1    1    2    0    0  0.49573207699E+01 -0.13466655008E+02  0.41253199870E+02  0.43677951988E+02  0.10566000000E+00 0.  1.
        994    1    1    2    0    0 -0.43097477457E+01  0.21004108852E+01  0.25902925451E+01  0.17128670488E+03  0.17120000000E+03 0.  0.
        998    1    1    2    0    0 -0.64757302426E+00  0.11366244123E+02  0.14561565039E+04  0.14562353431E+04  0.10000000000E+02 0.  1.
</event>
<event>
 5    1  0.1344348E-008  0.3700709E+03  0.7957747E-01  0.3495565E+00
         13   -1    0    0    0    0  0.00000000000E+00  0.00000000000E+00  0.14999999963E+04  0.15000000000E+04  0.10566000000E+00 0.  1.
        994   -1    0    0    0    0 -0.00000000000E+00 -0.00000000000E+00  0.11368683772E-12  0.17120000000E+03  0.17120000000E+03 0.  0.
         13    1    1    2    0    0  0.34703166117E+02 -0.29916898213E+02  0.98698833305E+02  0.10881544650E+03  0.10566000000E+00 0.  1.
        994    1    1    2    0    0 -0.34827436461E+02  0.49511911454E+02  0.22007765471E+02  0.18291572225E+03  0.17120000000E+03 0.  0.
        998    1    1    2    0    0  0.12427034418E+00 -0.19595013241E+02  0.13792933975E+04  0.13794688312E+04  0.10000000000E+02 0.  1.
</event>
<event>
 5    1  0.1344348E-008  0.3852907E+03  0.7957747E-01  0.3428440E+00
         13   -1    0    0    0    0  0.00000000000E+00  0.00000000000E+00  0.14999999963E+04  0.15000000000E+04  0.10566000000E+00 0. -1.
        994   -1    0    0    0    0 -0.00000000000E+00 -0.00000000000E+00  0.11368683772E-12  0.17120000000E+03  0.17120000000E+03 0.  0.
         13    1    1    2    0    0 -0.14779539591E+02 -0.10939612678E+02  0.10686077604E+03  0.10843129869E+03  0.10566000000E+00 0. -1.
        994    1    1    2    0    0  0.13094443904E+02  0.15063332976E+02  0.27958236118E+01  0.17238220642E+03  0.17120000000E+03 0.  0.
        998    1    1    2    0    0  0.16850956870E+01 -0.41237202982E+01  0.13903433966E+04  0.13903864949E+04  0.10000000000E+02 0. -1.
</event>
<event>
 5    1  0.1344348E-008  0.3718318E+03  0.7957747E-01  0.3487514E+00
         13   -1    0    0    0    0  0.00000000000E+00  0.00000000000E+00  0.14999999963E+04  0.15000000000E+04  0.10566000000E+00 0.  1.
        994   -1    0    0    0    0 -0.00000000000E+00 -0.00000000000E+00  0.11368683772E-12  0.17120000000E+03  0.17120000000E+03 0.  0.
         13    1    1    2    0    0 -0.56160821269E+02 -0.11103645073E+02  0.15802549925E+03  0.16807557335E+03  0.10566000000E+00 0.  1.
        994    1    1    2    0    0  0.75631054515E+02  0.15452547861E+02  0.29075694323E+02  0.19003597986E+03  0.17120000000E+03 0.  0.
        998    1    1    2    0    0 -0.19470233246E+02 -0.43489027875E+01  0.13128988027E+04  0.13130884468E+04  0.10000000000E+02 0.  1.
</event>
<event>
 5    1  0.1344348E-008  0.3824387E+03  0.7957747E-01  0.3440608E+00
         13   -1    0    0    0    0  0.00000000000E+00  0.00000000000E+00  0.14999999963E+04  0.15000000000E+04  0.10566000000E+00 0. -1.
        994   -1    0    0    0    0 -0.00000000000E+00 -0.00000000000E+00  0.11368683772E-12  0.17120000000E+03  0.17120000000E+03 0.  0.
         13    1    1    2    0    0  0.65290087621E+01 -0.10399408136E+02  0.25490850462E+02  0.28294350431E+02  0.10566000000E+00 0. -1.
        994    1    1    2    0    0 -0.27205615816E+01 -0.82567882431E+00  0.29339524156E+01  0.17124874095E+03  0.17120000000E+03 0.  0.
        998    1    1    2    0    0 -0.38084471805E+01  0.11225086961E+02  0.14715751934E+04  0.14716569086E+04  0.10000000000E+02 0. -1.
</event>
<event>
 5    1  0.1344348E-008  0.3685995E+03  0.7957747E-01  0.3502352E+00
         13   -1    0    0    0    0  0.00000000000E+00  0.00000000000E+00  0.14999999963E+04  0.15000000000E+04  0.10566000000E+00 0.  1.
        994   -1    0    0    0    0 -0.00000000000E+00 -0.00000000000E+00  0.11368683772E-12  0.17120000000E+03  0.17120000000E+03 0.  0.
         13    1    1    2    0    0 -0.48389378545E+02  0.26382406820E+02  0.16999481665E+03  0.17870593778E+03  0.10566000000E+00 0.  1.
        994    1    1    2    0    0 -0.48787793776E+01 -0.92170884590E+01  0.10578635090E+02  0.17184325628E+03  0.17120000000E+03 0.  0.
        998    1    1    2    0    0  0.53268157923E+02 -0.17165318361E+02  0.13194265445E+04  0.13206508059E+04  0.10000000000E+02 0.  1.
</event>
<event>
 5    1  0.1344348E-008  0.3854285E+03  0.7957747E-01  0.3427857E+00
         13   -1    0    0    0    0  0.00000000000E+00  0.00000000000E+00  0.14999999963E+04  0.15000000000E+04  0.10566000000E+00 0.  1.
        994   -1    0    0    0    0 -0.00000000000E+00 -0.00000000000E+00  0.11368683772E-12  0.17120000000E+03  0.17120000000E+03 0.  0.
         13    1    1    2    0    0  0.28668575357E+01  0.14278730844E+02  0.81617205371E+02  0.82906455739E+02  0.10566000000E+00 0.  1.
        994    1    1    2    0    0  0.14909782345E+02 -0.21489674937E+01  0.21631180232E+01  0.17187506727E+03  0.17120000000E+03 0.  0.
        998    1    1    2    0    0 -0.17776639881E+02 -0.12129763350E+02  0.14162196729E+04  0.14164184770E+04  0.10000000000E+02 0.  1.
</event>
<event>
 5    1  0.1344348E-008  0.3809376E+03  0.7957747E-01  0.3447086E+00
         13   -1    0    0    0    0  0.00000000000E+00  0.00000000000E+00  0.14999999963E+04  0.15000000000E+04  0.10566000000E+00 0.  1.
        994   -1    0    0    0    0 -0.00000000000E+00 -0.00000000000E+00  0.11368683772E-12  0.17120000000E+03  0.17120000000E+03 0.  0.
         13    1    1    2    0    0  0.22409262613E+01  0.12210286816E+02  0.18967749590E+02  0.22669352509E+02  0.10566000000E+00 0.  1.
        994    1    1    2    0    0  0.21172425733E+02 -0.23606483563E+02  0.70188864575E+01  0.17425338575E+03  0.17120000000E+03 0.  0.
        998    1    1    2    0    0 -0.23413351994E+02  0.11396196747E+02  0.14740133602E+04  0.14742772617E+04  0.10000000000E+02 0.  1.
</event>
<event>
 5    1  0.1344348E-008  0.3805644E+03  0.7957747E-01  0.3448705E+00
         13   -1    0    0    0    0  0.00000000000E+00  0.00000000000E+00  0.14999999963E+04  0.15000000000E+04  0.10566000000E+00 0. -1.
        994   -1    0    0    0    0 -0.00000000000E+00 -0.00000000000E+00  0.11368683772E-12  0.17120000000E+03  0.17120000000E+03 0.  0.
         13    1    1    2    0    0  0.69073570142E+01 -0.25760471030E+02  0.10509720481E+03  0.10842853440E+03  0.10566000000E+00 0. -1.
        994    1    1    2    0    0  0.80845677126E+00 -0.95416138817E+01  0.41545533638E+01  0.17151791834E+03  0.17120000000E+03 0.  0.
        998    1    1    2    0    0 -0.77158137854E+01  0.35302084911E+02  0.13907482381E+04  0.13912535473E+04  0.10000000000E+02 0. -1.
</event>
<event>
 5    1  0.1344348E-008  0.3765354E+03  0.7957747E-01  0.3466384E+00
         13   -1    0    0    0    0  0.00000000000E+00  0.00000000000E+00  0.14999999963E+04  0.15000000000E+04  0.10566000000E+00 0. -1.
        994   -1    0    0    0    0 -0.00000000000E+00 -0.00000000000E+00  0.11368683772E-12  0.17120000000E+03  0.17120000000E+03 0.  0.
         13    1    1    2    0    0 -0.21151566046E+02  0.34607831352E+02  0.13364061729E+03  0.13966000318E+03  0.10566000000E+00 0. -1.
        994    1    1    2    0    0  0.18385791838E+02 -0.23680686090E+02  0.89378892739E+01  0.17403487610E+03  0.17120000000E+03 0.  0.
        998    1    1    2    0    0  0.27657742081E+01 -0.10927145262E+02  0.13574214897E+04  0.13575051207E+04  0.10000000000E+02 0. -1.
</event>
<event>
 5    1  0.1344348E-008  0.3843740E+03  0.7957747E-01  0.3432331E+00
         13   -1    0    0    0    0  0.00000000000E+00  0.00000000000E+00  0.14999999963E+04  0.15000000000E+04  0.10566000000E+00 0. -1.
        994   -1    0    0    0    0 -0.00000000000E+00 -0.00000000000E+00  0.11368683772E-12  0.17120000000E+03  0.17120000000E+03 0.  0.
         13    1    1    2    0    0  0.55845251244E+01 -0.11145101330E+02  0.37639424443E+02  0.39650190932E+02  0.10566000000E+00 0. -1.
        994    1    1    2    0    0 -0.37970760558E+01  0.20367112327E+02  0.33569992844E+01  0.17248172800E+03  0.17120000000E+03 0.  0.
        998    1    1    2    0    0 -0.17874490686E+01 -0.92220109969E+01  0.14590035726E+04  0.14590680811E+04  0.10000000000E+02 0. -1.
</event>
<event>
 5    1  0.1344348E-008  0.3777220E+03  0.7957747E-01  0.3461138E+00
         13   -1    0    0    0    0  0.00000000000E+00  0.00000000000E+00  0.14999999963E+04  0.15000000000E+04  0.10566000000E+00 0.  1.
        994   -1    0    0    0    0 -0.00000000000E+00 -0.00000000000E+00  0.11368683772E-12  0.17120000000E+03  0.17120000000E+03 0.  0.
         13    1    1    2    0    0  0.44057256991E+01  0.92071065707E+02  0.50402225575E+03  0.51238163220E+03  0.10566000000E+00 0.  1.
        994    1    1    2    0    0 -0.50148735891E+01 -0.95347200334E+02  0.36636144826E+02  0.19941886740E+03  0.17120000000E+03 0.  0.
        998    1    1    2    0    0  0.60914789003E+00  0.32761346269E+01  0.95934159570E+03  0.95939950040E+03  0.10000000000E+02 0.  1.
</event>
<event>
 5    1  0.1344348E-008  0.3693713E+03  0.7957747E-01  0.3498785E+00
         13   -1    0    0    0    0  0.00000000000E+00  0.00000000000E+00  0.14999999963E+04  0.15000000000E+04  0.10566000000E+00 0.  1.
        994   -1    0    0    0    0 -0.00000000000E+00 -0.00000000000E+00  0.11368683772E-12  0.17120000000E+03  0.17120000000E+03 0.  0.
         13    1    1    2    0    0  0.14484833005E+03 -0.16714914005E+02  0.65989022094E+03  0.67580732604E+03  0.10566000000E+00 0.  1.
        994    1    1    2    0    0 -0.12562826172E+03  0.14311574726E+02  0.68654557308E+02  0.22362953641E+03  0.17120000000E+03 0.  0.
        998    1    1    2    0    0 -0.19220068328E+02  0.24033392793E+01  0.77145521803E+03  0.77176313755E+03  0.10000000000E+02 0.  1.
</event>
<event>
 5    1  0.1344348E-008  0.3851907E+03  0.7957747E-01  0.3428864E+00
         13   -1    0    0    0    0  0.00000000000E+00  0.00000000000E+00  0.14999999963E+04  0.15000000000E+04  0.10566000000E+00 0.  1.
        994   -1    0    0    0    0 -0.00000000000E+00 -0.00000000000E+00  0.11368683772E-12  0.17120000000E+03  0.17120000000E+03 0.  0.
         13    1    1    2    0    0  0.15825181914E+02 -0.33617764188E+01  0.94585623420E+02  0.95959310361E+02  0.10566000000E+00 0.  1.
        994    1    1    2    0    0  0.36165745102E+01  0.65852400398E+01  0.17210462273E+01  0.17137341392E+03  0.17120000000E+03 0.  0.
        998    1    1    2    0    0 -0.19441756425E+02 -0.32234636210E+01  0.14036933266E+04  0.14038672757E+04  0.10000000000E+02 0.  1.
</event>
<event>
 5    1  0.1344348E-008  0.3852721E+03  0.7957747E-01  0.3428519E+00
         13   -1    0    0    0    0  0.00000000000E+00  0.00000000000E+00  0.14999999963E+04  0.15000000000E+04  0.10566000000E+00 0. -1.
        994   -1    0    0    0    0 -0.00000000000E+00 -0.00000000000E+00  0.11368683772E-12  0.17120000000E+03  0.17120000000E+03 0.  0.
         13    1    1    2    0    0  0.13299953842E+02 -0.91284354367E+01  0.78797259715E+02  0.80431563508E+02  0.10566000000E+00 0. -1.
        994    1    1    2    0    0 -0.22014763281E+02  0.11804251414E+02  0.35480604190E+01  0.17304918054E+03  0.17120000000E+03 0.  0.
        998    1    1    2    0    0  0.87148094389E+01 -0.26758159776E+01  0.14176546761E+04  0.14177192559E+04  0.10000000000E+02 0. -1.
</event>
<event>
 5    1  0.1344348E-008  0.3758650E+03  0.7957747E-01  0.3469363E+00
         13   -1    0    0    0    0  0.00000000000E+00  0.00000000000E+00  0.14999999963E+04  0.15000000000E+04  0.10566000000E+00 0. -1.
        994   -1    0    0    0    0 -0.00000000000E+00 -0.00000000000E+00  0.11368683772E-12  0.17120000000E+03  0.17120000000E+03 0.  0.
         13    1    1    2    0    0  0.58599179483E+02 -0.78723706427E+01  0.33425924837E+03  0.33944822041E+03  0.10566000000E+00 0. -1.
        994    1    1    2    0    0 -0.12807023105E+02 -0.22275478274E+01  0.68081149947E+01  0.17182774002E+03  0.17120000000E+03 0.  0.
        998    1    1    2    0    0 -0.45792156379E+02  0.10099918470E+02  0.11589326329E+04  0.11599240396E+04  0.10000000000E+02 0. -1.
</event>
<event>
 5    1  0.1344348E-008  0.3740880E+03  0.7957747E-01  0.3477312E+00
         13   -1    0    0    0    0  0.00000000000E+00  0.00000000000E+00  0.14999999963E+04  0.15000000000E+04  0.10566000000E+00 0.  1.
        994   -1    0    0    0    0 -0.00000000000E+00 -0.00000000000E+00  0.11368683772E-12  0.17120000000E+03  0.17120000000E+03 0.  0.
         13    1    1    2    0    0  0.35806155729E+02 -0.58776801716E+02  0.35473204403E+03  0.36134696268E+03  0.10566000000E+00 0.  1.
        994    1    1    2    0    0  0.21937967051E+02  0.52906649348E+02  0.18416524692E+02  0.18146348483E+03  0.17120000000E+03 0.  0.
        998    1    1    2    0    0 -0.57744122780E+02  0.58701523680E+01  0.11268514276E+04  0.11283895525E+04  0.10000000000E+02 0.  1.
</event>
<event>
 5    1  0.1344348E-008  0.3802261E+03  0.7957747E-01  0.3450174E+00
         13   -1    0    0    0    0  0.00000000000E+00  0.00000000000E+00  0.14999999963E+04  0.15000000000E+04  0.10566000000E+00 0. -1.
        994   -1    0    0    0    0 -0.00000000000E+00 -0.00000000000E+00  0.11368683772E-12  0.17120000000E+03  0.17120000000E+03 0.  0.
         13    1    1    2    0    0  0.59580706315E+02 -0.23801655724E+02  0.11210016926E+03  0.12916206290E+03  0.10566000000E+00 0. -1.
        994    1    1    2    0    0 -0.68036930521E+02 -0.39259667618E+01  0.33494154049E+02  0.18728517156E+03  0.17120000000E+03 0.  0.
        998    1    1    2    0    0  0.84562242062E+01  0.27727622486E+02  0.13544056730E+04  0.13547527655E+04  0.10000000000E+02 0. -1.
</event>
<event>
 5    1  0.1344348E-008  0.3732857E+03  0.7957747E-01  0.3480925E+00
         13   -1    0    0    0    0  0.00000000000E+00  0.00000000000E+00  0.14999999963E+04  0.15000000000E+04  0.10566000000E+00 0.  1.
        994   -1    0    0    0    0 -0.00000000000E+00 -0.00000000000E+00  0.11368683772E-12  0.17120000000E+03  0.17120000000E+03 0.  0.
         13    1    1    2    0    0  0.18343483227E+02 -0.30422104732E+02  0.92700934136E+02  0.99274680492E+02  0.10566000000E+00 0.  1.
        994    1    1    2    0    0 -0.53205039084E+01 -0.18460994658E+02  0.88246788383E+01  0.17250052476E+03  0.17120000000E+03 0.  0.
        998    1    1    2    0    0 -0.13022979319E+02  0.48883099391E+02  0.13984743833E+04  0.13994247947E+04  0.10000000000E+02 0.  1.
</event>
<event>
 5    1  0.1344348E-008  0.3823974E+03  0.7957747E-01  0.3440786E+00
         13   -1    0    0    0    0  0.00000000000E+00  0.00000000000E+00  0.14999999963E+04  0.15000000000E+04  0.10566000000E+00 0. -1.
        994   -1    0    0    0    0 -0.00000000000E+00 -0.00000000000E+00  0.11368683772E-12  0.17120000000E+03  0.17120000000E+03 0.  0.
         13    1    1    2    0    0  0.19614601546E+02  0.11916719040E+02  0.90440300292E+02  0.93307019389E+02  0.10566000000E+00 0. -1.
        994    1    1    2    0    0 -0.10918927125E+02 -0.43245606442E+01  0.33853880703E+01  0.17163573534E+03  0.17120000000E+03 0.  0.
        998    1    1    2    0    0 -0.86956744212E+01 -0.75921583955E+01  0.14061743079E+04  0.14062572453E+04  0.10000000000E+02 0. -1.
</event>
<event>
 5    1  0.1344348E-008  0.3781104E+03  0.7957747E-01  0.3459428E+00
         13   -1    0    0    0    0  0.00000000000E+00  0.00000000000E+00  0.14999999963E+04  0.15000000000E+04  0.10566000000E+00 0. -1.
        994   -1    0    0    0    0 -0.00000000000E+00 -0.00000000000E+00  0.11368683772E-12  0.17120000000E+03  0.17120000000E+03 0.  0.
         13    1    1    2    0    0  0.23423845462E+02  0.28538817343E+02  0.11765495738E+03  0.12331196532E+03  0.10566000000E+00 0. -1.
        994    1    1    2    0    0  0.90535571924E+01 -0.67975353213E+02  0.21076000119E+02  0.18562395676E+03  0.17120000000E+03 0.  0.
        998    1    1    2    0    0 -0.32477402655E+02  0.39436535870E+02  0.13612690388E+04  0.13622640779E+04  0.10000000000E+02 0. -1.
</event>
<event>
 5    1  0.1344348E-008  0.3757156E+03  0.7957747E-01  0.3470028E+00
         13   -1    0    0    0    0  0.00000000000E+00  0.00000000000E+00  0.14999999963E+04  0.15000000000E+04  0.10566000000E+00 0. -1.
        994   -1    0    0    0    0 -0.00000000000E+00 -0.00000000000E+00  0.11368683772E-12  0.17120000000E+03  0.17120000000E+03 0.  0.
         13    1    1    2    0    0 -0.10523929190E+02  0.70676343359E+01  0.94466827936E+01  0.15809981674E+02  0.10566000000E+00 0. -1.
        994    1    1    2    0    0  0.10045166005E+02 -0.35618389186E+02  0.10970054287E+02  0.17549745610E+03  0.17120000000E+03 0.  0.
        998    1    1    2    0    0  0.47876318440E+00  0.28550754850E+02  0.14795832592E+04  0.14798925622E+04  0.10000000000E+02 0. -1.
</event>
<event>
 5    1  0.1344348E-008  0.3836812E+03  0.7957747E-01  0.3435285E+00
         13   -1    0    0    0    0  0.00000000000E+00  0.00000000000E+00  0.14999999963E+04  0.15000000000E+04  0.10566000000E+00 0. -1.
        994   -1    0    0    0    0 -0.00000000000E+00 -0.00000000000E+00  0.11368683772E-12  0.17120000000E+03  0.17120000000E+03 0.  0.
         13    1    1    2    0    0  0.93997949254E+01 -0.73579031407E+01  0.31265781221E+02  0.33467224603E+02  0.10566000000E+00 0. -1.
        994    1    1    2    0    0 -0.54248938785E+01 -0.43017619678E+01  0.24446602718E+01  0.17135737800E+03  0.17120000000E+03 0.  0.
        998    1    1    2    0    0 -0.39749010469E+01  0.11659665109E+02  0.14662895548E+04  0.14663753974E+04  0.10000000000E+02 0. -1.
</event>
<event>
 5    1  0.1344348E-008  0.3754863E+03  0.7957747E-01  0.3471051E+00
         13   -1    0    0    0    0  0.00000000000E+00  0.00000000000E+00  0.14999999963E+04  0.15000000000E+04  0.10566000000E+00 0.  1.
        994   -1    0    0    0    0 -0.00000000000E+00 -0.00000000000E+00  0.11368683772E-12  0.17120000000E+03  0.17120000000E+03 0.  0.
         13    1    1    2    0    0  0.37168515804E+02 -0.52314949369E+02  0.26601879212E+03  0.27365007112E+03  0.10566000000E+00 0.  1.
        994    1    1    2    0    0 -0.23487898876E+02  0.60234894059E+02  0.20748977860E+02  0.18417351584E+03  0.17120000000E+03 0.  0.
        998    1    1    2    0    0 -0.13680616929E+02 -0.79199446898E+01  0.12132322263E+04  0.12133764130E+04  0.10000000000E+02 0. -1.
</event>
<event>
 5    1  0.1344348E-008  0.3842915E+03  0.7957747E-01  0.3432683E+00
         13   -1    0    0    0    0  0.00000000000E+00  0.00000000000E+00  0.14999999963E+04  0.15000000000E+04  0.10566000000E+00 0.  1.
        994   -1    0    0    0    0 -0.00000000000E+00 -0.00000000000E+00  0.11368683772E-12  0.17120000000E+03  0.17120000000E+03 0.  0.
         13    1    1    2    0    0 -0.68242811253E+01  0.12929173216E+02  0.54521322165E+02  0.56447498329E+02  0.10566000000E+00 0.  1.
        994    1    1    2    0    0 -0.10357084875E+01 -0.77532531738E+01  0.21840160033E+01  0.17139251895E+03  0.17120000000E+03 0.  0.
        998    1    1    2    0    0  0.78599896128E+01 -0.51759200424E+01  0.14432946581E+04  0.14433599827E+04  0.10000000000E+02 0.  1.
</event>
<event>
 5    1  0.1344348E-008  0.4070640E+03  0.7957747E-01  0.3341167E+00
         13   -1    0    0    0    0  0.00000000000E+00  0.00000000000E+00  0.14999999963E+04  0.15000000000E+04  0.10566000000E+00 0.  1.
        994   -1    0    0    0    0 -0.00000000000E+00 -0.00000000000E+00  0.11368683772E-12  0.17120000000E+03  0.17120000000E+03 0.  0.
         13    1    1    2    0    0  0.35168553283E+02 -0.11893288210E+03  0.39116704298E+03  0.41035780029E+03  0.10566000000E+00 0.  1.
        994    1    1    2    0    0 -0.68452307975E+02 -0.40270835919E+02  0.57979943218E+02  0.19742991797E+03  0.17120000000E+03 0.  0.
        998    1    1    2    0    0  0.33283754693E+02  0.15920371802E+03  0.10508530101E+04  0.10634122817E+04  0.10000000000E+02 0.  1.
</event>
<event>
 5    1  0.1344348E-008  0.3793551E+03  0.7957747E-01  0.3453972E+00
         13   -1    0    0    0    0  0.00000000000E+00  0.00000000000E+00  0.14999999963E+04  0.15000000000E+04  0.10566000000E+00 0. -1.
        994   -1    0    0    0    0 -0.00000000000E+00 -0.00000000000E+00  0.11368683772E-12  0.17120000000E+03  0.17120000000E+03 0.  0.
         13    1    1    2    0    0 -0.90966823168E+02 -0.11743942113E+03  0.87009767955E+03  0.88268735330E+03  0.10566000000E+00 0. -1.
        994    1    1    2    0    0  0.95075950834E+02  0.11772905161E+03  0.85442680802E+02  0.24394560402E+03  0.17120000000E+03 0.  0.
        998    1    1    2    0    0 -0.41091276664E+01 -0.28963048279E+00  0.54445963593E+03  0.54456704268E+03  0.10000000000E+02 0.  0.
</event>
<event>
 5    1  0.1344348E-008  0.3783781E+03  0.7957747E-01  0.3458251E+00
         13   -1    0    0    0    0  0.00000000000E+00  0.00000000000E+00  0.14999999963E+04  0.15000000000E+04  0.10566000000E+00 0.  1.
        994   -1    0    0    0    0 -0.00000000000E+00 -0.00000000000E+00  0.11368683772E-12  0.17120000000E+03  0.17120000000E+03 0.  0.
         13    1    1    2    0    0  0.13467716465E+03  0.95413984513E+02  0.82822604030E+03  0.84451178329E+03  0.10566000000E+00 0.  1.
        994    1    1    2    0    0 -0.14878761872E+03 -0.96155984658E+02  0.11891432266E+03  0.27355764476E+03  0.17120000000E+03 0.  0.
        998    1    1    2    0    0  0.14110454069E+02  0.74200014540E+00  0.55285963331E+03  0.55313057195E+03  0.10000000000E+02 0.  0.
</event>
<event>
 5    1  0.1344348E-008  0.3860353E+03  0.7957747E-01  0.3425293E+00
         13   -1    0    0    0    0  0.00000000000E+00  0.00000000000E+00  0.14999999963E+04  0.15000000000E+04  0.10566000000E+00 0.  1.
        994   -1    0    0    0    0 -0.00000000000E+00 -0.00000000000E+00  0.11368683772E-12  0.17120000000E+03  0.17120000000E+03 0.  0.
         13    1    1    2    0    0  0.34922418577E+01  0.12581580441E+02  0.78040655095E+02  0.79125513782E+02  0.10566000000E+00 0.  1.
        994    1    1    2    0    0  0.68058398912E+00 -0.78315573228E+01  0.13195844660E+01  0.17138546551E+03  0.17120000000E+03 0.  0.
        998    1    1    2    0    0 -0.41728258468E+01 -0.47500231183E+01  0.14206397567E+04  0.14206890207E+04  0.10000000000E+02 0.  1.
</event>
<event>
 5    1  0.1344348E-008  0.3738945E+03  0.7957747E-01  0.3478182E+00
         13   -1    0    0    0    0  0.00000000000E+00  0.00000000000E+00  0.14999999963E+04  0.15000000000E+04  0.10566000000E+00 0. -1.
        994   -1    0    0    0    0 -0.00000000000E+00 -0.00000000000E+00  0.11368683772E-12  0.17120000000E+03  0.17120000000E+03 0.  0.
         13    1    1    2    0    0  0.45245309396E+02  0.28572290905E+02  0.17543185946E+03  0.18341172893E+03  0.10566000000E+00 0. -1.
        994    1    1    2    0    0 -0.34761987735E+02 -0.41434898745E+02  0.17294682152E+02  0.18037126339E+03  0.17120000000E+03 0.  0.
        998    1    1    2    0    0 -0.10483321661E+02  0.12862607840E+02  0.13072734547E+04  0.13074170077E+04  0.10000000000E+02 0. -1.
</event>
<event>
 5    1  0.1344348E-008  0.3777817E+03  0.7957747E-01  0.3460875E+00
         13   -1    0    0    0    0  0.00000000000E+00  0.00000000000E+00  0.14999999963E+04  0.15000000000E+04  0.10566000000E+00 0. -1.
        994   -1    0    0    0    0 -0.00000000000E+00 -0.00000000000E+00  0.11368683772E-12  0.17120000000E+03  0.17120000000E+03 0.  0.
         13    1    1    2    0    0 -0.76859303927E+02  0.26782821772E+02  0.46665576578E+03  0.47370063019E+03  0.10566000000E+00 0. -1.
        994    1    1    2    0    0  0.73228291862E+02 -0.16882503431E+02  0.24517715645E+02  0.18856818404E+03  0.17120000000E+03 0.  0.
        998    1    1    2    0    0  0.36310120657E+01 -0.99003183407E+01  0.10088265149E+04  0.10089311858E+04  0.10000000000E+02 0.  0.
</event>
<event>
 5    1  0.1344348E-008  0.3832277E+03  0.7957747E-01  0.3437224E+00
         13   -1    0    0    0    0  0.00000000000E+00  0.00000000000E+00  0.14999999963E+04  0.15000000000E+04  0.10566000000E+00 0.  1.
        994   -1    0    0    0    0 -0.00000000000E+00 -0.00000000000E+00  0.11368683772E-12  0.17120000000E+03  0.17120000000E+03 0.  0.
         13    1    1    2    0    0  0.27398640953E+00 -0.24864057556E+02  0.12053924505E+03  0.12307728137E+03  0.10566000000E+00 0.  1.
        994    1    1    2    0    0 -0.47003212470E+01  0.17250560344E+02  0.35706847723E+01  0.17216812900E+03  0.17120000000E+03 0.  0.
        998    1    1    2    0    0  0.44263348375E+01  0.76134972128E+01  0.13758900665E+04  0.13759545896E+04  0.10000000000E+02 0.  1.
</event>
<event>
 5    1  0.1344348E-008  0.3850446E+03  0.7957747E-01  0.3429483E+00
         13   -1    0    0    0    0  0.00000000000E+00  0.00000000000E+00  0.14999999963E+04  0.15000000000E+04  0.10566000000E+00 0.  1.
        994   -1    0    0    0    0 -0.00000000000E+00 -0.00000000000E+00  0.11368683772E-12  0.17120000000E+03  0.17120000000E+03 0.  0.
         13    1    1    2    0    0  0.56478165524E+01 -0.14264315479E+02  0.77647949158E+02  0.79149123182E+02  0.10566000000E+00 0.  1.
        994    1    1    2    0    0  0.22432504513E+01  0.27751393580E+01  0.16498646910E+01  0.17124513314E+03  0.17120000000E+03 0.  0.
        998    1    1    2    0    0 -0.78910670038E+01  0.11489176121E+02  0.14207021824E+04  0.14208057437E+04  0.10000000000E+02 0.  1.
</event>
<event>
 5    1  0.1344348E-008  0.3851244E+03  0.7957747E-01  0.3429145E+00
         13   -1    0    0    0    0  0.00000000000E+00  0.00000000000E+00  0.14999999963E+04  0.15000000000E+04  0.10566000000E+00 0.  1.
        994   -1    0    0    0    0 -0.00000000000E+00 -0.00000000000E+00  0.11368683772E-12  0.17120000000E+03  0.17120000000E+03 0.  0.
         13    1    1    2    0    0  0.14017367611E+02 -0.63074115852E+01  0.72389559830E+02  0.74003578104E+02  0.10566000000E+00 0.  1.
        994    1    1    2    0    0 -0.17569248092E+02  0.50883321531E+00  0.25846372692E+01  0.17211931251E+03  0.17120000000E+03 0.  0.
        998    1    1    2    0    0  0.35518804810E+01  0.57985783698E+01  0.14250257992E+04  0.14250771094E+04  0.10000000000E+02 0.  1.
</event>
<event>
 5    1  0.1344348E-008  0.3748533E+03  0.7957747E-01  0.3473879E+00
         13   -1    0    0    0    0  0.00000000000E+00  0.00000000000E+00  0.14999999963E+04  0.15000000000E+04  0.10566000000E+00 0. -1.
        994   -1    0    0    0    0 -0.00000000000E+00 -0.00000000000E+00  0.11368683772E-12  0.17120000000E+03  0.17120000000E+03 0.  0.
         13    1    1    2    0    0  0.53760258397E+02 -0.24447033160E+02  0.14084537354E+03  0.15272607251E+03  0.10566000000E+00 0. -1.
        994    1    1    2    0    0 -0.82108042793E+01 -0.59688946125E+01  0.13895003981E+02  0.17206265180E+03  0.17120000000E+03 0.  0.
        998    1    1    2    0    0 -0.45549454118E+02  0.30415927773E+02  0.13452596188E+04  0.13464112757E+04  0.10000000000E+02 0. -1.
</event>
<event>
 5    1  0.1344348E-008  0.3834377E+03  0.7957747E-01  0.3436325E+00
         13   -1    0    0    0    0  0.00000000000E+00  0.00000000000E+00  0.14999999963E+04  0.15000000000E+04  0.10566000000E+00 0.  1.
        994   -1    0    0    0    0 -0.00000000000E+00 -0.00000000000E+00  0.11368683772E-12  0.17120000000E+03  0.17120000000E+03 0.  0.
         13    1    1    2    0    0  0.10394964304E+02  0.10900291146E+02  0.46928370423E+02  0.49286455995E+02  0.10566000000E+00 0.  1.
        994    1    1    2    0    0 -0.89425250943E+01 -0.21732636579E+01  0.26877728850E+01  0.17146823599E+03  0.17120000000E+03 0.  0.
        998    1    1    2    0    0 -0.14524392099E+01 -0.87270274880E+01  0.14503838530E+04  0.14504453080E+04  0.10000000000E+02 0.  1.
</event>
<event>
 5    1  0.1344348E-008  0.3758397E+03  0.7957747E-01  0.3469476E+00
         13   -1    0    0    0    0  0.00000000000E+00  0.00000000000E+00  0.14999999963E+04  0.15000000000E+04  0.10566000000E+00 0.  1.
        994   -1    0    0    0    0 -0.00000000000E+00 -0.00000000000E+00  0.11368683772E-12  0.17120000000E+03  0.17120000000E+03 0.  0.
         13    1    1    2    0    0 -0.13829632604E+02  0.45882386681E+02  0.16767697412E+03  0.17439045548E+03  0.10566000000E+00 0.  1.
        994    1    1    2    0    0  0.13682352050E+02 -0.40222699103E+02  0.12391256253E+02  0.17682775662E+03  0.17120000000E+03 0.  0.
        998    1    1    2    0    0  0.14728055381E+00 -0.56596875780E+01  0.13199317659E+04  0.13199817879E+04  0.10000000000E+02 0.  1.
</event>
<event>
 5    1  0.1344348E-008  0.3843539E+03  0.7957747E-01  0.3432417E+00
         13   -1    0    0    0    0  0.00000000000E+00  0.00000000000E+00  0.14999999963E+04  0.15000000000E+04  0.10566000000E+00 0.  1.
        994   -1    0    0    0    0 -0.00000000000E+00 -0.00000000000E+00  0.11368683772E-12  0.17120000000E+03  0.17120000000E+03 0.  0.
         13    1    1    2    0    0  0.12139676886E+02 -0.70722907177E+01  0.49326401246E+02  0.51288342485E+02  0.10566000000E+00 0.  1.
        994    1    1    2    0    0 -0.57981267983E+01  0.15979401463E+02  0.29041233022E+01  0.17206636359E+03  0.17120000000E+03 0.  0.
        998    1    1    2    0    0 -0.63415500882E+01 -0.89071107457E+01  0.14477694717E+04  0.14478452939E+04  0.10000000000E+02 0.  1.
</event>
<event>
 5    1  0.1344348E-008  0.3857273E+03  0.7957747E-01  0.3426594E+00
         13   -1    0    0    0    0  0.00000000000E+00  0.00000000000E+00  0.14999999963E+04  0.15000000000E+04  0.10566000000E+00 0. -1.
        994   -1    0    0    0    0 -0.00000000000E+00 -0.00000000000E+00  0.11368683772E-12  0.17120000000E+03  0.17120000000E+03 0.  0.
         13    1    1    2    0    0 -0.11316458577E+02 -0.56872083389E+01  0.62419727873E+02  0.63691759005E+02  0.10566000000E+00 0. -1.
        994    1    1    2    0    0  0.49897119502E+01  0.15608599410E+02  0.21509959139E+01  0.17199590805E+03  0.17120000000E+03 0.  0.
        998    1    1    2    0    0  0.63267466267E+01 -0.99213910714E+01  0.14354292725E+04  0.14355123329E+04  0.10000000000E+02 0. -1.
</event>
<event>
 5    1  0.1344348E-008  0.3785399E+03  0.7957747E-01  0.3457541E+00
         13   -1    0    0    0    0  0.00000000000E+00  0.00000000000E+00  0.14999999963E+04  0.15000000000E+04  0.10566000000E+00 0.  1.
        994   -1    0    0    0    0 -0.00000000000E+00 -0.00000000000E+00  0.11368683772E-12  0.17120000000E+03  0.17120000000E+03 0.  0.
         13    1    1    2    0    0 -0.71036103109E+01  0.25973291965E+02  0.72267313227E+02  0.77121001680E+02  0.10566000000E+00 0.  1.
        994    1    1    2    0    0  0.95749335653E+01 -0.16195981798E+02  0.60620152947E+01  0.17233739353E+03  0.17120000000E+03 0.  0.
        998    1    1    2    0    0 -0.24713232544E+01 -0.97773101675E+01  0.14216706678E+04  0.14217416048E+04  0.10000000000E+02 0.  1.
</event>
<event>
 5    1  0.1344348E-008  0.3837951E+03  0.7957747E-01  0.3434799E+00
         13   -1    0    0    0    0  0.00000000000E+00  0.00000000000E+00  0.14999999963E+04  0.15000000000E+04  0.10566000000E+00 0. -1.
        994   -1    0    0    0    0 -0.00000000000E+00 -0.00000000000E+00  0.11368683772E-12  0.17120000000E+03  0.17120000000E+03 0.  0.
         13    1    1    2    0    0  0.18322586056E+02  0.14683330593E+01  0.71276654508E+02  0.73608734561E+02  0.10566000000E+00 0. -1.
        994    1    1    2    0    0 -0.19729136200E+02 -0.40356158270E+02  0.89202701960E+01  0.17721983395E+03  0.17120000000E+03 0.  0.
        998    1    1    2    0    0  0.14065501439E+01  0.38887825210E+02  0.14198030716E+04  0.14203714315E+04  0.10000000000E+02 0. -1.
</event>
<event>
 5    1  0.1344348E-008  0.3859352E+03  0.7957747E-01  0.3425716E+00
         13   -1    0    0    0    0  0.00000000000E+00  0.00000000000E+00  0.14999999963E+04  0.15000000000E+04  0.10566000000E+00 0.  1.
        994   -1    0    0    0    0 -0.00000000000E+00 -0.00000000000E+00  0.11368683772E-12  0.17120000000E+03  0.17120000000E+03 0.  0.
         13    1    1    2    0    0 -0.48808505872E+01  0.10817974528E+02  0.61932232941E+02  0.63059209608E+02  0.10566000000E+00 0.  1.
        994    1    1    2    0    0  0.42638571007E+01 -0.45420842422E+01  0.12938094167E+01  0.17131819795E+03  0.17120000000E+03 0.  0.
        998    1    1    2    0    0  0.61699348650E+00 -0.62758902856E+01  0.14367739539E+04  0.14368225924E+04  0.10000000000E+02 0.  1.
</event>
<event>
 5    1  0.1504048E-008  0.3856660E+03  0.7957747E-01  0.3426853E+00
         13   -1    0    0    0    0  0.00000000000E+00  0.00000000000E+00  0.14999999963E+04  0.15000000000E+04  0.10566000000E+00 0.  1.
        994   -1    0    0    0    0 -0.00000000000E+00 -0.00000000000E+00  0.11368683772E-12  0.17120000000E+03  0.17120000000E+03 0.  0.
         13    1    1    2    0    0  0.22635444494E+00 -0.10566346243E+02  0.44235920713E+02  0.45481059295E+02  0.10566000000E+00 0.  1.
        994    1    1    2    0    0 -0.25410733964E+01  0.31280898628E+01  0.13531497923E+01  0.17125277520E+03  0.17120000000E+03 0.  0.
        998    1    1    2    0    0  0.23147189515E+01  0.74382563801E+01  0.14544109258E+04  0.14544661655E+04  0.10000000000E+02 0.  1.
</event>
<event>
 5    1  0.1344348E-008  0.3809920E+03  0.7957747E-01  0.3446850E+00
         13   -1    0    0    0    0  0.00000000000E+00  0.00000000000E+00  0.14999999963E+04  0.15000000000E+04  0.10566000000E+00 0. -1.
        994   -1    0    0    0    0 -0.00000000000E+00 -0.00000000000E+00  0.11368683772E-12  0.17120000000E+03  0.17120000000E+03 0.  0.
         13    1    1    2    0    0 -0.51417274303E+01  0.16409886452E+02  0.40672771655E+02  0.44158886449E+02  0.10566000000E+00 0. -1.
        994    1    1    2    0    0 -0.28662887034E+02 -0.11608634780E+02  0.68262264421E+01  0.17410444814E+03  0.17120000000E+03 0.  0.
        998    1    1    2    0    0  0.33804614464E+02 -0.48012516717E+01  0.14525009982E+04  0.14529366654E+04  0.10000000000E+02 0. -1.
</event>
<event>
 5    1  0.1344348E-008  0.3709569E+03  0.7957747E-01  0.3491505E+00
         13   -1    0    0    0    0  0.00000000000E+00  0.00000000000E+00  0.14999999963E+04  0.15000000000E+04  0.10566000000E+00 0.  1.
        994   -1    0    0    0    0 -0.00000000000E+00 -0.00000000000E+00  0.11368683772E-12  0.17120000000E+03  0.17120000000E+03 0.  0.
         13    1    1    2    0    0 -0.30784539068E+02  0.75204136546E+02  0.29731040781E+03  0.30821557352E+03  0.10566000000E+00 0.  1.
        994    1    1    2    0    0  0.30086130160E+02 -0.76126581621E+02  0.32228433545E+02  0.19247998230E+03  0.17120000000E+03 0.  0.
        998    1    1    2    0    0  0.69840890759E+00  0.92244507441E+00  0.11704611549E+04  0.11705044442E+04  0.10000000000E+02 0.  0.
</event>
<event>
 5    1  0.1344348E-008  0.3731230E+03  0.7957747E-01  0.3481660E+00
         13   -1    0    0    0    0  0.00000000000E+00  0.00000000000E+00  0.14999999963E+04  0.15000000000E+04  0.10566000000E+00 0.  1.
        994   -1    0    0    0    0 -0.00000000000E+00 -0.00000000000E+00  0.11368683772E-12  0.17120000000E+03  0.17120000000E+03 0.  0.
         13    1    1    2    0    0 -0.93205121842E+02 -0.10618566553E+03  0.39413237532E+03  0.41869192820E+03  0.10566000000E+00 0.  1.
        994    1    1    2    0    0  0.13626551043E+03  0.18703891646E+03  0.22113708343E+03  0.36299159118E+03  0.17120000000E+03 0.  0.
        998    1    1    2    0    0 -0.43060388588E+02 -0.80853250928E+02  0.88473053753E+03  0.88951648062E+03  0.10000000000E+02 0.  1.
</event>
<event>
 5    1  0.1344348E-008  0.3704288E+03  0.7957747E-01  0.3493923E+00
         13   -1    0    0    0    0  0.00000000000E+00  0.00000000000E+00  0.14999999963E+04  0.15000000000E+04  0.10566000000E+00 0. -1.
        994   -1    0    0    0    0 -0.00000000000E+00 -0.00000000000E+00  0.11368683772E-12  0.17120000000E+03  0.17120000000E+03 0.  0.
         13    1    1    2    0    0  0.91149827475E+01  0.18506071909E+02  0.19338415411E+02  0.28276192859E+02  0.10566000000E+00 0. -1.
        994    1    1    2    0    0 -0.69075518962E+01 -0.20708489849E+02  0.10692180688E+02  0.17291708577E+03  0.17120000000E+03 0.  0.
        998    1    1    2    0    0 -0.22074308513E+01  0.22024179404E+01  0.14699694002E+04  0.14700067214E+04  0.10000000000E+02 0. -1.
</event>
<event>
 5    1  0.1344348E-008  0.3858656E+03  0.7957747E-01  0.3426009E+00
         13   -1    0    0    0    0  0.00000000000E+00  0.00000000000E+00  0.14999999963E+04  0.15000000000E+04  0.10566000000E+00 0.  1.
        994   -1    0    0    0    0 -0.00000000000E+00 -0.00000000000E+00  0.11368683772E-12  0.17120000000E+03  0.17120000000E+03 0.  0.
         13    1    1    2    0    0 -0.46829902154E+02 -0.32687105494E+02  0.85696585389E+02  0.10298253499E+03  0.10566000000E+00 0.  1.
        994    1    1    2    0    0 -0.39822841038E+01  0.65020701142E+01  0.19802951075E+02  0.17251009354E+03  0.17120000000E+03 0.  0.
        998    1    1    2    0    0  0.50812186258E+02  0.26185035380E+02  0.13945004598E+04  0.13957073715E+04  0.10000000000E+02 0.  1.
</event>
<event>
 5    1  0.1344348E-008  0.3852969E+03  0.7957747E-01  0.3428414E+00
         13   -1    0    0    0    0  0.00000000000E+00  0.00000000000E+00  0.14999999963E+04  0.15000000000E+04  0.10566000000E+00 0. -1.
        994   -1    0    0    0    0 -0.00000000000E+00 -0.00000000000E+00  0.11368683772E-12  0.17120000000E+03  0.17120000000E+03 0.  0.
         13    1    1    2    0    0 -0.10383163623E+02  0.11579731367E+02  0.85113650381E+02  0.86523088887E+02  0.10566000000E+00 0. -1.
        994    1    1    2    0    0  0.18492350047E+01 -0.49939857706E+01  0.15759757396E+01  0.17129005594E+03  0.17120000000E+03 0.  0.
        998    1    1    2    0    0  0.85339286181E+01 -0.65857455964E+01  0.14133103702E+04  0.14133868552E+04  0.10000000000E+02 0. -1.
</event>
<event>
 5    1  0.1595206E-008  0.3864299E+03  0.7957747E-01  0.3423630E+00
         13   -1    0    0    0    0  0.00000000000E+00  0.00000000000E+00  0.14999999963E+04  0.15000000000E+04  0.10566000000E+00 0. -1.
        994   -1    0    0    0    0 -0.00000000000E+00 -0.00000000000E+00  0.11368683772E-12  0.17120000000E+03  0.17120000000E+03 0.  0.
         13    1    1    2    0    0 -0.10331449942E+02  0.26572839077E+01  0.63161947197E+02  0.64056559020E+02  0.10566000000E+00 0. -1.
        994    1    1    2    0    0  0.11234579503E+02  0.14491511275E+02  0.20232509646E+01  0.17219103699E+03  0.17120000000E+03 0.  0.
        998    1    1    2    0    0 -0.90312956072E+00 -0.17148795182E+02  0.14348147981E+04  0.14349524040E+04  0.10000000000E+02 0. -1.
</event>
<event>
 5    1  0.1344348E-008  0.3753189E+03  0.7957747E-01  0.3471798E+00
         13   -1    0    0    0    0  0.00000000000E+00  0.00000000000E+00  0.14999999963E+04  0.15000000000E+04  0.10566000000E+00 0. -1.
        994   -1    0    0    0    0 -0.00000000000E+00 -0.00000000000E+00  0.11368683772E-12  0.17120000000E+03  0.17120000000E+03 0.  0.
         13    1    1    2    0    0 -0.14016367276E+03 -0.13733455099E+03  0.56645686053E+03  0.59948312742E+03  0.10566000000E+00 0. -1.
        994    1    1    2    0    0  0.18773929157E+03  0.18773799686E+03  0.30444891659E+03  0.43873702816E+03  0.17120000000E+03 0.  0.
        998    1    1    2    0    0 -0.47575618806E+02 -0.50403445872E+02  0.62909421916E+03  0.63297984442E+03  0.10000000000E+02 0. -1.
</event>
<event>
 5    1  0.1344348E-008  0.3816750E+03  0.7957747E-01  0.3443897E+00
         13   -1    0    0    0    0  0.00000000000E+00  0.00000000000E+00  0.14999999963E+04  0.15000000000E+04  0.10566000000E+00 0.  1.
        994   -1    0    0    0    0 -0.00000000000E+00 -0.00000000000E+00  0.11368683772E-12  0.17120000000E+03  0.17120000000E+03 0.  0.
         13    1    1    2    0    0  0.33387718175E+01 -0.12679001580E+02  0.25538637860E+02  0.28707798002E+02  0.10566000000E+00 0.  1.
        994    1    1    2    0    0 -0.69501634895E+01 -0.14635877953E+01  0.34577150490E+01  0.17138215384E+03  0.17120000000E+03 0.  0.
        998    1    1    2    0    0  0.36113916719E+01  0.14142589375E+02  0.14710036434E+04  0.14711100482E+04  0.10000000000E+02 0.  1.
</event>
<event>
 5    1  0.1344348E-008  0.3800196E+03  0.7957747E-01  0.3451073E+00
         13   -1    0    0    0    0  0.00000000000E+00  0.00000000000E+00  0.14999999963E+04  0.15000000000E+04  0.10566000000E+00 0. -1.
        994   -1    0    0    0    0 -0.00000000000E+00 -0.00000000000E+00  0.11368683772E-12  0.17120000000E+03  0.17120000000E+03 0.  0.
         13    1    1    2    0    0 -0.20587769327E+02  0.14152317823E+02  0.75842392229E+02  0.79851261534E+02  0.10566000000E+00 0. -1.
        994    1    1    2    0    0  0.12786918175E+02 -0.64891925627E+00  0.46713794949E+01  0.17174163199E+03  0.17120000000E+03 0.  0.
        998    1    1    2    0    0  0.78008511516E+01 -0.13503398566E+02  0.14194862246E+04  0.14196071065E+04  0.10000000000E+02 0. -1.
</event>
<event>
 5    1  0.1344348E-008  0.3807670E+03  0.7957747E-01  0.3447826E+00
         13   -1    0    0    0    0  0.00000000000E+00  0.00000000000E+00  0.14999999963E+04  0.15000000000E+04  0.10566000000E+00 0. -1.
        994   -1    0    0    0    0 -0.00000000000E+00 -0.00000000000E+00  0.11368683772E-12  0.17120000000E+03  0.17120000000E+03 0.  0.
         13    1    1    2    0    0  0.16902935101E+02 -0.12877884186E+02  0.57742088799E+02  0.61528116330E+02  0.10566000000E+00 0. -1.
        994    1    1    2    0    0 -0.15099177787E+02  0.10815998203E+02  0.48976130483E+01  0.17227419308E+03  0.17120000000E+03 0.  0.
        998    1    1    2    0    0 -0.18037573134E+01  0.20618859827E+01  0.14373602944E+04  0.14373976906E+04  0.10000000000E+02 0. -1.
</event>
<event>
 5    1  0.1344348E-008  0.3687679E+03  0.7957747E-01  0.3501572E+00
         13   -1    0    0    0    0  0.00000000000E+00  0.00000000000E+00  0.14999999963E+04  0.15000000000E+04  0.10566000000E+00 0.  1.
        994   -1    0    0    0    0 -0.00000000000E+00 -0.00000000000E+00  0.11368683772E-12  0.17120000000E+03  0.17120000000E+03 0.  0.
         13    1    1    2    0    0  0.96139516418E+01  0.79678824291E+01  0.27055304639E+01  0.12776786595E+02  0.10566000000E+00 0.  1.
        994    1    1    2    0    0 -0.19703463861E+02 -0.76167045165E+01  0.11843680640E+02  0.17290446335E+03  0.17120000000E+03 0.  0.
        998    1    1    2    0    0  0.10089512219E+02 -0.35117791269E+00  0.14854507852E+04  0.14855187501E+04  0.10000000000E+02 0.  1.
</event>
<event>
 5    1  0.1344348E-008  0.3808935E+03  0.7957747E-01  0.3447277E+00
         13   -1    0    0    0    0  0.00000000000E+00  0.00000000000E+00  0.14999999963E+04  0.15000000000E+04  0.10566000000E+00 0.  1.
        994   -1    0    0    0    0 -0.00000000000E+00 -0.00000000000E+00  0.11368683772E-12  0.17120000000E+03  0.17120000000E+03 0.  0.
         13    1    1    2    0    0  0.20445441360E+02  0.28636599672E+02  0.15003616662E+03  0.15410688944E+03  0.10566000000E+00 0.  1.
        994    1    1    2    0    0 -0.27413946663E+02 -0.25826628111E+02  0.84253720710E+01  0.17549634209E+03  0.17120000000E+03 0.  0.
        998    1    1    2    0    0  0.69685053027E+01 -0.28099715605E+01  0.13415384576E+04  0.13415967685E+04  0.10000000000E+02 0.  1.
</event>
<event>
 5    1  0.1344348E-008  0.3835036E+03  0.7957747E-01  0.3436043E+00
         13   -1    0    0    0    0  0.00000000000E+00  0.00000000000E+00  0.14999999963E+04  0.15000000000E+04  0.10566000000E+00 0. -1.
        994   -1    0    0    0    0 -0.00000000000E+00 -0.00000000000E+00  0.11368683772E-12  0.17120000000E+03  0.17120000000E+03 0.  0.
         13    1    1    2    0    0  0.27303775736E+02  0.26996422048E+02  0.31875908338E+02  0.49903784118E+02  0.10566000000E+00 0. -1.
        994    1    1    2    0    0  0.10077612578E+02 -0.69884659750E+02  0.36803386926E+02  0.18881036315E+03  0.17120000000E+03 0.  0.
        998    1    1    2    0    0 -0.37381388314E+02  0.42888237702E+02  0.14313207010E+04  0.14324858527E+04  0.10000000000E+02 0. -1.
</event>
<event>
 5    1  0.1344348E-008  0.3726894E+03  0.7957747E-01  0.3483621E+00
         13   -1    0    0    0    0  0.00000000000E+00  0.00000000000E+00  0.14999999963E+04  0.15000000000E+04  0.10566000000E+00 0.  1.
        994   -1    0    0    0    0 -0.00000000000E+00 -0.00000000000E+00  0.11368683772E-12  0.17120000000E+03  0.17120000000E+03 0.  0.
         13    1    1    2    0    0  0.57916288908E+02  0.88389363727E+02  0.55317867834E+03  0.56318170911E+03  0.10566000000E+00 0.  1.
        994    1    1    2    0    0 -0.69222441012E+02 -0.58375917808E+02  0.36505399261E+02  0.19708266868E+03  0.17120000000E+03 0.  0.
        998    1    1    2    0    0  0.11306152104E+02 -0.30013445919E+02  0.91031591868E+03  0.91093562221E+03  0.10000000000E+02 0.  1.
</event>
<event>
 5    1  0.1344348E-008  0.3745083E+03  0.7957747E-01  0.3475425E+00
         13   -1    0    0    0    0  0.00000000000E+00  0.00000000000E+00  0.14999999963E+04  0.15000000000E+04  0.10566000000E+00 0. -1.
        994   -1    0    0    0    0 -0.00000000000E+00 -0.00000000000E+00  0.11368683772E-12  0.17120000000E+03  0.17120000000E+03 0.  0.
         13    1    1    2    0    0  0.45295410772E+02 -0.69207068412E+02  0.32869660225E+03  0.33894359420E+03  0.10566000000E+00 0. -1.
        994    1    1    2    0    0  0.64198304153E+02  0.58691050153E+02  0.40731682963E+02  0.19630224558E+03  0.17120000000E+03 0.  0.
        998    1    1    2    0    0 -0.10949371493E+03  0.10516018259E+02  0.11305717111E+04  0.11359541602E+04  0.10000000000E+02 0. -1.
</event>
<event>
 5    1  0.1344348E-008  0.3848423E+03  0.7957747E-01  0.3430341E+00
         13   -1    0    0    0    0  0.00000000000E+00  0.00000000000E+00  0.14999999963E+04  0.15000000000E+04  0.10566000000E+00 0. -1.
        994   -1    0    0    0    0 -0.00000000000E+00 -0.00000000000E+00  0.11368683772E-12  0.17120000000E+03  0.17120000000E+03 0.  0.
         13    1    1    2    0    0 -0.14159302970E+02 -0.17674846512E+01  0.59568924863E+02  0.61254206680E+02  0.10566000000E+00 0. -1.
        994    1    1    2    0    0  0.91620128105E+01  0.12809550366E+01  0.19901190773E+01  0.17146131896E+03  0.17120000000E+03 0.  0.
        998    1    1    2    0    0  0.49972901596E+01  0.48652961455E+00  0.14384409523E+04  0.14384844744E+04  0.10000000000E+02 0. -1.
</event>
<event>
 5    1  0.1344348E-008  0.3769908E+03  0.7957747E-01  0.3464367E+00
         13   -1    0    0    0    0  0.00000000000E+00  0.00000000000E+00  0.14999999963E+04  0.15000000000E+04  0.10566000000E+00 0. -1.
        994   -1    0    0    0    0 -0.00000000000E+00 -0.00000000000E+00  0.11368683772E-12  0.17120000000E+03  0.17120000000E+03 0.  0.
         13    1    1    2    0    0  0.15735182538E+02  0.97967312024E+01  0.27544496540E+02  0.33200638028E+02  0.10566000000E+00 0. -1.
        994    1    1    2    0    0 -0.17476624725E+02 -0.77154579639E+01  0.68932223286E+01  0.17240045597E+03  0.17120000000E+03 0.  0.
        998    1    1    2    0    0  0.17414421869E+01 -0.20812732385E+01  0.14655622774E+04  0.14655989060E+04  0.10000000000E+02 0. -1.
</event>
<event>
 5    1  0.1344348E-008  0.3727538E+03  0.7957747E-01  0.3483330E+00
         13   -1    0    0    0    0  0.00000000000E+00  0.00000000000E+00  0.14999999963E+04  0.15000000000E+04  0.10566000000E+00 0.  1.
        994   -1    0    0    0    0 -0.00000000000E+00 -0.00000000000E+00  0.11368683772E-12  0.17120000000E+03  0.17120000000E+03 0.  0.
         13    1    1    2    0    0  0.25902601692E+02 -0.48527589488E+02  0.22610434468E+03  0.23269950056E+03  0.10566000000E+00 0.  1.
        994    1    1    2    0    0 -0.33982819136E+02 -0.12071173287E+02  0.12304364944E+02  0.17538923176E+03  0.17120000000E+03 0.  0.
        998    1    1    2    0    0  0.80802174445E+01  0.60598762774E+02  0.12615912867E+04  0.12631112677E+04  0.10000000000E+02 0.  1.
</event>
<event>
 5    1  0.1344348E-008  0.3826494E+03  0.7957747E-01  0.3439703E+00
         13   -1    0    0    0    0  0.00000000000E+00  0.00000000000E+00  0.14999999963E+04  0.15000000000E+04  0.10566000000E+00 0. -1.
        994   -1    0    0    0    0 -0.00000000000E+00 -0.00000000000E+00  0.11368683772E-12  0.17120000000E+03  0.17120000000E+03 0.  0.
         13    1    1    2    0    0 -0.68517599144E+01 -0.16811626128E+02  0.59928777423E+02  0.62618263426E+02  0.10566000000E+00 0. -1.
        994    1    1    2    0    0  0.45150120535E+01  0.33268722539E+01  0.29059163694E+01  0.17131648421E+03  0.17120000000E+03 0.  0.
        998    1    1    2    0    0  0.23367478609E+01  0.13484753874E+02  0.14371653025E+04  0.14372652524E+04  0.10000000000E+02 0. -1.
</event>
<event>
 5    1  0.1344348E-008  0.3729199E+03  0.7957747E-01  0.3482578E+00
         13   -1    0    0    0    0  0.00000000000E+00  0.00000000000E+00  0.14999999963E+04  0.15000000000E+04  0.10566000000E+00 0.  1.
        994   -1    0    0    0    0 -0.00000000000E+00 -0.00000000000E+00  0.11368683772E-12  0.17120000000E+03  0.17120000000E+03 0.  0.
         13    1    1    2    0    0  0.49618900301E+02 -0.18427687234E+03  0.81666496568E+03  0.83866660735E+03  0.10566000000E+00 0.  1.
        994    1    1    2    0    0 -0.82959041376E+02  0.18185093521E+03  0.15991492650E+03  0.30795160156E+03  0.17120000000E+03 0.  0.
        998    1    1    2    0    0  0.33340141075E+02  0.24259371314E+01  0.52342010410E+03  0.52458179110E+03  0.10000000000E+02 0.  1.
</event>
<event>
 5    1  0.1344348E-008  0.3699874E+03  0.7957747E-01  0.3495949E+00
         13   -1    0    0    0    0  0.00000000000E+00  0.00000000000E+00  0.14999999963E+04  0.15000000000E+04  0.10566000000E+00 0.  1.
        994   -1    0    0    0    0 -0.00000000000E+00 -0.00000000000E+00  0.11368683772E-12  0.17120000000E+03  0.17120000000E+03 0.  0.
         13    1    1    2    0    0  0.32518529419E+02  0.52533105765E+01  0.60004539818E+02  0.68451501009E+02  0.10566000000E+00 0.  1.
        994    1    1    2    0    0  0.57632647444E+01  0.89872468748E+01  0.96698923121E+01  0.17180492613E+03  0.17120000000E+03 0.  0.
        998    1    1    2    0    0 -0.38281794163E+02 -0.14240557451E+02  0.14303255641E+04  0.14309435729E+04  0.10000000000E+02 0.  1.
</event>
<event>
 5    1  0.1344348E-008  0.4223594E+03  0.7957747E-01  0.3285196E+00
         13   -1    0    0    0    0  0.00000000000E+00  0.00000000000E+00  0.14999999963E+04  0.15000000000E+04  0.10566000000E+00 0.  1.
        994   -1    0    0    0    0 -0.00000000000E+00 -0.00000000000E+00  0.11368683772E-12  0.17120000000E+03  0.17120000000E+03 0.  0.
         13    1    1    2    0    0 -0.31630969767E+02 -0.99314849083E+02  0.15600863541E+03  0.18762372713E+03  0.10566000000E+00 0.  1.
        994    1    1    2    0    0  0.10960517136E+03 -0.57138885397E+02  0.11165019480E+03  0.23885843467E+03  0.17120000000E+03 0.  0.
        998    1    1    2    0    0 -0.77974201595E+02  0.15645373448E+03  0.12323411661E+04  0.12447178382E+04  0.10000000000E+02 0.  1.
</event>
<event>
 5    1  0.1344348E-008  0.3690718E+03  0.7957747E-01  0.3500167E+00
         13   -1    0    0    0    0  0.00000000000E+00  0.00000000000E+00  0.14999999963E+04  0.15000000000E+04  0.10566000000E+00 0. -1.
        994   -1    0    0    0    0 -0.00000000000E+00 -0.00000000000E+00  0.11368683772E-12  0.17120000000E+03  0.17120000000E+03 0.  0.
         13    1    1    2    0    0 -0.18151484978E+02  0.13516319631E+02  0.19988084652E+02  0.30194403378E+02  0.10566000000E+00 0. -1.
        994    1    1    2    0    0  0.12378913782E+02 -0.13660378849E+02  0.11633968293E+02  0.17258224901E+03  0.17120000000E+03 0.  0.
        998    1    1    2    0    0  0.57725711960E+01  0.14405921843E+00  0.14683779433E+04  0.14684233476E+04  0.10000000000E+02 0. -1.
</event>
<event>
 5    1  0.1344348E-008  0.3695273E+03  0.7957747E-01  0.3498066E+00
         13   -1    0    0    0    0  0.00000000000E+00  0.00000000000E+00  0.14999999963E+04  0.15000000000E+04  0.10566000000E+00 0. -1.
        994   -1    0    0    0    0 -0.00000000000E+00 -0.00000000000E+00  0.11368683772E-12  0.17120000000E+03  0.17120000000E+03 0.  0.
         13    1    1    2    0    0 -0.58291371528E+01 -0.10169011048E+02  0.27722094201E+01  0.12045079275E+02  0.10566000000E+00 0. -1.
        994    1    1    2    0    0  0.64500348001E+01  0.10589502457E+02  0.10048999883E+02  0.17194232437E+03  0.17120000000E+03 0.  0.
        998    1    1    2    0    0 -0.62089764731E+00 -0.42049140918E+00  0.14871787870E+04  0.14872125964E+04  0.10000000000E+02 0. -1.
</event>
<event>
 5    1  0.1344348E-008  0.3832681E+03  0.7957747E-01  0.3437051E+00
         13   -1    0    0    0    0  0.00000000000E+00  0.00000000000E+00  0.14999999963E+04  0.15000000000E+04  0.10566000000E+00 0.  1.
        994   -1    0    0    0    0 -0.00000000000E+00 -0.00000000000E+00  0.11368683772E-12  0.17120000000E+03  0.17120000000E+03 0.  0.
         13    1    1    2    0    0  0.25377143971E+02  0.20875150590E+02  0.17849855518E+03  0.18149797991E+03  0.10566000000E+00 0.  1.
        994    1    1    2    0    0 -0.32331673974E+02 -0.26452466775E+02  0.82853153776E+01  0.17641756316E+03  0.17120000000E+03 0.  0.
        998    1    1    2    0    0  0.69545300026E+01  0.55773161844E+01  0.13132161257E+04  0.13132844569E+04  0.10000000000E+02 0.  1.
</event>
<event>
 5    1  0.1344348E-008  0.3845601E+03  0.7957747E-01  0.3431540E+00
         13   -1    0    0    0    0  0.00000000000E+00  0.00000000000E+00  0.14999999963E+04  0.15000000000E+04  0.10566000000E+00 0.  1.
        994   -1    0    0    0    0 -0.00000000000E+00 -0.00000000000E+00  0.11368683772E-12  0.17120000000E+03  0.17120000000E+03 0.  0.
         13    1    1    2    0    0 -0.39822184707E+01 -0.12779954547E+02  0.47684478952E+02  0.49527830552E+02  0.10566000000E+00 0.  1.
        994    1    1    2    0    0 -0.65513181473E+01  0.13679844472E+02  0.26067348100E+01  0.17189035162E+03  0.17120000000E+03 0.  0.
        998    1    1    2    0    0  0.10533536618E+02 -0.89988992442E+00  0.14497087825E+04  0.14497818178E+04  0.10000000000E+02 0.  1.
</event>
<event>
 5    1  0.1344348E-008  0.3686723E+03  0.7957747E-01  0.3502015E+00
         13   -1    0    0    0    0  0.00000000000E+00  0.00000000000E+00  0.14999999963E+04  0.15000000000E+04  0.10566000000E+00 0.  1.
        994   -1    0    0    0    0 -0.00000000000E+00 -0.00000000000E+00  0.11368683772E-12  0.17120000000E+03  0.17120000000E+03 0.  0.
         13    1    1    2    0    0 -0.74864487285E+01  0.99563098440E+01  0.28200279585E+01  0.12772577735E+02  0.10566000000E+00 0.  1.
        994    1    1    2    0    0  0.62832963307E+01 -0.10610421400E+02  0.10767759745E+02  0.17198094518E+03  0.17120000000E+03 0.  0.
        998    1    1    2    0    0  0.12031523978E+01  0.65411155592E+00  0.14864122086E+04  0.14864464771E+04  0.10000000000E+02 0.  1.
</event>
<event>
 5    1  0.1344348E-008  0.3687600E+03  0.7957747E-01  0.3501609E+00
         13   -1    0    0    0    0  0.00000000000E+00  0.00000000000E+00  0.14999999963E+04  0.15000000000E+04  0.10566000000E+00 0. -1.
        994   -1    0    0    0    0 -0.00000000000E+00 -0.00000000000E+00  0.11368683772E-12  0.17120000000E+03  0.17120000000E+03 0.  0.
         13    1    1    2    0    0 -0.83555324465E+02  0.40252886895E+01  0.27756680438E+03  0.28989832227E+03  0.10566000000E+00 0. -1.
        994    1    1    2    0    0  0.86786425554E+02 -0.85644223905E+01  0.36813789363E+02  0.19562701265E+03  0.17120000000E+03 0.  0.
        998    1    1    2    0    0 -0.32311010890E+01  0.45391337010E+01  0.11856194025E+04  0.11856746651E+04  0.10000000000E+02 0. -1.
</event>
<event>
 5    1  0.1344348E-008  0.3769328E+03  0.7957747E-01  0.3464624E+00
         13   -1    0    0    0    0  0.00000000000E+00  0.00000000000E+00  0.14999999963E+04  0.15000000000E+04  0.10566000000E+00 0.  1.
        994   -1    0    0    0    0 -0.00000000000E+00 -0.00000000000E+00  0.11368683772E-12  0.17120000000E+03  0.17120000000E+03 0.  0.
         13    1    1    2    0    0  0.19533810219E+03  0.12478148307E+03  0.12223063022E+04  0.12440900692E+04  0.10566000000E+00 0.  1.
        994    1    1    2    0    0 -0.19335294454E+03 -0.11031120538E+03  0.19340396774E+03  0.34098160937E+03  0.17120000000E+03 0.  0.
        998    1    1    2    0    0 -0.19851576518E+01 -0.14470277694E+02  0.84289726371E+02  0.86128321469E+02  0.10000000000E+02 0. -1.
</event>
<event>
 5    1  0.1344348E-008  0.3844192E+03  0.7957747E-01  0.3432139E+00
         13   -1    0    0    0    0  0.00000000000E+00  0.00000000000E+00  0.14999999963E+04  0.15000000000E+04  0.10566000000E+00 0. -1.
        994   -1    0    0    0    0 -0.00000000000E+00 -0.00000000000E+00  0.11368683772E-12  0.17120000000E+03  0.17120000000E+03 0.  0.
         13    1    1    2    0    0  0.37650994748E+00 -0.21531526502E+02  0.10900600785E+03  0.11111286741E+03  0.10566000000E+00 0. -1.
        994    1    1    2    0    0  0.40262224325E+00  0.26959993268E+02  0.43177860702E+01  0.17336402919E+03  0.17120000000E+03 0.  0.
        998    1    1    2    0    0 -0.77913219073E+00 -0.54284667662E+01  0.13866762024E+04  0.13867231034E+04  0.10000000000E+02 0. -1.
</event>
<event>
 5    1  0.1344348E-008  0.3835715E+03  0.7957747E-01  0.3435753E+00
         13   -1    0    0    0    0  0.00000000000E+00  0.00000000000E+00  0.14999999963E+04  0.15000000000E+04  0.10566000000E+00 0. -1.
        994   -1    0    0    0    0 -0.00000000000E+00 -0.00000000000E+00  0.11368683772E-12  0.17120000000E+03  0.17120000000E+03 0.  0.
         13    1    1    2    0    0 -0.12656699470E+02  0.15710760286E+02  0.90587838590E+02  0.92807261002E+02  0.10566000000E+00 0. -1.
        994    1    1    2    0    0  0.14864629524E+01 -0.55303267880E+01  0.24493861566E+01  0.17131326154E+03  0.17120000000E+03 0.  0.
        998    1    1    2    0    0  0.11170236518E+02 -0.10180433498E+02  0.14069627715E+04  0.14070794775E+04  0.10000000000E+02 0. -1.
</event>
<event>
 5    1  0.1344348E-008  0.3840670E+03  0.7957747E-01  0.3433639E+00
         13   -1    0    0    0    0  0.00000000000E+00  0.00000000000E+00  0.14999999963E+04  0.15000000000E+04  0.10566000000E+00 0. -1.
        994   -1    0    0    0    0 -0.00000000000E+00 -0.00000000000E+00  0.11368683772E-12  0.17120000000E+03  0.17120000000E+03 0.  0.
         13    1    1    2    0    0 -0.93459517397E+01 -0.47366635642E+01  0.25742314871E+02  0.27793177843E+02  0.10566000000E+00 0. -1.
        994    1    1    2    0    0  0.48788546938E+01  0.30891106159E+01  0.22040647090E+01  0.17131153998E+03  0.17120000000E+03 0.  0.
        998    1    1    2    0    0  0.44670970459E+01  0.16475529483E+01  0.14720536167E+04  0.14720952822E+04  0.10000000000E+02 0. -1.
</event>
<event>
 5    1  0.1344348E-008  0.3721417E+03  0.7957747E-01  0.3486106E+00
         13   -1    0    0    0    0  0.00000000000E+00  0.00000000000E+00  0.14999999963E+04  0.15000000000E+04  0.10566000000E+00 0. -1.
        994   -1    0    0    0    0 -0.00000000000E+00 -0.00000000000E+00  0.11368683772E-12  0.17120000000E+03  0.17120000000E+03 0.  0.
         13    1    1    2    0    0 -0.19171503489E+02 -0.68145959888E+01  0.22292264549E+02  0.30181807224E+02  0.10566000000E+00 0. -1.
        994    1    1    2    0    0  0.68981977217E+01  0.30030975113E+01  0.83482269478E+01  0.17156846045E+03  0.17120000000E+03 0.  0.
        998    1    1    2    0    0  0.12273305767E+02  0.38114984776E+01  0.14693595048E+04  0.14694497323E+04  0.10000000000E+02 0. -1.
</event>
<event>
 5    1  0.1344348E-008  0.3742782E+03  0.7957747E-01  0.3476457E+00
         13   -1    0    0    0    0  0.00000000000E+00  0.00000000000E+00  0.14999999963E+04  0.15000000000E+04  0.10566000000E+00 0. -1.
        994   -1    0    0    0    0 -0.00000000000E+00 -0.00000000000E+00  0.11368683772E-12  0.17120000000E+03  0.17120000000E+03 0.  0.
         13    1    1    2    0    0  0.24392079944E+02 -0.50628560577E+01  0.39590177466E+02  0.46776055747E+02  0.10566000000E+00 0. -1.
        994    1    1    2    0    0 -0.26033442171E+02  0.24377609106E+02  0.11396508845E+02  0.17524647885E+03  0.17120000000E+03 0.  0.
        998    1    1    2    0    0  0.16413622270E+01 -0.19314753048E+02  0.14490133100E+04  0.14491774654E+04  0.10000000000E+02 0. -1.
</event>
<event>
 5    1  0.1344348E-008  0.4035016E+03  0.7957747E-01  0.3354805E+00
         13   -1    0    0    0    0  0.00000000000E+00  0.00000000000E+00  0.14999999963E+04  0.15000000000E+04  0.10566000000E+00 0.  1.
        994   -1    0    0    0    0 -0.00000000000E+00 -0.00000000000E+00  0.11368683772E-12  0.17120000000E+03  0.17120000000E+03 0.  0.
         13    1    1    2    0    0 -0.45206409670E+02  0.79669730252E+00  0.22274458396E+02  0.50402548177E+02  0.10566000000E+00 0.  1.
        994    1    1    2    0    0  0.45757611014E+02 -0.56068127206E+01  0.38374484253E+02  0.18140351804E+03  0.17120000000E+03 0.  0.
        998    1    1    2    0    0 -0.55120134374E+00  0.48101154181E+01  0.14393510536E+04  0.14393939338E+04  0.10000000000E+02 0.  1.
</event>
<event>
 5    1  0.1344348E-008  0.3855111E+03  0.7957747E-01  0.3427507E+00
         13   -1    0    0    0    0  0.00000000000E+00  0.00000000000E+00  0.14999999963E+04  0.15000000000E+04  0.10566000000E+00 0. -1.
        994   -1    0    0    0    0 -0.00000000000E+00 -0.00000000000E+00  0.11368683772E-12  0.17120000000E+03  0.17120000000E+03 0.  0.
         13    1    1    2    0    0 -0.42371810479E+01  0.10444132027E+02  0.51709104886E+02  0.52923305728E+02  0.10566000000E+00 0. -1.
        994    1    1    2    0    0 -0.17828715139E+02  0.31959191582E+01  0.24544746359E+01  0.17217299855E+03  0.17120000000E+03 0.  0.
        998    1    1    2    0    0  0.22065896187E+02 -0.13640051185E+02  0.14458364168E+04  0.14461036957E+04  0.10000000000E+02 0. -1.
</event>
<event>
 5    1  0.1344348E-008  0.4258283E+03  0.7957747E-01  0.3273052E+00
         13   -1    0    0    0    0  0.00000000000E+00  0.00000000000E+00  0.14999999963E+04  0.15000000000E+04  0.10566000000E+00 0.  1.
        994   -1    0    0    0    0 -0.00000000000E+00 -0.00000000000E+00  0.11368683772E-12  0.17120000000E+03  0.17120000000E+03 0.  0.
         13    1    1    2    0    0  0.24995913773E+02 -0.46881141524E+02  0.15656555605E+02  0.55387507918E+02  0.10566000000E+00 0.  1.
        994    1    1    2    0    0 -0.17684033772E+02  0.47701857369E+02  0.55654564911E+02  0.18706967376E+03  0.17120000000E+03 0.  0.
        998    1    1    2    0    0 -0.73118800019E+01 -0.82071584435E+00  0.14286888758E+04  0.14287428183E+04  0.10000000000E+02 0.  1.
</event>
<event>
 5    1  0.1344348E-008  0.3812261E+03  0.7957747E-01  0.3445837E+00
         13   -1    0    0    0    0  0.00000000000E+00  0.00000000000E+00  0.14999999963E+04  0.15000000000E+04  0.10566000000E+00 0.  1.
        994   -1    0    0    0    0 -0.00000000000E+00 -0.00000000000E+00  0.11368683772E-12  0.17120000000E+03  0.17120000000E+03 0.  0.
         13    1    1    2    0    0  0.16004205817E+02 -0.46982792136E+00  0.34671539176E+02  0.38190079013E+02  0.10566000000E+00 0.  1.
        994    1    1    2    0    0 -0.14758498464E+02 -0.10966633652E+01  0.42450118594E+01  0.17189088421E+03  0.17120000000E+03 0.  0.
        998    1    1    2    0    0 -0.12457073531E+01  0.15664912866E+01  0.14610834452E+04  0.14611190368E+04  0.10000000000E+02 0.  1.
</event>
<event>
 5    1  0.1344348E-008  0.3794174E+03  0.7957747E-01  0.3453699E+00
         13   -1    0    0    0    0  0.00000000000E+00  0.00000000000E+00  0.14999999963E+04  0.15000000000E+04  0.10566000000E+00 0. -1.
        994   -1    0    0    0    0 -0.00000000000E+00 -0.00000000000E+00  0.11368683772E-12  0.17120000000E+03  0.17120000000E+03 0.  0.
         13    1    1    2    0    0  0.35172007017E+01 -0.97280920103E+01  0.10046906863E+02  0.14420748125E+02  0.10566000000E+00 0. -1.
        994    1    1    2    0    0 -0.59634119384E+01  0.89103309876E+01  0.48126512933E+01  0.17160290759E+03  0.17120000000E+03 0.  0.
        998    1    1    2    0    0  0.24462112368E+01  0.81776102262E+00  0.14851404381E+04  0.14851763443E+04  0.10000000000E+02 0. -1.
</event>
<event>
 5    1  0.1344348E-008  0.3818058E+03  0.7957747E-01  0.3443333E+00
         13   -1    0    0    0    0  0.00000000000E+00  0.00000000000E+00  0.14999999963E+04  0.15000000000E+04  0.10566000000E+00 0.  1.
        994   -1    0    0    0    0 -0.00000000000E+00 -0.00000000000E+00  0.11368683772E-12  0.17120000000E+03  0.17120000000E+03 0.  0.
         13    1    1    2    0    0 -0.39292724929E+01 -0.20931566148E+02  0.69015322055E+02  0.72226695107E+02  0.10566000000E+00 0.  1.
        994    1    1    2    0    0  0.11338815629E+02  0.12469341464E+02  0.41688432880E+01  0.17207809992E+03  0.17120000000E+03 0.  0.
        998    1    1    2    0    0 -0.74095431365E+01  0.84622246843E+01  0.14268158309E+04  0.14268952050E+04  0.10000000000E+02 0.  1.
</event>
<event>
 5    1  0.1344348E-008  0.3819450E+03  0.7957747E-01  0.3442733E+00
         13   -1    0    0    0    0  0.00000000000E+00  0.00000000000E+00  0.14999999963E+04  0.15000000000E+04  0.10566000000E+00 0. -1.
        994   -1    0    0    0    0 -0.00000000000E+00 -0.00000000000E+00  0.11368683772E-12  0.17120000000E+03  0.17120000000E+03 0.  0.
         13    1    1    2    0    0 -0.10697683814E+02 -0.11761943017E+02  0.36856240309E+02  0.40139473792E+02  0.10566000000E+00 0. -1.
        994    1    1    2    0    0  0.35499412283E+01  0.31584334191E+02  0.65171532312E+01  0.17424719664E+03  0.17120000000E+03 0.  0.
        998    1    1    2    0    0  0.71477425860E+01 -0.19822391173E+02  0.14566266027E+04  0.14568133296E+04  0.10000000000E+02 0. -1.
</event>
<event>
 5    1  0.1344348E-008  0.3794235E+03  0.7957747E-01  0.3453672E+00
         13   -1    0    0    0    0  0.00000000000E+00  0.00000000000E+00  0.14999999963E+04  0.15000000000E+04  0.10566000000E+00 0.  1.
        994   -1    0    0    0    0 -0.00000000000E+00 -0.00000000000E+00  0.11368683772E-12  0.17120000000E+03  0.17120000000E+03 0.  0.
         13    1    1    2    0    0 -0.28489289027E+01 -0.38507834783E+02  0.18200627212E+03  0.18605715248E+03  0.10566000000E+00 0.  1.
        994    1    1    2    0    0 -0.40364576128E+01  0.10322913290E+02  0.48360069435E+01  0.17162657863E+03  0.17120000000E+03 0.  0.
        998    1    1    2    0    0  0.68853865155E+01  0.28184921493E+02  0.13131577172E+04  0.13135162689E+04  0.10000000000E+02 0.  1.
</event>
<event>
 5    1  0.1344348E-008  0.3697379E+03  0.7957747E-01  0.3497096E+00
         13   -1    0    0    0    0  0.00000000000E+00  0.00000000000E+00  0.14999999963E+04  0.15000000000E+04  0.10566000000E+00 0. -1.
        994   -1    0    0    0    0 -0.00000000000E+00 -0.00000000000E+00  0.11368683772E-12  0.17120000000E+03  0.17120000000E+03 0.  0.
         13    1    1    2    0    0  0.20010609800E+02 -0.37456777660E+02  0.89662043911E+02  0.99210523532E+02  0.10566000000E+00 0. -1.
        994    1    1    2    0    0  0.28750547865E+02  0.67490991205E+01  0.13852543109E+02  0.17427988206E+03  0.17120000000E+03 0.  0.
        998    1    1    2    0    0 -0.48761157665E+02  0.30707678539E+02  0.13964854093E+04  0.13977095944E+04  0.10000000000E+02 0. -1.
</event>
<event>
 5    1  0.1344348E-008  0.3822954E+03  0.7957747E-01  0.3441224E+00
         13   -1    0    0    0    0  0.00000000000E+00  0.00000000000E+00  0.14999999963E+04  0.15000000000E+04  0.10566000000E+00 0.  1.
        994   -1    0    0    0    0 -0.00000000000E+00 -0.00000000000E+00  0.11368683772E-12  0.17120000000E+03  0.17120000000E+03 0.  0.
         13    1    1    2    0    0  0.13982886096E+02  0.26042554806E+02  0.12712116469E+03  0.13051259495E+03  0.10566000000E+00 0.  1.
        994    1    1    2    0    0 -0.45513763468E+02 -0.20502106563E+02  0.11290643940E+02  0.17868619891E+03  0.17120000000E+03 0.  0.
        998    1    1    2    0    0  0.31530877372E+02 -0.55404482438E+01  0.13615881877E+04  0.13620012061E+04  0.10000000000E+02 0.  1.
</event>
<event>
 5    1  0.1344348E-008  0.3861757E+03  0.7957747E-01  0.3424701E+00
         13   -1    0    0    0    0  0.00000000000E+00  0.00000000000E+00  0.14999999963E+04  0.15000000000E+04  0.10566000000E+00 0.  1.
        994   -1    0    0    0    0 -0.00000000000E+00 -0.00000000000E+00  0.11368683772E-12  0.17120000000E+03  0.17120000000E+03 0.  0.
         13    1    1    2    0    0  0.57985588564E+01 -0.98798789396E+01  0.64772625899E+02  0.65777956205E+02  0.10566000000E+00 0.  1.
        994    1    1    2    0    0 -0.74985082266E+01  0.17485809591E+01  0.12418124099E+01  0.17137755763E+03  0.17120000000E+03 0.  0.
        998    1    1    2    0    0  0.16999493702E+01  0.81312979805E+01  0.14339855580E+04  0.14340444862E+04  0.10000000000E+02 0.  1.
</event>
<event>
 5    1  0.1344348E-008  0.3828637E+03  0.7957747E-01  0.3438783E+00
         13   -1    0    0    0    0  0.00000000000E+00  0.00000000000E+00  0.14999999963E+04  0.15000000000E+04  0.10566000000E+00 0. -1.
        994   -1    0    0    0    0 -0.00000000000E+00 -0.00000000000E+00  0.11368683772E-12  0.17120000000E+03  0.17120000000E+03 0.  0.
         13    1    1    2    0    0 -0.92174986573E+01  0.13324062576E+02  0.48969157243E+02  0.51579864775E+02  0.10566000000E+00 0. -1.
        994    1    1    2    0    0  0.45610020350E+01 -0.36667133868E+01  0.28079172980E+01  0.17132300466E+03  0.17120000000E+03 0.  0.
        998    1    1    2    0    0  0.46564966223E+01 -0.96573491895E+01  0.14482229217E+04  0.14482971306E+04  0.10000000000E+02 0. -1.
</event>
<event>
 5    1  0.1344348E-008  0.3799155E+03  0.7957747E-01  0.3451527E+00
         13   -1    0    0    0    0  0.00000000000E+00  0.00000000000E+00  0.14999999963E+04  0.15000000000E+04  0.10566000000E+00 0. -1.
        994   -1    0    0    0    0 -0.00000000000E+00 -0.00000000000E+00  0.11368683772E-12  0.17120000000E+03  0.17120000000E+03 0.  0.
         13    1    1    2    0    0 -0.23629350862E+02  0.13790952731E+01  0.68425984715E+02  0.72404244863E+02  0.10566000000E+00 0. -1.
        994    1    1    2    0    0  0.56098583607E+01  0.77742747258E+01  0.44832175896E+01  0.17152681743E+03  0.17120000000E+03 0.  0.
        998    1    1    2    0    0  0.18019492501E+02 -0.91533699989E+01  0.14270907940E+04  0.14272689377E+04  0.10000000000E+02 0. -1.
</event>
<event>
 5    1  0.1344348E-008  0.3821280E+03  0.7957747E-01  0.3441945E+00
         13   -1    0    0    0    0  0.00000000000E+00  0.00000000000E+00  0.14999999963E+04  0.15000000000E+04  0.10566000000E+00 0.  1.
        994   -1    0    0    0    0 -0.00000000000E+00 -0.00000000000E+00  0.11368683772E-12  0.17120000000E+03  0.17120000000E+03 0.  0.
         13    1    1    2    0    0 -0.10694277908E+03  0.56668451325E+02  0.70322162397E+03  0.71356060356E+03  0.10566000000E+00 0.  1.
        994    1    1    2    0    0  0.13007402353E+03 -0.71999166658E+02  0.80282485490E+02  0.24053658573E+03  0.17120000000E+03 0.  0.
        998    1    1    2    0    0 -0.23131244454E+02  0.15330715333E+02  0.71649588682E+03  0.71710281071E+03  0.10000000000E+02 0. -1.
</event>
<event>
 5    1  0.1344348E-008  0.3792426E+03  0.7957747E-01  0.3454463E+00
         13   -1    0    0    0    0  0.00000000000E+00  0.00000000000E+00  0.14999999963E+04  0.15000000000E+04  0.10566000000E+00 0. -1.
        994   -1    0    0    0    0 -0.00000000000E+00 -0.00000000000E+00  0.11368683772E-12  0.17120000000E+03  0.17120000000E+03 0.  0.
         13    1    1    2    0    0  0.27931137790E+02  0.11492049298E+03  0.36712195751E+03  0.38570119395E+03  0.10566000000E+00 0. -1.
        994    1    1    2    0    0  0.95093103184E+01 -0.10403770340E+03  0.56495284933E+02  0.20836369149E+03  0.17120000000E+03 0.  0.
        998    1    1    2    0    0 -0.37440448108E+02 -0.10882789587E+02  0.10763827538E+04  0.10771351146E+04  0.10000000000E+02 0. -1.
</event>
<event>
 5    1  0.1344348E-008  0.3847729E+03  0.7957747E-01  0.3430636E+00
         13   -1    0    0    0    0  0.00000000000E+00  0.00000000000E+00  0.14999999963E+04  0.15000000000E+04  0.10566000000E+00 0. -1.
        994   -1    0    0    0    0 -0.00000000000E+00 -0.00000000000E+00  0.11368683772E-12  0.17120000000E+03  0.17120000000E+03 0.  0.
         13    1    1    2    0    0 -0.47514261753E+01  0.19960036168E+02  0.12248242724E+03  0.12418911080E+03  0.10566000000E+00 0. -1.
        994    1    1    2    0    0  0.79454013784E+01 -0.95505652260E+01  0.22510733380E+01  0.17166493535E+03  0.17120000000E+03 0.  0.
        998    1    1    2    0    0 -0.31939752031E+01 -0.10409470942E+02  0.13752664957E+04  0.13753459538E+04  0.10000000000E+02 0. -1.
</event>
<event>
 5    1  0.1344348E-008  0.3847852E+03  0.7957747E-01  0.3430584E+00
         13   -1    0    0    0    0  0.00000000000E+00  0.00000000000E+00  0.14999999963E+04  0.15000000000E+04  0.10566000000E+00 0. -1.
        994   -1    0    0    0    0 -0.00000000000E+00 -0.00000000000E+00  0.11368683772E-12  0.17120000000E+03  0.17120000000E+03 0.  0.
         13    1    1    2    0    0 -0.15697362665E+02 -0.37755990431E+01  0.66430113272E+02  0.68363977767E+02  0.10566000000E+00 0. -1.
        994    1    1    2    0    0  0.27861978190E+02  0.14329009450E+02  0.49739288219E+01  0.17411430242E+03  0.17120000000E+03 0.  0.
        998    1    1    2    0    0 -0.12164615525E+02 -0.10553410407E+02  0.14285959542E+04  0.14287217198E+04  0.10000000000E+02 0. -1.
</event>
<event>
 5    1  0.1344348E-008  0.3841415E+03  0.7957747E-01  0.3433322E+00
         13   -1    0    0    0    0  0.00000000000E+00  0.00000000000E+00  0.14999999963E+04  0.15000000000E+04  0.10566000000E+00 0.  1.
        994   -1    0    0    0    0 -0.00000000000E+00 -0.00000000000E+00  0.11368683772E-12  0.17120000000E+03  0.17120000000E+03 0.  0.
         13    1    1    2    0    0  0.12312214036E+02  0.50743859658E+01  0.41890498535E+02  0.43956399295E+02  0.10566000000E+00 0.  1.
        994    1    1    2    0    0 -0.12692143930E+02 -0.29013604912E+01  0.26161978675E+01  0.17171427693E+03  0.17120000000E+03 0.  0.
        998    1    1    2    0    0  0.37992989383E+00 -0.21730254746E+01  0.14554932999E+04  0.14555293238E+04  0.10000000000E+02 0.  1.
</event>
<event>
 5    1  0.1344348E-008  0.3846055E+03  0.7957747E-01  0.3431347E+00
         13   -1    0    0    0    0  0.00000000000E+00  0.00000000000E+00  0.14999999963E+04  0.15000000000E+04  0.10566000000E+00 0.  1.
        994   -1    0    0    0    0 -0.00000000000E+00 -0.00000000000E+00  0.11368683772E-12  0.17120000000E+03  0.17120000000E+03 0.  0.
         13    1    1    2    0    0  0.10307864917E+02  0.72454591872E+01  0.43799603691E+02  0.45575927917E+02  0.10566000000E+00 0.  1.
        994    1    1    2    0    0 -0.36929917526E+01 -0.46057444816E+01  0.19408908244E+01  0.17131274946E+03  0.17120000000E+03 0.  0.
        998    1    1    2    0    0 -0.66148731645E+01 -0.26397147056E+01  0.14542595018E+04  0.14543113226E+04  0.10000000000E+02 0.  1.
</event>
<event>
 5    1  0.1921124E-008  0.3859689E+03  0.7957747E-01  0.3425573E+00
         13   -1    0    0    0    0  0.00000000000E+00  0.00000000000E+00  0.14999999963E+04  0.15000000000E+04  0.10566000000E+00 0.  1.
        994   -1    0    0    0    0 -0.00000000000E+00 -0.00000000000E+00  0.11368683772E-12  0.17120000000E+03  0.17120000000E+03 0.  0.
         13    1    1    2    0    0 -0.88998683936E+01 -0.76462871924E+01  0.60670989059E+02  0.61795254208E+02  0.10566000000E+00 0.  1.
        994    1    1    2    0    0  0.57939044587E+01  0.48380747004E+01  0.13366627862E+01  0.17137153487E+03  0.17120000000E+03 0.  0.
        998    1    1    2    0    0  0.31059639349E+01  0.28082124920E+01  0.14379923444E+04  0.14380332109E+04  0.10000000000E+02 0.  1.
</event>
<event>
 5    1  0.1344348E-008  0.3850132E+03  0.7957747E-01  0.3429616E+00
         13   -1    0    0    0    0  0.00000000000E+00  0.00000000000E+00  0.14999999963E+04  0.15000000000E+04  0.10566000000E+00 0.  1.
        994   -1    0    0    0    0 -0.00000000000E+00 -0.00000000000E+00  0.11368683772E-12  0.17120000000E+03  0.17120000000E+03 0.  0.
         13    1    1    2    0    0  0.18451810624E+02  0.56120229046E+01  0.11098854000E+03  0.11265181442E+03  0.10566000000E+00 0.  1.
        994    1    1    2    0    0 -0.12684717157E+02 -0.14147927647E+02  0.28118523220E+01  0.17227423609E+03  0.17120000000E+03 0.  0.
        998    1    1    2    0    0 -0.57670934668E+01  0.85359047422E+01  0.13861996040E+04  0.13862739495E+04  0.10000000000E+02 0.  1.
</event>
<event>
 5    1  0.1344348E-008  0.3842010E+03  0.7957747E-01  0.3433068E+00
         13   -1    0    0    0    0  0.00000000000E+00  0.00000000000E+00  0.14999999963E+04  0.15000000000E+04  0.10566000000E+00 0.  1.
        994   -1    0    0    0    0 -0.00000000000E+00 -0.00000000000E+00  0.11368683772E-12  0.17120000000E+03  0.17120000000E+03 0.  0.
         13    1    1    2    0    0  0.37954800751E+01 -0.11693186428E+02  0.37307225390E+02  0.39280739659E+02  0.10566000000E+00 0.  1.
        994    1    1    2    0    0  0.15405512002E+00  0.55793765081E+01  0.21300833370E+01  0.17130420436E+03  0.17120000000E+03 0.  0.
        998    1    1    2    0    0 -0.39495351951E+01  0.61138099195E+01  0.14605626876E+04  0.14606150560E+04  0.10000000000E+02 0.  1.
</event>
<event>
 5    1  0.1344348E-008  0.3762935E+03  0.7957747E-01  0.3467458E+00
         13   -1    0    0    0    0  0.00000000000E+00  0.00000000000E+00  0.14999999963E+04  0.15000000000E+04  0.10566000000E+00 0. -1.
        994   -1    0    0    0    0 -0.00000000000E+00 -0.00000000000E+00  0.11368683772E-12  0.17120000000E+03  0.17120000000E+03 0.  0.
         13    1    1    2    0    0  0.21451630683E+01  0.66614051879E+02  0.31568812383E+03  0.32264692208E+03  0.10566000000E+00 0. -1.
        994    1    1    2    0    0  0.58013513003E+01 -0.57236717034E+02  0.17300801912E+02  0.18143443775E+03  0.17120000000E+03 0.  0.
        998    1    1    2    0    0 -0.79465143687E+01 -0.93773348444E+01  0.11670110705E+04  0.11671186402E+04  0.10000000000E+02 0. -1.
</event>
<event>
 5    1  0.1344348E-008  0.3826973E+03  0.7957747E-01  0.3439497E+00
         13   -1    0    0    0    0  0.00000000000E+00  0.00000000000E+00  0.14999999963E+04  0.15000000000E+04  0.10566000000E+00 0. -1.
        994   -1    0    0    0    0 -0.00000000000E+00 -0.00000000000E+00  0.11368683772E-12  0.17120000000E+03  0.17120000000E+03 0.  0.
         13    1    1    2    0    0 -0.14340342124E+02  0.20215449643E+02  0.11968943145E+03  0.12222880586E+03  0.10566000000E+00 0. -1.
        994    1    1    2    0    0  0.18036780778E+02  0.91650421911E+01  0.41351463220E+01  0.17244089681E+03  0.17120000000E+03 0.  0.
        998    1    1    2    0    0 -0.36964386541E+01 -0.29380491834E+02  0.13761754185E+04  0.13765302973E+04  0.10000000000E+02 0. -1.
</event>
<event>
 5    1  0.1344348E-008  0.3823762E+03  0.7957747E-01  0.3440877E+00
         13   -1    0    0    0    0  0.00000000000E+00  0.00000000000E+00  0.14999999963E+04  0.15000000000E+04  0.10566000000E+00 0. -1.
        994   -1    0    0    0    0 -0.00000000000E+00 -0.00000000000E+00  0.11368683772E-12  0.17120000000E+03  0.17120000000E+03 0.  0.
         13    1    1    2    0    0  0.80295374520E+01 -0.78543236737E+01  0.19437292825E+02  0.22449574349E+02  0.10566000000E+00 0. -1.
        994    1    1    2    0    0 -0.27170500606E+02  0.50273953108E+01  0.54750119274E+01  0.17350194974E+03  0.17120000000E+03 0.  0.
        998    1    1    2    0    0  0.19140963154E+02  0.28269283629E+01  0.14750876915E+04  0.14752484759E+04  0.10000000000E+02 0. -1.
</event>
<event>
 5    1  0.1344348E-008  0.3800280E+03  0.7957747E-01  0.3451037E+00
         13   -1    0    0    0    0  0.00000000000E+00  0.00000000000E+00  0.14999999963E+04  0.15000000000E+04  0.10566000000E+00 0.  1.
        994   -1    0    0    0    0 -0.00000000000E+00 -0.00000000000E+00  0.11368683772E-12  0.17120000000E+03  0.17120000000E+03 0.  0.
         13    1    1    2    0    0  0.24068982016E+02 -0.48311724926E+02  0.29049494865E+03  0.29546685942E+03  0.10566000000E+00 0.  1.
        994    1    1    2    0    0 -0.47756944158E+02  0.36241472089E+02  0.16227892902E+02  0.18211796870E+03  0.17120000000E+03 0.  0.
        998    1    1    2    0    0  0.23687962142E+02  0.12070252837E+02  0.11932771547E+04  0.11936151719E+04  0.10000000000E+02 0.  1.
</event>
<event>
 5    1  0.1344348E-008  0.3823352E+03  0.7957747E-01  0.3441053E+00
         13   -1    0    0    0    0  0.00000000000E+00  0.00000000000E+00  0.14999999963E+04  0.15000000000E+04  0.10566000000E+00 0.  1.
        994   -1    0    0    0    0 -0.00000000000E+00 -0.00000000000E+00  0.11368683772E-12  0.17120000000E+03  0.17120000000E+03 0.  0.
         13    1    1    2    0    0  0.14115704241E+02  0.23420993660E+02  0.13437853427E+03  0.13713277393E+03  0.10566000000E+00 0.  1.
        994    1    1    2    0    0 -0.23929936551E+01 -0.63033522698E+01  0.31098092905E+01  0.17136093365E+03  0.17120000000E+03 0.  0.
        998    1    1    2    0    0 -0.11722710586E+02 -0.17117641390E+02  0.13625116527E+04  0.13627062924E+04  0.10000000000E+02 0.  1.
</event>
<event>
 5    1  0.1344348E-008  0.3819989E+03  0.7957747E-01  0.3442501E+00
         13   -1    0    0    0    0  0.00000000000E+00  0.00000000000E+00  0.14999999963E+04  0.15000000000E+04  0.10566000000E+00 0. -1.
        994   -1    0    0    0    0 -0.00000000000E+00 -0.00000000000E+00  0.11368683772E-12  0.17120000000E+03  0.17120000000E+03 0.  0.
         13    1    1    2    0    0 -0.14710138752E+02  0.19167360561E+02  0.91288661337E+02  0.94432021824E+02  0.10566000000E+00 0. -1.
        994    1    1    2    0    0  0.12100934403E+02 -0.12140070784E+02  0.41038519834E+01  0.17210489689E+03  0.17120000000E+03 0.  0.
        998    1    1    2    0    0  0.26092043491E+01 -0.70272897772E+01  0.14046074830E+04  0.14046630813E+04  0.10000000000E+02 0. -1.
</event>
<event>
 5    1  0.1344348E-008  0.3778742E+03  0.7957747E-01  0.3460467E+00
         13   -1    0    0    0    0  0.00000000000E+00  0.00000000000E+00  0.14999999963E+04  0.15000000000E+04  0.10566000000E+00 0.  1.
        994   -1    0    0    0    0 -0.00000000000E+00 -0.00000000000E+00  0.11368683772E-12  0.17120000000E+03  0.17120000000E+03 0.  0.
         13    1    1    2    0    0 -0.19329266820E+02  0.20144258367E+02  0.72948999686E+02  0.78108766603E+02  0.10566000000E+00 0.  1.
        994    1    1    2    0    0  0.79481945876E+01 -0.16399887457E+02  0.63290389694E+01  0.17228356521E+03  0.17120000000E+03 0.  0.
        998    1    1    2    0    0  0.11381072233E+02 -0.37443709100E+01  0.14207219576E+04  0.14208076682E+04  0.10000000000E+02 0.  1.
</event>
<event>
 5    1  0.1344348E-008  0.3685569E+03  0.7957747E-01  0.3502549E+00
         13   -1    0    0    0    0  0.00000000000E+00  0.00000000000E+00  0.14999999963E+04  0.15000000000E+04  0.10566000000E+00 0. -1.
        994   -1    0    0    0    0 -0.00000000000E+00 -0.00000000000E+00  0.11368683772E-12  0.17120000000E+03  0.17120000000E+03 0.  0.
         13    1    1    2    0    0  0.30180763022E+02 -0.46781821818E+02  0.14251171223E+03  0.15300005423E+03  0.10566000000E+00 0. -1.
        994    1    1    2    0    0 -0.22715062536E+02  0.37943273135E+02  0.17011411396E+02  0.17763584706E+03  0.17120000000E+03 0.  0.
        998    1    1    2    0    0 -0.74657004859E+01  0.88385486835E+01  0.13404768727E+04  0.13405640987E+04  0.10000000000E+02 0. -1.
</event>
<event>
 5    1  0.1344348E-008  0.3759790E+03  0.7957747E-01  0.3468856E+00
         13   -1    0    0    0    0  0.00000000000E+00  0.00000000000E+00  0.14999999963E+04  0.15000000000E+04  0.10566000000E+00 0.  1.
        994   -1    0    0    0    0 -0.00000000000E+00 -0.00000000000E+00  0.11368683772E-12  0.17120000000E+03  0.17120000000E+03 0.  0.
         13    1    1    2    0    0 -0.22536303549E+02 -0.17280844658E+02  0.62865639789E+02  0.68982696380E+02  0.10566000000E+00 0.  1.
        994    1    1    2    0    0  0.13196557974E+02  0.13356277086E+02  0.73721588623E+01  0.17238424524E+03  0.17120000000E+03 0.  0.
        998    1    1    2    0    0  0.93397455744E+01  0.39245675727E+01  0.14297621976E+04  0.14298330584E+04  0.10000000000E+02 0.  1.
</event>
<event>
 5    1  0.1344348E-008  0.3781711E+03  0.7957747E-01  0.3459161E+00
         13   -1    0    0    0    0  0.00000000000E+00  0.00000000000E+00  0.14999999963E+04  0.15000000000E+04  0.10566000000E+00 0. -1.
        994   -1    0    0    0    0 -0.00000000000E+00 -0.00000000000E+00  0.11368683772E-12  0.17120000000E+03  0.17120000000E+03 0.  0.
         13    1    1    2    0    0 -0.70048759469E+02 -0.28674633405E+02  0.40725167030E+03  0.41422578075E+03  0.10566000000E+00 0. -1.
        994    1    1    2    0    0  0.72980233165E+02  0.23540972104E+02  0.25098091824E+02  0.18926078837E+03  0.17120000000E+03 0.  0.
        998    1    1    2    0    0 -0.29314736960E+01  0.51336613007E+01  0.10676502341E+04  0.10677134309E+04  0.10000000000E+02 0. -1.
</event>
<event>
 5    1  0.1344348E-008  0.3842276E+03  0.7957747E-01  0.3432955E+00
         13   -1    0    0    0    0  0.00000000000E+00  0.00000000000E+00  0.14999999963E+04  0.15000000000E+04  0.10566000000E+00 0.  1.
        994   -1    0    0    0    0 -0.00000000000E+00 -0.00000000000E+00  0.11368683772E-12  0.17120000000E+03  0.17120000000E+03 0.  0.
         13    1    1    2    0    0  0.57986335981E+01  0.11170613202E+02  0.38850248660E+02  0.40838214161E+02  0.10566000000E+00 0.  1.
        994    1    1    2    0    0 -0.72869322235E+01 -0.59740657701E+01  0.23068846635E+01  0.17147463533E+03  0.17120000000E+03 0.  0.
        998    1    1    2    0    0  0.14882986254E+01 -0.51965474317E+01  0.14588428630E+04  0.14588871505E+04  0.10000000000E+02 0.  1.
</event>
<event>
 5    1  0.1344348E-008  0.3725826E+03  0.7957747E-01  0.3484105E+00
         13   -1    0    0    0    0  0.00000000000E+00  0.00000000000E+00  0.14999999963E+04  0.15000000000E+04  0.10566000000E+00 0. -1.
        994   -1    0    0    0    0 -0.00000000000E+00 -0.00000000000E+00  0.11368683772E-12  0.17120000000E+03  0.17120000000E+03 0.  0.
         13    1    1    2    0    0 -0.82210916568E+02  0.22063728097E+02  0.24399502184E+03  0.25841637863E+03  0.10566000000E+00 0. -1.
        994    1    1    2    0    0  0.14363052556E+03 -0.55089741759E+02  0.93953608132E+02  0.24859872888E+03  0.17120000000E+03 0.  0.
        998    1    1    2    0    0 -0.61419608996E+02  0.33026013662E+02  0.11620513663E+04  0.11641848925E+04  0.10000000000E+02 0.  1.
</event>
<event>
 5    1  0.1344348E-008  0.3815231E+03  0.7957747E-01  0.3444553E+00
         13   -1    0    0    0    0  0.00000000000E+00  0.00000000000E+00  0.14999999963E+04  0.15000000000E+04  0.10566000000E+00 0.  1.
        994   -1    0    0    0    0 -0.00000000000E+00 -0.00000000000E+00  0.11368683772E-12  0.17120000000E+03  0.17120000000E+03 0.  0.
         13    1    1    2    0    0  0.34166854866E+01 -0.24711449122E+02  0.10243795805E+03  0.10543185415E+03  0.10566000000E+00 0.  1.
        994    1    1    2    0    0  0.87300380871E+01 -0.32304726701E+01  0.36545186118E+01  0.17149182204E+03  0.17120000000E+03 0.  0.
        998    1    1    2    0    0 -0.12146723574E+02  0.27941921792E+02  0.13939075196E+04  0.13942763238E+04  0.10000000000E+02 0.  1.
</event>
<event>
 5    1  0.1344348E-008  0.4030643E+03  0.7957747E-01  0.3356495E+00
         13   -1    0    0    0    0  0.00000000000E+00  0.00000000000E+00  0.14999999963E+04  0.15000000000E+04  0.10566000000E+00 0. -1.
        994   -1    0    0    0    0 -0.00000000000E+00 -0.00000000000E+00  0.11368683772E-12  0.17120000000E+03  0.17120000000E+03 0.  0.
         13    1    1    2    0    0 -0.43002112992E+02 -0.23502787769E+01  0.19768746209E+02  0.47386918267E+02  0.10566000000E+00 0. -1.
        994    1    1    2    0    0  0.30471710278E+02  0.51276495113E+02  0.43865123102E+02  0.18652451073E+03  0.17120000000E+03 0.  0.
        998    1    1    2    0    0  0.12530402714E+02 -0.48926216336E+02  0.14363661270E+04  0.14372885710E+04  0.10000000000E+02 0. -1.
</event>
<event>
 5    1  0.1344348E-008  0.3801018E+03  0.7957747E-01  0.3450715E+00
         13   -1    0    0    0    0  0.00000000000E+00  0.00000000000E+00  0.14999999963E+04  0.15000000000E+04  0.10566000000E+00 0.  1.
        994   -1    0    0    0    0 -0.00000000000E+00 -0.00000000000E+00  0.11368683772E-12  0.17120000000E+03  0.17120000000E+03 0.  0.
         13    1    1    2    0    0  0.36898362678E+02 -0.22465500092E+01  0.15335685996E+03  0.15774940195E+03  0.10566000000E+00 0.  1.
        994    1    1    2    0    0 -0.34084301754E+02  0.17931308831E+01  0.79846005682E+01  0.17475167750E+03  0.17120000000E+03 0.  0.
        998    1    1    2    0    0 -0.28140609240E+01  0.45341912613E+00  0.13386585357E+04  0.13386989205E+04  0.10000000000E+02 0.  1.
</event>
<event>
 5    1  0.1344348E-008  0.3807164E+03  0.7957747E-01  0.3448045E+00
         13   -1    0    0    0    0  0.00000000000E+00  0.00000000000E+00  0.14999999963E+04  0.15000000000E+04  0.10566000000E+00 0.  1.
        994   -1    0    0    0    0 -0.00000000000E+00 -0.00000000000E+00  0.11368683772E-12  0.17120000000E+03  0.17120000000E+03 0.  0.
         13    1    1    2    0    0  0.23719453117E+02  0.22555446501E+02  0.15950709676E+03  0.16283084997E+03  0.10566000000E+00 0.  1.
        994    1    1    2    0    0  0.15312294263E+02 -0.19153318876E+02  0.57799397800E+01  0.17304382012E+03  0.17120000000E+03 0.  0.
        998    1    1    2    0    0 -0.39031747380E+02 -0.34021276250E+01  0.13347129597E+04  0.13353253299E+04  0.10000000000E+02 0.  1.
</event>
<event>
 5    1  0.1344348E-008  0.3770812E+03  0.7957747E-01  0.3463967E+00
         13   -1    0    0    0    0  0.00000000000E+00  0.00000000000E+00  0.14999999963E+04  0.15000000000E+04  0.10566000000E+00 0. -1.
        994   -1    0    0    0    0 -0.00000000000E+00 -0.00000000000E+00  0.11368683772E-12  0.17120000000E+03  0.17120000000E+03 0.  0.
         13    1    1    2    0    0 -0.10746250594E+02  0.39529663556E+02  0.13078359981E+03  0.13704903264E+03  0.10566000000E+00 0. -1.
        994    1    1    2    0    0  0.82595147635E+01 -0.47436377999E+02  0.13480052557E+02  0.17835240777E+03  0.17120000000E+03 0.  0.
        998    1    1    2    0    0  0.24867358307E+01  0.79067144431E+01  0.13557363439E+04  0.13557985596E+04  0.10000000000E+02 0. -1.
</event>
<event>
 5    1  0.1344348E-008  0.3809651E+03  0.7957747E-01  0.3446967E+00
         13   -1    0    0    0    0  0.00000000000E+00  0.00000000000E+00  0.14999999963E+04  0.15000000000E+04  0.10566000000E+00 0. -1.
        994   -1    0    0    0    0 -0.00000000000E+00 -0.00000000000E+00  0.11368683772E-12  0.17120000000E+03  0.17120000000E+03 0.  0.
         13    1    1    2    0    0  0.65581042265E+01 -0.38806786684E+02  0.20646116994E+03  0.21017897440E+03  0.10566000000E+00 0. -1.
        994    1    1    2    0    0 -0.15034314022E+02  0.23553875365E+02  0.62530003803E+01  0.17357809671E+03  0.17120000000E+03 0.  0.
        998    1    1    2    0    0  0.84762097951E+01  0.15252911319E+02  0.12872858260E+04  0.12874429289E+04  0.10000000000E+02 0. -1.
</event>
<event>
 5    1  0.1344348E-008  0.3822940E+03  0.7957747E-01  0.3441231E+00
         13   -1    0    0    0    0  0.00000000000E+00  0.00000000000E+00  0.14999999963E+04  0.15000000000E+04  0.10566000000E+00 0.  1.
        994   -1    0    0    0    0 -0.00000000000E+00 -0.00000000000E+00  0.11368683772E-12  0.17120000000E+03  0.17120000000E+03 0.  0.
         13    1    1    2    0    0 -0.90997780839E+01 -0.69089834264E+01  0.20688056092E+02  0.23633595623E+02  0.10566000000E+00 0.  1.
        994    1    1    2    0    0  0.49758998624E+01  0.83613169766E+01  0.32937869633E+01  0.17150790137E+03  0.17120000000E+03 0.  0.
        998    1    1    2    0    0  0.41238782215E+01 -0.14523335502E+01  0.14760181532E+04  0.14760585030E+04  0.10000000000E+02 0.  1.
</event>
<event>
 5    1  0.1344348E-008  0.3753671E+03  0.7957747E-01  0.3471583E+00
         13   -1    0    0    0    0  0.00000000000E+00  0.00000000000E+00  0.14999999963E+04  0.15000000000E+04  0.10566000000E+00 0. -1.
        994   -1    0    0    0    0 -0.00000000000E+00 -0.00000000000E+00  0.11368683772E-12  0.17120000000E+03  0.17120000000E+03 0.  0.
         13    1    1    2    0    0 -0.16233624724E+02  0.67173773900E+02  0.31313687078E+03  0.32067204037E+03  0.10566000000E+00 0. -1.
        994    1    1    2    0    0  0.14901709021E+02 -0.57796553206E+02  0.18682599787E+02  0.18226623941E+03  0.17120000000E+03 0.  0.
        998    1    1    2    0    0  0.13319157031E+01 -0.93772206939E+01  0.11681805257E+04  0.11682617202E+04  0.10000000000E+02 0. -1.
</event>
<event>
 5    1  0.1344348E-008  0.3855796E+03  0.7957747E-01  0.3427218E+00
         13   -1    0    0    0    0  0.00000000000E+00  0.00000000000E+00  0.14999999963E+04  0.15000000000E+04  0.10566000000E+00 0. -1.
        994   -1    0    0    0    0 -0.00000000000E+00 -0.00000000000E+00  0.11368683772E-12  0.17120000000E+03  0.17120000000E+03 0.  0.
         13    1    1    2    0    0  0.15015047006E+01  0.13006966071E+02  0.76682853231E+02  0.77792717052E+02  0.10566000000E+00 0. -1.
        994    1    1    2    0    0  0.30752651765E+01  0.13741945483E+02  0.19938171413E+01  0.17178973668E+03  0.17120000000E+03 0.  0.
        998    1    1    2    0    0 -0.45767698771E+01 -0.26748911554E+02  0.14213233259E+04  0.14216175463E+04  0.10000000000E+02 0. -1.
</event>
<event>
 5    1  0.1344348E-008  0.3906748E+03  0.7957747E-01  0.3405956E+00
         13   -1    0    0    0    0  0.00000000000E+00  0.00000000000E+00  0.14999999963E+04  0.15000000000E+04  0.10566000000E+00 0. -1.
        994   -1    0    0    0    0 -0.00000000000E+00 -0.00000000000E+00  0.11368683772E-12  0.17120000000E+03  0.17120000000E+03 0.  0.
         13    1    1    2    0    0 -0.14840764100E+02  0.49511764619E+02  0.55931898267E+02  0.76158069320E+02  0.10566000000E+00 0. -1.
        994    1    1    2    0    0 -0.34004404014E+02 -0.18246689754E+02  0.27956856206E+02  0.17770837625E+03  0.17120000000E+03 0.  0.
        998    1    1    2    0    0  0.48845168114E+02 -0.31265074865E+02  0.14161112418E+04  0.14173335544E+04  0.10000000000E+02 0. -1.
</event>
<event>
 5    1  0.1344348E-008  0.3845481E+03  0.7957747E-01  0.3431591E+00
         13   -1    0    0    0    0  0.00000000000E+00  0.00000000000E+00  0.14999999963E+04  0.15000000000E+04  0.10566000000E+00 0. -1.
        994   -1    0    0    0    0 -0.00000000000E+00 -0.00000000000E+00  0.11368683772E-12  0.17120000000E+03  0.17120000000E+03 0.  0.
         13    1    1    2    0    0  0.12092589767E+02  0.26789339712E+01  0.41682787575E+02  0.43484173656E+02  0.10566000000E+00 0. -1.
        994    1    1    2    0    0 -0.51213877836E+01 -0.75102173644E+00  0.19429250636E+01  0.17128925128E+03  0.17120000000E+03 0.  0.
        998    1    1    2    0    0 -0.69712019832E+01 -0.19279122347E+01  0.14563742836E+04  0.14564265751E+04  0.10000000000E+02 0. -1.
</event>
<event>
 5    1  0.1344348E-008  0.3822249E+03  0.7957747E-01  0.3441528E+00
         13   -1    0    0    0    0  0.00000000000E+00  0.00000000000E+00  0.14999999963E+04  0.15000000000E+04  0.10566000000E+00 0. -1.
        994   -1    0    0    0    0 -0.00000000000E+00 -0.00000000000E+00  0.11368683772E-12  0.17120000000E+03  0.17120000000E+03 0.  0.
         13    1    1    2    0    0  0.62805072968E+02  0.12652937940E+03  0.49080924214E+03  0.51073269367E+03  0.10566000000E+00 0. -1.
        994    1    1    2    0    0 -0.53483444268E+02 -0.88555756152E+02  0.57789835051E+02  0.20821072449E+03  0.17120000000E+03 0.  0.
        998    1    1    2    0    0 -0.93216286995E+01 -0.37973623252E+02  0.95140091908E+03  0.95225658184E+03  0.10000000000E+02 0. -1.
</event>
<event>
 5    1  0.1344348E-008  0.3809117E+03  0.7957747E-01  0.3447199E+00
         13   -1    0    0    0    0  0.00000000000E+00  0.00000000000E+00  0.14999999963E+04  0.15000000000E+04  0.10566000000E+00 0.  1.
        994   -1    0    0    0    0 -0.00000000000E+00 -0.00000000000E+00  0.11368683772E-12  0.17120000000E+03  0.17120000000E+03 0.  0.
         13    1    1    2    0    0 -0.21222899037E+02 -0.27015145987E+02  0.14737644412E+03  0.15132764785E+03  0.10566000000E+00 0.  1.
        994    1    1    2    0    0  0.26780806280E+02  0.20080753099E+02  0.74169768152E+01  0.17459925480E+03  0.17120000000E+03 0.  0.
        998    1    1    2    0    0 -0.55579072423E+01  0.69343928882E+01  0.13452065753E+04  0.13452730974E+04  0.10000000000E+02 0.  1.
</event>
<event>
 5    1  0.1344348E-008  0.3838422E+03  0.7957747E-01  0.3434597E+00
         13   -1    0    0    0    0  0.00000000000E+00  0.00000000000E+00  0.14999999963E+04  0.15000000000E+04  0.10566000000E+00 0.  1.
        994   -1    0    0    0    0 -0.00000000000E+00 -0.00000000000E+00  0.11368683772E-12  0.17120000000E+03  0.17120000000E+03 0.  0.
         13    1    1    2    0    0 -0.13259727313E+01  0.10766415612E+02  0.26935874777E+02  0.29038361229E+02  0.10566000000E+00 0.  1.
        994    1    1    2    0    0  0.80287500858E+00  0.21957491368E+01  0.22240909926E+01  0.17123040765E+03  0.17120000000E+03 0.  0.
        998    1    1    2    0    0  0.52309772268E+00 -0.12962164749E+02  0.14708400305E+04  0.14709312311E+04  0.10000000000E+02 0.  1.
</event>
<event>
 5    1  0.1344348E-008  0.3819351E+03  0.7957747E-01  0.3442776E+00
         13   -1    0    0    0    0  0.00000000000E+00  0.00000000000E+00  0.14999999963E+04  0.15000000000E+04  0.10566000000E+00 0.  1.
        994   -1    0    0    0    0 -0.00000000000E+00 -0.00000000000E+00  0.11368683772E-12  0.17120000000E+03  0.17120000000E+03 0.  0.
         13    1    1    2    0    0  0.14480179586E+02  0.30279561716E+02  0.16770214910E+03  0.17102792004E+03  0.10566000000E+00 0.  1.
        994    1    1    2    0    0 -0.46129697725E+01 -0.27870119405E+02  0.58147726564E+01  0.17361242648E+03  0.17120000000E+03 0.  0.
        998    1    1    2    0    0 -0.98672098137E+01 -0.24094423106E+01  0.13264830745E+04  0.13265596535E+04  0.10000000000E+02 0.  1.
</event>
<event>
 5    1  0.1344348E-008  0.3835412E+03  0.7957747E-01  0.3435883E+00
         13   -1    0    0    0    0  0.00000000000E+00  0.00000000000E+00  0.14999999963E+04  0.15000000000E+04  0.10566000000E+00 0. -1.
        994   -1    0    0    0    0 -0.00000000000E+00 -0.00000000000E+00  0.11368683772E-12  0.17120000000E+03  0.17120000000E+03 0.  0.
         13    1    1    2    0    0 -0.99857563301E+01  0.92584356561E+01  0.39279025572E+02  0.41572671002E+02  0.10566000000E+00 0. -1.
        994    1    1    2    0    0 -0.21661406846E+01 -0.10539682115E+02  0.27388009385E+01  0.17155966337E+03  0.17120000000E+03 0.  0.
        998    1    1    2    0    0  0.12151897015E+02  0.12812464592E+01  0.14579821698E+04  0.14580676656E+04  0.10000000000E+02 0. -1.
</event>
<event>
 5    1  0.1344348E-008  0.3725400E+03  0.7957747E-01  0.3484298E+00
         13   -1    0    0    0    0  0.00000000000E+00  0.00000000000E+00  0.14999999963E+04  0.15000000000E+04  0.10566000000E+00 0.  1.
        994   -1    0    0    0    0 -0.00000000000E+00 -0.00000000000E+00  0.11368683772E-12  0.17120000000E+03  0.17120000000E+03 0.  0.
         13    1    1    2    0    0  0.22042467125E+02 -0.61064829691E+02  0.15206072629E+03  0.16533983013E+03  0.10566000000E+00 0.  1.
        994    1    1    2    0    0 -0.19454738553E+02  0.60456608605E+02  0.26655346038E+02  0.18453573055E+03  0.17120000000E+03 0.  0.
        998    1    1    2    0    0 -0.25877285720E+01  0.60822108579E+00  0.13212839239E+04  0.13213244393E+04  0.10000000000E+02 0.  1.
</event>
<event>
 5    1  0.1344348E-008  0.3809263E+03  0.7957747E-01  0.3447135E+00
         13   -1    0    0    0    0  0.00000000000E+00  0.00000000000E+00  0.14999999963E+04  0.15000000000E+04  0.10566000000E+00 0.  1.
        994   -1    0    0    0    0 -0.00000000000E+00 -0.00000000000E+00  0.11368683772E-12  0.17120000000E+03  0.17120000000E+03 0.  0.
         13    1    1    2    0    0 -0.97588333576E+02  0.43740376848E+02  0.46584069358E+03  0.47795843582E+03  0.10566000000E+00 0.  1.
        994    1    1    2    0    0  0.11033850399E+02 -0.17881818939E+02  0.18443821726E+02  0.17346792171E+03  0.17120000000E+03 0.  0.
        998    1    1    2    0    0  0.86554483177E+02 -0.25858557909E+02  0.10157154810E+04  0.10197736425E+04  0.10000000000E+02 0.  1.
</event>
<event>
 5    1  0.1344348E-008  0.3911884E+03  0.7957747E-01  0.3403843E+00
         13   -1    0    0    0    0  0.00000000000E+00  0.00000000000E+00  0.14999999963E+04  0.15000000000E+04  0.10566000000E+00 0. -1.
        994   -1    0    0    0    0 -0.00000000000E+00 -0.00000000000E+00  0.11368683772E-12  0.17120000000E+03  0.17120000000E+03 0.  0.
         13    1    1    2    0    0  0.26272263559E+02 -0.37884867834E+02  0.32799946572E+02  0.56580409176E+02  0.10566000000E+00 0. -1.
        994    1    1    2    0    0 -0.52545495125E+02  0.77787008577E+02  0.56752410020E+02  0.20332762676E+03  0.17120000000E+03 0.  0.
        998    1    1    2    0    0  0.26273231566E+02 -0.39902140743E+02  0.14104476397E+04  0.14112919641E+04  0.10000000000E+02 0. -1.
</event>
<event>
 5    1  0.1344348E-008  0.3844751E+03  0.7957747E-01  0.3431901E+00
         13   -1    0    0    0    0  0.00000000000E+00  0.00000000000E+00  0.14999999963E+04  0.15000000000E+04  0.10566000000E+00 0.  1.
        994   -1    0    0    0    0 -0.00000000000E+00 -0.00000000000E+00  0.11368683772E-12  0.17120000000E+03  0.17120000000E+03 0.  0.
         13    1    1    2    0    0  0.12263529568E+02  0.99625612538E+01  0.67520812823E+02  0.69344921318E+02  0.10566000000E+00 0.  1.
        994    1    1    2    0    0 -0.28199056087E+00 -0.92484808733E+01  0.21730511366E+01  0.17146362900E+03  0.17120000000E+03 0.  0.
        998    1    1    2    0    0 -0.11981539007E+02 -0.71408038052E+00  0.14303061323E+04  0.14303914497E+04  0.10000000000E+02 0.  1.
</event>
<event>
 5    1  0.1344348E-008  0.3728679E+03  0.7957747E-01  0.3482814E+00
         13   -1    0    0    0    0  0.00000000000E+00  0.00000000000E+00  0.14999999963E+04  0.15000000000E+04  0.10566000000E+00 0. -1.
        994   -1    0    0    0    0 -0.00000000000E+00 -0.00000000000E+00  0.11368683772E-12  0.17120000000E+03  0.17120000000E+03 0.  0.
         13    1    1    2    0    0  0.52153153445E+02  0.47190994965E+02  0.23032356648E+03  0.24082337482E+03  0.10566000000E+00 0. -1.
        994    1    1    2    0    0 -0.68475726903E+02 -0.64509776128E+02  0.38715540701E+02  0.19914509656E+03  0.17120000000E+03 0.  0.
        998    1    1    2    0    0  0.16322573458E+02  0.17318781163E+02  0.12309608891E+04  0.12312315286E+04  0.10000000000E+02 0. -1.
</event>
<event>
 5    1  0.1344348E-008  0.3788413E+03  0.7957747E-01  0.3456219E+00
         13   -1    0    0    0    0  0.00000000000E+00  0.00000000000E+00  0.14999999963E+04  0.15000000000E+04  0.10566000000E+00 0.  1.
        994   -1    0    0    0    0 -0.00000000000E+00 -0.00000000000E+00  0.11368683772E-12  0.17120000000E+03  0.17120000000E+03 0.  0.
         13    1    1    2    0    0 -0.28397387726E+01  0.19851195422E+02  0.40643644250E+02  0.45321640063E+02  0.10566000000E+00 0.  1.
        994    1    1    2    0    0  0.23091114985E+01 -0.14061593300E+02  0.54009083877E+01  0.17187690425E+03  0.17120000000E+03 0.  0.
        998    1    1    2    0    0  0.53062727405E+00 -0.57896021221E+01  0.14539554436E+04  0.14540014557E+04  0.10000000000E+02 0.  1.
</event>
<event>
 5    1  0.1344348E-008  0.3851127E+03  0.7957747E-01  0.3429194E+00
         13   -1    0    0    0    0  0.00000000000E+00  0.00000000000E+00  0.14999999963E+04  0.15000000000E+04  0.10566000000E+00 0. -1.
        994   -1    0    0    0    0 -0.00000000000E+00 -0.00000000000E+00  0.11368683772E-12  0.17120000000E+03  0.17120000000E+03 0.  0.
         13    1    1    2    0    0 -0.35331416881E+01  0.13642520628E+02  0.68344083764E+02  0.69781992010E+02  0.10566000000E+00 0. -1.
        994    1    1    2    0    0  0.73325119126E+01  0.43829316820E+01  0.18141302727E+01  0.17142259737E+03  0.17120000000E+03 0.  0.
        998    1    1    2    0    0 -0.37993702244E+01 -0.18025452310E+02  0.14298417822E+04  0.14299954106E+04  0.10000000000E+02 0. -1.
</event>
<event>
 5    1  0.1344348E-008  0.3751092E+03  0.7957747E-01  0.3472734E+00
         13   -1    0    0    0    0  0.00000000000E+00  0.00000000000E+00  0.14999999963E+04  0.15000000000E+04  0.10566000000E+00 0. -1.
        994   -1    0    0    0    0 -0.00000000000E+00 -0.00000000000E+00  0.11368683772E-12  0.17120000000E+03  0.17120000000E+03 0.  0.
         13    1    1    2    0    0  0.14806855648E+01  0.38922487638E+02  0.10372178957E+03  0.11079428356E+03  0.10566000000E+00 0. -1.
        994    1    1    2    0    0 -0.32597063292E+01 -0.41941452695E+02  0.12659839694E+02  0.17674677559E+03  0.17120000000E+03 0.  0.
        998    1    1    2    0    0  0.17790207644E+01  0.30189650571E+01  0.13836183670E+04  0.13836589408E+04  0.10000000000E+02 0. -1.
</event>
<event>
 5    1  0.1344348E-008  0.4043292E+03  0.7957747E-01  0.3351615E+00
         13   -1    0    0    0    0  0.00000000000E+00  0.00000000000E+00  0.14999999963E+04  0.15000000000E+04  0.10566000000E+00 0. -1.
        994   -1    0    0    0    0 -0.00000000000E+00 -0.00000000000E+00  0.11368683772E-12  0.17120000000E+03  0.17120000000E+03 0.  0.
         13    1    1    2    0    0  0.99187453816E+01  0.10473085232E+03  0.15875391851E+03  0.19044618858E+03  0.10566000000E+00 0. -1.
        994    1    1    2    0    0 -0.20822404767E+02 -0.96360833366E+02  0.70296096706E+02  0.20969016181E+03  0.17120000000E+03 0.  0.
        998    1    1    2    0    0  0.10903659385E+02 -0.83700189528E+01  0.12709499811E+04  0.12710636496E+04  0.10000000000E+02 0. -1.
</event>
<event>
 5    1  0.1344348E-008  0.3846868E+03  0.7957747E-01  0.3431002E+00
         13   -1    0    0    0    0  0.00000000000E+00  0.00000000000E+00  0.14999999963E+04  0.15000000000E+04  0.10566000000E+00 0.  1.
        994   -1    0    0    0    0 -0.00000000000E+00 -0.00000000000E+00  0.11368683772E-12  0.17120000000E+03  0.17120000000E+03 0.  0.
         13    1    1    2    0    0 -0.88962498474E+01  0.54664757689E+01  0.29743012868E+02  0.31522747297E+02  0.10566000000E+00 0.  1.
        994    1    1    2    0    0  0.91738471758E+01 -0.51806777691E+01  0.21512038968E+01  0.17153736203E+03  0.17120000000E+03 0.  0.
        998    1    1    2    0    0 -0.27759732844E+00 -0.28579799981E+00  0.14681057795E+04  0.14681398907E+04  0.10000000000E+02 0.  1.
</event>
<event>
 5    1  0.1344348E-008  0.3801437E+03  0.7957747E-01  0.3450533E+00
         13   -1    0    0    0    0  0.00000000000E+00  0.00000000000E+00  0.14999999963E+04  0.15000000000E+04  0.10566000000E+00 0. -1.
        994   -1    0    0    0    0 -0.00000000000E+00 -0.00000000000E+00  0.11368683772E-12  0.17120000000E+03  0.17120000000E+03 0.  0.
         13    1    1    2    0    0  0.42859806742E+02  0.55666577236E+01  0.20454296959E+03  0.20905929371E+03  0.10566000000E+00 0. -1.
        994    1    1    2    0    0 -0.42586859443E+02  0.13842114928E+02  0.10790084176E+02  0.17728821354E+03  0.17120000000E+03 0.  0.
        998    1    1    2    0    0 -0.27294729927E+00 -0.19408772652E+02  0.12846669425E+04  0.12848524928E+04  0.10000000000E+02 0. -1.
</event>
<event>
 5    1  0.1626907E-008  0.3859560E+03  0.7957747E-01  0.3425628E+00
         13   -1    0    0    0    0  0.00000000000E+00  0.00000000000E+00  0.14999999963E+04  0.15000000000E+04  0.10566000000E+00 0. -1.
        994   -1    0    0    0    0 -0.00000000000E+00 -0.00000000000E+00  0.11368683772E-12  0.17120000000E+03  0.17120000000E+03 0.  0.
         13    1    1    2    0    0 -0.30701442143E+01 -0.98793410496E+01  0.45686817570E+02  0.46843608195E+02  0.10566000000E+00 0. -1.
        994    1    1    2    0    0  0.47705541831E+01  0.97962010080E+01  0.15455527370E+01  0.17155335169E+03  0.17120000000E+03 0.  0.
        998    1    1    2    0    0 -0.17004099688E+01  0.83140041604E-01  0.14527676260E+04  0.14528030401E+04  0.10000000000E+02 0. -1.
</event>
<event>
 5    1  0.1344348E-008  0.3688642E+03  0.7957747E-01  0.3501127E+00
         13   -1    0    0    0    0  0.00000000000E+00  0.00000000000E+00  0.14999999963E+04  0.15000000000E+04  0.10566000000E+00 0. -1.
        994   -1    0    0    0    0 -0.00000000000E+00 -0.00000000000E+00  0.11368683772E-12  0.17120000000E+03  0.17120000000E+03 0.  0.
         13    1    1    2    0    0 -0.46236676570E+01  0.14167288827E+02  0.63386225953E+01  0.16195050965E+02  0.10566000000E+00 0. -1.
        994    1    1    2    0    0  0.16995586180E+02 -0.32105681902E+02  0.14458566857E+02  0.17560784412E+03  0.17120000000E+03 0.  0.
        998    1    1    2    0    0 -0.12371918523E+02  0.17938393075E+02  0.14792028068E+04  0.14793971049E+04  0.10000000000E+02 0. -1.
</event>
<event>
 5    1  0.1344348E-008  0.3701163E+03  0.7957747E-01  0.3495356E+00
         13   -1    0    0    0    0  0.00000000000E+00  0.00000000000E+00  0.14999999963E+04  0.15000000000E+04  0.10566000000E+00 0.  1.
        994   -1    0    0    0    0 -0.00000000000E+00 -0.00000000000E+00  0.11368683772E-12  0.17120000000E+03  0.17120000000E+03 0.  0.
         13    1    1    2    0    0  0.26280950061E+01 -0.10385684476E+02  0.20218353562E+01  0.10902674335E+02  0.10566000000E+00 0.  1.
        994    1    1    2    0    0  0.79993135477E+01  0.72870210768E+00  0.94313158973E+01  0.17164763250E+03  0.17120000000E+03 0.  0.
        998    1    1    2    0    0 -0.10627408554E+02  0.96569823687E+01  0.14885468450E+04  0.14886496932E+04  0.10000000000E+02 0.  1.
</event>
<event>
 5    1  0.1344348E-008  0.3743315E+03  0.7957747E-01  0.3476218E+00
         13   -1    0    0    0    0  0.00000000000E+00  0.00000000000E+00  0.14999999963E+04  0.15000000000E+04  0.10566000000E+00 0.  1.
        994   -1    0    0    0    0 -0.00000000000E+00 -0.00000000000E+00  0.11368683772E-12  0.17120000000E+03  0.17120000000E+03 0.  0.
         13    1    1    2    0    0  0.51612891806E+02  0.18809635550E+02  0.13744197321E+03  0.14801351341E+03  0.10566000000E+00 0.  1.
        994    1    1    2    0    0 -0.11517318640E+03 -0.45884841607E+02  0.61338351597E+02  0.22009569494E+03  0.17120000000E+03 0.  0.
        998    1    1    2    0    0  0.63560294597E+02  0.27075206058E+02  0.13012196715E+04  0.13030907916E+04  0.10000000000E+02 0.  1.
</event>
<event>
 5    1  0.1344348E-008  0.3839940E+03  0.7957747E-01  0.3433950E+00
         13   -1    0    0    0    0  0.00000000000E+00  0.00000000000E+00  0.14999999963E+04  0.15000000000E+04  0.10566000000E+00 0. -1.
        994   -1    0    0    0    0 -0.00000000000E+00 -0.00000000000E+00  0.11368683772E-12  0.17120000000E+03  0.17120000000E+03 0.  0.
         13    1    1    2    0    0  0.12493117413E+02  0.10310757086E+02  0.67576293983E+02  0.69490692663E+02  0.10566000000E+00 0. -1.
        994    1    1    2    0    0  0.12210181204E+02 -0.45202408365E+01  0.26899369160E+01  0.17171545319E+03  0.17120000000E+03 0.  0.
        998    1    1    2    0    0 -0.24703298617E+02 -0.57905162493E+01  0.14297337654E+04  0.14299938542E+04  0.10000000000E+02 0. -1.
</event>
<event>
 5    1  0.1344348E-008  0.3824481E+03  0.7957747E-01  0.3440568E+00
         13   -1    0    0    0    0  0.00000000000E+00  0.00000000000E+00  0.14999999963E+04  0.15000000000E+04  0.10566000000E+00 0. -1.
        994   -1    0    0    0    0 -0.00000000000E+00 -0.00000000000E+00  0.11368683772E-12  0.17120000000E+03  0.17120000000E+03 0.  0.
         13    1    1    2    0    0  0.14987908870E+01 -0.21189474643E+02  0.77431098894E+02  0.80292131929E+02  0.10566000000E+00 0. -1.
        994    1    1    2    0    0 -0.71812113368E+01  0.11526825862E+02  0.35143060116E+01  0.17177376941E+03  0.17120000000E+03 0.  0.
        998    1    1    2    0    0  0.56824204497E+01  0.96626487812E+01  0.14190545914E+04  0.14191340987E+04  0.10000000000E+02 0. -1.
</event>
<event>
 5    1  0.1344348E-008  0.3834817E+03  0.7957747E-01  0.3436137E+00
         13   -1    0    0    0    0  0.00000000000E+00  0.00000000000E+00  0.14999999963E+04  0.15000000000E+04  0.10566000000E+00 0.  1.
        994   -1    0    0    0    0 -0.00000000000E+00 -0.00000000000E+00  0.11368683772E-12  0.17120000000E+03  0.17120000000E+03 0.  0.
         13    1    1    2    0    0 -0.21775089660E+02  0.57829697103E+01  0.11170575089E+03  0.11395518072E+03  0.10566000000E+00 0.  1.
        994    1    1    2    0    0  0.74795071359E+01  0.39496637519E+01  0.26222992060E+01  0.17142887541E+03  0.17120000000E+03 0.  0.
        998    1    1    2    0    0  0.14295582524E+02 -0.97326334622E+01  0.13856719462E+04  0.13858159439E+04  0.10000000000E+02 0.  1.
</event>
<event>
 5    1  0.1344348E-008  0.3792161E+03  0.7957747E-01  0.3454579E+00
         13   -1    0    0    0    0  0.00000000000E+00  0.00000000000E+00  0.14999999963E+04  0.15000000000E+04  0.10566000000E+00 0. -1.
        994   -1    0    0    0    0 -0.00000000000E+00 -0.00000000000E+00  0.11368683772E-12  0.17120000000E+03  0.17120000000E+03 0.  0.
         13    1    1    2    0    0 -0.22002884195E+02 -0.75552894626E+00  0.51401872896E+02  0.55918346168E+02  0.10566000000E+00 0. -1.
        994    1    1    2    0    0  0.16576247824E+02 -0.44141022143E+01  0.55162304234E+01  0.17214565080E+03  0.17120000000E+03 0.  0.
        998    1    1    2    0    0  0.54266363714E+01  0.51696311606E+01  0.14430818930E+04  0.14431360030E+04  0.10000000000E+02 0. -1.
</event>
<event>
 5    1  0.1344348E-008  0.3691883E+03  0.7957747E-01  0.3499630E+00
         13   -1    0    0    0    0  0.00000000000E+00  0.00000000000E+00  0.14999999963E+04  0.15000000000E+04  0.10566000000E+00 0.  1.
        994   -1    0    0    0    0 -0.00000000000E+00 -0.00000000000E+00  0.11368683772E-12  0.17120000000E+03  0.17120000000E+03 0.  0.
         13    1    1    2    0    0 -0.35921863289E+02  0.25454483748E+02  0.95517598023E+02  0.10517572772E+03  0.10566000000E+00 0.  1.
        994    1    1    2    0    0  0.24910660561E+02 -0.18089492072E+02  0.12987270741E+02  0.17443015775E+03  0.17120000000E+03 0.  0.
        998    1    1    2    0    0  0.11011202728E+02 -0.73649916755E+01  0.13914951275E+04  0.13915941145E+04  0.10000000000E+02 0.  1.
</event>
<event>
 5    1  0.1344348E-008  0.3769405E+03  0.7957747E-01  0.3464589E+00
         13   -1    0    0    0    0  0.00000000000E+00  0.00000000000E+00  0.14999999963E+04  0.15000000000E+04  0.10566000000E+00 0.  1.
        994   -1    0    0    0    0 -0.00000000000E+00 -0.00000000000E+00  0.11368683772E-12  0.17120000000E+03  0.17120000000E+03 0.  0.
         13    1    1    2    0    0  0.17324376808E+02 -0.99375688531E+01  0.32661036806E+02  0.38283727558E+02  0.10566000000E+00 0.  1.
        994    1    1    2    0    0 -0.15676230784E+02  0.22536856093E+01  0.65331157555E+01  0.17205506360E+03  0.17120000000E+03 0.  0.
        998    1    1    2    0    0 -0.16481460232E+01  0.76838832439E+01  0.14608058437E+04  0.14608612088E+04  0.10000000000E+02 0.  1.
</event>
<event>
 5    1  0.1344348E-008  0.3783384E+03  0.7957747E-01  0.3458425E+00
         13   -1    0    0    0    0  0.00000000000E+00  0.00000000000E+00  0.14999999963E+04  0.15000000000E+04  0.10566000000E+00 0. -1.
        994   -1    0    0    0    0 -0.00000000000E+00 -0.00000000000E+00  0.11368683772E-12  0.17120000000E+03  0.17120000000E+03 0.  0.
         13    1    1    2    0    0 -0.97034499903E+00 -0.21536111623E+02  0.43779702739E+02  0.48799786979E+02  0.10566000000E+00 0. -1.
        994    1    1    2    0    0 -0.32318229405E+01  0.21211884860E+02  0.65233226597E+01  0.17266262617E+03  0.17120000000E+03 0.  0.
        998    1    1    2    0    0  0.42021679396E+01  0.32422676254E+00  0.14496969709E+04  0.14497375868E+04  0.10000000000E+02 0. -1.
</event>
<event>
 5    1  0.1344348E-008  0.3801249E+03  0.7957747E-01  0.3450615E+00
         13   -1    0    0    0    0  0.00000000000E+00  0.00000000000E+00  0.14999999963E+04  0.15000000000E+04  0.10566000000E+00 0. -1.
        994   -1    0    0    0    0 -0.00000000000E+00 -0.00000000000E+00  0.11368683772E-12  0.17120000000E+03  0.17120000000E+03 0.  0.
         13    1    1    2    0    0  0.35618055671E+02  0.22145683560E+02  0.18551256066E+03  0.19019463325E+03  0.10566000000E+00 0. -1.
        994    1    1    2    0    0 -0.33875819644E+02 -0.31330920971E+02  0.11217915239E+02  0.17766395073E+03  0.17120000000E+03 0.  0.
        998    1    1    2    0    0 -0.17422360268E+01  0.91852374105E+01  0.13032695204E+04  0.13033414160E+04  0.10000000000E+02 0.  1.
</event>
<event>
 5    1  0.1344348E-008  0.3775624E+03  0.7957747E-01  0.3461842E+00
         13   -1    0    0    0    0  0.00000000000E+00  0.00000000000E+00  0.14999999963E+04  0.15000000000E+04  0.10566000000E+00 0.  1.
        994   -1    0    0    0    0 -0.00000000000E+00 -0.00000000000E+00  0.11368683772E-12  0.17120000000E+03  0.17120000000E+03 0.  0.
         13    1    1    2    0    0 -0.56549574740E+02  0.17334146170E+01  0.29189465625E+03  0.29732702643E+03  0.10566000000E+00 0.  1.
        994    1    1    2    0    0  0.33889232793E+02 -0.10008327429E+02  0.95883147336E+01  0.17507147825E+03  0.17120000000E+03 0.  0.
        998    1    1    2    0    0  0.22660341947E+02  0.82749128123E+01  0.11985170253E+04  0.11988014953E+04  0.10000000000E+02 0.  1.
</event>
<event>
 5    1  0.1344348E-008  0.3762058E+03  0.7957747E-01  0.3467847E+00
         13   -1    0    0    0    0  0.00000000000E+00  0.00000000000E+00  0.14999999963E+04  0.15000000000E+04  0.10566000000E+00 0.  1.
        994   -1    0    0    0    0 -0.00000000000E+00 -0.00000000000E+00  0.11368683772E-12  0.17120000000E+03  0.17120000000E+03 0.  0.
         13    1    1    2    0    0  0.22394690429E+03  0.50185966206E+02  0.12242597946E+04  0.12455853656E+04  0.10566000000E+00 0.  1.
        994    1    1    2    0    0 -0.23327992596E+03 -0.29028725788E+02  0.22067753829E+03  0.36506192171E+03  0.17120000000E+03 0.  0.
        998    1    1    2    0    0  0.93330216736E+01 -0.21157240418E+02  0.55062663417E+02  0.60552712724E+02  0.10000000000E+02 0.  1.
</event>
<event>
 5    1  0.1344348E-008  0.3848935E+03  0.7957747E-01  0.3430124E+00
         13   -1    0    0    0    0  0.00000000000E+00  0.00000000000E+00  0.14999999963E+04  0.15000000000E+04  0.10566000000E+00 0.  1.
        994   -1    0    0    0    0 -0.00000000000E+00 -0.00000000000E+00  0.11368683772E-12  0.17120000000E+03  0.17120000000E+03 0.  0.
         13    1    1    2    0    0  0.46563592755E+01  0.15731897434E+02  0.78613632323E+02  0.80307463100E+02  0.10566000000E+00 0.  1.
        994    1    1    2    0    0  0.20840667206E+02 -0.20809786048E+02  0.45417365689E+01  0.17377412919E+03  0.17120000000E+03 0.  0.
        998    1    1    2    0    0 -0.25497026482E+02  0.50778886138E+01  0.14168446274E+04  0.14171184077E+04  0.10000000000E+02 0.  1.
</event>
<event>
 5    1  0.1344348E-008  0.3858586E+03  0.7957747E-01  0.3426039E+00
         13   -1    0    0    0    0  0.00000000000E+00  0.00000000000E+00  0.14999999963E+04  0.15000000000E+04  0.10566000000E+00 0.  1.
        994   -1    0    0    0    0 -0.00000000000E+00 -0.00000000000E+00  0.11368683772E-12  0.17120000000E+03  0.17120000000E+03 0.  0.
         13    1    1    2    0    0  0.52039933206E+01  0.90005721166E+01  0.44533507751E+02  0.45731130771E+02  0.10566000000E+00 0.  1.
        994    1    1    2    0    0  0.18778292099E+00 -0.11416447309E+02  0.16321106789E+01  0.17158809492E+03  0.17120000000E+03 0.  0.
        998    1    1    2    0    0 -0.53917762416E+01  0.24158751923E+01  0.14538343778E+04  0.14538807743E+04  0.10000000000E+02 0.  1.
</event>
<event>
 5    1  0.1344348E-008  0.3780970E+03  0.7957747E-01  0.3459487E+00
         13   -1    0    0    0    0  0.00000000000E+00  0.00000000000E+00  0.14999999963E+04  0.15000000000E+04  0.10566000000E+00 0.  1.
        994   -1    0    0    0    0 -0.00000000000E+00 -0.00000000000E+00  0.11368683772E-12  0.17120000000E+03  0.17120000000E+03 0.  0.
         13    1    1    2    0    0  0.66498277863E+02  0.21192018780E+02  0.39894269020E+03  0.40500173314E+03  0.10566000000E+00 0.  1.
        994    1    1    2    0    0 -0.62773223790E+02  0.36003345642E+01  0.18513904360E+02  0.18331842430E+03  0.17120000000E+03 0.  0.
        998    1    1    2    0    0 -0.37250540727E+01 -0.24792353344E+02  0.10825434017E+04  0.10828798426E+04  0.10000000000E+02 0.  1.
</event>
<event>
 5    1  0.1344348E-008  0.3854484E+03  0.7957747E-01  0.3427773E+00
         13   -1    0    0    0    0  0.00000000000E+00  0.00000000000E+00  0.14999999963E+04  0.15000000000E+04  0.10566000000E+00 0. -1.
        994   -1    0    0    0    0 -0.00000000000E+00 -0.00000000000E+00  0.11368683772E-12  0.17120000000E+03  0.17120000000E+03 0.  0.
         13    1    1    2    0    0 -0.16240097511E+02  0.10125576096E+02  0.78044534023E+00  0.19154328947E+02  0.10566000000E+00 0. -1.
        994    1    1    2    0    0  0.15313375888E+02 -0.12366358239E+02  0.20786614797E+02  0.17357692719E+03  0.17120000000E+03 0.  0.
        998    1    1    2    0    0  0.92672162370E+00  0.22407821434E+01  0.14784329361E+04  0.14784687439E+04  0.10000000000E+02 0. -1.
</event>
<event>
 5    1  0.1344348E-008  0.3742508E+03  0.7957747E-01  0.3476580E+00
         13   -1    0    0    0    0  0.00000000000E+00  0.00000000000E+00  0.14999999963E+04  0.15000000000E+04  0.10566000000E+00 0. -1.
        994   -1    0    0    0    0 -0.00000000000E+00 -0.00000000000E+00  0.11368683772E-12  0.17120000000E+03  0.17120000000E+03 0.  0.
         13    1    1    2    0    0 -0.57371139443E+02  0.10660003092E+02  0.23540332812E+03  0.24252798058E+03  0.10566000000E+00 0. -1.
        994    1    1    2    0    0  0.37940454276E+02  0.69861239316E+01  0.12152645638E+02  0.17591307738E+03  0.17120000000E+03 0.  0.
        998    1    1    2    0    0  0.19430685167E+02 -0.17646127023E+02  0.12524440225E+04  0.12527589420E+04  0.10000000000E+02 0. -1.
</event>
<event>
 5    1  0.1344348E-008  0.3742625E+03  0.7957747E-01  0.3476528E+00
         13   -1    0    0    0    0  0.00000000000E+00  0.00000000000E+00  0.14999999963E+04  0.15000000000E+04  0.10566000000E+00 0.  1.
        994   -1    0    0    0    0 -0.00000000000E+00 -0.00000000000E+00  0.11368683772E-12  0.17120000000E+03  0.17120000000E+03 0.  0.
         13    1    1    2    0    0  0.10150790792E+02 -0.18397950616E+02  0.27760918439E+02  0.34816704284E+02  0.10566000000E+00 0.  1.
        994    1    1    2    0    0 -0.86622795111E+01  0.21010784492E+02  0.88199581880E+01  0.17292692044E+03  0.17120000000E+03 0.  0.
        998    1    1    2    0    0 -0.14885112809E+01 -0.26128338754E+01  0.14634191197E+04  0.14634563753E+04  0.10000000000E+02 0.  1.
</event>
<event>
 5    1  0.1344348E-008  0.3792304E+03  0.7957747E-01  0.3454516E+00
         13   -1    0    0    0    0  0.00000000000E+00  0.00000000000E+00  0.14999999963E+04  0.15000000000E+04  0.10566000000E+00 0. -1.
        994   -1    0    0    0    0 -0.00000000000E+00 -0.00000000000E+00  0.11368683772E-12  0.17120000000E+03  0.17120000000E+03 0.  0.
         13    1    1    2    0    0 -0.46363802573E+02  0.18600550842E+01  0.19787560455E+03  0.20324327303E+03  0.10566000000E+00 0. -1.
        994    1    1    2    0    0  0.52850831765E+02 -0.37426945587E+02  0.18708785455E+02  0.18399305782E+03  0.17120000000E+03 0.  0.
        998    1    1    2    0    0 -0.64870291921E+01  0.35566890503E+02  0.12834156063E+04  0.12839636691E+04  0.10000000000E+02 0. -1.
</event>
<event>
 5    1  0.1344348E-008  0.3729940E+03  0.7957747E-01  0.3482243E+00
         13   -1    0    0    0    0  0.00000000000E+00  0.00000000000E+00  0.14999999963E+04  0.15000000000E+04  0.10566000000E+00 0. -1.
        994   -1    0    0    0    0 -0.00000000000E+00 -0.00000000000E+00  0.11368683772E-12  0.17120000000E+03  0.17120000000E+03 0.  0.
         13    1    1    2    0    0 -0.10754602585E+03  0.48905421134E+02  0.61763485856E+03  0.62883282163E+03  0.10566000000E+00 0. -1.
        994    1    1    2    0    0  0.85841725342E+02 -0.64267018778E+02  0.48152274046E+02  0.20767073219E+03  0.17120000000E+03 0.  0.
        998    1    1    2    0    0  0.21704300504E+02  0.15361597644E+02  0.83421286367E+03  0.83469644618E+03  0.10000000000E+02 0. -1.
</event>
<event>
 5    1  0.1344348E-008  0.3827714E+03  0.7957747E-01  0.3439179E+00
         13   -1    0    0    0    0  0.00000000000E+00  0.00000000000E+00  0.14999999963E+04  0.15000000000E+04  0.10566000000E+00 0. -1.
        994   -1    0    0    0    0 -0.00000000000E+00 -0.00000000000E+00  0.11368683772E-12  0.17120000000E+03  0.17120000000E+03 0.  0.
         13    1    1    2    0    0 -0.19498091644E+02  0.10837950757E+01  0.69155209204E+02  0.71859615317E+02  0.10566000000E+00 0. -1.
        994    1    1    2    0    0  0.11557408632E+02  0.26985223015E+01  0.32073723440E+01  0.17164085456E+03  0.17120000000E+03 0.  0.
        998    1    1    2    0    0  0.79406830122E+01 -0.37823173772E+01  0.14276374147E+04  0.14276995301E+04  0.10000000000E+02 0. -1.
</event>
<event>
 5    1  0.1344348E-008  0.3840882E+03  0.7957747E-01  0.3433549E+00
         13   -1    0    0    0    0  0.00000000000E+00  0.00000000000E+00  0.14999999963E+04  0.15000000000E+04  0.10566000000E+00 0.  1.
        994   -1    0    0    0    0 -0.00000000000E+00 -0.00000000000E+00  0.11368683772E-12  0.17120000000E+03  0.17120000000E+03 0.  0.
         13    1    1    2    0    0  0.14292005444E+02  0.13927013351E+02  0.10099754482E+03  0.10295017408E+03  0.10566000000E+00 0.  1.
        994    1    1    2    0    0 -0.99250087078E+00 -0.50644507264E+01  0.21713750860E+01  0.17129153099E+03  0.17120000000E+03 0.  0.
        998    1    1    2    0    0 -0.13299504573E+02 -0.88625626250E+01  0.13968310764E+04  0.13969582949E+04  0.10000000000E+02 0.  1.
</event>
<event>
 5    1  0.1344348E-008  0.3745270E+03  0.7957747E-01  0.3475341E+00
         13   -1    0    0    0    0  0.00000000000E+00  0.00000000000E+00  0.14999999963E+04  0.15000000000E+04  0.10566000000E+00 0.  1.
        994   -1    0    0    0    0 -0.00000000000E+00 -0.00000000000E+00  0.11368683772E-12  0.17120000000E+03  0.17120000000E+03 0.  0.
         13    1    1    2    0    0 -0.85129583740E+02 -0.64019181679E+02  0.50544607654E+03  0.51654743161E+03  0.10566000000E+00 0.  1.
        994    1    1    2    0    0  0.89709838146E+02  0.64538131371E+02  0.49712497766E+02  0.20974698543E+03  0.17120000000E+03 0.  0.
        998    1    1    2    0    0 -0.45802544064E+01 -0.51894969237E+00  0.94484142197E+03  0.94490558296E+03  0.10000000000E+02 0.  0.
</event>
<event>
 5    1  0.1344348E-008  0.3808929E+03  0.7957747E-01  0.3447280E+00
         13   -1    0    0    0    0  0.00000000000E+00  0.00000000000E+00  0.14999999963E+04  0.15000000000E+04  0.10566000000E+00 0. -1.
        994   -1    0    0    0    0 -0.00000000000E+00 -0.00000000000E+00  0.11368683772E-12  0.17120000000E+03  0.17120000000E+03 0.  0.
         13    1    1    2    0    0  0.20198257299E+02  0.13867725809E+02  0.82312676517E+02  0.85881728537E+02  0.10566000000E+00 0. -1.
        994    1    1    2    0    0 -0.91366892931E+01 -0.44794214386E+01  0.40283084436E+01  0.17154944353E+03  0.17120000000E+03 0.  0.
        998    1    1    2    0    0 -0.11061568006E+02 -0.93883043707E+01  0.14136590113E+04  0.14137688279E+04  0.10000000000E+02 0. -1.
</event>
<event>
 5    1  0.1344348E-008  0.3836904E+03  0.7957747E-01  0.3435245E+00
         13   -1    0    0    0    0  0.00000000000E+00  0.00000000000E+00  0.14999999963E+04  0.15000000000E+04  0.10566000000E+00 0.  1.
        994   -1    0    0    0    0 -0.00000000000E+00 -0.00000000000E+00  0.11368683772E-12  0.17120000000E+03  0.17120000000E+03 0.  0.
         13    1    1    2    0    0 -0.45089982890E+01  0.29984183491E+02  0.18039977545E+03  0.18293023936E+03  0.10566000000E+00 0.  1.
        994    1    1    2    0    0  0.70082384744E+01 -0.29146701321E+02  0.52553123944E+01  0.17388416809E+03  0.17120000000E+03 0.  0.
        998    1    1    2    0    0 -0.24992401854E+01 -0.83748217020E+00  0.13143449084E+04  0.13143855925E+04  0.10000000000E+02 0.  1.
</event>
<event>
 5    1  0.1344348E-008  0.3840334E+03  0.7957747E-01  0.3433782E+00
         13   -1    0    0    0    0  0.00000000000E+00  0.00000000000E+00  0.14999999963E+04  0.15000000000E+04  0.10566000000E+00 0.  1.
        994   -1    0    0    0    0 -0.00000000000E+00 -0.00000000000E+00  0.11368683772E-12  0.17120000000E+03  0.17120000000E+03 0.  0.
         13    1    1    2    0    0 -0.41611880371E+02 -0.12713747925E+02  0.43769960621E+02  0.61717166097E+02  0.10566000000E+00 0.  1.
        994    1    1    2    0    0  0.34210942872E+02  0.63561178782E+01  0.23026697443E+02  0.17621140043E+03  0.17120000000E+03 0.  0.
        998    1    1    2    0    0  0.74009374996E+01  0.63576300463E+01  0.14332033382E+04  0.14332714335E+04  0.10000000000E+02 0.  1.
</event>
<event>
 5    1  0.1344348E-008  0.3782329E+03  0.7957747E-01  0.3458889E+00
         13   -1    0    0    0    0  0.00000000000E+00  0.00000000000E+00  0.14999999963E+04  0.15000000000E+04  0.10566000000E+00 0.  1.
        994   -1    0    0    0    0 -0.00000000000E+00 -0.00000000000E+00  0.11368683772E-12  0.17120000000E+03  0.17120000000E+03 0.  0.
         13    1    1    2    0    0  0.17646537147E+02 -0.27610464441E+01  0.29447936667E+02  0.34441483544E+02  0.10566000000E+00 0.  1.
        994    1    1    2    0    0 -0.14148651625E+02  0.60064748015E+01  0.58226758546E+01  0.17198722521E+03  0.17120000000E+03 0.  0.
        998    1    1    2    0    0 -0.34978855214E+01 -0.32454283573E+01  0.14647293838E+04  0.14647712912E+04  0.10000000000E+02 0.  1.
</event>
<event>
 5    1  0.1344348E-008  0.3799348E+03  0.7957747E-01  0.3451442E+00
         13   -1    0    0    0    0  0.00000000000E+00  0.00000000000E+00  0.14999999963E+04  0.15000000000E+04  0.10566000000E+00 0. -1.
        994   -1    0    0    0    0 -0.00000000000E+00 -0.00000000000E+00  0.11368683772E-12  0.17120000000E+03  0.17120000000E+03 0.  0.
         13    1    1    2    0    0 -0.10293877984E+02  0.76804026043E+01  0.18034743034E+02  0.22140813636E+02  0.10566000000E+00 0. -1.
        994    1    1    2    0    0  0.13167308541E+02  0.23354361023E+01  0.47642357154E+01  0.17178757294E+03  0.17120000000E+03 0.  0.
        998    1    1    2    0    0 -0.28734305574E+01 -0.10015838707E+02  0.14772010175E+04  0.14772716134E+04  0.10000000000E+02 0. -1.
</event>
<event>
 5    1  0.1344348E-008  0.3731404E+03  0.7957747E-01  0.3481582E+00
         13   -1    0    0    0    0  0.00000000000E+00  0.00000000000E+00  0.14999999963E+04  0.15000000000E+04  0.10566000000E+00 0. -1.
        994   -1    0    0    0    0 -0.00000000000E+00 -0.00000000000E+00  0.11368683772E-12  0.17120000000E+03  0.17120000000E+03 0.  0.
         13    1    1    2    0    0 -0.55379107123E+02  0.81201741337E+01  0.19940128525E+03  0.20710786189E+03  0.10566000000E+00 0. -1.
        994    1    1    2    0    0  0.34669007530E+02 -0.80628967936E+01  0.11982946588E+02  0.17527116533E+03  0.17120000000E+03 0.  0.
        998    1    1    2    0    0  0.20710099593E+02 -0.57277340117E-01  0.12886157644E+04  0.12888209728E+04  0.10000000000E+02 0. -1.
</event>
<event>
 5    1  0.1344348E-008  0.3840432E+03  0.7957747E-01  0.3433740E+00
         13   -1    0    0    0    0  0.00000000000E+00  0.00000000000E+00  0.14999999963E+04  0.15000000000E+04  0.10566000000E+00 0.  1.
        994   -1    0    0    0    0 -0.00000000000E+00 -0.00000000000E+00  0.11368683772E-12  0.17120000000E+03  0.17120000000E+03 0.  0.
         13    1    1    2    0    0  0.13818523167E+02  0.11845739369E+02  0.74118674568E+02  0.76320784898E+02  0.10566000000E+00 0.  1.
        994    1    1    2    0    0 -0.90358447041E+01 -0.21640678109E+02  0.39222981451E+01  0.17284325229E+03  0.17120000000E+03 0.  0.
        998    1    1    2    0    0 -0.47826784625E+01  0.97949387400E+01  0.14219590236E+04  0.14220359628E+04  0.10000000000E+02 0.  1.
</event>
<event>
 5    1  0.1344348E-008  0.3820638E+03  0.7957747E-01  0.3442221E+00
         13   -1    0    0    0    0  0.00000000000E+00  0.00000000000E+00  0.14999999963E+04  0.15000000000E+04  0.10566000000E+00 0. -1.
        994   -1    0    0    0    0 -0.00000000000E+00 -0.00000000000E+00  0.11368683772E-12  0.17120000000E+03  0.17120000000E+03 0.  0.
         13    1    1    2    0    0 -0.23525631633E+02 -0.62836271348E+01  0.92188116142E+02  0.95349878005E+02  0.10566000000E+00 0. -1.
        994    1    1    2    0    0  0.18546349519E+02  0.83353298505E+01  0.44688919013E+01  0.17246117186E+03  0.17120000000E+03 0.  0.
        998    1    1    2    0    0  0.49792821141E+01 -0.20517027157E+01  0.14033429882E+04  0.14033889501E+04  0.10000000000E+02 0.  0.
</event>
<event>
 5    1  0.1344348E-008  0.3756888E+03  0.7957747E-01  0.3470148E+00
         13   -1    0    0    0    0  0.00000000000E+00  0.00000000000E+00  0.14999999963E+04  0.15000000000E+04  0.10566000000E+00 0. -1.
        994   -1    0    0    0    0 -0.00000000000E+00 -0.00000000000E+00  0.11368683772E-12  0.17120000000E+03  0.17120000000E+03 0.  0.
         13    1    1    2    0    0 -0.11691733294E+02 -0.46399611483E+02  0.17903145067E+03  0.18531565521E+03  0.10566000000E+00 0. -1.
        994    1    1    2    0    0  0.40489080956E+01  0.27594414879E+02  0.89678637707E+01  0.17368853724E+03  0.17120000000E+03 0.  0.
        998    1    1    2    0    0  0.76428251980E+01  0.18805196604E+02  0.13120006818E+04  0.13121958075E+04  0.10000000000E+02 0. -1.
</event>
<event>
 5    1  0.1344348E-008  0.3870894E+03  0.7957747E-01  0.3420859E+00
         13   -1    0    0    0    0  0.00000000000E+00  0.00000000000E+00  0.14999999963E+04  0.15000000000E+04  0.10566000000E+00 0.  1.
        994   -1    0    0    0    0 -0.00000000000E+00 -0.00000000000E+00  0.11368683772E-12  0.17120000000E+03  0.17120000000E+03 0.  0.
         13    1    1    2    0    0 -0.10174792264E+02  0.19861750538E+02  0.34922697266E+01  0.22588108463E+02  0.10566000000E+00 0.  1.
        994    1    1    2    0    0 -0.14902770641E+01 -0.16095891723E+02  0.21250110374E+02  0.17326946023E+03  0.17120000000E+03 0.  0.
        998    1    1    2    0    0  0.11665069328E+02 -0.37658588149E+01  0.14752576162E+04  0.14753424313E+04  0.10000000000E+02 0.  1.
</event>
<event>
 5    1  0.1344348E-008  0.3847534E+03  0.7957747E-01  0.3430719E+00
         13   -1    0    0    0    0  0.00000000000E+00  0.00000000000E+00  0.14999999963E+04  0.15000000000E+04  0.10566000000E+00 0. -1.
        994   -1    0    0    0    0 -0.00000000000E+00 -0.00000000000E+00  0.11368683772E-12  0.17120000000E+03  0.17120000000E+03 0.  0.
         13    1    1    2    0    0  0.19555731134E+02  0.86754804737E+01  0.12420829883E+03  0.12603730894E+03  0.10566000000E+00 0. -1.
        994    1    1    2    0    0 -0.17132417759E+02 -0.85874116530E+01  0.29623122078E+01  0.17229474360E+03  0.17120000000E+03 0.  0.
        998    1    1    2    0    0 -0.24233133753E+01 -0.88068820636E-01  0.13728293852E+04  0.13728679475E+04  0.10000000000E+02 0.  0.
</event>
<event>
 5    1  0.1344348E-008  0.3835077E+03  0.7957747E-01  0.3436026E+00
         13   -1    0    0    0    0  0.00000000000E+00  0.00000000000E+00  0.14999999963E+04  0.15000000000E+04  0.10566000000E+00 0.  1.
        994   -1    0    0    0    0 -0.00000000000E+00 -0.00000000000E+00  0.11368683772E-12  0.17120000000E+03  0.17120000000E+03 0.  0.
         13    1    1    2    0    0 -0.10846140646E+02 -0.26849330754E+01  0.25267533123E+02  0.27628011631E+02  0.10566000000E+00 0.  1.
        994    1    1    2    0    0  0.10266697439E+02  0.26900163339E+01  0.27451821580E+01  0.17155062602E+03  0.17120000000E+03 0.  0.
        998    1    1    2    0    0  0.57944320703E+00 -0.50832584724E-02  0.14719872810E+04  0.14720213623E+04  0.10000000000E+02 0.  1.
</event>
<event>
 5    1  0.1344348E-008  0.3828297E+03  0.7957747E-01  0.3438929E+00
         13   -1    0    0    0    0  0.00000000000E+00  0.00000000000E+00  0.14999999963E+04  0.15000000000E+04  0.10566000000E+00 0. -1.
        994   -1    0    0    0    0 -0.00000000000E+00 -0.00000000000E+00  0.11368683772E-12  0.17120000000E+03  0.17120000000E+03 0.  0.
         13    1    1    2    0    0 -0.69446712323E+01  0.18614620471E+02  0.72363633621E+02  0.75041583064E+02  0.10566000000E+00 0. -1.
        994    1    1    2    0    0  0.31178899936E+01 -0.11323129791E+02  0.31684693303E+01  0.17163162210E+03  0.17120000000E+03 0.  0.
        998    1    1    2    0    0  0.38267812387E+01 -0.72914906806E+01  0.14244678933E+04  0.14245267948E+04  0.10000000000E+02 0. -1.
</event>
<event>
 5    1  0.1344348E-008  0.3850238E+03  0.7957747E-01  0.3429571E+00
         13   -1    0    0    0    0  0.00000000000E+00  0.00000000000E+00  0.14999999963E+04  0.15000000000E+04  0.10566000000E+00 0. -1.
        994   -1    0    0    0    0 -0.00000000000E+00 -0.00000000000E+00  0.11368683772E-12  0.17120000000E+03  0.17120000000E+03 0.  0.
         13    1    1    2    0    0  0.16074088400E+02  0.14576787426E+01  0.78768557038E+02  0.80405210572E+02  0.10566000000E+00 0. -1.
        994    1    1    2    0    0 -0.13384413322E+02 -0.43231406523E+01  0.22691241494E+01  0.17179179547E+03  0.17120000000E+03 0.  0.
        998    1    1    2    0    0 -0.26896750778E+01  0.28654619097E+01  0.14189623151E+04  0.14190029940E+04  0.10000000000E+02 0. -1.
</event>
<event>
 5    1  0.1344348E-008  0.3739165E+03  0.7957747E-01  0.3478083E+00
         13   -1    0    0    0    0  0.00000000000E+00  0.00000000000E+00  0.14999999963E+04  0.15000000000E+04  0.10566000000E+00 0. -1.
        994   -1    0    0    0    0 -0.00000000000E+00 -0.00000000000E+00  0.11368683772E-12  0.17120000000E+03  0.17120000000E+03 0.  0.
         13    1    1    2    0    0  0.15582648977E+03 -0.84111297787E+02  0.79123027679E+03  0.81080328527E+03  0.10566000000E+00 0. -1.
        994    1    1    2    0    0 -0.20700024263E+03  0.34474172709E+02  0.17646132124E+03  0.32324233468E+03  0.17120000000E+03 0.  0.
        998    1    1    2    0    0  0.51173752867E+02  0.49637125078E+02  0.53230839824E+03  0.53715438005E+03  0.10000000000E+02 0. -1.
</event>
<event>
 5    1  0.1344348E-008  0.3697489E+03  0.7957747E-01  0.3497046E+00
         13   -1    0    0    0    0  0.00000000000E+00  0.00000000000E+00  0.14999999963E+04  0.15000000000E+04  0.10566000000E+00 0.  1.
        994   -1    0    0    0    0 -0.00000000000E+00 -0.00000000000E+00  0.11368683772E-12  0.17120000000E+03  0.17120000000E+03 0.  0.
         13    1    1    2    0    0  0.48892940804E+01 -0.36330953062E+02  0.72710235276E+02  0.81428697797E+02  0.10566000000E+00 0.  1.
        994    1    1    2    0    0  0.25364059843E+01  0.36584528498E+01  0.94690036181E+01  0.17151944398E+03  0.17120000000E+03 0.  0.
        998    1    1    2    0    0 -0.74257000647E+01  0.32672500212E+02  0.14178207574E+04  0.14182518582E+04  0.10000000000E+02 0.  1.
</event>
<event>
 5    1  0.1344348E-008  0.3835189E+03  0.7957747E-01  0.3435978E+00
         13   -1    0    0    0    0  0.00000000000E+00  0.00000000000E+00  0.14999999963E+04  0.15000000000E+04  0.10566000000E+00 0.  1.
        994   -1    0    0    0    0 -0.00000000000E+00 -0.00000000000E+00  0.11368683772E-12  0.17120000000E+03  0.17120000000E+03 0.  0.
         13    1    1    2    0    0 -0.27013491330E+02 -0.11238002106E+01  0.14676482532E+03  0.14923443556E+03  0.10566000000E+00 0.  1.
        994    1    1    2    0    0  0.21853652802E+02  0.69799013090E+01  0.41083496409E+01  0.17277910666E+03  0.17120000000E+03 0.  0.
        998    1    1    2    0    0  0.51598385281E+01 -0.58561010984E+01  0.13491268213E+04  0.13491864578E+04  0.10000000000E+02 0.  1.
</event>
<event>
 5    1  0.1344348E-008  0.3751642E+03  0.7957747E-01  0.3472489E+00
         13   -1    0    0    0    0  0.00000000000E+00  0.00000000000E+00  0.14999999963E+04  0.15000000000E+04  0.10566000000E+00 0.  1.
        994   -1    0    0    0    0 -0.00000000000E+00 -0.00000000000E+00  0.11368683772E-12  0.17120000000E+03  0.17120000000E+03 0.  0.
         13    1    1    2    0    0 -0.11870016857E+02  0.24573313075E+02  0.54020185309E+02  0.60522199237E+02  0.10566000000E+00 0.  1.
        994    1    1    2    0    0  0.12267490705E+02 -0.13270868890E+02  0.77048015864E+01  0.17232356559E+03  0.17120000000E+03 0.  0.
        998    1    1    2    0    0 -0.39747384862E+00 -0.11302444185E+02  0.14382750094E+04  0.14383542352E+04  0.10000000000E+02 0.  1.
</event>
<event>
 5    1  0.1344348E-008  0.3848735E+03  0.7957747E-01  0.3430209E+00
         13   -1    0    0    0    0  0.00000000000E+00  0.00000000000E+00  0.14999999963E+04  0.15000000000E+04  0.10566000000E+00 0. -1.
        994   -1    0    0    0    0 -0.00000000000E+00 -0.00000000000E+00  0.11368683772E-12  0.17120000000E+03  0.17120000000E+03 0.  0.
         13    1    1    2    0    0  0.11131278275E+02  0.49654988189E+01  0.43331523110E+02  0.45013260197E+02  0.10566000000E+00 0. -1.
        994    1    1    2    0    0 -0.78515502401E+01 -0.68019858441E+01  0.20480697823E+01  0.17152710702E+03  0.17120000000E+03 0.  0.
        998    1    1    2    0    0 -0.32797280347E+01  0.18364870252E+01  0.14546204034E+04  0.14546596328E+04  0.10000000000E+02 0. -1.
</event>
<event>
 5    1  0.1344348E-008  0.3850325E+03  0.7957747E-01  0.3429534E+00
         13   -1    0    0    0    0  0.00000000000E+00  0.00000000000E+00  0.14999999963E+04  0.15000000000E+04  0.10566000000E+00 0. -1.
        994   -1    0    0    0    0 -0.00000000000E+00 -0.00000000000E+00  0.11368683772E-12  0.17120000000E+03  0.17120000000E+03 0.  0.
         13    1    1    2    0    0 -0.53911338989E+01  0.12453527911E+02  0.58983463191E+02  0.60524497323E+02  0.10566000000E+00 0. -1.
        994    1    1    2    0    0  0.16037072812E+01 -0.31763067057E+01  0.16556231736E+01  0.17124497625E+03  0.17120000000E+03 0.  0.
        998    1    1    2    0    0  0.37874266178E+01 -0.92772212053E+01  0.14393609099E+04  0.14394305264E+04  0.10000000000E+02 0. -1.
</event>
<event>
 5    1  0.1344348E-008  0.3765142E+03  0.7957747E-01  0.3466478E+00
         13   -1    0    0    0    0  0.00000000000E+00  0.00000000000E+00  0.14999999963E+04  0.15000000000E+04  0.10566000000E+00 0.  1.
        994   -1    0    0    0    0 -0.00000000000E+00 -0.00000000000E+00  0.11368683772E-12  0.17120000000E+03  0.17120000000E+03 0.  0.
         13    1    1    2    0    0  0.20694761802E+02  0.43643540397E+02  0.22598560893E+03  0.23108989245E+03  0.10566000000E+00 0.  1.
        994    1    1    2    0    0 -0.22232348956E+02  0.22119592014E+01  0.75931740187E+01  0.17281859389E+03  0.17120000000E+03 0.  0.
        998    1    1    2    0    0  0.15375871534E+01 -0.45855499598E+02  0.12664212133E+04  0.12672915137E+04  0.10000000000E+02 0.  1.
</event>
<event>
 5    1  0.1344348E-008  0.3810696E+03  0.7957747E-01  0.3446514E+00
         13   -1    0    0    0    0  0.00000000000E+00  0.00000000000E+00  0.14999999963E+04  0.15000000000E+04  0.10566000000E+00 0.  1.
        994   -1    0    0    0    0 -0.00000000000E+00 -0.00000000000E+00  0.11368683772E-12  0.17120000000E+03  0.17120000000E+03 0.  0.
         13    1    1    2    0    0 -0.91376781923E+01  0.96170149834E+01  0.23034494759E+02  0.26581633749E+02  0.10566000000E+00 0.  1.
        994    1    1    2    0    0  0.53095152059E+01 -0.78497294965E+01  0.38934025815E+01  0.17150629081E+03  0.17120000000E+03 0.  0.
        998    1    1    2    0    0  0.38281629864E+01 -0.17672854869E+01  0.14730720989E+04  0.14731120754E+04  0.10000000000E+02 0.  1.
</event>
<event>
 5    1  0.1344348E-008  0.3838979E+03  0.7957747E-01  0.3434360E+00
         13   -1    0    0    0    0  0.00000000000E+00  0.00000000000E+00  0.14999999963E+04  0.15000000000E+04  0.10566000000E+00 0. -1.
        994   -1    0    0    0    0 -0.00000000000E+00 -0.00000000000E+00  0.11368683772E-12  0.17120000000E+03  0.17120000000E+03 0.  0.
         13    1    1    2    0    0 -0.69165719863E+01 -0.30771085599E+02  0.18447361273E+03  0.18715027020E+03  0.10566000000E+00 0. -1.
        994    1    1    2    0    0  0.13655688552E+02  0.39707808038E+02  0.80194204555E+01  0.17645662060E+03  0.17120000000E+03 0.  0.
        998    1    1    2    0    0 -0.67391165654E+01 -0.89367224397E+01  0.13075069631E+04  0.13075931092E+04  0.10000000000E+02 0. -1.
</event>
<event>
 5    1  0.1344348E-008  0.3852270E+03  0.7957747E-01  0.3428710E+00
         13   -1    0    0    0    0  0.00000000000E+00  0.00000000000E+00  0.14999999963E+04  0.15000000000E+04  0.10566000000E+00 0. -1.
        994   -1    0    0    0    0 -0.00000000000E+00 -0.00000000000E+00  0.11368683772E-12  0.17120000000E+03  0.17120000000E+03 0.  0.
         13    1    1    2    0    0 -0.98505109500E+01 -0.89025592764E+01  0.56918185300E+02  0.58446378070E+02  0.10566000000E+00 0. -1.
        994    1    1    2    0    0  0.99791309842E+01  0.75568736926E+01  0.20325637369E+01  0.17166904412E+03  0.17120000000E+03 0.  0.
        998    1    1    2    0    0 -0.12862003426E+00  0.13456855838E+01  0.14410492472E+04  0.14410845778E+04  0.10000000000E+02 0.  0.
</event>
<event>
 5    1  0.1344348E-008  0.3831653E+03  0.7957747E-01  0.3437491E+00
         13   -1    0    0    0    0  0.00000000000E+00  0.00000000000E+00  0.14999999963E+04  0.15000000000E+04  0.10566000000E+00 0. -1.
        994   -1    0    0    0    0 -0.00000000000E+00 -0.00000000000E+00  0.11368683772E-12  0.17120000000E+03  0.17120000000E+03 0.  0.
         13    1    1    2    0    0 -0.16793778426E+02 -0.15814156870E+02  0.10898893714E+03  0.11140340271E+03  0.10566000000E+00 0. -1.
        994    1    1    2    0    0  0.25074446817E+01  0.77546652269E+01  0.27635346008E+01  0.17141615803E+03  0.17120000000E+03 0.  0.
        998    1    1    2    0    0  0.14286333744E+02  0.80594916428E+01  0.13882475245E+04  0.13883804393E+04  0.10000000000E+02 0. -1.
</event>
<event>
 5    1  0.1344348E-008  0.3836776E+03  0.7957747E-01  0.3435300E+00
         13   -1    0    0    0    0  0.00000000000E+00  0.00000000000E+00  0.14999999963E+04  0.15000000000E+04  0.10566000000E+00 0. -1.
        994   -1    0    0    0    0 -0.00000000000E+00 -0.00000000000E+00  0.11368683772E-12  0.17120000000E+03  0.17120000000E+03 0.  0.
         13    1    1    2    0    0  0.66676207955E+01  0.28139623302E+02  0.15694967235E+03  0.15959168644E+03  0.10566000000E+00 0. -1.
        994    1    1    2    0    0 -0.23057601205E+02 -0.31188263872E+02  0.72726580870E+01  0.17568919242E+03  0.17120000000E+03 0.  0.
        998    1    1    2    0    0  0.16389980409E+02  0.30486405696E+01  0.13357776658E+04  0.13359191211E+04  0.10000000000E+02 0. -1.
</event>
<event>
 5    1  0.1344348E-008  0.3836115E+03  0.7957747E-01  0.3435582E+00
         13   -1    0    0    0    0  0.00000000000E+00  0.00000000000E+00  0.14999999963E+04  0.15000000000E+04  0.10566000000E+00 0. -1.
        994   -1    0    0    0    0 -0.00000000000E+00 -0.00000000000E+00  0.11368683772E-12  0.17120000000E+03  0.17120000000E+03 0.  0.
         13    1    1    2    0    0 -0.94044813242E+01  0.34886022571E+02  0.21624793901E+03  0.21924566388E+03  0.10566000000E+00 0. -1.
        994    1    1    2    0    0  0.52561291596E+01 -0.48574545259E+02  0.10247216215E+02  0.17832991555E+03  0.17120000000E+03 0.  0.
        998    1    1    2    0    0  0.41483521646E+01  0.13688522687E+02  0.12735048411E+04  0.12736244206E+04  0.10000000000E+02 0. -1.
</event>
<event>
 5    1  0.1344348E-008  0.3809727E+03  0.7957747E-01  0.3446934E+00
         13   -1    0    0    0    0  0.00000000000E+00  0.00000000000E+00  0.14999999963E+04  0.15000000000E+04  0.10566000000E+00 0.  1.
        994   -1    0    0    0    0 -0.00000000000E+00 -0.00000000000E+00  0.11368683772E-12  0.17120000000E+03  0.17120000000E+03 0.  0.
         13    1    1    2    0    0 -0.11541814844E+02 -0.33927214365E+02  0.20793426732E+03  0.21099985795E+03  0.10566000000E+00 0.  1.
        994    1    1    2    0    0  0.10580210008E+02 -0.34323726115E+01  0.40553343159E+01  0.17160888020E+03  0.17120000000E+03 0.  0.
        998    1    1    2    0    0  0.96160483565E+00  0.37359586977E+02  0.12880103946E+04  0.12885912619E+04  0.10000000000E+02 0.  1.
</event>
<event>
 5    1  0.1344348E-008  0.3715003E+03  0.7957747E-01  0.3489024E+00
         13   -1    0    0    0    0  0.00000000000E+00  0.00000000000E+00  0.14999999963E+04  0.15000000000E+04  0.10566000000E+00 0.  1.
        994   -1    0    0    0    0 -0.00000000000E+00 -0.00000000000E+00  0.11368683772E-12  0.17120000000E+03  0.17120000000E+03 0.  0.
         13    1    1    2    0    0  0.12942014557E+03  0.53800811803E+02  0.71424565786E+03  0.72786741401E+03  0.10566000000E+00 0.  1.
        994    1    1    2    0    0 -0.11810074322E+03 -0.38898406180E+02  0.63705668130E+02  0.22097222383E+03  0.17120000000E+03 0.  0.
        998    1    1    2    0    0 -0.11319402345E+02 -0.14902405623E+02  0.72204867028E+03  0.72236036216E+03  0.10000000000E+02 0.  1.
</event>
<event>
 5    1  0.1344348E-008  0.3847619E+03  0.7957747E-01  0.3430683E+00
         13   -1    0    0    0    0  0.00000000000E+00  0.00000000000E+00  0.14999999963E+04  0.15000000000E+04  0.10566000000E+00 0. -1.
        994   -1    0    0    0    0 -0.00000000000E+00 -0.00000000000E+00  0.11368683772E-12  0.17120000000E+03  0.17120000000E+03 0.  0.
         13    1    1    2    0    0 -0.93273372330E+01 -0.10292136148E+02  0.53509926281E+02  0.55283366947E+02  0.10566000000E+00 0. -1.
        994    1    1    2    0    0  0.86514276170E+01  0.11413505954E+02  0.24237584236E+01  0.17181510388E+03  0.17120000000E+03 0.  0.
        998    1    1    2    0    0  0.67590961608E+00 -0.11213698069E+01  0.14440663116E+04  0.14441015292E+04  0.10000000000E+02 0. -1.
</event>
<event>
 5    1  0.1344348E-008  0.3787730E+03  0.7957747E-01  0.3456519E+00
         13   -1    0    0    0    0  0.00000000000E+00  0.00000000000E+00  0.14999999963E+04  0.15000000000E+04  0.10566000000E+00 0. -1.
        994   -1    0    0    0    0 -0.00000000000E+00 -0.00000000000E+00  0.11368683772E-12  0.17120000000E+03  0.17120000000E+03 0.  0.
         13    1    1    2    0    0  0.13211973924E+02 -0.21601452097E+02  0.67850178243E+02  0.72421245773E+02  0.10566000000E+00 0. -1.
        994    1    1    2    0    0 -0.53795346830E+01  0.61780740836E+01  0.49791119416E+01  0.17146818815E+03  0.17120000000E+03 0.  0.
        998    1    1    2    0    0 -0.78324392406E+01  0.15423378013E+02  0.14271707061E+04  0.14273105661E+04  0.10000000000E+02 0. -1.
</event>
<event>
 5    1  0.1344348E-008  0.3836773E+03  0.7957747E-01  0.3435302E+00
         13   -1    0    0    0    0  0.00000000000E+00  0.00000000000E+00  0.14999999963E+04  0.15000000000E+04  0.10566000000E+00 0. -1.
        994   -1    0    0    0    0 -0.00000000000E+00 -0.00000000000E+00  0.11368683772E-12  0.17120000000E+03  0.17120000000E+03 0.  0.
         13    1    1    2    0    0 -0.51741148543E+01 -0.16076526868E+02  0.57000576253E+02  0.59450004524E+02  0.10566000000E+00 0. -1.
        994    1    1    2    0    0  0.47473138112E+01  0.26819056593E+02  0.47421499011E+01  0.17341778101E+03  0.17120000000E+03 0.  0.
        998    1    1    2    0    0  0.42680104311E+00 -0.10742529726E+02  0.14382572701E+04  0.14383322145E+04  0.10000000000E+02 0. -1.
</event>
<event>
 5    1  0.1344348E-008  0.3693828E+03  0.7957747E-01  0.3498732E+00
         13   -1    0    0    0    0  0.00000000000E+00  0.00000000000E+00  0.14999999963E+04  0.15000000000E+04  0.10566000000E+00 0. -1.
        994   -1    0    0    0    0 -0.00000000000E+00 -0.00000000000E+00  0.11368683772E-12  0.17120000000E+03  0.17120000000E+03 0.  0.
         13    1    1    2    0    0  0.51576212766E+02  0.33356400734E+02  0.15028842624E+03  0.16235571261E+03  0.10566000000E+00 0. -1.
        994    1    1    2    0    0 -0.84099356232E+02 -0.42430947783E+02  0.40999383719E+02  0.19965839956E+03  0.17120000000E+03 0.  0.
        998    1    1    2    0    0  0.32523143466E+02  0.90745470489E+01  0.13087121863E+04  0.13091858878E+04  0.10000000000E+02 0. -1.
</event>
<event>
 5    1  0.1344348E-008  0.3810138E+03  0.7957747E-01  0.3446756E+00
         13   -1    0    0    0    0  0.00000000000E+00  0.00000000000E+00  0.14999999963E+04  0.15000000000E+04  0.10566000000E+00 0.  1.
        994   -1    0    0    0    0 -0.00000000000E+00 -0.00000000000E+00  0.11368683772E-12  0.17120000000E+03  0.17120000000E+03 0.  0.
         13    1    1    2    0    0 -0.21705656179E+02  0.71164075206E+00  0.63663757860E+02  0.67266092287E+02  0.10566000000E+00 0.  1.
        994    1    1    2    0    0  0.14333860879E+02 -0.49652425359E+01  0.43893248684E+01  0.17192678492E+03  0.17120000000E+03 0.  0.
        998    1    1    2    0    0  0.73717952998E+01  0.42536017838E+01  0.14319469136E+04  0.14320071228E+04  0.10000000000E+02 0.  1.
</event>
<event>
 5    1  0.1344348E-008  0.3855041E+03  0.7957747E-01  0.3427537E+00
         13   -1    0    0    0    0  0.00000000000E+00  0.00000000000E+00  0.14999999963E+04  0.15000000000E+04  0.10566000000E+00 0.  1.
        994   -1    0    0    0    0 -0.00000000000E+00 -0.00000000000E+00  0.11368683772E-12  0.17120000000E+03  0.17120000000E+03 0.  0.
         13    1    1    2    0    0  0.12265984745E+02 -0.12421716747E+01  0.57692444277E+02  0.58995141011E+02  0.10566000000E+00 0.  1.
        994    1    1    2    0    0 -0.15612835580E+01  0.28310543341E+01  0.14143973933E+01  0.17123636587E+03  0.17120000000E+03 0.  0.
        998    1    1    2    0    0 -0.10704701187E+02 -0.15888826594E+01  0.14408931546E+04  0.14409684931E+04  0.10000000000E+02 0.  1.
</event>
<event>
 5    1  0.1344348E-008  0.3828411E+03  0.7957747E-01  0.3438880E+00
         13   -1    0    0    0    0  0.00000000000E+00  0.00000000000E+00  0.14999999963E+04  0.15000000000E+04  0.10566000000E+00 0. -1.
        994   -1    0    0    0    0 -0.00000000000E+00 -0.00000000000E+00  0.11368683772E-12  0.17120000000E+03  0.17120000000E+03 0.  0.
         13    1    1    2    0    0  0.10740735818E+02  0.49334572050E+02  0.63726101508E+02  0.81303693537E+02  0.10566000000E+00 0. -1.
        994    1    1    2    0    0 -0.15801955929E+02 -0.39779397175E+02  0.24635344072E+02  0.17818092611E+03  0.17120000000E+03 0.  0.
        998    1    1    2    0    0  0.50612201114E+01 -0.95551748748E+01  0.14116385507E+04  0.14117153804E+04  0.10000000000E+02 0. -1.
</event>
<event>
 5    1  0.1344348E-008  0.3816953E+03  0.7957747E-01  0.3443810E+00
         13   -1    0    0    0    0  0.00000000000E+00  0.00000000000E+00  0.14999999963E+04  0.15000000000E+04  0.10566000000E+00 0.  1.
        994   -1    0    0    0    0 -0.00000000000E+00 -0.00000000000E+00  0.11368683772E-12  0.17120000000E+03  0.17120000000E+03 0.  0.
         13    1    1    2    0    0 -0.27663748857E+01 -0.12541181451E+02  0.20162359696E+02  0.23905354520E+02  0.10566000000E+00 0.  1.
        994    1    1    2    0    0 -0.98426935662E+01  0.69257154694E+02  0.19721446131E+02  0.18598872958E+03  0.17120000000E+03 0.  0.
        998    1    1    2    0    0  0.12609068452E+02 -0.56715973243E+02  0.14601161905E+04  0.14613059159E+04  0.10000000000E+02 0.  1.
</event>
<event>
 5    1  0.1344348E-008  0.3806744E+03  0.7957747E-01  0.3448227E+00
         13   -1    0    0    0    0  0.00000000000E+00  0.00000000000E+00  0.14999999963E+04  0.15000000000E+04  0.10566000000E+00 0. -1.
        994   -1    0    0    0    0 -0.00000000000E+00 -0.00000000000E+00  0.11368683772E-12  0.17120000000E+03  0.17120000000E+03 0.  0.
         13    1    1    2    0    0 -0.52740272705E+02  0.12590890065E+02  0.78110624100E+02  0.95086001277E+02  0.10566000000E+00 0. -1.
        994    1    1    2    0    0  0.53525431046E+02 -0.11729460257E+02  0.27686823549E+02  0.18187510056E+03  0.17120000000E+03 0.  0.
        998    1    1    2    0    0 -0.78515834117E+00 -0.86142980748E+00  0.13942025486E+04  0.13942388982E+04  0.10000000000E+02 0. -1.
</event>
<event>
 5    1  0.1344348E-008  0.3786278E+03  0.7957747E-01  0.3457155E+00
         13   -1    0    0    0    0  0.00000000000E+00  0.00000000000E+00  0.14999999963E+04  0.15000000000E+04  0.10566000000E+00 0. -1.
        994   -1    0    0    0    0 -0.00000000000E+00 -0.00000000000E+00  0.11368683772E-12  0.17120000000E+03  0.17120000000E+03 0.  0.
         13    1    1    2    0    0 -0.17480261256E+02  0.34888429928E+02  0.14684606918E+03  0.15194255913E+03  0.10566000000E+00 0. -1.
        994    1    1    2    0    0  0.96478110068E+01 -0.32617082540E+02  0.87224666138E+01  0.17476405739E+03  0.17120000000E+03 0.  0.
        998    1    1    2    0    0  0.78324502496E+01 -0.22713473880E+01  0.13444314605E+04  0.13444933835E+04  0.10000000000E+02 0. -1.
</event>
<event>
 5    1  0.1344348E-008  0.3822154E+03  0.7957747E-01  0.3441569E+00
         13   -1    0    0    0    0  0.00000000000E+00  0.00000000000E+00  0.14999999963E+04  0.15000000000E+04  0.10566000000E+00 0.  1.
        994   -1    0    0    0    0 -0.00000000000E+00 -0.00000000000E+00  0.11368683772E-12  0.17120000000E+03  0.17120000000E+03 0.  0.
         13    1    1    2    0    0  0.35448817042E+01  0.19919729755E+02  0.63912590390E+02  0.67038736520E+02  0.10566000000E+00 0.  1.
        994    1    1    2    0    0 -0.19916647283E+00 -0.22692866767E+02  0.47299886618E+01  0.17276231841E+03  0.17120000000E+03 0.  0.
        998    1    1    2    0    0 -0.33457152313E+01  0.27731370119E+01  0.14313574172E+04  0.14313989451E+04  0.10000000000E+02 0.  1.
</event>
<event>
 5    1  0.1344348E-008  0.3810364E+03  0.7957747E-01  0.3446658E+00
         13   -1    0    0    0    0  0.00000000000E+00  0.00000000000E+00  0.14999999963E+04  0.15000000000E+04  0.10566000000E+00 0. -1.
        994   -1    0    0    0    0 -0.00000000000E+00 -0.00000000000E+00  0.11368683772E-12  0.17120000000E+03  0.17120000000E+03 0.  0.
         13    1    1    2    0    0 -0.67792933169E+01  0.22183357621E+02  0.73401930565E+02  0.76979963289E+02  0.10566000000E+00 0. -1.
        994    1    1    2    0    0  0.11265057621E+01 -0.14508196490E+02  0.43166768574E+01  0.17187155227E+03  0.17120000000E+03 0.  0.
        998    1    1    2    0    0  0.56527875549E+01 -0.76751611313E+01  0.14222813889E+04  0.14223484844E+04  0.10000000000E+02 0. -1.
</event>
<event>
 5    1  0.1344348E-008  0.3847303E+03  0.7957747E-01  0.3430817E+00
         13   -1    0    0    0    0  0.00000000000E+00  0.00000000000E+00  0.14999999963E+04  0.15000000000E+04  0.10566000000E+00 0. -1.
        994   -1    0    0    0    0 -0.00000000000E+00 -0.00000000000E+00  0.11368683772E-12  0.17120000000E+03  0.17120000000E+03 0.  0.
         13    1    1    2    0    0 -0.11511824560E+02 -0.12030291553E+02  0.84001138618E+02  0.85635579479E+02  0.10566000000E+00 0. -1.
        994    1    1    2    0    0  0.74969168877E+01 -0.55015275798E+01  0.20487784827E+01  0.17146459711E+03  0.17120000000E+03 0.  0.
        998    1    1    2    0    0  0.40149076726E+01  0.17531819133E+02  0.14139500792E+04  0.14140998234E+04  0.10000000000E+02 0. -1.
</event>
<event>
 5    1  0.1344348E-008  0.3733426E+03  0.7957747E-01  0.3480669E+00
         13   -1    0    0    0    0  0.00000000000E+00  0.00000000000E+00  0.14999999963E+04  0.15000000000E+04  0.10566000000E+00 0. -1.
        994   -1    0    0    0    0 -0.00000000000E+00 -0.00000000000E+00  0.11368683772E-12  0.17120000000E+03  0.17120000000E+03 0.  0.
         13    1    1    2    0    0 -0.47133042992E+02  0.40685211492E+02  0.23743225875E+03  0.24546058509E+03  0.10566000000E+00 0. -1.
        994    1    1    2    0    0  0.12585306337E+02 -0.60180346226E+02  0.20565991741E+02  0.18306409813E+03  0.17120000000E+03 0.  0.
        998    1    1    2    0    0  0.34547736655E+02  0.19495134734E+02  0.12420017458E+04  0.12426753168E+04  0.10000000000E+02 0. -1.
</event>
<event>
 5    1  0.1344348E-008  0.3818759E+03  0.7957747E-01  0.3443031E+00
         13   -1    0    0    0    0  0.00000000000E+00  0.00000000000E+00  0.14999999963E+04  0.15000000000E+04  0.10566000000E+00 0. -1.
        994   -1    0    0    0    0 -0.00000000000E+00 -0.00000000000E+00  0.11368683772E-12  0.17120000000E+03  0.17120000000E+03 0.  0.
         13    1    1    2    0    0  0.98788255480E+02  0.15580173282E+03  0.77319865906E+03  0.79490218072E+03  0.10566000000E+00 0. -1.
        994    1    1    2    0    0 -0.13209775630E+03 -0.18831821431E+03  0.20538523691E+03  0.35271249283E+03  0.17120000000E+03 0.  0.
        998    1    1    2    0    0  0.33309500823E+02  0.32516481485E+02  0.52141610031E+03  0.52358532645E+03  0.10000000000E+02 0.  1.
</event>
<event>
 5    1  0.1344348E-008  0.3705455E+03  0.7957747E-01  0.3493388E+00
         13   -1    0    0    0    0  0.00000000000E+00  0.00000000000E+00  0.14999999963E+04  0.15000000000E+04  0.10566000000E+00 0. -1.
        994   -1    0    0    0    0 -0.00000000000E+00 -0.00000000000E+00  0.11368683772E-12  0.17120000000E+03  0.17120000000E+03 0.  0.
         13    1    1    2    0    0 -0.67689355061E+02  0.80845704043E+01  0.22662228985E+03  0.23665350724E+03  0.10566000000E+00 0. -1.
        994    1    1    2    0    0  0.60456436940E+02 -0.11011102486E+02  0.22131613810E+02  0.18323611400E+03  0.17120000000E+03 0.  0.
        998    1    1    2    0    0  0.72329181210E+01  0.29265320821E+01  0.12512460926E+04  0.12513103788E+04  0.10000000000E+02 0. -1.
</event>
<event>
 5    1  0.1344348E-008  0.3723360E+03  0.7957747E-01  0.3485223E+00
         13   -1    0    0    0    0  0.00000000000E+00  0.00000000000E+00  0.14999999963E+04  0.15000000000E+04  0.10566000000E+00 0.  1.
        994   -1    0    0    0    0 -0.00000000000E+00 -0.00000000000E+00  0.11368683772E-12  0.17120000000E+03  0.17120000000E+03 0.  0.
         13    1    1    2    0    0  0.16911523894E+02 -0.14825016145E+02  0.27389482021E+02  0.35439746522E+02  0.10566000000E+00 0.  1.
        994    1    1    2    0    0 -0.17857526580E+02  0.17822340445E+02  0.10239538653E+02  0.17335170961E+03  0.17120000000E+03 0.  0.
        998    1    1    2    0    0  0.94600268681E+00 -0.29973242997E+01  0.14623709756E+04  0.14624085439E+04  0.10000000000E+02 0.  1.
</event>
<event>
 5    1  0.1602974E-008  0.3860753E+03  0.7957747E-01  0.3425125E+00
         13   -1    0    0    0    0  0.00000000000E+00  0.00000000000E+00  0.14999999963E+04  0.15000000000E+04  0.10566000000E+00 0. -1.
        994   -1    0    0    0    0 -0.00000000000E+00 -0.00000000000E+00  0.11368683772E-12  0.17120000000E+03  0.17120000000E+03 0.  0.
         13    1    1    2    0    0 -0.87944244386E+01 -0.85549787854E+01  0.62531503934E+02  0.63723855122E+02  0.10566000000E+00 0. -1.
        994    1    1    2    0    0 -0.24140490673E+01  0.36416700349E+02  0.54747006266E+01  0.17513256706E+03  0.17120000000E+03 0.  0.
        998    1    1    2    0    0  0.11208473506E+02 -0.27861721563E+02  0.14319937917E+04  0.14323435778E+04  0.10000000000E+02 0. -1.
</event>
<event>
 5    1  0.1344348E-008  0.3727267E+03  0.7957747E-01  0.3483453E+00
         13   -1    0    0    0    0  0.00000000000E+00  0.00000000000E+00  0.14999999963E+04  0.15000000000E+04  0.10566000000E+00 0. -1.
        994   -1    0    0    0    0 -0.00000000000E+00 -0.00000000000E+00  0.11368683772E-12  0.17120000000E+03  0.17120000000E+03 0.  0.
         13    1    1    2    0    0  0.55651516086E+02  0.85659017139E+01  0.17455342757E+03  0.18341040362E+03  0.10566000000E+00 0. -1.
        994    1    1    2    0    0 -0.55135029402E+02 -0.31127192116E+02  0.21709914673E+02  0.18381929700E+03  0.17120000000E+03 0.  0.
        998    1    1    2    0    0 -0.51648668357E+00  0.22561290402E+02  0.13037366540E+04  0.13039702994E+04  0.10000000000E+02 0. -1.
</event>
<event>
 5    1  0.1344348E-008  0.3827564E+03  0.7957747E-01  0.3439244E+00
         13   -1    0    0    0    0  0.00000000000E+00  0.00000000000E+00  0.14999999963E+04  0.15000000000E+04  0.10566000000E+00 0.  1.
        994   -1    0    0    0    0 -0.00000000000E+00 -0.00000000000E+00  0.11368683772E-12  0.17120000000E+03  0.17120000000E+03 0.  0.
         13    1    1    2    0    0  0.20077642091E+02 -0.81660453611E+01  0.75739370183E+02  0.78779815743E+02  0.10566000000E+00 0.  1.
        994    1    1    2    0    0 -0.44116022833E+02 -0.14449085751E+02  0.99201822717E+01  0.17765936386E+03  0.17120000000E+03 0.  0.
        998    1    1    2    0    0  0.24038380742E+02  0.22615131112E+02  0.14143404438E+04  0.14147608204E+04  0.10000000000E+02 0.  1.
</event>
<event>
 5    1  0.1344348E-008  0.3840708E+03  0.7957747E-01  0.3433623E+00
         13   -1    0    0    0    0  0.00000000000E+00  0.00000000000E+00  0.14999999963E+04  0.15000000000E+04  0.10566000000E+00 0. -1.
        994   -1    0    0    0    0 -0.00000000000E+00 -0.00000000000E+00  0.11368683772E-12  0.17120000000E+03  0.17120000000E+03 0.  0.
         13    1    1    2    0    0 -0.22777859747E+02  0.60395804469E+01  0.13034197620E+03  0.13245508428E+03  0.10566000000E+00 0. -1.
        994    1    1    2    0    0  0.14234998484E+02 -0.10104876240E+02  0.30980451823E+01  0.17211560531E+03  0.17120000000E+03 0.  0.
        998    1    1    2    0    0  0.85428612628E+01  0.40652957928E+01  0.13665599749E+04  0.13666293104E+04  0.10000000000E+02 0. -1.
</event>
<event>
 5    1  0.1344348E-008  0.3756832E+03  0.7957747E-01  0.3470173E+00
         13   -1    0    0    0    0  0.00000000000E+00  0.00000000000E+00  0.14999999963E+04  0.15000000000E+04  0.10566000000E+00 0.  1.
        994   -1    0    0    0    0 -0.00000000000E+00 -0.00000000000E+00  0.11368683772E-12  0.17120000000E+03  0.17120000000E+03 0.  0.
         13    1    1    2    0    0  0.75722921357E+02 -0.10385984888E+03  0.71149780889E+03  0.72301450348E+03  0.10566000000E+00 0.  1.
        994    1    1    2    0    0 -0.88166353074E+02  0.88701957615E+02  0.61368969562E+02  0.22071912813E+03  0.17120000000E+03 0.  0.
        998    1    1    2    0    0  0.12443431717E+02  0.15157891262E+02  0.72713321783E+03  0.72746636838E+03  0.10000000000E+02 0. -1.
</event>
<event>
 5    1  0.1344348E-008  0.3821249E+03  0.7957747E-01  0.3441958E+00
         13   -1    0    0    0    0  0.00000000000E+00  0.00000000000E+00  0.14999999963E+04  0.15000000000E+04  0.10566000000E+00 0. -1.
        994   -1    0    0    0    0 -0.00000000000E+00 -0.00000000000E+00  0.11368683772E-12  0.17120000000E+03  0.17120000000E+03 0.  0.
         13    1    1    2    0    0 -0.29812792234E+02 -0.52643264466E+01  0.13927801585E+03  0.14253032161E+03  0.10566000000E+00 0. -1.
        994    1    1    2    0    0  0.27808901681E+02  0.14487648496E+00  0.56358188190E+01  0.17353546743E+03  0.17120000000E+03 0.  0.
        998    1    1    2    0    0  0.20038905532E+01  0.51194499616E+01  0.13550861616E+04  0.13551342110E+04  0.10000000000E+02 0. -1.
</event>
<event>
 5    1  0.1344348E-008  0.3837098E+03  0.7957747E-01  0.3435163E+00
         13   -1    0    0    0    0  0.00000000000E+00  0.00000000000E+00  0.14999999963E+04  0.15000000000E+04  0.10566000000E+00 0.  1.
        994   -1    0    0    0    0 -0.00000000000E+00 -0.00000000000E+00  0.11368683772E-12  0.17120000000E+03  0.17120000000E+03 0.  0.
         13    1    1    2    0    0 -0.11699130661E+02 -0.67958238801E+00  0.29548945421E+02  0.31788092581E+02  0.10566000000E+00 0.  1.
        994    1    1    2    0    0  0.78979477410E+01  0.43334251518E+00  0.24786978085E+01  0.17140055224E+03  0.17120000000E+03 0.  0.
        998    1    1    2    0    0  0.38011829197E+01  0.24623987283E+00  0.14679723530E+04  0.14680113552E+04  0.10000000000E+02 0.  1.
</event>
<event>
 5    1  0.1344348E-008  0.3841917E+03  0.7957747E-01  0.3433107E+00
         13   -1    0    0    0    0  0.00000000000E+00  0.00000000000E+00  0.14999999963E+04  0.15000000000E+04  0.10566000000E+00 0. -1.
        994   -1    0    0    0    0 -0.00000000000E+00 -0.00000000000E+00  0.11368683772E-12  0.17120000000E+03  0.17120000000E+03 0.  0.
         13    1    1    2    0    0  0.65554997025E+01  0.23468609270E+02  0.13506539064E+03  0.13724584187E+03  0.10566000000E+00 0. -1.
        994    1    1    2    0    0 -0.59251933559E+01 -0.23423852966E+02  0.39592307166E+01  0.17294189866E+03  0.17120000000E+03 0.  0.
        998    1    1    2    0    0 -0.63030634660E+00 -0.44756303404E-01  0.13609753749E+04  0.13610122595E+04  0.10000000000E+02 0. -1.
</event>
<event>
 5    1  0.1344348E-008  0.3724703E+03  0.7957747E-01  0.3484614E+00
         13   -1    0    0    0    0  0.00000000000E+00  0.00000000000E+00  0.14999999963E+04  0.15000000000E+04  0.10566000000E+00 0.  1.
        994   -1    0    0    0    0 -0.00000000000E+00 -0.00000000000E+00  0.11368683772E-12  0.17120000000E+03  0.17120000000E+03 0.  0.
         13    1    1    2    0    0 -0.15281745133E+02  0.14592806535E+02  0.24400665959E+02  0.32278249645E+02  0.10566000000E+00 0.  1.
        994    1    1    2    0    0  0.15414865060E+02 -0.10266227223E+02  0.91604221849E+01  0.17244235797E+03  0.17120000000E+03 0.  0.
        998    1    1    2    0    0 -0.13311992650E+00 -0.43265793121E+01  0.14664389081E+04  0.14664793924E+04  0.10000000000E+02 0.  1.
</event>
<event>
 5    1  0.1344348E-008  0.3826898E+03  0.7957747E-01  0.3439529E+00
         13   -1    0    0    0    0  0.00000000000E+00  0.00000000000E+00  0.14999999963E+04  0.15000000000E+04  0.10566000000E+00 0.  1.
        994   -1    0    0    0    0 -0.00000000000E+00 -0.00000000000E+00  0.11368683772E-12  0.17120000000E+03  0.17120000000E+03 0.  0.
         13    1    1    2    0    0  0.29468844539E+02  0.34013205568E+02  0.25563057453E+03  0.25956177058E+03  0.10566000000E+00 0.  1.
        994    1    1    2    0    0 -0.70743227926E+02 -0.25342667398E+02  0.21723028447E+02  0.18822376325E+03  0.17120000000E+03 0.  0.
        998    1    1    2    0    0  0.41274383387E+02 -0.86705381692E+01  0.12226463933E+04  0.12234144662E+04  0.10000000000E+02 0.  1.
</event>
<event>
 5    1  0.1344348E-008  0.3830745E+03  0.7957747E-01  0.3437880E+00
         13   -1    0    0    0    0  0.00000000000E+00  0.00000000000E+00  0.14999999963E+04  0.15000000000E+04  0.10566000000E+00 0.  1.
        994   -1    0    0    0    0 -0.00000000000E+00 -0.00000000000E+00  0.11368683772E-12  0.17120000000E+03  0.17120000000E+03 0.  0.
         13    1    1    2    0    0  0.12023729645E+02  0.26730397896E+02  0.17469379510E+03  0.17713559060E+03  0.10566000000E+00 0.  1.
        994    1    1    2    0    0 -0.42895128579E+02  0.40544463779E+01  0.87570600922E+01  0.17675564119E+03  0.17120000000E+03 0.  0.
        998    1    1    2    0    0  0.30871398934E+02 -0.30784844274E+02  0.13165491411E+04  0.13173087682E+04  0.10000000000E+02 0.  1.
</event>
<event>
 5    1  0.1344348E-008  0.3763111E+03  0.7957747E-01  0.3467380E+00
         13   -1    0    0    0    0  0.00000000000E+00  0.00000000000E+00  0.14999999963E+04  0.15000000000E+04  0.10566000000E+00 0.  1.
        994   -1    0    0    0    0 -0.00000000000E+00 -0.00000000000E+00  0.11368683772E-12  0.17120000000E+03  0.17120000000E+03 0.  0.
         13    1    1    2    0    0  0.85541582875E+02  0.63032278085E+02  0.35513851291E+03  0.37069368081E+03  0.10566000000E+00 0.  1.
        994    1    1    2    0    0 -0.52094912327E+02 -0.60872564313E+02  0.37639124515E+02  0.19273165975E+03  0.17120000000E+03 0.  0.
        998    1    1    2    0    0 -0.33446670548E+02 -0.21597137726E+01  0.11072223589E+04  0.11077746594E+04  0.10000000000E+02 0.  1.
</event>
<event>
 5    1  0.1344348E-008  0.3801077E+03  0.7957747E-01  0.3450690E+00
         13   -1    0    0    0    0  0.00000000000E+00  0.00000000000E+00  0.14999999963E+04  0.15000000000E+04  0.10566000000E+00 0. -1.
        994   -1    0    0    0    0 -0.00000000000E+00 -0.00000000000E+00  0.11368683772E-12  0.17120000000E+03  0.17120000000E+03 0.  0.
         13    1    1    2    0    0  0.18860413546E+02  0.24295690904E+02  0.11029655099E+03  0.11450474279E+03  0.10566000000E+00 0. -1.
        994    1    1    2    0    0 -0.22122768851E+02 -0.15249777843E+02  0.64951759471E+01  0.17341741532E+03  0.17120000000E+03 0.  0.
        998    1    1    2    0    0  0.32623553043E+01 -0.90459130610E+01  0.13832082693E+04  0.13832778419E+04  0.10000000000E+02 0. -1.
</event>
<event>
 5    1  0.1344348E-008  0.3721767E+03  0.7957747E-01  0.3485947E+00
         13   -1    0    0    0    0  0.00000000000E+00  0.00000000000E+00  0.14999999963E+04  0.15000000000E+04  0.10566000000E+00 0.  1.
        994   -1    0    0    0    0 -0.00000000000E+00 -0.00000000000E+00  0.11368683772E-12  0.17120000000E+03  0.17120000000E+03 0.  0.
         13    1    1    2    0    0  0.65654575127E+02  0.94970040308E+02  0.49288878795E+03  0.50623038257E+03  0.10566000000E+00 0.  1.
        994    1    1    2    0    0 -0.98815348873E+02 -0.36180560337E+02  0.52200633241E+02  0.20762430549E+03  0.17120000000E+03 0.  0.
        998    1    1    2    0    0  0.33160773746E+02 -0.58789479971E+02  0.95491057509E+03  0.95734531194E+03  0.10000000000E+02 0.  1.
</event>
<event>
 5    1  0.1344348E-008  0.3831840E+03  0.7957747E-01  0.3437411E+00
         13   -1    0    0    0    0  0.00000000000E+00  0.00000000000E+00  0.14999999963E+04  0.15000000000E+04  0.10566000000E+00 0. -1.
        994   -1    0    0    0    0 -0.00000000000E+00 -0.00000000000E+00  0.11368683772E-12  0.17120000000E+03  0.17120000000E+03 0.  0.
         13    1    1    2    0    0 -0.20021463851E+02 -0.12461520271E+02  0.11915901305E+03  0.12147028467E+03  0.10566000000E+00 0. -1.
        994    1    1    2    0    0  0.58047981187E+01 -0.54395593173E+01  0.27438158056E+01  0.17140668894E+03  0.17120000000E+03 0.  0.
        998    1    1    2    0    0  0.14216665732E+02  0.17901079588E+02  0.13780971674E+04  0.13783230264E+04  0.10000000000E+02 0. -1.
</event>
<event>
 5    1  0.1344348E-008  0.3827803E+03  0.7957747E-01  0.3439141E+00
         13   -1    0    0    0    0  0.00000000000E+00  0.00000000000E+00  0.14999999963E+04  0.15000000000E+04  0.10566000000E+00 0.  1.
        994   -1    0    0    0    0 -0.00000000000E+00 -0.00000000000E+00  0.11368683772E-12  0.17120000000E+03  0.17120000000E+03 0.  0.
         13    1    1    2    0    0  0.26830004099E+02  0.24982752602E+02  0.21197153602E+03  0.21511840994E+03  0.10566000000E+00 0.  1.
        994    1    1    2    0    0 -0.29587290782E+02 -0.22889179033E+02  0.73853039132E+01  0.17539471203E+03  0.17120000000E+03 0.  0.
        998    1    1    2    0    0  0.27572866827E+01 -0.20935735685E+01  0.12806431563E+04  0.12806868780E+04  0.10000000000E+02 0.  1.
</event>
<event>
 5    1  0.1344348E-008  0.3741134E+03  0.7957747E-01  0.3477197E+00
         13   -1    0    0    0    0  0.00000000000E+00  0.00000000000E+00  0.14999999963E+04  0.15000000000E+04  0.10566000000E+00 0. -1.
        994   -1    0    0    0    0 -0.00000000000E+00 -0.00000000000E+00  0.11368683772E-12  0.17120000000E+03  0.17120000000E+03 0.  0.
         13    1    1    2    0    0  0.97934906182E+01  0.74739702442E+02  0.29085404035E+03  0.30046300859E+03  0.10566000000E+00 0. -1.
        994    1    1    2    0    0 -0.18006569035E+02 -0.86057270428E+02  0.33965463852E+02  0.19543076282E+03  0.17120000000E+03 0.  0.
        998    1    1    2    0    0  0.82130784169E+01  0.11317567986E+02  0.11751804921E+04  0.11753062286E+04  0.10000000000E+02 0. -1.
</event>
<event>
 5    1  0.1344348E-008  0.3858875E+03  0.7957747E-01  0.3425917E+00
         13   -1    0    0    0    0  0.00000000000E+00  0.00000000000E+00  0.14999999963E+04  0.15000000000E+04  0.10566000000E+00 0. -1.
        994   -1    0    0    0    0 -0.00000000000E+00 -0.00000000000E+00  0.11368683772E-12  0.17120000000E+03  0.17120000000E+03 0.  0.
         13    1    1    2    0    0  0.91302042056E+01 -0.42955104889E+01  0.37218584249E+02  0.38562238222E+02  0.10566000000E+00 0. -1.
        994    1    1    2    0    0 -0.26337664335E+02  0.23643867039E+02  0.53088501643E+01  0.17490091167E+03  0.17120000000E+03 0.  0.
        998    1    1    2    0    0  0.17207460130E+02 -0.19348356550E+02  0.14574725619E+04  0.14577368501E+04  0.10000000000E+02 0. -1.
</event>
<event>
 5    1  0.1344348E-008  0.3692924E+03  0.7957747E-01  0.3499149E+00
         13   -1    0    0    0    0  0.00000000000E+00  0.00000000000E+00  0.14999999963E+04  0.15000000000E+04  0.10566000000E+00 0. -1.
        994   -1    0    0    0    0 -0.00000000000E+00 -0.00000000000E+00  0.11368683772E-12  0.17120000000E+03  0.17120000000E+03 0.  0.
         13    1    1    2    0    0 -0.97070776365E+01  0.51416238476E+02  0.11769622197E+03  0.12880321722E+03  0.10566000000E+00 0. -1.
        994    1    1    2    0    0  0.85958835224E+01 -0.49470764340E+02  0.19409793668E+02  0.17946427452E+03  0.17120000000E+03 0.  0.
        998    1    1    2    0    0  0.11111941142E+01 -0.19454741358E+01  0.13628939806E+04  0.13629325083E+04  0.10000000000E+02 0. -1.
</event>
<event>
 5    1  0.1344348E-008  0.3816056E+03  0.7957747E-01  0.3444197E+00
         13   -1    0    0    0    0  0.00000000000E+00  0.00000000000E+00  0.14999999963E+04  0.15000000000E+04  0.10566000000E+00 0. -1.
        994   -1    0    0    0    0 -0.00000000000E+00 -0.00000000000E+00  0.11368683772E-12  0.17120000000E+03  0.17120000000E+03 0.  0.
         13    1    1    2    0    0 -0.50190477722E+01 -0.27182048337E+02  0.10747891898E+03  0.11097650103E+03  0.10566000000E+00 0. -1.
        994    1    1    2    0    0  0.50298751012E+01  0.26124453929E+02  0.56819841037E+01  0.17334794974E+03  0.17120000000E+03 0.  0.
        998    1    1    2    0    0 -0.10827328934E-01  0.10575944083E+01  0.13868390932E+04  0.13868755492E+04  0.10000000000E+02 0.  0.
</event>
<event>
 5    1  0.1344348E-008  0.3838967E+03  0.7957747E-01  0.3434365E+00
         13   -1    0    0    0    0  0.00000000000E+00  0.00000000000E+00  0.14999999963E+04  0.15000000000E+04  0.10566000000E+00 0. -1.
        994   -1    0    0    0    0 -0.00000000000E+00 -0.00000000000E+00  0.11368683772E-12  0.17120000000E+03  0.17120000000E+03 0.  0.
         13    1    1    2    0    0  0.90014974278E+01 -0.11410543471E+02  0.47318691343E+02  0.49500476490E+02  0.10566000000E+00 0. -1.
        994    1    1    2    0    0 -0.84784493648E+01  0.92094705325E+01  0.26962401223E+01  0.17167821109E+03  0.17120000000E+03 0.  0.
        998    1    1    2    0    0 -0.52304806308E+00  0.22010729384E+01  0.14499850648E+04  0.14500213124E+04  0.10000000000E+02 0. -1.
</event>
<event>
 5    1  0.1344348E-008  0.3843817E+03  0.7957747E-01  0.3432299E+00
         13   -1    0    0    0    0  0.00000000000E+00  0.00000000000E+00  0.14999999963E+04  0.15000000000E+04  0.10566000000E+00 0. -1.
        994   -1    0    0    0    0 -0.00000000000E+00 -0.00000000000E+00  0.11368683772E-12  0.17120000000E+03  0.17120000000E+03 0.  0.
         13    1    1    2    0    0  0.18418926650E+02  0.68076783962E+01  0.10902058286E+03  0.11077499715E+03  0.10566000000E+00 0. -1.
        994    1    1    2    0    0  0.99606494608E+00 -0.33073402560E+01  0.19767450028E+01  0.17124625008E+03  0.17120000000E+03 0.  0.
        998    1    1    2    0    0 -0.19414991597E+02 -0.35003381402E+01  0.13890026684E+04  0.13891787528E+04  0.10000000000E+02 0. -1.
</event>
<event>
 5    1  0.1344348E-008  0.3817384E+03  0.7957747E-01  0.3443624E+00
         13   -1    0    0    0    0  0.00000000000E+00  0.00000000000E+00  0.14999999963E+04  0.15000000000E+04  0.10566000000E+00 0.  1.
        994   -1    0    0    0    0 -0.00000000000E+00 -0.00000000000E+00  0.11368683772E-12  0.17120000000E+03  0.17120000000E+03 0.  0.
         13    1    1    2    0    0  0.22617314275E+02 -0.11560487052E+02  0.95316306146E+02  0.98642775444E+02  0.10566000000E+00 0.  1.
        994    1    1    2    0    0 -0.18351027964E+02  0.91813125149E+01  0.46589687523E+01  0.17248826835E+03  0.17120000000E+03 0.  0.
        998    1    1    2    0    0 -0.42662863112E+01  0.23791745369E+01  0.14000247214E+04  0.14000689562E+04  0.10000000000E+02 0.  1.
</event>
<event>
 5    1  0.1344348E-008  0.3798849E+03  0.7957747E-01  0.3451660E+00
         13   -1    0    0    0    0  0.00000000000E+00  0.00000000000E+00  0.14999999963E+04  0.15000000000E+04  0.10566000000E+00 0. -1.
        994   -1    0    0    0    0 -0.00000000000E+00 -0.00000000000E+00  0.11368683772E-12  0.17120000000E+03  0.17120000000E+03 0.  0.
         13    1    1    2    0    0 -0.37626101794E+02 -0.13892703216E+02  0.21319811440E+03  0.21693818910E+03  0.10566000000E+00 0. -1.
        994    1    1    2    0    0  0.81212426869E+01  0.29063059569E+01  0.44401311254E+01  0.17147465108E+03  0.17120000000E+03 0.  0.
        998    1    1    2    0    0  0.29504859107E+02  0.10986397259E+02  0.12823617507E+04  0.12827871598E+04  0.10000000000E+02 0. -1.
</event>
<event>
 5    1  0.1344348E-008  0.3845418E+03  0.7957747E-01  0.3431618E+00
         13   -1    0    0    0    0  0.00000000000E+00  0.00000000000E+00  0.14999999963E+04  0.15000000000E+04  0.10566000000E+00 0. -1.
        994   -1    0    0    0    0 -0.00000000000E+00 -0.00000000000E+00  0.11368683772E-12  0.17120000000E+03  0.17120000000E+03 0.  0.
         13    1    1    2    0    0  0.10465759507E+02 -0.51658243109E+01  0.36959190639E+02  0.38758364253E+02  0.10566000000E+00 0. -1.
        994    1    1    2    0    0 -0.36439412879E+01  0.17656194770E+01  0.19118199073E+01  0.17125854950E+03  0.17120000000E+03 0.  0.
        998    1    1    2    0    0 -0.68218182188E+01  0.34002048339E+01  0.14611289857E+04  0.14611830863E+04  0.10000000000E+02 0. -1.
</event>
<event>
 5    1  0.1344348E-008  0.3804690E+03  0.7957747E-01  0.3449119E+00
         13   -1    0    0    0    0  0.00000000000E+00  0.00000000000E+00  0.14999999963E+04  0.15000000000E+04  0.10566000000E+00 0.  1.
        994   -1    0    0    0    0 -0.00000000000E+00 -0.00000000000E+00  0.11368683772E-12  0.17120000000E+03  0.17120000000E+03 0.  0.
         13    1    1    2    0    0  0.13491511874E+02 -0.70451814624E+01  0.31014053842E+02  0.34547621832E+02  0.10566000000E+00 0.  1.
        994    1    1    2    0    0  0.20393187005E+02 -0.36863763240E+01  0.53313479966E+01  0.17253212663E+03  0.17120000000E+03 0.  0.
        998    1    1    2    0    0 -0.33884698879E+02  0.10731557786E+02  0.14636545944E+04  0.14641202515E+04  0.10000000000E+02 0.  1.
</event>
<event>
 5    1  0.1928592E-008  0.3857495E+03  0.7957747E-01  0.3426500E+00
         13   -1    0    0    0    0  0.00000000000E+00  0.00000000000E+00  0.14999999963E+04  0.15000000000E+04  0.10566000000E+00 0. -1.
        994   -1    0    0    0    0 -0.00000000000E+00 -0.00000000000E+00  0.11368683772E-12  0.17120000000E+03  0.17120000000E+03 0.  0.
         13    1    1    2    0    0  0.10638391823E+02  0.45119044255E+01  0.52066991331E+02  0.53333998654E+02  0.10566000000E+00 0. -1.
        994    1    1    2    0    0 -0.10208072884E+02 -0.64667644420E+01  0.17377001850E+01  0.17163473831E+03  0.17120000000E+03 0.  0.
        998    1    1    2    0    0 -0.43031893840E+00  0.19548600165E+01  0.14461953048E+04  0.14462312630E+04  0.10000000000E+02 0. -1.
</event>
<event>
 5    1  0.1344348E-008  0.3824064E+03  0.7957747E-01  0.3440747E+00
         13   -1    0    0    0    0  0.00000000000E+00  0.00000000000E+00  0.14999999963E+04  0.15000000000E+04  0.10566000000E+00 0.  1.
        994   -1    0    0    0    0 -0.00000000000E+00 -0.00000000000E+00  0.11368683772E-12  0.17120000000E+03  0.17120000000E+03 0.  0.
         13    1    1    2    0    0  0.17407102353E+02  0.49912891806E+00  0.50812633099E+02  0.53713975728E+02  0.10566000000E+00 0.  1.
        994    1    1    2    0    0 -0.11972050950E+02  0.23743693877E+01  0.34175319178E+01  0.17166853864E+03  0.17120000000E+03 0.  0.
        998    1    1    2    0    0 -0.54350514037E+01 -0.28734983058E+01  0.14457698313E+04  0.14458174856E+04  0.10000000000E+02 0.  1.
</event>
<event>
 5    1  0.1344348E-008  0.3761597E+03  0.7957747E-01  0.3468052E+00
         13   -1    0    0    0    0  0.00000000000E+00  0.00000000000E+00  0.14999999963E+04  0.15000000000E+04  0.10566000000E+00 0. -1.
        994   -1    0    0    0    0 -0.00000000000E+00 -0.00000000000E+00  0.11368683772E-12  0.17120000000E+03  0.17120000000E+03 0.  0.
         13    1    1    2    0    0  0.11662065230E+02 -0.16716164144E+02  0.31483866922E+02  0.37505718890E+02  0.10566000000E+00 0. -1.
        994    1    1    2    0    0 -0.62622191203E+01  0.14915095984E+02  0.69709172225E+01  0.17210377440E+03  0.17120000000E+03 0.  0.
        998    1    1    2    0    0 -0.53998461094E+01  0.18010681592E+01  0.14615452121E+04  0.14615905067E+04  0.10000000000E+02 0. -1.
</event>
<event>
 5    1  0.1344348E-008  0.3844575E+03  0.7957747E-01  0.3431976E+00
         13   -1    0    0    0    0  0.00000000000E+00  0.00000000000E+00  0.14999999963E+04  0.15000000000E+04  0.10566000000E+00 0. -1.
        994   -1    0    0    0    0 -0.00000000000E+00 -0.00000000000E+00  0.11368683772E-12  0.17120000000E+03  0.17120000000E+03 0.  0.
         13    1    1    2    0    0  0.38836834603E+01 -0.11056721415E+02  0.37640559924E+02  0.39422797986E+02  0.10566000000E+00 0. -1.
        994    1    1    2    0    0  0.31069275616E+01 -0.22948392468E+01  0.19488870541E+01  0.17125465672E+03  0.17120000000E+03 0.  0.
        998    1    1    2    0    0 -0.69906110219E+01  0.13351560662E+02  0.14604105493E+04  0.14605225453E+04  0.10000000000E+02 0. -1.
</event>
<event>
 5    1  0.1344348E-008  0.3709220E+03  0.7957747E-01  0.3491664E+00
         13   -1    0    0    0    0  0.00000000000E+00  0.00000000000E+00  0.14999999963E+04  0.15000000000E+04  0.10566000000E+00 0. -1.
        994   -1    0    0    0    0 -0.00000000000E+00 -0.00000000000E+00  0.11368683772E-12  0.17120000000E+03  0.17120000000E+03 0.  0.
         13    1    1    2    0    0  0.31011614423E+02  0.21754370065E+02  0.60500836420E+02  0.71381616805E+02  0.10566000000E+00 0. -1.
        994    1    1    2    0    0 -0.11805536153E+02 -0.74736113420E+01  0.12112169585E+02  0.17219573224E+03  0.17120000000E+03 0.  0.
        998    1    1    2    0    0 -0.19206078271E+02 -0.14280758723E+02  0.14273869903E+04  0.14276226510E+04  0.10000000000E+02 0. -1.
</event>
<event>
 5    1  0.1344348E-008  0.2319814E+03  0.7957747E-01  0.4545330E+00
         13   -1    0    0    0    0  0.00000000000E+00  0.00000000000E+00  0.14999999963E+04  0.15000000000E+04  0.10566000000E+00 0. -1.
        994   -1    0    0    0    0 -0.00000000000E+00 -0.00000000000E+00  0.11368683772E-12  0.17120000000E+03  0.17120000000E+03 0.  0.
         13    1    1    2    0    0  0.20636549382E+02 -0.15586555817E+03  0.18976695165E+03  0.24643751033E+03  0.10566000000E+00 0. -1.
        994    1    1    2    0    0 -0.73283241991E+01  0.14780347679E+03  0.16666505121E+03  0.28104492770E+03  0.17120000000E+03 0.  0.
        998    1    1    2    0    0 -0.13308225183E+02  0.80620813730E+01  0.11435679934E+04  0.11437175620E+04  0.10000000000E+02 0. -1.
</event>
<event>
 5    1  0.1344348E-008  0.3846512E+03  0.7957747E-01  0.3431153E+00
         13   -1    0    0    0    0  0.00000000000E+00  0.00000000000E+00  0.14999999963E+04  0.15000000000E+04  0.10566000000E+00 0. -1.
        994   -1    0    0    0    0 -0.00000000000E+00 -0.00000000000E+00  0.11368683772E-12  0.17120000000E+03  0.17120000000E+03 0.  0.
         13    1    1    2    0    0 -0.49634350284E+01  0.23433178783E+02  0.13170518538E+03  0.13386566616E+03  0.10566000000E+00 0. -1.
        994    1    1    2    0    0  0.10780667857E+02 -0.35732572403E+02  0.64033434201E+01  0.17533819418E+03  0.17120000000E+03 0.  0.
        998    1    1    2    0    0 -0.58172328284E+01  0.12299393620E+02  0.13618914675E+04  0.13619961397E+04  0.10000000000E+02 0. -1.
</event>
<event>
 5    1  0.1344348E-008  0.3801939E+03  0.7957747E-01  0.3450315E+00
         13   -1    0    0    0    0  0.00000000000E+00  0.00000000000E+00  0.14999999963E+04  0.15000000000E+04  0.10566000000E+00 0. -1.
        994   -1    0    0    0    0 -0.00000000000E+00 -0.00000000000E+00  0.11368683772E-12  0.17120000000E+03  0.17120000000E+03 0.  0.
         13    1    1    2    0    0  0.10643603646E+02  0.20040885487E+02  0.62094219522E+02  0.66110715106E+02  0.10566000000E+00 0. -1.
        994    1    1    2    0    0 -0.48089060861E+01 -0.14956773341E+02  0.48603404717E+01  0.17198806225E+03  0.17120000000E+03 0.  0.
        998    1    1    2    0    0 -0.58346975595E+01 -0.50841121464E+01  0.14330454363E+04  0.14331012226E+04  0.10000000000E+02 0. -1.
</event>
<event>
 5    1  0.2026213E-008  0.3864061E+03  0.7957747E-01  0.3423731E+00
         13   -1    0    0    0    0  0.00000000000E+00  0.00000000000E+00  0.14999999963E+04  0.15000000000E+04  0.10566000000E+00 0.  1.
        994   -1    0    0    0    0 -0.00000000000E+00 -0.00000000000E+00  0.11368683772E-12  0.17120000000E+03  0.17120000000E+03 0.  0.
         13    1    1    2    0    0  0.13373101256E+01 -0.10888807088E+02  0.66153243084E+02  0.67056821075E+02  0.10566000000E+00 0.  1.
        994    1    1    2    0    0 -0.48496585601E+01  0.60088263665E+01  0.11288567450E+01  0.17137776839E+03  0.17120000000E+03 0.  0.
        998    1    1    2    0    0  0.35123484345E+01  0.48799807211E+01  0.14327178964E+04  0.14327654105E+04  0.10000000000E+02 0.  1.
</event>
<event>
 5    1  0.1344348E-008  0.3845080E+03  0.7957747E-01  0.3431761E+00
         13   -1    0    0    0    0  0.00000000000E+00  0.00000000000E+00  0.14999999963E+04  0.15000000000E+04  0.10566000000E+00 0. -1.
        994   -1    0    0    0    0 -0.00000000000E+00 -0.00000000000E+00  0.11368683772E-12  0.17120000000E+03  0.17120000000E+03 0.  0.
         13    1    1    2    0    0 -0.18456890882E+02 -0.78577750386E+01  0.11014129532E+03  0.11195319356E+03  0.10566000000E+00 0. -1.
        994    1    1    2    0    0  0.42876890327E+01  0.13441979034E+02  0.25305795334E+01  0.17179905387E+03  0.17120000000E+03 0.  0.
        998    1    1    2    0    0  0.14169201849E+02 -0.55842039954E+01  0.13873281214E+04  0.13874477526E+04  0.10000000000E+02 0. -1.
</event>
<event>
 5    1  0.1344348E-008  0.3836091E+03  0.7957747E-01  0.3435593E+00
         13   -1    0    0    0    0  0.00000000000E+00  0.00000000000E+00  0.14999999963E+04  0.15000000000E+04  0.10566000000E+00 0. -1.
        994   -1    0    0    0    0 -0.00000000000E+00 -0.00000000000E+00  0.11368683772E-12  0.17120000000E+03  0.17120000000E+03 0.  0.
         13    1    1    2    0    0  0.17085883857E+02 -0.58869261025E+01  0.65917297197E+02  0.68349722457E+02  0.10566000000E+00 0. -1.
        994    1    1    2    0    0 -0.20655989803E+02  0.81679729466E+01  0.39538794702E+01  0.17268022139E+03  0.17120000000E+03 0.  0.
        998    1    1    2    0    0  0.35701059460E+01 -0.22810468441E+01  0.14301288196E+04  0.14301700562E+04  0.10000000000E+02 0. -1.
</event>
<event>
 5    1  0.1344348E-008  0.3786174E+03  0.7957747E-01  0.3457201E+00
         13   -1    0    0    0    0  0.00000000000E+00  0.00000000000E+00  0.14999999963E+04  0.15000000000E+04  0.10566000000E+00 0. -1.
        994   -1    0    0    0    0 -0.00000000000E+00 -0.00000000000E+00  0.11368683772E-12  0.17120000000E+03  0.17120000000E+03 0.  0.
         13    1    1    2    0    0 -0.16484729760E+02 -0.99063630129E+01  0.36844951949E+02  0.41562531102E+02  0.10566000000E+00 0. -1.
        994    1    1    2    0    0  0.90340336149E+01  0.17620205383E+01  0.51172474741E+01  0.17152359809E+03  0.17120000000E+03 0.  0.
        998    1    1    2    0    0  0.74506961450E+01  0.81443424745E+01  0.14580377969E+04  0.14581138708E+04  0.10000000000E+02 0. -1.
</event>
<event>
 5    1  0.1344348E-008  0.3760038E+03  0.7957747E-01  0.3468746E+00
         13   -1    0    0    0    0  0.00000000000E+00  0.00000000000E+00  0.14999999963E+04  0.15000000000E+04  0.10566000000E+00 0. -1.
        994   -1    0    0    0    0 -0.00000000000E+00 -0.00000000000E+00  0.11368683772E-12  0.17120000000E+03  0.17120000000E+03 0.  0.
         13    1    1    2    0    0 -0.12735561190E+02 -0.28667812689E+01  0.10934621022E+02  0.17029094357E+02  0.10566000000E+00 0. -1.
        994    1    1    2    0    0  0.13704405260E+02  0.64244816221E+01  0.69406311706E+01  0.17200784008E+03  0.17120000000E+03 0.  0.
        998    1    1    2    0    0 -0.96884406976E+00 -0.35577003532E+01  0.14821247441E+04  0.14821630656E+04  0.10000000000E+02 0. -1.
</event>
<event>
 5    1  0.1344348E-008  0.3728767E+03  0.7957747E-01  0.3482774E+00
         13   -1    0    0    0    0  0.00000000000E+00  0.00000000000E+00  0.14999999963E+04  0.15000000000E+04  0.10566000000E+00 0.  1.
        994   -1    0    0    0    0 -0.00000000000E+00 -0.00000000000E+00  0.11368683772E-12  0.17120000000E+03  0.17120000000E+03 0.  0.
         13    1    1    2    0    0  0.56983844012E+01  0.68228112269E+02  0.27356605988E+03  0.28200345241E+03  0.10566000000E+00 0.  1.
        994    1    1    2    0    0  0.15928228099E+01 -0.53147488962E+02  0.17515358543E+02  0.18012057199E+03  0.17120000000E+03 0.  0.
        998    1    1    2    0    0 -0.72912072111E+01 -0.15080623307E+02  0.12089185779E+04  0.12090759756E+04  0.10000000000E+02 0.  1.
</event>
<event>
 5    1  0.1344348E-008  0.3518854E+03  0.7957747E-01  0.3583522E+00
         13   -1    0    0    0    0  0.00000000000E+00  0.00000000000E+00  0.14999999963E+04  0.15000000000E+04  0.10566000000E+00 0. -1.
        994   -1    0    0    0    0 -0.00000000000E+00 -0.00000000000E+00  0.11368683772E-12  0.17120000000E+03  0.17120000000E+03 0.  0.
         13    1    1    2    0    0 -0.29975896297E+03  0.57946590596E+02  0.69626182053E+03  0.76025901977E+03  0.10566000000E+00 0. -1.
        994    1    1    2    0    0  0.29213955128E+03 -0.43307234109E+02  0.49325726304E+03  0.59986098514E+03  0.17120000000E+03 0.  0.
        998    1    1    2    0    0  0.76194116902E+01 -0.14639356487E+02  0.31048091271E+03  0.31107999509E+03  0.10000000000E+02 0.  1.
</event>
<event>
 5    1  0.1344348E-008  0.3785289E+03  0.7957747E-01  0.3457589E+00
         13   -1    0    0    0    0  0.00000000000E+00  0.00000000000E+00  0.14999999963E+04  0.15000000000E+04  0.10566000000E+00 0. -1.
        994   -1    0    0    0    0 -0.00000000000E+00 -0.00000000000E+00  0.11368683772E-12  0.17120000000E+03  0.17120000000E+03 0.  0.
         13    1    1    2    0    0 -0.12203239529E+02 -0.37316584751E+02  0.13824203174E+03  0.14370914047E+03  0.10566000000E+00 0. -1.
        994    1    1    2    0    0  0.15889063664E+02  0.42473489596E+02  0.11817029628E+02  0.17749800521E+03  0.17120000000E+03 0.  0.
        998    1    1    2    0    0 -0.36858241352E+01 -0.51569048446E+01  0.13499409349E+04  0.13499928543E+04  0.10000000000E+02 0. -1.
</event>
<event>
 5    1  0.1344348E-008  0.3806861E+03  0.7957747E-01  0.3448176E+00
         13   -1    0    0    0    0  0.00000000000E+00  0.00000000000E+00  0.14999999963E+04  0.15000000000E+04  0.10566000000E+00 0.  1.
        994   -1    0    0    0    0 -0.00000000000E+00 -0.00000000000E+00  0.11368683772E-12  0.17120000000E+03  0.17120000000E+03 0.  0.
         13    1    1    2    0    0 -0.52278981084E+02  0.21588247874E+02  0.32314405886E+03  0.32805676071E+03  0.10566000000E+00 0.  1.
        994    1    1    2    0    0  0.54285089967E+02 -0.24117419454E+02  0.15646991369E+02  0.18188674843E+03  0.17120000000E+03 0.  0.
        998    1    1    2    0    0 -0.20061088822E+01  0.25291715803E+01  0.11612089461E+04  0.11612564909E+04  0.10000000000E+02 0.  1.
</event>
<event>
 5    1  0.1344348E-008  0.3826325E+03  0.7957747E-01  0.3439776E+00
         13   -1    0    0    0    0  0.00000000000E+00  0.00000000000E+00  0.14999999963E+04  0.15000000000E+04  0.10566000000E+00 0. -1.
        994   -1    0    0    0    0 -0.00000000000E+00 -0.00000000000E+00  0.11368683772E-12  0.17120000000E+03  0.17120000000E+03 0.  0.
         13    1    1    2    0    0  0.10311742842E+02 -0.13639199232E+02  0.52445846446E+02  0.55162829601E+02  0.10566000000E+00 0. -1.
        994    1    1    2    0    0 -0.45862103370E+01  0.35119072161E+01  0.29207524559E+01  0.17132232082E+03  0.17120000000E+03 0.  0.
        998    1    1    2    0    0 -0.57255325052E+01  0.10127292016E+02  0.14446333974E+04  0.14447148496E+04  0.10000000000E+02 0. -1.
</event>
<event>
 5    1  0.1344348E-008  0.3947033E+03  0.7957747E-01  0.3389534E+00
         13   -1    0    0    0    0  0.00000000000E+00  0.00000000000E+00  0.14999999963E+04  0.15000000000E+04  0.10566000000E+00 0. -1.
        994   -1    0    0    0    0 -0.00000000000E+00 -0.00000000000E+00  0.11368683772E-12  0.17120000000E+03  0.17120000000E+03 0.  0.
         13    1    1    2    0    0  0.25545384131E+02  0.78417566114E+01  0.41466716267E+01  0.27041927571E+02  0.10566000000E+00 0. -1.
        994    1    1    2    0    0 -0.12931789333E+02 -0.90516832251E+01  0.25606458788E+02  0.17382259599E+03  0.17120000000E+03 0.  0.
        998    1    1    2    0    0 -0.12613594798E+02  0.12099266137E+01  0.14702468659E+04  0.14703354764E+04  0.10000000000E+02 0. -1.
</event>
<event>
 5    1  0.1344348E-008  0.3847700E+03  0.7957747E-01  0.3430648E+00
         13   -1    0    0    0    0  0.00000000000E+00  0.00000000000E+00  0.14999999963E+04  0.15000000000E+04  0.10566000000E+00 0. -1.
        994   -1    0    0    0    0 -0.00000000000E+00 -0.00000000000E+00  0.11368683772E-12  0.17120000000E+03  0.17120000000E+03 0.  0.
         13    1    1    2    0    0  0.11880818783E+02  0.11793779187E+02  0.83682775558E+02  0.85340876323E+02  0.10566000000E+00 0. -1.
        994    1    1    2    0    0  0.22930442679E+02 -0.33164361428E+02  0.71130470570E+01  0.17602759871E+03  0.17120000000E+03 0.  0.
        998    1    1    2    0    0 -0.34811261462E+02  0.21370582241E+02  0.14092041737E+04  0.14098315250E+04  0.10000000000E+02 0. -1.
</event>
<event>
 5    1  0.1344348E-008  0.3848304E+03  0.7957747E-01  0.3430392E+00
         13   -1    0    0    0    0  0.00000000000E+00  0.00000000000E+00  0.14999999963E+04  0.15000000000E+04  0.10566000000E+00 0. -1.
        994   -1    0    0    0    0 -0.00000000000E+00 -0.00000000000E+00  0.11368683772E-12  0.17120000000E+03  0.17120000000E+03 0.  0.
         13    1    1    2    0    0  0.13308638621E+02 -0.12565215126E+02  0.84401493187E+02  0.86363347025E+02  0.10566000000E+00 0. -1.
        994    1    1    2    0    0 -0.50682268786E+02 -0.28904798554E+01  0.10240505780E+02  0.17886127362E+03  0.17120000000E+03 0.  0.
        998    1    1    2    0    0  0.37373630164E+02  0.15455694981E+02  0.14053579973E+04  0.14059753794E+04  0.10000000000E+02 0. -1.
</event>
<event>
 5    1  0.1344348E-008  0.3684910E+03  0.7957747E-01  0.3502855E+00
         13   -1    0    0    0    0  0.00000000000E+00  0.00000000000E+00  0.14999999963E+04  0.15000000000E+04  0.10566000000E+00 0.  1.
        994   -1    0    0    0    0 -0.00000000000E+00 -0.00000000000E+00  0.11368683772E-12  0.17120000000E+03  0.17120000000E+03 0.  0.
         13    1    1    2    0    0 -0.21878063324E+02  0.83319389592E+02  0.46531478504E+03  0.47322154502E+03  0.10566000000E+00 0.  1.
        994    1    1    2    0    0  0.27628411902E+02 -0.15764533929E+02  0.13670050858E+02  0.17466585231E+03  0.17120000000E+03 0.  0.
        998    1    1    2    0    0 -0.57503485776E+01 -0.67554855663E+02  0.10210151604E+04  0.10233126027E+04  0.10000000000E+02 0.  1.
</event>
<event>
 5    1  0.1344348E-008  0.3741128E+03  0.7957747E-01  0.3477200E+00
         13   -1    0    0    0    0  0.00000000000E+00  0.00000000000E+00  0.14999999963E+04  0.15000000000E+04  0.10566000000E+00 0. -1.
        994   -1    0    0    0    0 -0.00000000000E+00 -0.00000000000E+00  0.11368683772E-12  0.17120000000E+03  0.17120000000E+03 0.  0.
         13    1    1    2    0    0  0.95606529800E+02  0.95509592692E+02  0.63030372388E+03  0.64462817681E+03  0.10566000000E+00 0. -1.
        994    1    1    2    0    0 -0.11520721311E+03 -0.87422271173E+02  0.82171896336E+02  0.23869858818E+03  0.17120000000E+03 0.  0.
        998    1    1    2    0    0  0.19600683315E+02 -0.80873215193E+01  0.78752437606E+03  0.78787323501E+03  0.10000000000E+02 0. -1.
</event>
<event>
 5    1  0.1344348E-008  0.3813520E+03  0.7957747E-01  0.3445293E+00
         13   -1    0    0    0    0  0.00000000000E+00  0.00000000000E+00  0.14999999963E+04  0.15000000000E+04  0.10566000000E+00 0. -1.
        994   -1    0    0    0    0 -0.00000000000E+00 -0.00000000000E+00  0.11368683772E-12  0.17120000000E+03  0.17120000000E+03 0.  0.
         13    1    1    2    0    0 -0.24580717080E+02  0.14760896286E+02  0.14596086014E+03  0.14875039351E+03  0.10566000000E+00 0. -1.
        994    1    1    2    0    0 -0.99597373749E+01  0.91329928769E+01  0.40601994115E+01  0.17178047953E+03  0.17120000000E+03 0.  0.
        998    1    1    2    0    0  0.34540454455E+02 -0.23893889162E+02  0.13499789367E+04  0.13506691270E+04  0.10000000000E+02 0. -1.
</event>
<event>
 5    1  0.1344348E-008  0.3859008E+03  0.7957747E-01  0.3425861E+00
         13   -1    0    0    0    0  0.00000000000E+00  0.00000000000E+00  0.14999999963E+04  0.15000000000E+04  0.10566000000E+00 0. -1.
        994   -1    0    0    0    0 -0.00000000000E+00 -0.00000000000E+00  0.11368683772E-12  0.17120000000E+03  0.17120000000E+03 0.  0.
         13    1    1    2    0    0  0.11503284851E+02 -0.22298086217E+01  0.62200252894E+02  0.63294393378E+02  0.10566000000E+00 0. -1.
        994    1    1    2    0    0  0.10232903660E+01  0.36277853879E+01  0.12301423564E+01  0.17124590856E+03  0.17120000000E+03 0.  0.
        998    1    1    2    0    0 -0.12526575218E+02 -0.13979767663E+01  0.14365696010E+04  0.14366596981E+04  0.10000000000E+02 0. -1.
</event>
<event>
 5    1  0.1344348E-008  0.3769407E+03  0.7957747E-01  0.3464588E+00
         13   -1    0    0    0    0  0.00000000000E+00  0.00000000000E+00  0.14999999963E+04  0.15000000000E+04  0.10566000000E+00 0. -1.
        994   -1    0    0    0    0 -0.00000000000E+00 -0.00000000000E+00  0.11368683772E-12  0.17120000000E+03  0.17120000000E+03 0.  0.
         13    1    1    2    0    0  0.36441449535E+02 -0.48419806846E+02  0.27025933979E+03  0.27697035735E+03  0.10566000000E+00 0. -1.
        994    1    1    2    0    0 -0.47790272011E+02  0.36831712588E+02  0.18080178470E+02  0.18241934657E+03  0.17120000000E+03 0.  0.
        998    1    1    2    0    0  0.11348822476E+02  0.11588094258E+02  0.12116604780E+04  0.12118102961E+04  0.10000000000E+02 0. -1.
</event>
<event>
 5    1  0.1344348E-008  0.3845899E+03  0.7957747E-01  0.3431413E+00
         13   -1    0    0    0    0  0.00000000000E+00  0.00000000000E+00  0.14999999963E+04  0.15000000000E+04  0.10566000000E+00 0.  1.
        994   -1    0    0    0    0 -0.00000000000E+00 -0.00000000000E+00  0.11368683772E-12  0.17120000000E+03  0.17120000000E+03 0.  0.
         13    1    1    2    0    0 -0.15298612140E+02  0.12015514165E+02  0.96861933031E+02  0.98796079621E+02  0.10566000000E+00 0.  1.
        994    1    1    2    0    0  0.17226260639E+02 -0.11789359690E+02  0.32700941218E+01  0.17249888861E+03  0.17120000000E+03 0.  0.
        998    1    1    2    0    0 -0.19276484991E+01 -0.22615447529E+00  0.13998679691E+04  0.13999050318E+04  0.10000000000E+02 0.  1.
</event>
<event>
 5    1  0.1344348E-008  0.3817953E+03  0.7957747E-01  0.3443378E+00
         13   -1    0    0    0    0  0.00000000000E+00  0.00000000000E+00  0.14999999963E+04  0.15000000000E+04  0.10566000000E+00 0. -1.
        994   -1    0    0    0    0 -0.00000000000E+00 -0.00000000000E+00  0.11368683772E-12  0.17120000000E+03  0.17120000000E+03 0.  0.
         13    1    1    2    0    0 -0.23312116841E+02 -0.52754783016E+01  0.88121114690E+02  0.91305133926E+02  0.10566000000E+00 0. -1.
        994    1    1    2    0    0  0.10658602047E+02  0.13647296343E+02  0.42267159850E+01  0.17212541829E+03  0.17120000000E+03 0.  0.
        998    1    1    2    0    0  0.12653514793E+02 -0.83718180410E+01  0.14076521656E+04  0.14077694478E+04  0.10000000000E+02 0. -1.
</event>
<event>
 5    1  0.1344348E-008  0.3716800E+03  0.7957747E-01  0.3488205E+00
         13   -1    0    0    0    0  0.00000000000E+00  0.00000000000E+00  0.14999999963E+04  0.15000000000E+04  0.10566000000E+00 0.  1.
        994   -1    0    0    0    0 -0.00000000000E+00 -0.00000000000E+00  0.11368683772E-12  0.17120000000E+03  0.17120000000E+03 0.  0.
         13    1    1    2    0    0 -0.36769818503E+02  0.40815787941E+02  0.12242189687E+03  0.13418300971E+03  0.10566000000E+00 0.  1.
        994    1    1    2    0    0  0.29914667619E+02 -0.22843854614E+02  0.16828565670E+02  0.17609477464E+03  0.17120000000E+03 0.  0.
        998    1    1    2    0    0  0.68551508838E+01 -0.17971933327E+02  0.13607495337E+04  0.13609222156E+04  0.10000000000E+02 0.  1.
</event>
<event>
 5    1  0.1344348E-008  0.3799979E+03  0.7957747E-01  0.3451168E+00
         13   -1    0    0    0    0  0.00000000000E+00  0.00000000000E+00  0.14999999963E+04  0.15000000000E+04  0.10566000000E+00 0.  1.
        994   -1    0    0    0    0 -0.00000000000E+00 -0.00000000000E+00  0.11368683772E-12  0.17120000000E+03  0.17120000000E+03 0.  0.
         13    1    1    2    0    0 -0.38257793684E+02  0.11543400858E+02  0.20229512747E+03  0.20620436135E+03  0.10566000000E+00 0.  1.
        994    1    1    2    0    0  0.15226042644E+02 -0.46848525806E+01  0.49830230863E+01  0.17201177500E+03  0.17120000000E+03 0.  0.
        998    1    1    2    0    0  0.23031751040E+02 -0.68585482771E+01  0.12927218457E+04  0.12929838637E+04  0.10000000000E+02 0.  1.
</event>
<event>
 5    1  0.1344348E-008  0.3730487E+03  0.7957747E-01  0.3481996E+00
         13   -1    0    0    0    0  0.00000000000E+00  0.00000000000E+00  0.14999999963E+04  0.15000000000E+04  0.10566000000E+00 0.  1.
        994   -1    0    0    0    0 -0.00000000000E+00 -0.00000000000E+00  0.11368683772E-12  0.17120000000E+03  0.17120000000E+03 0.  0.
         13    1    1    2    0    0  0.31644795739E+02  0.13916145290E+03  0.48629984385E+03  0.50680849673E+03  0.10566000000E+00 0.  1.
        994    1    1    2    0    0 -0.32618972205E+02 -0.14504833722E+03  0.95363471107E+02  0.24598099337E+03  0.17120000000E+03 0.  0.
        998    1    1    2    0    0  0.97417646625E+00  0.58868843196E+01  0.91833668132E+03  0.91841050990E+03  0.10000000000E+02 0.  1.
</event>
<event>
 5    1  0.1344348E-008  0.3692029E+03  0.7957747E-01  0.3499562E+00
         13   -1    0    0    0    0  0.00000000000E+00  0.00000000000E+00  0.14999999963E+04  0.15000000000E+04  0.10566000000E+00 0. -1.
        994   -1    0    0    0    0 -0.00000000000E+00 -0.00000000000E+00  0.11368683772E-12  0.17120000000E+03  0.17120000000E+03 0.  0.
         13    1    1    2    0    0  0.68569863804E+02  0.25963219126E+02  0.25335729753E+03  0.26375338167E+03  0.10566000000E+00 0. -1.
        994    1    1    2    0    0 -0.50762513657E+02 -0.25441537034E+02  0.20949431934E+02  0.18158310301E+03  0.17120000000E+03 0.  0.
        998    1    1    2    0    0 -0.17807350148E+02 -0.52168209195E+00  0.12256932668E+04  0.12258635153E+04  0.10000000000E+02 0. -1.
</event>
<event>
 5    1  0.1344348E-008  0.3831178E+03  0.7957747E-01  0.3437694E+00
         13   -1    0    0    0    0  0.00000000000E+00  0.00000000000E+00  0.14999999963E+04  0.15000000000E+04  0.10566000000E+00 0.  1.
        994   -1    0    0    0    0 -0.00000000000E+00 -0.00000000000E+00  0.11368683772E-12  0.17120000000E+03  0.17120000000E+03 0.  0.
         13    1    1    2    0    0  0.17424661168E+02 -0.13963530016E+02  0.10439434600E+03  0.10675574751E+03  0.10566000000E+00 0.  1.
        994    1    1    2    0    0  0.41793377985E+01  0.81761255560E+01  0.28465646889E+01  0.17146970235E+03  0.17120000000E+03 0.  0.
        998    1    1    2    0    0 -0.21603998967E+02  0.57874044596E+01  0.13927590856E+04  0.13929745501E+04  0.10000000000E+02 0.  1.
</event>
<event>
 5    1  0.1344348E-008  0.3983684E+03  0.7957747E-01  0.3374881E+00
         13   -1    0    0    0    0  0.00000000000E+00  0.00000000000E+00  0.14999999963E+04  0.15000000000E+04  0.10566000000E+00 0. -1.
        994   -1    0    0    0    0 -0.00000000000E+00 -0.00000000000E+00  0.11368683772E-12  0.17120000000E+03  0.17120000000E+03 0.  0.
         13    1    1    2    0    0 -0.31444309101E+02 -0.37440156077E+02  0.39408050603E+02  0.62797416174E+02  0.10566000000E+00 0. -1.
        994    1    1    2    0    0  0.92143211154E+01 -0.27011101011E+02  0.29980751348E+02  0.17613287241E+03  0.17120000000E+03 0.  0.
        998    1    1    2    0    0  0.22229987985E+02  0.64451257088E+02  0.14306111943E+04  0.14322697114E+04  0.10000000000E+02 0. -1.
</event>
<event>
 5    1  0.1344348E-008  0.3693573E+03  0.7957747E-01  0.3498850E+00
         13   -1    0    0    0    0  0.00000000000E+00  0.00000000000E+00  0.14999999963E+04  0.15000000000E+04  0.10566000000E+00 0.  1.
        994   -1    0    0    0    0 -0.00000000000E+00 -0.00000000000E+00  0.11368683772E-12  0.17120000000E+03  0.17120000000E+03 0.  0.
         13    1    1    2    0    0  0.96948984780E+01 -0.57261671634E+02  0.21116376252E+03  0.21900464804E+03  0.10566000000E+00 0.  1.
        994    1    1    2    0    0 -0.18806113205E+02 -0.59395542215E+01  0.10954353613E+02  0.17268001060E+03  0.17120000000E+03 0.  0.
        998    1    1    2    0    0  0.91112147269E+01  0.63201225856E+02  0.12778818801E+04  0.12795153414E+04  0.10000000000E+02 0.  1.
</event>
<event>
 5    1  0.1344348E-008  0.3714915E+03  0.7957747E-01  0.3489064E+00
         13   -1    0    0    0    0  0.00000000000E+00  0.00000000000E+00  0.14999999963E+04  0.15000000000E+04  0.10566000000E+00 0. -1.
        994   -1    0    0    0    0 -0.00000000000E+00 -0.00000000000E+00  0.11368683772E-12  0.17120000000E+03  0.17120000000E+03 0.  0.
         13    1    1    2    0    0 -0.53585304155E+02  0.48449865439E+02  0.24406846330E+03  0.25453526322E+03  0.10566000000E+00 0. -1.
        994    1    1    2    0    0  0.13774774586E+02 -0.18108376734E+02  0.13550983257E+02  0.17323604380E+03  0.17120000000E+03 0.  0.
        998    1    1    2    0    0  0.39810529569E+02 -0.30341488705E+02  0.12423805497E+04  0.12434286930E+04  0.10000000000E+02 0.  1.
</event>
<event>
 5    1  0.1344348E-008  0.3930786E+03  0.7957747E-01  0.3396116E+00
         13   -1    0    0    0    0  0.00000000000E+00  0.00000000000E+00  0.14999999963E+04  0.15000000000E+04  0.10566000000E+00 0.  1.
        994   -1    0    0    0    0 -0.00000000000E+00 -0.00000000000E+00  0.11368683772E-12  0.17120000000E+03  0.17120000000E+03 0.  0.
         13    1    1    2    0    0 -0.75654290495E+02 -0.86559990189E+02  0.26960184637E+03  0.29308935549E+03  0.10566000000E+00 0.  1.
        994    1    1    2    0    0 -0.47034538856E+02  0.14490898300E+03  0.11868466624E+03  0.25808206292E+03  0.17120000000E+03 0.  0.
        998    1    1    2    0    0  0.12268882935E+03 -0.58348992815E+02  0.11117134837E+04  0.11200285816E+04  0.10000000000E+02 0.  1.
</event>
<event>
 5    1  0.1344348E-008  0.3848193E+03  0.7957747E-01  0.3430439E+00
         13   -1    0    0    0    0  0.00000000000E+00  0.00000000000E+00  0.14999999963E+04  0.15000000000E+04  0.10566000000E+00 0.  1.
        994   -1    0    0    0    0 -0.00000000000E+00 -0.00000000000E+00  0.11368683772E-12  0.17120000000E+03  0.17120000000E+03 0.  0.
         13    1    1    2    0    0  0.95303561267E+00  0.15875317732E+02  0.73024976878E+02  0.74736820925E+02  0.10566000000E+00 0.  1.
        994    1    1    2    0    0  0.13876833685E+01 -0.11417584254E+02  0.21552803805E+01  0.17159945259E+03  0.17120000000E+03 0.  0.
        998    1    1    2    0    0 -0.23407189812E+01 -0.44577334772E+01  0.14248197390E+04  0.14248637265E+04  0.10000000000E+02 0.  1.
</event>
<event>
 5    1  0.1344348E-008  0.3804506E+03  0.7957747E-01  0.3449199E+00
         13   -1    0    0    0    0  0.00000000000E+00  0.00000000000E+00  0.14999999963E+04  0.15000000000E+04  0.10566000000E+00 0.  1.
        994   -1    0    0    0    0 -0.00000000000E+00 -0.00000000000E+00  0.11368683772E-12  0.17120000000E+03  0.17120000000E+03 0.  0.
         13    1    1    2    0    0  0.28072274893E+02 -0.33355404747E+01  0.16856184645E+02  0.32913835582E+02  0.10566000000E+00 0.  1.
        994    1    1    2    0    0 -0.28988096506E+02  0.34079845708E+01  0.19673090912E+02  0.17478099040E+03  0.17120000000E+03 0.  0.
        998    1    1    2    0    0  0.91582161300E+00 -0.72444096061E-01  0.14634707207E+04  0.14635051740E+04  0.10000000000E+02 0.  1.
</event>
<event>
 5    1  0.1344348E-008  0.3782464E+03  0.7957747E-01  0.3458830E+00
         13   -1    0    0    0    0  0.00000000000E+00  0.00000000000E+00  0.14999999963E+04  0.15000000000E+04  0.10566000000E+00 0. -1.
        994   -1    0    0    0    0 -0.00000000000E+00 -0.00000000000E+00  0.11368683772E-12  0.17120000000E+03  0.17120000000E+03 0.  0.
         13    1    1    2    0    0  0.53765415199E+02  0.36712816151E+01  0.24522307592E+03  0.25107482213E+03  0.10566000000E+00 0. -1.
        994    1    1    2    0    0 -0.52209979265E+02 -0.51679197293E+02  0.23386584161E+02  0.18775780593E+03  0.17120000000E+03 0.  0.
        998    1    1    2    0    0 -0.15554359340E+01  0.48007915678E+02  0.12313903362E+04  0.12323673719E+04  0.10000000000E+02 0. -1.
</event>
<event>
 5    1  0.1344348E-008  0.3838963E+03  0.7957747E-01  0.3434367E+00
         13   -1    0    0    0    0  0.00000000000E+00  0.00000000000E+00  0.14999999963E+04  0.15000000000E+04  0.10566000000E+00 0. -1.
        994   -1    0    0    0    0 -0.00000000000E+00 -0.00000000000E+00  0.11368683772E-12  0.17120000000E+03  0.17120000000E+03 0.  0.
         13    1    1    2    0    0  0.34356564306E+01  0.14324062413E+02  0.52434505413E+02  0.54464401411E+02  0.10566000000E+00 0. -1.
        994    1    1    2    0    0  0.49166984858E+01  0.13910761299E+01  0.22652668043E+01  0.17129121533E+03  0.17120000000E+03 0.  0.
        998    1    1    2    0    0 -0.83523549164E+01 -0.15715138543E+02  0.14453002241E+04  0.14454443833E+04  0.10000000000E+02 0. -1.
</event>
<event>
 5    1  0.1344348E-008  0.3784006E+03  0.7957747E-01  0.3458152E+00
         13   -1    0    0    0    0  0.00000000000E+00  0.00000000000E+00  0.14999999963E+04  0.15000000000E+04  0.10566000000E+00 0.  1.
        994   -1    0    0    0    0 -0.00000000000E+00 -0.00000000000E+00  0.11368683772E-12  0.17120000000E+03  0.17120000000E+03 0.  0.
         13    1    1    2    0    0  0.34697200534E+00 -0.17100562544E+02  0.27103059807E+02  0.32048972586E+02  0.10566000000E+00 0.  1.
        994    1    1    2    0    0 -0.37993903633E+01  0.17693149065E+02  0.60440193786E+01  0.17225984170E+03  0.17120000000E+03 0.  0.
        998    1    1    2    0    0  0.34524183580E+01 -0.59258652101E+00  0.14668529171E+04  0.14668911857E+04  0.10000000000E+02 0.  1.
</event>
<event>
 5    1  0.1344348E-008  0.3836572E+03  0.7957747E-01  0.3435387E+00
         13   -1    0    0    0    0  0.00000000000E+00  0.00000000000E+00  0.14999999963E+04  0.15000000000E+04  0.10566000000E+00 0.  1.
        994   -1    0    0    0    0 -0.00000000000E+00 -0.00000000000E+00  0.11368683772E-12  0.17120000000E+03  0.17120000000E+03 0.  0.
         13    1    1    2    0    0  0.16169249968E+02  0.61007984941E+01  0.63226794708E+02  0.65546190735E+02  0.10566000000E+00 0.  1.
        994    1    1    2    0    0 -0.12649648250E+02 -0.82812146841E+01  0.30536912150E+01  0.17189344708E+03  0.17120000000E+03 0.  0.
        998    1    1    2    0    0 -0.35196017177E+01  0.21804161900E+01  0.14337195104E+04  0.14337603622E+04  0.10000000000E+02 0.  1.
</event>
<event>
 5    1  0.1344348E-008  0.3800658E+03  0.7957747E-01  0.3450872E+00
         13   -1    0    0    0    0  0.00000000000E+00  0.00000000000E+00  0.14999999963E+04  0.15000000000E+04  0.10566000000E+00 0. -1.
        994   -1    0    0    0    0 -0.00000000000E+00 -0.00000000000E+00  0.11368683772E-12  0.17120000000E+03  0.17120000000E+03 0.  0.
         13    1    1    2    0    0 -0.12026454608E+02 -0.12621614353E+02  0.36716778293E+02  0.40645709879E+02  0.10566000000E+00 0. -1.
        994    1    1    2    0    0  0.19491653822E+02 -0.16626337559E+02  0.62967019539E+01  0.17322080742E+03  0.17120000000E+03 0.  0.
        998    1    1    2    0    0 -0.74651992138E+01  0.29247951911E+02  0.14569865160E+04  0.14573334827E+04  0.10000000000E+02 0. -1.
</event>
<event>
 5    1  0.1344348E-008  0.3818583E+03  0.7957747E-01  0.3443107E+00
         13   -1    0    0    0    0  0.00000000000E+00  0.00000000000E+00  0.14999999963E+04  0.15000000000E+04  0.10566000000E+00 0.  1.
        994   -1    0    0    0    0 -0.00000000000E+00 -0.00000000000E+00  0.11368683772E-12  0.17120000000E+03  0.17120000000E+03 0.  0.
         13    1    1    2    0    0 -0.70124937769E+01  0.10345763142E+02  0.23667074680E+02  0.26764743076E+02  0.10566000000E+00 0.  1.
        994    1    1    2    0    0 -0.39164878903E+01 -0.49932235414E+01  0.33318458836E+01  0.17134997040E+03  0.17120000000E+03 0.  0.
        998    1    1    2    0    0  0.10928981667E+02 -0.53525396003E+01  0.14730010757E+04  0.14730852865E+04  0.10000000000E+02 0.  1.
</event>
<event>
 5    1  0.1344348E-008  0.3838510E+03  0.7957747E-01  0.3434560E+00
         13   -1    0    0    0    0  0.00000000000E+00  0.00000000000E+00  0.14999999963E+04  0.15000000000E+04  0.10566000000E+00 0. -1.
        994   -1    0    0    0    0 -0.00000000000E+00 -0.00000000000E+00  0.11368683772E-12  0.17120000000E+03  0.17120000000E+03 0.  0.
         13    1    1    2    0    0 -0.12753663232E+02 -0.30897945642E+01  0.37158036138E+02  0.39407278134E+02  0.10566000000E+00 0. -1.
        994    1    1    2    0    0  0.16817821108E+02  0.43931849449E+01  0.31996301247E+01  0.17210989749E+03  0.17120000000E+03 0.  0.
        998    1    1    2    0    0 -0.40641578767E+01 -0.13033903806E+01  0.14596423300E+04  0.14596828244E+04  0.10000000000E+02 0. -1.
</event>
<event>
 5    1  0.1344348E-008  0.3704102E+03  0.7957747E-01  0.3494008E+00
         13   -1    0    0    0    0  0.00000000000E+00  0.00000000000E+00  0.14999999963E+04  0.15000000000E+04  0.10566000000E+00 0. -1.
        994   -1    0    0    0    0 -0.00000000000E+00 -0.00000000000E+00  0.11368683772E-12  0.17120000000E+03  0.17120000000E+03 0.  0.
         13    1    1    2    0    0 -0.19408775462E+02  0.48995927806E+02  0.14841810025E+03  0.15749680998E+03  0.10566000000E+00 0. -1.
        994    1    1    2    0    0  0.17572934549E+02 -0.30220320902E+02  0.13286107892E+02  0.17523708651E+03  0.17120000000E+03 0.  0.
        998    1    1    2    0    0  0.18358409126E+01 -0.18775606904E+02  0.13382957881E+04  0.13384661035E+04  0.10000000000E+02 0. -1.
</event>
<event>
 5    1  0.1344348E-008  0.3854383E+03  0.7957747E-01  0.3427816E+00
         13   -1    0    0    0    0  0.00000000000E+00  0.00000000000E+00  0.14999999963E+04  0.15000000000E+04  0.10566000000E+00 0. -1.
        994   -1    0    0    0    0 -0.00000000000E+00 -0.00000000000E+00  0.11368683772E-12  0.17120000000E+03  0.17120000000E+03 0.  0.
         13    1    1    2    0    0  0.10386842080E+02  0.11682351413E+02  0.90764062201E+02  0.92100434169E+02  0.10566000000E+00 0. -1.
        994    1    1    2    0    0 -0.56794132005E+00 -0.58135214518E+01  0.15247673977E+01  0.17130640532E+03  0.17120000000E+03 0.  0.
        998    1    1    2    0    0 -0.98189007598E+01 -0.58688299607E+01  0.14077111667E+04  0.14077931605E+04  0.10000000000E+02 0. -1.
</event>
<event>
 5    1  0.1344348E-008  0.3836775E+03  0.7957747E-01  0.3435300E+00
         13   -1    0    0    0    0  0.00000000000E+00  0.00000000000E+00  0.14999999963E+04  0.15000000000E+04  0.10566000000E+00 0.  1.
        994   -1    0    0    0    0 -0.00000000000E+00 -0.00000000000E+00  0.11368683772E-12  0.17120000000E+03  0.17120000000E+03 0.  0.
         13    1    1    2    0    0 -0.13853800370E+02  0.21784870557E+02  0.14202828915E+03  0.14435565265E+03  0.10566000000E+00 0.  1.
        994    1    1    2    0    0  0.24119890883E+02 -0.68347588867E+01  0.43666579876E+01  0.17308087927E+03  0.17120000000E+03 0.  0.
        998    1    1    2    0    0 -0.10266090512E+02 -0.14950111670E+02  0.13536050491E+04  0.13537634681E+04  0.10000000000E+02 0.  1.
</event>
<event>
 5    1  0.1344348E-008  0.3810677E+03  0.7957747E-01  0.3446523E+00
         13   -1    0    0    0    0  0.00000000000E+00  0.00000000000E+00  0.14999999963E+04  0.15000000000E+04  0.10566000000E+00 0. -1.
        994   -1    0    0    0    0 -0.00000000000E+00 -0.00000000000E+00  0.11368683772E-12  0.17120000000E+03  0.17120000000E+03 0.  0.
         13    1    1    2    0    0 -0.45467369202E+02  0.33591204246E+02  0.33601135466E+03  0.34073346224E+03  0.10566000000E+00 0. -1.
        994    1    1    2    0    0  0.45197292375E+02 -0.38793851804E+02  0.15504913468E+02  0.18192745949E+03  0.17120000000E+03 0.  0.
        998    1    1    2    0    0  0.27007682701E+00  0.52026475576E+01  0.11484837281E+04  0.11485390783E+04  0.10000000000E+02 0. -1.
</event>
<event>
 5    1  0.1344348E-008  0.3835886E+03  0.7957747E-01  0.3435680E+00
         13   -1    0    0    0    0  0.00000000000E+00  0.00000000000E+00  0.14999999963E+04  0.15000000000E+04  0.10566000000E+00 0. -1.
        994   -1    0    0    0    0 -0.00000000000E+00 -0.00000000000E+00  0.11368683772E-12  0.17120000000E+03  0.17120000000E+03 0.  0.
         13    1    1    2    0    0  0.17129711161E+02  0.40931610177E+01  0.65953716789E+02  0.68264814465E+02  0.10566000000E+00 0. -1.
        994    1    1    2    0    0 -0.10119703211E+02 -0.63750212834E+01  0.28052144201E+01  0.17164020076E+03  0.17120000000E+03 0.  0.
        998    1    1    2    0    0 -0.70100079505E+01  0.22818602656E+01  0.14312410651E+04  0.14312949848E+04  0.10000000000E+02 0. -1.
</event>
<event>
 5    1  0.1344348E-008  0.3701928E+03  0.7957747E-01  0.3495005E+00
         13   -1    0    0    0    0  0.00000000000E+00  0.00000000000E+00  0.14999999963E+04  0.15000000000E+04  0.10566000000E+00 0.  1.
        994   -1    0    0    0    0 -0.00000000000E+00 -0.00000000000E+00  0.11368683772E-12  0.17120000000E+03  0.17120000000E+03 0.  0.
         13    1    1    2    0    0 -0.13089285886E+03 -0.25555224048E+02  0.73180261933E+03  0.74385556044E+03  0.10566000000E+00 0.  1.
        994    1    1    2    0    0  0.12945931247E+03 -0.47468740486E+02  0.78046373112E+02  0.23326738148E+03  0.17120000000E+03 0.  0.
        998    1    1    2    0    0  0.14335463887E+01  0.73023964534E+02  0.69015100384E+03  0.69407705808E+03  0.10000000000E+02 0.  1.
</event>
<event>
 5    1  0.1344348E-008  0.2866886E+03  0.7957747E-01  0.3995886E+00
         13   -1    0    0    0    0  0.00000000000E+00  0.00000000000E+00  0.14999999963E+04  0.15000000000E+04  0.10566000000E+00 0. -1.
        994   -1    0    0    0    0 -0.00000000000E+00 -0.00000000000E+00  0.11368683772E-12  0.17120000000E+03  0.17120000000E+03 0.  0.
         13    1    1    2    0    0  0.10438542766E+03  0.19848396341E+03  0.40477116972E+03  0.46274389487E+03  0.10566000000E+00 0. -1.
        994    1    1    2    0    0  0.11288800231E+02 -0.25015024283E+03  0.40161106453E+03  0.50329262676E+03  0.17120000000E+03 0.  0.
        998    1    1    2    0    0 -0.11567422789E+03  0.51666279415E+02  0.69361776203E+03  0.70516347837E+03  0.10000000000E+02 0. -1.
</event>
<event>
 5    1  0.1344348E-008  0.3863850E+03  0.7957747E-01  0.3423820E+00
         13   -1    0    0    0    0  0.00000000000E+00  0.00000000000E+00  0.14999999963E+04  0.15000000000E+04  0.10566000000E+00 0.  1.
        994   -1    0    0    0    0 -0.00000000000E+00 -0.00000000000E+00  0.11368683772E-12  0.17120000000E+03  0.17120000000E+03 0.  0.
         13    1    1    2    0    0 -0.66955380123E+01 -0.77275836927E+01  0.58675533105E+02  0.59559844931E+02  0.10566000000E+00 0.  1.
        994    1    1    2    0    0  0.56106972359E+01 -0.22011933840E+01  0.10630092423E+01  0.17130935516E+03  0.17120000000E+03 0.  0.
        998    1    1    2    0    0  0.10848407764E+01  0.99287770766E+01  0.14402614539E+04  0.14403307999E+04  0.10000000000E+02 0.  1.
</event>
<event>
 5    1  0.1344348E-008  0.3982892E+03  0.7957747E-01  0.3375195E+00
         13   -1    0    0    0    0  0.00000000000E+00  0.00000000000E+00  0.14999999963E+04  0.15000000000E+04  0.10566000000E+00 0.  1.
        994   -1    0    0    0    0 -0.00000000000E+00 -0.00000000000E+00  0.11368683772E-12  0.17120000000E+03  0.17120000000E+03 0.  0.
         13    1    1    2    0    0  0.63806861974E+02  0.95008937209E+02  0.25173805264E+03  0.27653222615E+03  0.10566000000E+00 0.  1.
        994    1    1    2    0    0 -0.44559814019E+02 -0.41497821960E+02  0.41319265642E+02  0.18634475567E+03  0.17120000000E+03 0.  0.
        998    1    1    2    0    0 -0.19247047954E+02 -0.53511115249E+02  0.12069426780E+04  0.12083230182E+04  0.10000000000E+02 0.  1.
</event>
<event>
 5    1  0.1567480E-008  0.3858405E+03  0.7957747E-01  0.3426115E+00
         13   -1    0    0    0    0  0.00000000000E+00  0.00000000000E+00  0.14999999963E+04  0.15000000000E+04  0.10566000000E+00 0.  1.
        994   -1    0    0    0    0 -0.00000000000E+00 -0.00000000000E+00  0.11368683772E-12  0.17120000000E+03  0.17120000000E+03 0.  0.
         13    1    1    2    0    0  0.10258364800E+02 -0.85462635538E+01  0.73023909935E+02  0.74234596081E+02  0.10566000000E+00 0.  1.
        994    1    1    2    0    0 -0.10855605602E+02  0.38343772852E+01  0.16482651338E+01  0.17159459024E+03  0.17120000000E+03 0.  0.
        998    1    1    2    0    0  0.59724080164E+00  0.47118862686E+01  0.14253278212E+04  0.14253708137E+04  0.10000000000E+02 0.  1.
</event>
<event>
 5    1  0.1344348E-008  0.3842225E+03  0.7957747E-01  0.3432976E+00
         13   -1    0    0    0    0  0.00000000000E+00  0.00000000000E+00  0.14999999963E+04  0.15000000000E+04  0.10566000000E+00 0.  1.
        994   -1    0    0    0    0 -0.00000000000E+00 -0.00000000000E+00  0.11368683772E-12  0.17120000000E+03  0.17120000000E+03 0.  0.
         13    1    1    2    0    0  0.91902288466E+01 -0.11859537236E+02  0.54783554393E+02  0.56801038069E+02  0.10566000000E+00 0.  1.
        994    1    1    2    0    0 -0.91507662839E+01  0.83269781920E+01  0.25214640909E+01  0.17166500188E+03  0.17120000000E+03 0.  0.
        998    1    1    2    0    0 -0.39462562671E-01  0.35325590436E+01  0.14426949778E+04  0.14427339601E+04  0.10000000000E+02 0.  1.
</event>
<event>
 5    1  0.1344348E-008  0.3852970E+03  0.7957747E-01  0.3428414E+00
         13   -1    0    0    0    0  0.00000000000E+00  0.00000000000E+00  0.14999999963E+04  0.15000000000E+04  0.10566000000E+00 0.  1.
        994   -1    0    0    0    0 -0.00000000000E+00 -0.00000000000E+00  0.11368683772E-12  0.17120000000E+03  0.17120000000E+03 0.  0.
         13    1    1    2    0    0  0.35612760100E+00  0.21005091821E+02  0.11476681881E+03  0.11667379557E+03  0.10566000000E+00 0.  1.
        994    1    1    2    0    0  0.14044787152E+00 -0.44355868355E+02  0.79737326783E+01  0.17703243543E+03  0.17120000000E+03 0.  0.
        998    1    1    2    0    0 -0.49657547251E+00  0.23350776534E+02  0.13772594448E+04  0.13774937690E+04  0.10000000000E+02 0.  1.
</event>
<event>
 5    1  0.1344348E-008  0.3834029E+03  0.7957747E-01  0.3436474E+00
         13   -1    0    0    0    0  0.00000000000E+00  0.00000000000E+00  0.14999999963E+04  0.15000000000E+04  0.10566000000E+00 0.  1.
        994   -1    0    0    0    0 -0.00000000000E+00 -0.00000000000E+00  0.11368683772E-12  0.17120000000E+03  0.17120000000E+03 0.  0.
         13    1    1    2    0    0  0.15462767299E+01 -0.19913053893E+02  0.80864230331E+02  0.83294391156E+02  0.10566000000E+00 0.  1.
        994    1    1    2    0    0  0.27381605025E+01  0.14541204603E+02  0.31492440185E+01  0.17186710532E+03  0.17120000000E+03 0.  0.
        998    1    1    2    0    0 -0.42844372324E+01  0.53718492897E+01  0.14159865219E+04  0.14160385035E+04  0.10000000000E+02 0.  1.
</event>
<event>
 5    1  0.1344348E-008  0.3742574E+03  0.7957747E-01  0.3476551E+00
         13   -1    0    0    0    0  0.00000000000E+00  0.00000000000E+00  0.14999999963E+04  0.15000000000E+04  0.10566000000E+00 0. -1.
        994   -1    0    0    0    0 -0.00000000000E+00 -0.00000000000E+00  0.11368683772E-12  0.17120000000E+03  0.17120000000E+03 0.  0.
         13    1    1    2    0    0  0.25995676734E+02 -0.43802749506E+02  0.24660417118E+03  0.25180961951E+03  0.10566000000E+00 0. -1.
        994    1    1    2    0    0  0.17479686180E+02 -0.69792904085E+01  0.82686893629E+01  0.17242987313E+03  0.17120000000E+03 0.  0.
        998    1    1    2    0    0 -0.43475362914E+02  0.50782039914E+02  0.12451271357E+04  0.12469605074E+04  0.10000000000E+02 0. -1.
</event>
<event>
 5    1  0.1344348E-008  0.3861232E+03  0.7957747E-01  0.3424923E+00
         13   -1    0    0    0    0  0.00000000000E+00  0.00000000000E+00  0.14999999963E+04  0.15000000000E+04  0.10566000000E+00 0.  1.
        994   -1    0    0    0    0 -0.00000000000E+00 -0.00000000000E+00  0.11368683772E-12  0.17120000000E+03  0.17120000000E+03 0.  0.
         13    1    1    2    0    0  0.47479028077E+01 -0.10344900327E+02  0.64221514486E+02  0.65222493288E+02  0.10566000000E+00 0.  1.
        994    1    1    2    0    0  0.11185722572E+02  0.69460187272E+01  0.16418076523E+01  0.17171343307E+03  0.17120000000E+03 0.  0.
        998    1    1    2    0    0 -0.15933625379E+02  0.33988815997E+01  0.14341366741E+04  0.14342640736E+04  0.10000000000E+02 0.  1.
</event>
<event>
 5    1  0.1344348E-008  0.3732395E+03  0.7957747E-01  0.3481134E+00
         13   -1    0    0    0    0  0.00000000000E+00  0.00000000000E+00  0.14999999963E+04  0.15000000000E+04  0.10566000000E+00 0.  1.
        994   -1    0    0    0    0 -0.00000000000E+00 -0.00000000000E+00  0.11368683772E-12  0.17120000000E+03  0.17120000000E+03 0.  0.
         13    1    1    2    0    0 -0.42224254051E+02 -0.33549284045E+02  0.13108068744E+03  0.14174131323E+03  0.10566000000E+00 0.  1.
        994    1    1    2    0    0 -0.18506381327E+02  0.62369246927E+01  0.14011857465E+02  0.17287902571E+03  0.17120000000E+03 0.  0.
        998    1    1    2    0    0  0.60730635378E+02  0.27312359352E+02  0.13549074514E+04  0.13565796611E+04  0.10000000000E+02 0.  1.
</event>
<event>
 5    1  0.1344348E-008  0.3838904E+03  0.7957747E-01  0.3434392E+00
         13   -1    0    0    0    0  0.00000000000E+00  0.00000000000E+00  0.14999999963E+04  0.15000000000E+04  0.10566000000E+00 0. -1.
        994   -1    0    0    0    0 -0.00000000000E+00 -0.00000000000E+00  0.11368683772E-12  0.17120000000E+03  0.17120000000E+03 0.  0.
         13    1    1    2    0    0 -0.10519337046E+02 -0.69856385587E+01  0.35341206391E+02  0.37529556768E+02  0.10566000000E+00 0. -1.
        994    1    1    2    0    0  0.94436825172E+01  0.87116022385E+01  0.27270546231E+01  0.17170309252E+03  0.17120000000E+03 0.  0.
        998    1    1    2    0    0  0.10756545293E+01 -0.17259636798E+01  0.14619317353E+04  0.14619673507E+04  0.10000000000E+02 0. -1.
</event>
<event>
 5    1  0.1344348E-008  0.3766412E+03  0.7957747E-01  0.3465915E+00
         13   -1    0    0    0    0  0.00000000000E+00  0.00000000000E+00  0.14999999963E+04  0.15000000000E+04  0.10566000000E+00 0.  1.
        994   -1    0    0    0    0 -0.00000000000E+00 -0.00000000000E+00  0.11368683772E-12  0.17120000000E+03  0.17120000000E+03 0.  0.
         13    1    1    2    0    0  0.25819352319E+02  0.74508987036E+01  0.18584979120E+02  0.32673650831E+02  0.10566000000E+00 0.  1.
        994    1    1    2    0    0 -0.22665528198E+02 -0.13680701664E+02  0.17007180264E+02  0.17406772230E+03  0.17120000000E+03 0.  0.
        998    1    1    2    0    0 -0.31538241211E+01  0.62298029605E+01  0.14644078369E+04  0.14644586269E+04  0.10000000000E+02 0.  1.
</event>
<event>
 5    1  0.1344348E-008  0.3686466E+03  0.7957747E-01  0.3502134E+00
         13   -1    0    0    0    0  0.00000000000E+00  0.00000000000E+00  0.14999999963E+04  0.15000000000E+04  0.10566000000E+00 0.  1.
        994   -1    0    0    0    0 -0.00000000000E+00 -0.00000000000E+00  0.11368683772E-12  0.17120000000E+03  0.17120000000E+03 0.  0.
         13    1    1    2    0    0  0.38668341785E+02  0.12683333649E+02  0.74895087755E+02  0.85237274374E+02  0.10566000000E+00 0.  1.
        994    1    1    2    0    0 -0.33663124919E+02 -0.13120705390E+02  0.14780621053E+02  0.17559403648E+03  0.17120000000E+03 0.  0.
        998    1    1    2    0    0 -0.50052168656E+01  0.43737174076E+00  0.14103242875E+04  0.14103686891E+04  0.10000000000E+02 0.  1.
</event>
<event>
 5    1  0.1344348E-008  0.3798099E+03  0.7957747E-01  0.3451987E+00
         13   -1    0    0    0    0  0.00000000000E+00  0.00000000000E+00  0.14999999963E+04  0.15000000000E+04  0.10566000000E+00 0. -1.
        994   -1    0    0    0    0 -0.00000000000E+00 -0.00000000000E+00  0.11368683772E-12  0.17120000000E+03  0.17120000000E+03 0.  0.
         13    1    1    2    0    0 -0.50657194721E+01  0.12452116792E+02  0.20547107767E+02  0.24554256820E+02  0.10566000000E+00 0. -1.
        994    1    1    2    0    0 -0.20262235004E+01  0.80458889903E+01  0.44594526352E+01  0.17145894153E+03  0.17120000000E+03 0.  0.
        998    1    1    2    0    0  0.70919429724E+01 -0.20498005782E+02  0.14749934359E+04  0.14751868017E+04  0.10000000000E+02 0. -1.
</event>
<event>
 5    1  0.1344348E-008  0.3778028E+03  0.7957747E-01  0.3460782E+00
         13   -1    0    0    0    0  0.00000000000E+00  0.00000000000E+00  0.14999999963E+04  0.15000000000E+04  0.10566000000E+00 0.  1.
        994   -1    0    0    0    0 -0.00000000000E+00 -0.00000000000E+00  0.11368683772E-12  0.17120000000E+03  0.17120000000E+03 0.  0.
         13    1    1    2    0    0  0.28598083897E+02  0.32751063425E+02  0.14821123258E+03  0.15445731832E+03  0.10566000000E+00 0.  1.
        994    1    1    2    0    0 -0.35127131877E+02 -0.47573785318E+02  0.17114576753E+02  0.18193276005E+03  0.17120000000E+03 0.  0.
        998    1    1    2    0    0  0.65290479804E+01  0.14822721893E+02  0.13346741869E+04  0.13348099216E+04  0.10000000000E+02 0.  1.
</event>
<event>
 5    1  0.1344348E-008  0.3836856E+03  0.7957747E-01  0.3435266E+00
         13   -1    0    0    0    0  0.00000000000E+00  0.00000000000E+00  0.14999999963E+04  0.15000000000E+04  0.10566000000E+00 0.  1.
        994   -1    0    0    0    0 -0.00000000000E+00 -0.00000000000E+00  0.11368683772E-12  0.17120000000E+03  0.17120000000E+03 0.  0.
         13    1    1    2    0    0  0.14393034256E+02 -0.33327481947E+01  0.48229594451E+02  0.50441764349E+02  0.10566000000E+00 0.  1.
        994    1    1    2    0    0 -0.64017430270E+01 -0.43934194225E+01  0.24832540659E+01  0.17139396430E+03  0.17120000000E+03 0.  0.
        998    1    1    2    0    0 -0.79912912286E+01  0.77261676172E+01  0.14492871478E+04  0.14493642714E+04  0.10000000000E+02 0.  1.
</event>
<event>
 5    1  0.1344348E-008  0.3821260E+03  0.7957747E-01  0.3441953E+00
         13   -1    0    0    0    0  0.00000000000E+00  0.00000000000E+00  0.14999999963E+04  0.15000000000E+04  0.10566000000E+00 0.  1.
        994   -1    0    0    0    0 -0.00000000000E+00 -0.00000000000E+00  0.11368683772E-12  0.17120000000E+03  0.17120000000E+03 0.  0.
         13    1    1    2    0    0  0.32808098276E+01 -0.27628033565E+02  0.16788696284E+03  0.17017671817E+03  0.10566000000E+00 0.  1.
        994    1    1    2    0    0  0.34544120012E+01 -0.19016659593E+02  0.43048362633E+01  0.17234134130E+03  0.17120000000E+03 0.  0.
        998    1    1    2    0    0 -0.67352218288E+01  0.46644693158E+02  0.13278081972E+04  0.13286819405E+04  0.10000000000E+02 0.  1.
</event>
<event>
 5    1  0.1344348E-008  0.3701066E+03  0.7957747E-01  0.3495401E+00
         13   -1    0    0    0    0  0.00000000000E+00  0.00000000000E+00  0.14999999963E+04  0.15000000000E+04  0.10566000000E+00 0. -1.
        994   -1    0    0    0    0 -0.00000000000E+00 -0.00000000000E+00  0.11368683772E-12  0.17120000000E+03  0.17120000000E+03 0.  0.
         13    1    1    2    0    0  0.87747936953E+01  0.88999013706E+01  0.43970315760E+01  0.13249539596E+02  0.10566000000E+00 0. -1.
        994    1    1    2    0    0  0.87558943194E+01 -0.38611025653E+01  0.95299531066E+01  0.17173186601E+03  0.17120000000E+03 0.  0.
        998    1    1    2    0    0 -0.17530688015E+02 -0.50387988053E+01  0.14860730116E+04  0.14862185944E+04  0.10000000000E+02 0. -1.
</event>
<event>
 5    1  0.1344348E-008  0.3843992E+03  0.7957747E-01  0.3432224E+00
         13   -1    0    0    0    0  0.00000000000E+00  0.00000000000E+00  0.14999999963E+04  0.15000000000E+04  0.10566000000E+00 0.  1.
        994   -1    0    0    0    0 -0.00000000000E+00 -0.00000000000E+00  0.11368683772E-12  0.17120000000E+03  0.17120000000E+03 0.  0.
         13    1    1    2    0    0 -0.31609843593E+01 -0.15828392343E+02  0.63380227618E+02  0.65403319818E+02  0.10566000000E+00 0.  1.
        994    1    1    2    0    0 -0.68329991004E+01  0.22846858304E+02  0.38047481533E+01  0.17289472207E+03  0.17120000000E+03 0.  0.
        998    1    1    2    0    0  0.99939834596E+01 -0.70184659608E+01  0.14328150205E+04  0.14329019581E+04  0.10000000000E+02 0.  1.
</event>
<event>
 5    1  0.1344348E-008  0.3765045E+03  0.7957747E-01  0.3466521E+00
         13   -1    0    0    0    0  0.00000000000E+00  0.00000000000E+00  0.14999999963E+04  0.15000000000E+04  0.10566000000E+00 0. -1.
        994   -1    0    0    0    0 -0.00000000000E+00 -0.00000000000E+00  0.11368683772E-12  0.17120000000E+03  0.17120000000E+03 0.  0.
         13    1    1    2    0    0  0.14588588326E+02  0.98543531306E+01  0.23529881736E+02  0.29387100631E+02  0.10566000000E+00 0. -1.
        994    1    1    2    0    0 -0.12823342938E+02 -0.91772241218E+01  0.67495821906E+01  0.17205713129E+03  0.17120000000E+03 0.  0.
        998    1    1    2    0    0 -0.17652453879E+01 -0.67712900884E+00  0.14697205324E+04  0.14697557681E+04  0.10000000000E+02 0. -1.
</event>
<event>
 5    1  0.1344348E-008  0.3760604E+03  0.7957747E-01  0.3468494E+00
         13   -1    0    0    0    0  0.00000000000E+00  0.00000000000E+00  0.14999999963E+04  0.15000000000E+04  0.10566000000E+00 0.  1.
        994   -1    0    0    0    0 -0.00000000000E+00 -0.00000000000E+00  0.11368683772E-12  0.17120000000E+03  0.17120000000E+03 0.  0.
         13    1    1    2    0    0 -0.89256128961E+01  0.40890656474E+02  0.12859558080E+03  0.13523515415E+03  0.10566000000E+00 0.  1.
        994    1    1    2    0    0  0.12652178805E+02 -0.41514628462E+02  0.12541710538E+02  0.17706009293E+03  0.17120000000E+03 0.  0.
        998    1    1    2    0    0 -0.37265659085E+01  0.62397198733E+00  0.13588627049E+04  0.13589047529E+04  0.10000000000E+02 0.  1.
</event>
<event>
 5    1  0.1344348E-008  0.3720186E+03  0.7957747E-01  0.3486665E+00
         13   -1    0    0    0    0  0.00000000000E+00  0.00000000000E+00  0.14999999963E+04  0.15000000000E+04  0.10566000000E+00 0.  1.
        994   -1    0    0    0    0 -0.00000000000E+00 -0.00000000000E+00  0.11368683772E-12  0.17120000000E+03  0.17120000000E+03 0.  0.
         13    1    1    2    0    0 -0.64860439887E+02  0.12615352970E+02  0.39780426904E+03  0.40325459876E+03  0.10566000000E+00 0.  1.
        994    1    1    2    0    0 -0.11684329416E+02 -0.18658747787E+02  0.98838104593E+01  0.17289245829E+03  0.17120000000E+03 0.  0.
        998    1    1    2    0    0  0.76544769303E+02  0.60433948174E+01  0.10923119168E+04  0.10950529430E+04  0.10000000000E+02 0.  1.
</event>
<event>
 5    1  0.1344348E-008  0.3828877E+03  0.7957747E-01  0.3438680E+00
         13   -1    0    0    0    0  0.00000000000E+00  0.00000000000E+00  0.14999999963E+04  0.15000000000E+04  0.10566000000E+00 0.  1.
        994   -1    0    0    0    0 -0.00000000000E+00 -0.00000000000E+00  0.11368683772E-12  0.17120000000E+03  0.17120000000E+03 0.  0.
         13    1    1    2    0    0  0.63568452392E+01  0.13334216649E+02  0.41283504474E+02  0.43846889522E+02  0.10566000000E+00 0.  1.
        994    1    1    2    0    0  0.27886228031E+02 -0.14996588845E+02  0.60093072269E+01  0.17420703535E+03  0.17120000000E+03 0.  0.
        998    1    1    2    0    0 -0.34243073270E+02  0.16623721960E+01  0.14527071846E+04  0.14531460751E+04  0.10000000000E+02 0.  1.
</event>
<event>
 5    1  0.1344348E-008  0.3754913E+03  0.7957747E-01  0.3471028E+00
         13   -1    0    0    0    0  0.00000000000E+00  0.00000000000E+00  0.14999999963E+04  0.15000000000E+04  0.10566000000E+00 0. -1.
        994   -1    0    0    0    0 -0.00000000000E+00 -0.00000000000E+00  0.11368683772E-12  0.17120000000E+03  0.17120000000E+03 0.  0.
         13    1    1    2    0    0 -0.10198951635E+02 -0.12929528750E+02  0.18408349872E+02  0.24699591842E+02  0.10566000000E+00 0. -1.
        994    1    1    2    0    0  0.42807913445E+01  0.91851814246E+01  0.67752025882E+01  0.17163343527E+03  0.17120000000E+03 0.  0.
        998    1    1    2    0    0  0.59181602901E+01  0.37443473252E+01  0.14748164438E+04  0.14748669729E+04  0.10000000000E+02 0. -1.
</event>
<event>
 5    1  0.1344348E-008  0.3856743E+03  0.7957747E-01  0.3426818E+00
         13   -1    0    0    0    0  0.00000000000E+00  0.00000000000E+00  0.14999999963E+04  0.15000000000E+04  0.10566000000E+00 0.  1.
        994   -1    0    0    0    0 -0.00000000000E+00 -0.00000000000E+00  0.11368683772E-12  0.17120000000E+03  0.17120000000E+03 0.  0.
         13    1    1    2    0    0 -0.58544173716E+01 -0.92708087089E+01  0.46088789897E+02  0.47375202533E+02  0.10566000000E+00 0.  1.
        994    1    1    2    0    0 -0.21613447268E+00  0.11484766195E+02  0.17288498138E+01  0.17159363476E+03  0.17120000000E+03 0.  0.
        998    1    1    2    0    0  0.60705518443E+01 -0.22139574858E+01  0.14521823566E+04  0.14522311627E+04  0.10000000000E+02 0.  1.
</event>
<event>
 5    1  0.1344348E-008  0.3841162E+03  0.7957747E-01  0.3433429E+00
         13   -1    0    0    0    0  0.00000000000E+00  0.00000000000E+00  0.14999999963E+04  0.15000000000E+04  0.10566000000E+00 0. -1.
        994   -1    0    0    0    0 -0.00000000000E+00 -0.00000000000E+00  0.11368683772E-12  0.17120000000E+03  0.17120000000E+03 0.  0.
         13    1    1    2    0    0 -0.13859902394E+02 -0.40173627371E+01  0.50973576118E+02  0.52976907459E+02  0.10566000000E+00 0. -1.
        994    1    1    2    0    0  0.61342875210E+01 -0.20335056586E+01  0.22073155332E+01  0.17133615167E+03  0.17120000000E+03 0.  0.
        998    1    1    2    0    0  0.77256148725E+01  0.60508683956E+01  0.14468191046E+04  0.14468869409E+04  0.10000000000E+02 0. -1.
</event>
<event>
 5    1  0.1344348E-008  0.3816317E+03  0.7957747E-01  0.3444084E+00
         13   -1    0    0    0    0  0.00000000000E+00  0.00000000000E+00  0.14999999963E+04  0.15000000000E+04  0.10566000000E+00 0.  1.
        994   -1    0    0    0    0 -0.00000000000E+00 -0.00000000000E+00  0.11368683772E-12  0.17120000000E+03  0.17120000000E+03 0.  0.
         13    1    1    2    0    0  0.20619504044E+02  0.27410916414E+02  0.15615712428E+03  0.15987989527E+03  0.10566000000E+00 0.  1.
        994    1    1    2    0    0 -0.24417803134E+02 -0.28773584021E+02  0.80615250664E+01  0.17549523194E+03  0.17120000000E+03 0.  0.
        998    1    1    2    0    0  0.37982990901E+01  0.13626676071E+01  0.13357813469E+04  0.13358248728E+04  0.10000000000E+02 0.  1.
</event>
<event>
 5    1  0.1344348E-008  0.3781344E+03  0.7957747E-01  0.3459322E+00
         13   -1    0    0    0    0  0.00000000000E+00  0.00000000000E+00  0.14999999963E+04  0.15000000000E+04  0.10566000000E+00 0.  1.
        994   -1    0    0    0    0 -0.00000000000E+00 -0.00000000000E+00  0.11368683772E-12  0.17120000000E+03  0.17120000000E+03 0.  0.
         13    1    1    2    0    0 -0.14707153998E+02  0.15520976206E+01  0.19500361677E+02  0.24474163016E+02  0.10566000000E+00 0.  1.
        994    1    1    2    0    0  0.64245579118E+01 -0.13260622894E+02  0.58085248385E+01  0.17193108510E+03  0.17120000000E+03 0.  0.
        998    1    1    2    0    0  0.82825960865E+01  0.11708525273E+02  0.14746911098E+04  0.14747947519E+04  0.10000000000E+02 0.  1.
</event>
<event>
 5    1  0.1344348E-008  0.3821558E+03  0.7957747E-01  0.3441825E+00
         13   -1    0    0    0    0  0.00000000000E+00  0.00000000000E+00  0.14999999963E+04  0.15000000000E+04  0.10566000000E+00 0. -1.
        994   -1    0    0    0    0 -0.00000000000E+00 -0.00000000000E+00  0.11368683772E-12  0.17120000000E+03  0.17120000000E+03 0.  0.
         13    1    1    2    0    0  0.91385218306E+01 -0.92607905240E+01  0.28120617196E+02  0.30984755895E+02  0.10566000000E+00 0. -1.
        994    1    1    2    0    0  0.12362632610E-02 -0.10443368070E+02  0.34109562993E+01  0.17155214531E+03  0.17120000000E+03 0.  0.
        998    1    1    2    0    0 -0.91397580939E+01  0.19704158594E+02  0.14684684228E+04  0.14686630988E+04  0.10000000000E+02 0. -1.
</event>
<event>
 5    1  0.1344348E-008  0.3732119E+03  0.7957747E-01  0.3481259E+00
         13   -1    0    0    0    0  0.00000000000E+00  0.00000000000E+00  0.14999999963E+04  0.15000000000E+04  0.10566000000E+00 0. -1.
        994   -1    0    0    0    0 -0.00000000000E+00 -0.00000000000E+00  0.11368683772E-12  0.17120000000E+03  0.17120000000E+03 0.  0.
         13    1    1    2    0    0  0.38745275315E+02  0.14759966869E+03  0.74238568541E+03  0.75790723418E+03  0.10566000000E+00 0. -1.
        994    1    1    2    0    0 -0.39046668539E+02 -0.14345956433E+03  0.87428482981E+02  0.24301948185E+03  0.17120000000E+03 0.  0.
        998    1    1    2    0    0  0.30139322381E+00 -0.41401043582E+01  0.67018582789E+03  0.67027328397E+03  0.10000000000E+02 0.  0.
</event>
<event>
 5    1  0.1344348E-008  0.3830157E+03  0.7957747E-01  0.3438132E+00
         13   -1    0    0    0    0  0.00000000000E+00  0.00000000000E+00  0.14999999963E+04  0.15000000000E+04  0.10566000000E+00 0. -1.
        994   -1    0    0    0    0 -0.00000000000E+00 -0.00000000000E+00  0.11368683772E-12  0.17120000000E+03  0.17120000000E+03 0.  0.
         13    1    1    2    0    0 -0.74874665592E+01 -0.15529753762E+02  0.59191068355E+02  0.61650864912E+02  0.10566000000E+00 0. -1.
        994    1    1    2    0    0  0.69372094621E+01 -0.33528681110E+01  0.28150510976E+01  0.17139641511E+03  0.17120000000E+03 0.  0.
        998    1    1    2    0    0  0.55025709701E+00  0.18882621873E+02  0.14379938768E+04  0.14381527200E+04  0.10000000000E+02 0. -1.
</event>
<event>
 5    1  0.1344348E-008  0.3763808E+03  0.7957747E-01  0.3467070E+00
         13   -1    0    0    0    0  0.00000000000E+00  0.00000000000E+00  0.14999999963E+04  0.15000000000E+04  0.10566000000E+00 0. -1.
        994   -1    0    0    0    0 -0.00000000000E+00 -0.00000000000E+00  0.11368683772E-12  0.17120000000E+03  0.17120000000E+03 0.  0.
         13    1    1    2    0    0 -0.48519657261E+02 -0.66910454036E+01  0.18382198571E+03  0.19023527755E+03  0.10566000000E+00 0. -1.
        994    1    1    2    0    0  0.39435003734E+02  0.20899435343E+02  0.12740763791E+02  0.17738002418E+03  0.17120000000E+03 0.  0.
        998    1    1    2    0    0  0.90846535270E+01 -0.14208389940E+02  0.13034372468E+04  0.13035846983E+04  0.10000000000E+02 0. -1.
</event>
<event>
 5    1  0.1886225E-008  0.3862700E+03  0.7957747E-01  0.3424304E+00
         13   -1    0    0    0    0  0.00000000000E+00  0.00000000000E+00  0.14999999963E+04  0.15000000000E+04  0.10566000000E+00 0.  1.
        994   -1    0    0    0    0 -0.00000000000E+00 -0.00000000000E+00  0.11368683772E-12  0.17120000000E+03  0.17120000000E+03 0.  0.
         13    1    1    2    0    0  0.10227446093E+02 -0.16738338552E+01  0.54160773149E+02  0.55143475457E+02  0.10566000000E+00 0.  1.
        994    1    1    2    0    0 -0.80438741526E+01  0.21805058787E+00  0.12129915066E+01  0.17139329860E+03  0.17120000000E+03 0.  0.
        998    1    1    2    0    0 -0.21835719400E+01  0.14557832673E+01  0.14446262316E+04  0.14446632259E+04  0.10000000000E+02 0.  1.
</event>
<event>
 5    1  0.1344348E-008  0.3733127E+03  0.7957747E-01  0.3480803E+00
         13   -1    0    0    0    0  0.00000000000E+00  0.00000000000E+00  0.14999999963E+04  0.15000000000E+04  0.10566000000E+00 0.  1.
        994   -1    0    0    0    0 -0.00000000000E+00 -0.00000000000E+00  0.11368683772E-12  0.17120000000E+03  0.17120000000E+03 0.  0.
         13    1    1    2    0    0 -0.23123303192E+02 -0.51834564410E+02  0.28353624373E+03  0.28916141148E+03  0.10566000000E+00 0.  1.
        994    1    1    2    0    0 -0.19038895006E+02  0.11588326644E+00  0.87879542955E+01  0.17247945122E+03  0.17120000000E+03 0.  0.
        998    1    1    2    0    0  0.42162198198E+02  0.51718681144E+02  0.12076757983E+04  0.12095591373E+04  0.10000000000E+02 0.  1.
</event>
<event>
 5    1  0.1344348E-008  0.3843877E+03  0.7957747E-01  0.3432273E+00
         13   -1    0    0    0    0  0.00000000000E+00  0.00000000000E+00  0.14999999963E+04  0.15000000000E+04  0.10566000000E+00 0. -1.
        994   -1    0    0    0    0 -0.00000000000E+00 -0.00000000000E+00  0.11368683772E-12  0.17120000000E+03  0.17120000000E+03 0.  0.
         13    1    1    2    0    0  0.15497925791E+02 -0.88378685760E+01  0.85649597482E+02  0.87488046827E+02  0.10566000000E+00 0. -1.
        994    1    1    2    0    0 -0.84334435176E+01 -0.44733723253E+01  0.22347772002E+01  0.17148051860E+03  0.17120000000E+03 0.  0.
        998    1    1    2    0    0 -0.70644822731E+01  0.13311240901E+02  0.14121156216E+04  0.14122314346E+04  0.10000000000E+02 0. -1.
</event>
<event>
 5    1  0.1344348E-008  0.3827405E+03  0.7957747E-01  0.3439312E+00
         13   -1    0    0    0    0  0.00000000000E+00  0.00000000000E+00  0.14999999963E+04  0.15000000000E+04  0.10566000000E+00 0. -1.
        994   -1    0    0    0    0 -0.00000000000E+00 -0.00000000000E+00  0.11368683772E-12  0.17120000000E+03  0.17120000000E+03 0.  0.
         13    1    1    2    0    0 -0.53407975168E+01  0.98010909437E+01  0.21470324426E+02  0.24198584603E+02  0.10566000000E+00 0. -1.
        994    1    1    2    0    0  0.94384382840E+00 -0.10083498838E+02  0.30959591544E+01  0.17152723618E+03  0.17120000000E+03 0.  0.
        998    1    1    2    0    0  0.43969536884E+01  0.28240789437E+00  0.14754337127E+04  0.14754741792E+04  0.10000000000E+02 0. -1.
</event>
<event>
 5    1  0.1344348E-008  0.3763617E+03  0.7957747E-01  0.3467155E+00
         13   -1    0    0    0    0  0.00000000000E+00  0.00000000000E+00  0.14999999963E+04  0.15000000000E+04  0.10566000000E+00 0. -1.
        994   -1    0    0    0    0 -0.00000000000E+00 -0.00000000000E+00  0.11368683772E-12  0.17120000000E+03  0.17120000000E+03 0.  0.
         13    1    1    2    0    0 -0.55409919859E+02 -0.15150648708E+02  0.23807426343E+03  0.24490644632E+03  0.10566000000E+00 0. -1.
        994    1    1    2    0    0  0.56048776591E+02 -0.70581685826E+00  0.16687440251E+02  0.18091399669E+03  0.17120000000E+03 0.  0.
        998    1    1    2    0    0 -0.63885673249E+00  0.15856465567E+02  0.12452382926E+04  0.12453795570E+04  0.10000000000E+02 0. -1.
</event>
<event>
 5    1  0.1344348E-008  0.3754424E+03  0.7957747E-01  0.3471247E+00
         13   -1    0    0    0    0  0.00000000000E+00  0.00000000000E+00  0.14999999963E+04  0.15000000000E+04  0.10566000000E+00 0. -1.
        994   -1    0    0    0    0 -0.00000000000E+00 -0.00000000000E+00  0.11368683772E-12  0.17120000000E+03  0.17120000000E+03 0.  0.
         13    1    1    2    0    0  0.13453800287E+02 -0.86267553022E+01  0.36350548478E+01  0.16390559386E+02  0.10566000000E+00 0. -1.
        994    1    1    2    0    0  0.25231919505E+02 -0.42770458236E+02  0.22687291702E+02  0.17969450483E+03  0.17120000000E+03 0.  0.
        998    1    1    2    0    0 -0.38685719793E+02  0.51397213538E+02  0.14736776497E+04  0.14751149358E+04  0.10000000000E+02 0. -1.
</event>
<event>
 5    1  0.1344348E-008  0.3828258E+03  0.7957747E-01  0.3438946E+00
         13   -1    0    0    0    0  0.00000000000E+00  0.00000000000E+00  0.14999999963E+04  0.15000000000E+04  0.10566000000E+00 0.  1.
        994   -1    0    0    0    0 -0.00000000000E+00 -0.00000000000E+00  0.11368683772E-12  0.17120000000E+03  0.17120000000E+03 0.  0.
         13    1    1    2    0    0  0.95754036822E+01 -0.53990463983E+01  0.21539603197E+02  0.24182715473E+02  0.10566000000E+00 0.  1.
        994    1    1    2    0    0 -0.33173067933E-01  0.70414266827E+01  0.28776710172E+01  0.17136891136E+03  0.17120000000E+03 0.  0.
        998    1    1    2    0    0 -0.95422306143E+01 -0.16423802844E+01  0.14755827221E+04  0.14756483732E+04  0.10000000000E+02 0.  1.
</event>
<event>
 5    1  0.1344348E-008  0.3848100E+03  0.7957747E-01  0.3430478E+00
         13   -1    0    0    0    0  0.00000000000E+00  0.00000000000E+00  0.14999999963E+04  0.15000000000E+04  0.10566000000E+00 0. -1.
        994   -1    0    0    0    0 -0.00000000000E+00 -0.00000000000E+00  0.11368683772E-12  0.17120000000E+03  0.17120000000E+03 0.  0.
         13    1    1    2    0    0 -0.90621828381E+01 -0.11436732651E+02  0.59064144154E+02  0.60840005754E+02  0.10566000000E+00 0. -1.
        994    1    1    2    0    0  0.11044080429E+02  0.12852644565E+02  0.26700327054E+01  0.17205734875E+03  0.17120000000E+03 0.  0.
        998    1    1    2    0    0 -0.19818975908E+01 -0.14159119136E+01  0.14382658194E+04  0.14383026455E+04  0.10000000000E+02 0. -1.
</event>
<event>
 5    1  0.1344348E-008  0.4368990E+03  0.7957747E-01  0.3235555E+00
         13   -1    0    0    0    0  0.00000000000E+00  0.00000000000E+00  0.14999999963E+04  0.15000000000E+04  0.10566000000E+00 0.  1.
        994   -1    0    0    0    0 -0.00000000000E+00 -0.00000000000E+00  0.11368683772E-12  0.17120000000E+03  0.17120000000E+03 0.  0.
         13    1    1    2    0    0 -0.76135064174E+02  0.48887433467E+02  0.61386256429E+02  0.10933806652E+03  0.10566000000E+00 0.  1.
        994    1    1    2    0    0  0.74897029312E+02 -0.44549952171E+02  0.88165284122E+02  0.21136892052E+03  0.17120000000E+03 0.  0.
        998    1    1    2    0    0  0.12380348611E+01 -0.43374812961E+01  0.13504484557E+04  0.13504930130E+04  0.10000000000E+02 0.  1.
</event>
<event>
 5    1  0.1344348E-008  0.3860579E+03  0.7957747E-01  0.3425198E+00
         13   -1    0    0    0    0  0.00000000000E+00  0.00000000000E+00  0.14999999963E+04  0.15000000000E+04  0.10566000000E+00 0.  1.
        994   -1    0    0    0    0 -0.00000000000E+00 -0.00000000000E+00  0.11368683772E-12  0.17120000000E+03  0.17120000000E+03 0.  0.
         13    1    1    2    0    0  0.11003407000E+02 -0.34072439244E+01  0.55452787579E+02  0.56636623232E+02  0.10566000000E+00 0.  1.
        994    1    1    2    0    0 -0.21444692122E+02  0.14992792503E+01  0.26218697473E+01  0.17256429775E+03  0.17120000000E+03 0.  0.
        998    1    1    2    0    0  0.10441285121E+02  0.19079646740E+01  0.14419253390E+04  0.14419990790E+04  0.10000000000E+02 0.  1.
</event>
<event>
 5    1  0.1344348E-008  0.3809640E+03  0.7957747E-01  0.3446972E+00
         13   -1    0    0    0    0  0.00000000000E+00  0.00000000000E+00  0.14999999963E+04  0.15000000000E+04  0.10566000000E+00 0. -1.
        994   -1    0    0    0    0 -0.00000000000E+00 -0.00000000000E+00  0.11368683772E-12  0.17120000000E+03  0.17120000000E+03 0.  0.
         13    1    1    2    0    0 -0.17658010241E+02 -0.94463694709E+01  0.56319687189E+02  0.59774221458E+02  0.10566000000E+00 0. -1.
        994    1    1    2    0    0  0.28349005456E+01 -0.22360459895E+01  0.36907664969E+01  0.17127783955E+03  0.17120000000E+03 0.  0.
        998    1    1    2    0    0  0.14823109696E+02  0.11682415460E+02  0.14399895426E+04  0.14401479390E+04  0.10000000000E+02 0. -1.
</event>
<event>
 5    1  0.1344348E-008  0.2380949E+03  0.7957747E-01  0.4469191E+00
         13   -1    0    0    0    0  0.00000000000E+00  0.00000000000E+00  0.14999999963E+04  0.15000000000E+04  0.10566000000E+00 0. -1.
        994   -1    0    0    0    0 -0.00000000000E+00 -0.00000000000E+00  0.11368683772E-12  0.17120000000E+03  0.17120000000E+03 0.  0.
         13    1    1    2    0    0  0.10758205351E+03  0.13185237905E+03  0.38155372229E+03  0.41778248199E+03  0.10566000000E+00 0. -1.
        994    1    1    2    0    0 -0.22203693226E+02 -0.61265169307E+02  0.65390869270E+02  0.19450406357E+03  0.17120000000E+03 0.  0.
        998    1    1    2    0    0 -0.85378360285E+02 -0.70587209739E+02  0.10530554047E+04  0.10589134544E+04  0.10000000000E+02 0. -1.
</event>
<event>
 5    1  0.1344348E-008  0.3777272E+03  0.7957747E-01  0.3461115E+00
         13   -1    0    0    0    0  0.00000000000E+00  0.00000000000E+00  0.14999999963E+04  0.15000000000E+04  0.10566000000E+00 0.  1.
        994   -1    0    0    0    0 -0.00000000000E+00 -0.00000000000E+00  0.11368683772E-12  0.17120000000E+03  0.17120000000E+03 0.  0.
         13    1    1    2    0    0  0.15435244305E+02  0.10142444051E+02  0.31332019474E+02  0.36370627523E+02  0.10566000000E+00 0.  1.
        994    1    1    2    0    0  0.44648736931E+01 -0.47591499226E+01  0.54282878224E+01  0.17141029991E+03  0.17120000000E+03 0.  0.
        998    1    1    2    0    0 -0.19900117998E+02 -0.53832941283E+01  0.14632396890E+04  0.14634190726E+04  0.10000000000E+02 0.  1.
</event>
<event>
 5    1  0.1344348E-008  0.3821962E+03  0.7957747E-01  0.3441651E+00
         13   -1    0    0    0    0  0.00000000000E+00  0.00000000000E+00  0.14999999963E+04  0.15000000000E+04  0.10566000000E+00 0. -1.
        994   -1    0    0    0    0 -0.00000000000E+00 -0.00000000000E+00  0.11368683772E-12  0.17120000000E+03  0.17120000000E+03 0.  0.
         13    1    1    2    0    0 -0.17795459537E+02 -0.10942172098E+02  0.70582848767E+02  0.73609504919E+02  0.10566000000E+00 0. -1.
        994    1    1    2    0    0  0.11509837972E+02  0.93307986896E+01  0.37575517879E+01  0.17188106170E+03  0.17120000000E+03 0.  0.
        998    1    1    2    0    0  0.62856215646E+01  0.16113734087E+01  0.14256595957E+04  0.14257094334E+04  0.10000000000E+02 0. -1.
</event>
<event>
 5    1  0.1344348E-008  0.3855003E+03  0.7957747E-01  0.3427553E+00
         13   -1    0    0    0    0  0.00000000000E+00  0.00000000000E+00  0.14999999963E+04  0.15000000000E+04  0.10566000000E+00 0. -1.
        994   -1    0    0    0    0 -0.00000000000E+00 -0.00000000000E+00  0.11368683772E-12  0.17120000000E+03  0.17120000000E+03 0.  0.
         13    1    1    2    0    0 -0.14298439402E+02 -0.71955758945E+01  0.91008774309E+02  0.92405789034E+02  0.10566000000E+00 0. -1.
        994    1    1    2    0    0  0.13416938781E+02  0.28210416775E+01  0.19993688096E+01  0.17175974499E+03  0.17120000000E+03 0.  0.
        998    1    1    2    0    0  0.88150062089E+00  0.43745342170E+01  0.14069918532E+04  0.14070344660E+04  0.10000000000E+02 0. -1.
</event>
<event>
 5    1  0.1873454E-008  0.3860234E+03  0.7957747E-01  0.3425343E+00
         13   -1    0    0    0    0  0.00000000000E+00  0.00000000000E+00  0.14999999963E+04  0.15000000000E+04  0.10566000000E+00 0.  1.
        994   -1    0    0    0    0 -0.00000000000E+00 -0.00000000000E+00  0.11368683772E-12  0.17120000000E+03  0.17120000000E+03 0.  0.
         13    1    1    2    0    0 -0.26208642575E+01 -0.10253861246E+02  0.47914090464E+02  0.49069153538E+02  0.10566000000E+00 0.  1.
        994    1    1    2    0    0  0.54709527161E+01  0.14305473668E+02  0.18921453062E+01  0.17189414799E+03  0.17120000000E+03 0.  0.
        998    1    1    2    0    0 -0.28500884586E+01 -0.40516124221E+01  0.14501937605E+04  0.14502366985E+04  0.10000000000E+02 0.  1.
</event>
<event>
 5    1  0.1344348E-008  0.3795491E+03  0.7957747E-01  0.3453124E+00
         13   -1    0    0    0    0  0.00000000000E+00  0.00000000000E+00  0.14999999963E+04  0.15000000000E+04  0.10566000000E+00 0. -1.
        994   -1    0    0    0    0 -0.00000000000E+00 -0.00000000000E+00  0.11368683772E-12  0.17120000000E+03  0.17120000000E+03 0.  0.
         13    1    1    2    0    0 -0.26221274437E+02 -0.14140469605E+02  0.94080476332E+02  0.98684625473E+02  0.10566000000E+00 0. -1.
        994    1    1    2    0    0  0.27783067011E+02  0.14282297432E+02  0.76349718636E+01  0.17419418942E+03  0.17120000000E+03 0.  0.
        998    1    1    2    0    0 -0.15617925734E+01 -0.14182782670E+00  0.13982845481E+04  0.13983211851E+04  0.10000000000E+02 0.  0.
</event>
<event>
 5    1  0.1344348E-008  0.3852656E+03  0.7957747E-01  0.3428547E+00
         13   -1    0    0    0    0  0.00000000000E+00  0.00000000000E+00  0.14999999963E+04  0.15000000000E+04  0.10566000000E+00 0.  1.
        994   -1    0    0    0    0 -0.00000000000E+00 -0.00000000000E+00  0.11368683772E-12  0.17120000000E+03  0.17120000000E+03 0.  0.
         13    1    1    2    0    0  0.11652635037E+02  0.81576482388E+01  0.80351968887E+02  0.81601355357E+02  0.10566000000E+00 0.  1.
        994    1    1    2    0    0 -0.44153137862E+01  0.27670132805E+02  0.40824108670E+01  0.17352589814E+03  0.17120000000E+03 0.  0.
        998    1    1    2    0    0 -0.72373212505E+01 -0.35827781044E+02  0.14155656165E+04  0.14160727465E+04  0.10000000000E+02 0.  1.
</event>
<event>
 5    1  0.1405033E-008  0.3859675E+03  0.7957747E-01  0.3425579E+00
         13   -1    0    0    0    0  0.00000000000E+00  0.00000000000E+00  0.14999999963E+04  0.15000000000E+04  0.10566000000E+00 0.  1.
        994   -1    0    0    0    0 -0.00000000000E+00 -0.00000000000E+00  0.11368683772E-12  0.17120000000E+03  0.17120000000E+03 0.  0.
         13    1    1    2    0    0 -0.81468570045E+01 -0.10917748887E+02  0.81029692677E+02  0.82166847202E+02  0.10566000000E+00 0.  1.
        994    1    1    2    0    0  0.21317578306E+01  0.10499229365E+02  0.15269345997E+01  0.17154168513E+03  0.17120000000E+03 0.  0.
        998    1    1    2    0    0  0.60150991739E+01  0.41851952220E+00  0.14174433690E+04  0.14174914677E+04  0.10000000000E+02 0.  1.
</event>
<event>
 5    1  0.1344348E-008  0.3852381E+03  0.7957747E-01  0.3428663E+00
         13   -1    0    0    0    0  0.00000000000E+00  0.00000000000E+00  0.14999999963E+04  0.15000000000E+04  0.10566000000E+00 0. -1.
        994   -1    0    0    0    0 -0.00000000000E+00 -0.00000000000E+00  0.11368683772E-12  0.17120000000E+03  0.17120000000E+03 0.  0.
         13    1    1    2    0    0  0.23770626594E+01  0.10185188298E+02  0.37407140323E+02  0.38841907764E+02  0.10566000000E+00 0. -1.
        994    1    1    2    0    0  0.30774507760E+01 -0.88389864412E+00  0.15456875684E+01  0.17123691521E+03  0.17120000000E+03 0.  0.
        998    1    1    2    0    0 -0.54545134355E+01 -0.93012896538E+01  0.14610471684E+04  0.14611211770E+04  0.10000000000E+02 0. -1.
</event>
<event>
 5    1  0.1344348E-008  0.3844596E+03  0.7957747E-01  0.3431967E+00
         13   -1    0    0    0    0  0.00000000000E+00  0.00000000000E+00  0.14999999963E+04  0.15000000000E+04  0.10566000000E+00 0. -1.
        994   -1    0    0    0    0 -0.00000000000E+00 -0.00000000000E+00  0.11368683772E-12  0.17120000000E+03  0.17120000000E+03 0.  0.
         13    1    1    2    0    0  0.92850524699E+01  0.63878907416E+01  0.37848737295E+02  0.39491206950E+02  0.10566000000E+00 0. -1.
        994    1    1    2    0    0  0.16655899779E+02  0.13609892094E+02  0.34242971737E+01  0.17257987708E+03  0.17120000000E+03 0.  0.
        998    1    1    2    0    0 -0.25940952249E+02 -0.19997782836E+02  0.14587269618E+04  0.14591289160E+04  0.10000000000E+02 0. -1.
</event>
<event>
 5    1  0.1344348E-008  0.3826591E+03  0.7957747E-01  0.3439661E+00
         13   -1    0    0    0    0  0.00000000000E+00  0.00000000000E+00  0.14999999963E+04  0.15000000000E+04  0.10566000000E+00 0. -1.
        994   -1    0    0    0    0 -0.00000000000E+00 -0.00000000000E+00  0.11368683772E-12  0.17120000000E+03  0.17120000000E+03 0.  0.
         13    1    1    2    0    0  0.67212648661E+01 -0.83054640576E+01  0.19689113687E+02  0.22401528886E+02  0.10566000000E+00 0. -1.
        994    1    1    2    0    0 -0.79822515941E-01  0.18745459227E+01  0.28084875260E+01  0.17123331421E+03  0.17120000000E+03 0.  0.
        998    1    1    2    0    0 -0.66414423501E+01  0.64309181350E+01  0.14775023951E+04  0.14775651569E+04  0.10000000000E+02 0. -1.
</event>
<event>
 5    1  0.1344348E-008  0.3766516E+03  0.7957747E-01  0.3465869E+00
         13   -1    0    0    0    0  0.00000000000E+00  0.00000000000E+00  0.14999999963E+04  0.15000000000E+04  0.10566000000E+00 0. -1.
        994   -1    0    0    0    0 -0.00000000000E+00 -0.00000000000E+00  0.11368683772E-12  0.17120000000E+03  0.17120000000E+03 0.  0.
         13    1    1    2    0    0  0.30730175143E+02 -0.33145740728E+02  0.15686569209E+03  0.16324778808E+03  0.10566000000E+00 0. -1.
        994    1    1    2    0    0 -0.24635767360E+02  0.37797562110E+02  0.12745162542E+02  0.17750339688E+03  0.17120000000E+03 0.  0.
        998    1    1    2    0    0 -0.60944077829E+01 -0.46518213816E+01  0.13303891416E+04  0.13304488150E+04  0.10000000000E+02 0. -1.
</event>
<event>
 5    1  0.1344348E-008  0.3976763E+03  0.7957747E-01  0.3377627E+00
         13   -1    0    0    0    0  0.00000000000E+00  0.00000000000E+00  0.14999999963E+04  0.15000000000E+04  0.10566000000E+00 0.  1.
        994   -1    0    0    0    0 -0.00000000000E+00 -0.00000000000E+00  0.11368683772E-12  0.17120000000E+03  0.17120000000E+03 0.  0.
         13    1    1    2    0    0 -0.58142375575E+02 -0.57733363292E+02  0.15114436549E+03  0.17192529616E+03  0.10566000000E+00 0.  1.
        994    1    1    2    0    0 -0.32960556300E+02  0.94942241916E+01  0.30972511683E+02  0.17732815638E+03  0.17120000000E+03 0.  0.
        998    1    1    2    0    0  0.91102931875E+02  0.48239139100E+02  0.13178831191E+04  0.13219465475E+04  0.10000000000E+02 0.  1.
</event>
<event>
 5    1  0.1344348E-008  0.3846511E+03  0.7957747E-01  0.3431153E+00
         13   -1    0    0    0    0  0.00000000000E+00  0.00000000000E+00  0.14999999963E+04  0.15000000000E+04  0.10566000000E+00 0. -1.
        994   -1    0    0    0    0 -0.00000000000E+00 -0.00000000000E+00  0.11368683772E-12  0.17120000000E+03  0.17120000000E+03 0.  0.
         13    1    1    2    0    0  0.48930516060E+01 -0.88031580153E+01  0.27154640270E+02  0.28962444601E+02  0.10566000000E+00 0. -1.
        994    1    1    2    0    0 -0.98379746913E+01  0.83616021746E+01  0.23524724356E+01  0.17170228963E+03  0.17120000000E+03 0.  0.
        998    1    1    2    0    0  0.49449230853E+01  0.44155584072E+00  0.14704928836E+04  0.14705352658E+04  0.10000000000E+02 0. -1.
</event>
<event>
 5    1  0.1344348E-008  0.3823534E+03  0.7957747E-01  0.3440975E+00
         13   -1    0    0    0    0  0.00000000000E+00  0.00000000000E+00  0.14999999963E+04  0.15000000000E+04  0.10566000000E+00 0.  1.
        994   -1    0    0    0    0 -0.00000000000E+00 -0.00000000000E+00  0.11368683772E-12  0.17120000000E+03  0.17120000000E+03 0.  0.
         13    1    1    2    0    0  0.63964939518E+01 -0.18222079930E+02  0.60195313705E+02  0.63217452400E+02  0.10566000000E+00 0.  1.
        994    1    1    2    0    0 -0.48179989892E+01  0.19237022579E+02  0.42554800417E+01  0.17239728902E+03  0.17120000000E+03 0.  0.
        998    1    1    2    0    0 -0.15784949626E+01 -0.10149426485E+01  0.14355492025E+04  0.14355852586E+04  0.10000000000E+02 0.  1.
</event>
<event>
 5    1  0.1344348E-008  0.3710868E+03  0.7957747E-01  0.3490911E+00
         13   -1    0    0    0    0  0.00000000000E+00  0.00000000000E+00  0.14999999963E+04  0.15000000000E+04  0.10566000000E+00 0. -1.
        994   -1    0    0    0    0 -0.00000000000E+00 -0.00000000000E+00  0.11368683772E-12  0.17120000000E+03  0.17120000000E+03 0.  0.
         13    1    1    2    0    0  0.75574500255E+01 -0.11875490749E+02  0.32757784568E+01  0.14452827403E+02  0.10566000000E+00 0. -1.
        994    1    1    2    0    0 -0.93911055812E+01  0.12055746571E+02  0.12334580395E+02  0.17232270820E+03  0.17120000000E+03 0.  0.
        998    1    1    2    0    0  0.18336555557E+01 -0.18025582158E+00  0.14843896374E+04  0.14844244644E+04  0.10000000000E+02 0. -1.
</event>
<event>
 5    1  0.1344348E-008  0.3793125E+03  0.7957747E-01  0.3454157E+00
         13   -1    0    0    0    0  0.00000000000E+00  0.00000000000E+00  0.14999999963E+04  0.15000000000E+04  0.10566000000E+00 0. -1.
        994   -1    0    0    0    0 -0.00000000000E+00 -0.00000000000E+00  0.11368683772E-12  0.17120000000E+03  0.17120000000E+03 0.  0.
         13    1    1    2    0    0  0.15473127500E+02 -0.35727990599E+02  0.15032062637E+03  0.15528106408E+03  0.10566000000E+00 0. -1.
        994    1    1    2    0    0 -0.20580266259E+02  0.35722406766E+02  0.10196397715E+02  0.17638890053E+03  0.17120000000E+03 0.  0.
        998    1    1    2    0    0  0.51071387587E+01  0.55838328394E-02  0.13394829722E+04  0.13395300354E+04  0.10000000000E+02 0. -1.
</event>
<event>
 5    1  0.1344348E-008  0.3768110E+03  0.7957747E-01  0.3465163E+00
         13   -1    0    0    0    0  0.00000000000E+00  0.00000000000E+00  0.14999999963E+04  0.15000000000E+04  0.10566000000E+00 0.  1.
        994   -1    0    0    0    0 -0.00000000000E+00 -0.00000000000E+00  0.11368683772E-12  0.17120000000E+03  0.17120000000E+03 0.  0.
         13    1    1    2    0    0  0.13665161415E+02  0.51475501596E+01  0.16155632118E+02  0.21777270773E+02  0.10566000000E+00 0.  1.
        994    1    1    2    0    0 -0.98119605337E+01  0.55099172004E+01  0.61796231017E+01  0.17168069635E+03  0.17120000000E+03 0.  0.
        998    1    1    2    0    0 -0.38532008813E+01 -0.10657467360E+02  0.14776647411E+04  0.14777420329E+04  0.10000000000E+02 0.  1.
</event>
<event>
 5    1  0.1344348E-008  0.3824835E+03  0.7957747E-01  0.3440415E+00
         13   -1    0    0    0    0  0.00000000000E+00  0.00000000000E+00  0.14999999963E+04  0.15000000000E+04  0.10566000000E+00 0.  1.
        994   -1    0    0    0    0 -0.00000000000E+00 -0.00000000000E+00  0.11368683772E-12  0.17120000000E+03  0.17120000000E+03 0.  0.
         13    1    1    2    0    0 -0.69760306104E+01  0.11401834379E+02  0.31225999311E+02  0.33966763568E+02  0.10566000000E+00 0.  1.
        994    1    1    2    0    0  0.34041326171E+01  0.52347676049E+01  0.30139810792E+01  0.17134034841E+03  0.17120000000E+03 0.  0.
        998    1    1    2    0    0  0.35718979933E+01 -0.16636601984E+02  0.14657600159E+04  0.14658928880E+04  0.10000000000E+02 0.  1.
</event>
<event>
 5    1  0.1344348E-008  0.3823990E+03  0.7957747E-01  0.3440779E+00
         13   -1    0    0    0    0  0.00000000000E+00  0.00000000000E+00  0.14999999963E+04  0.15000000000E+04  0.10566000000E+00 0. -1.
        994   -1    0    0    0    0 -0.00000000000E+00 -0.00000000000E+00  0.11368683772E-12  0.17120000000E+03  0.17120000000E+03 0.  0.
         13    1    1    2    0    0 -0.32801666021E+02 -0.25704850323E+02  0.23715847395E+03  0.24079211273E+03  0.10566000000E+00 0. -1.
        994    1    1    2    0    0  0.25829920475E+02  0.46288384343E+02  0.12302608135E+02  0.17964017781E+03  0.17120000000E+03 0.  0.
        998    1    1    2    0    0  0.69717455460E+01 -0.20583534019E+02  0.12505389142E+04  0.12507677095E+04  0.10000000000E+02 0. -1.
</event>
<event>
 5    1  0.1344348E-008  0.3836531E+03  0.7957747E-01  0.3435405E+00
         13   -1    0    0    0    0  0.00000000000E+00  0.00000000000E+00  0.14999999963E+04  0.15000000000E+04  0.10566000000E+00 0.  1.
        994   -1    0    0    0    0 -0.00000000000E+00 -0.00000000000E+00  0.11368683772E-12  0.17120000000E+03  0.17120000000E+03 0.  0.
         13    1    1    2    0    0  0.89503712317E+01 -0.17023642435E+02  0.83050740875E+02  0.85248755245E+02  0.10566000000E+00 0.  1.
        994    1    1    2    0    0 -0.39515793099E+00  0.64280842090E+01  0.24373386088E+01  0.17133842837E+03  0.17120000000E+03 0.  0.
        998    1    1    2    0    0 -0.85552133007E+01  0.10595558226E+02  0.14145119168E+04  0.14146128164E+04  0.10000000000E+02 0.  1.
</event>
<event>
 5    1  0.1344348E-008  0.3856401E+03  0.7957747E-01  0.3426962E+00
         13   -1    0    0    0    0  0.00000000000E+00  0.00000000000E+00  0.14999999963E+04  0.15000000000E+04  0.10566000000E+00 0. -1.
        994   -1    0    0    0    0 -0.00000000000E+00 -0.00000000000E+00  0.11368683772E-12  0.17120000000E+03  0.17120000000E+03 0.  0.
         13    1    1    2    0    0  0.10394143688E+02  0.39766159821E+01  0.51534174838E+02  0.52722234759E+02  0.10566000000E+00 0. -1.
        994    1    1    2    0    0  0.30862350999E+01  0.70933616900E+01  0.15090674900E+01  0.17138132311E+03  0.17120000000E+03 0.  0.
        998    1    1    2    0    0 -0.13480378788E+02 -0.11069977672E+02  0.14469567540E+04  0.14470964421E+04  0.10000000000E+02 0. -1.
</event>
<event>
 5    1  0.1344348E-008  0.3571391E+03  0.7957747E-01  0.3557169E+00
         13   -1    0    0    0    0  0.00000000000E+00  0.00000000000E+00  0.14999999963E+04  0.15000000000E+04  0.10566000000E+00 0.  1.
        994   -1    0    0    0    0 -0.00000000000E+00 -0.00000000000E+00  0.11368683772E-12  0.17120000000E+03  0.17120000000E+03 0.  0.
         13    1    1    2    0    0  0.28440907831E+03  0.27580925556E+02  0.88233245675E+03  0.92744800753E+03  0.10566000000E+00 0.  1.
        994    1    1    2    0    0 -0.27374364278E+03 -0.10426167311E+02  0.35445011554E+03  0.47957127868E+03  0.17120000000E+03 0.  0.
        998    1    1    2    0    0 -0.10665435531E+02 -0.17154758246E+02  0.26321742399E+03  0.26418071379E+03  0.10000000000E+02 0. -1.
</event>
<event>
 5    1  0.1936009E-008  0.3861461E+03  0.7957747E-01  0.3424826E+00
         13   -1    0    0    0    0  0.00000000000E+00  0.00000000000E+00  0.14999999963E+04  0.15000000000E+04  0.10566000000E+00 0.  1.
        994   -1    0    0    0    0 -0.00000000000E+00 -0.00000000000E+00  0.11368683772E-12  0.17120000000E+03  0.17120000000E+03 0.  0.
         13    1    1    2    0    0 -0.10908218918E+02  0.16325100795E+01  0.54848875967E+02  0.55946981045E+02  0.10566000000E+00 0.  1.
        994    1    1    2    0    0  0.11775231341E+02 -0.40573187435E+02  0.69320955034E+01  0.17647190587E+03  0.17120000000E+03 0.  0.
        998    1    1    2    0    0 -0.86701242236E+00  0.38940677355E+02  0.14382190248E+04  0.14387811131E+04  0.10000000000E+02 0.  1.
</event>
<event>
 5    1  0.1668060E-008  0.3861594E+03  0.7957747E-01  0.3424770E+00
         13   -1    0    0    0    0  0.00000000000E+00  0.00000000000E+00  0.14999999963E+04  0.15000000000E+04  0.10566000000E+00 0.  1.
        994   -1    0    0    0    0 -0.00000000000E+00 -0.00000000000E+00  0.11368683772E-12  0.17120000000E+03  0.17120000000E+03 0.  0.
         13    1    1    2    0    0 -0.10526406303E+02 -0.74259642910E+01  0.75239142412E+02  0.76334067691E+02  0.10566000000E+00 0.  1.
        994    1    1    2    0    0  0.13258774983E+02  0.79870236241E+01  0.18409579168E+01  0.17190816382E+03  0.17120000000E+03 0.  0.
        998    1    1    2    0    0 -0.27323686796E+01 -0.56105933308E+00  0.14229198959E+04  0.14229577685E+04  0.10000000000E+02 0.  1.
</event>
<event>
 5    1  0.1344348E-008  0.3768437E+03  0.7957747E-01  0.3465018E+00
         13   -1    0    0    0    0  0.00000000000E+00  0.00000000000E+00  0.14999999963E+04  0.15000000000E+04  0.10566000000E+00 0.  1.
        994   -1    0    0    0    0 -0.00000000000E+00 -0.00000000000E+00  0.11368683772E-12  0.17120000000E+03  0.17120000000E+03 0.  0.
         13    1    1    2    0    0 -0.25702436783E+02 -0.24185223444E+01  0.54664667283E+02  0.60454127404E+02  0.10566000000E+00 0.  1.
        994    1    1    2    0    0  0.23404429408E+02 -0.37510814481E+00  0.75881059727E+01  0.17295932289E+03  0.17120000000E+03 0.  0.
        998    1    1    2    0    0  0.22980073753E+01  0.27936304892E+01  0.14377472230E+04  0.14377865497E+04  0.10000000000E+02 0.  1.
</event>
<event>
 5    1  0.1344348E-008  0.3719585E+03  0.7957747E-01  0.3486938E+00
         13   -1    0    0    0    0  0.00000000000E+00  0.00000000000E+00  0.14999999963E+04  0.15000000000E+04  0.10566000000E+00 0. -1.
        994   -1    0    0    0    0 -0.00000000000E+00 -0.00000000000E+00  0.11368683772E-12  0.17120000000E+03  0.17120000000E+03 0.  0.
         13    1    1    2    0    0  0.13659623854E+02 -0.16541210996E+00  0.23477017335E+01  0.13861296926E+02  0.10566000000E+00 0. -1.
        994    1    1    2    0    0 -0.12943000796E+01  0.37749235110E+02  0.17017027959E+02  0.17614113433E+03  0.17120000000E+03 0.  0.
        998    1    1    2    0    0 -0.12365323774E+02 -0.37583823000E+02  0.14806352666E+04  0.14811975687E+04  0.10000000000E+02 0. -1.
</event>
<event>
 5    1  0.1344348E-008  0.3846981E+03  0.7957747E-01  0.3430954E+00
         13   -1    0    0    0    0  0.00000000000E+00  0.00000000000E+00  0.14999999963E+04  0.15000000000E+04  0.10566000000E+00 0.  1.
        994   -1    0    0    0    0 -0.00000000000E+00 -0.00000000000E+00  0.11368683772E-12  0.17120000000E+03  0.17120000000E+03 0.  0.
         13    1    1    2    0    0 -0.17248825091E+02  0.31838089507E+00  0.81131599949E+02  0.82945590647E+02  0.10566000000E+00 0.  1.
        994    1    1    2    0    0  0.15302818652E+02 -0.78164590202E+01  0.27527019080E+01  0.17208222063E+03  0.17120000000E+03 0.  0.
        998    1    1    2    0    0  0.19460064392E+01  0.74980781252E+01  0.14161156944E+04  0.14161721887E+04  0.10000000000E+02 0.  1.
</event>
<event>
 5    1  0.1344348E-008  0.3829862E+03  0.7957747E-01  0.3438258E+00
         13   -1    0    0    0    0  0.00000000000E+00  0.00000000000E+00  0.14999999963E+04  0.15000000000E+04  0.10566000000E+00 0. -1.
        994   -1    0    0    0    0 -0.00000000000E+00 -0.00000000000E+00  0.11368683772E-12  0.17120000000E+03  0.17120000000E+03 0.  0.
         13    1    1    2    0    0  0.14879913354E+02  0.52519965177E+01  0.51698325866E+02  0.54052968006E+02  0.10566000000E+00 0. -1.
        994    1    1    2    0    0  0.33640295129E+01  0.26900982045E+02  0.50700602338E+01  0.17340739615E+03  0.17120000000E+03 0.  0.
        998    1    1    2    0    0 -0.18243942867E+02 -0.32152978562E+02  0.14432316102E+04  0.14437396358E+04  0.10000000000E+02 0. -1.
</event>
<event>
 5    1  0.1344348E-008  0.3710397E+03  0.7957747E-01  0.3491126E+00
         13   -1    0    0    0    0  0.00000000000E+00  0.00000000000E+00  0.14999999963E+04  0.15000000000E+04  0.10566000000E+00 0. -1.
        994   -1    0    0    0    0 -0.00000000000E+00 -0.00000000000E+00  0.11368683772E-12  0.17120000000E+03  0.17120000000E+03 0.  0.
         13    1    1    2    0    0 -0.47012423127E+02  0.33566014104E+01  0.90578963625E+02  0.10210775934E+03  0.10566000000E+00 0. -1.
        994    1    1    2    0    0  0.37101486841E+02 -0.12760666591E+01  0.16340705461E+02  0.17593921486E+03  0.17120000000E+03 0.  0.
        998    1    1    2    0    0  0.99109362856E+01 -0.20805347513E+01  0.13930803272E+04  0.13931530258E+04  0.10000000000E+02 0. -1.
</event>
<event>
 5    1  0.1344348E-008  0.3780398E+03  0.7957747E-01  0.3459738E+00
         13   -1    0    0    0    0  0.00000000000E+00  0.00000000000E+00  0.14999999963E+04  0.15000000000E+04  0.10566000000E+00 0.  1.
        994   -1    0    0    0    0 -0.00000000000E+00 -0.00000000000E+00  0.11368683772E-12  0.17120000000E+03  0.17120000000E+03 0.  0.
         13    1    1    2    0    0 -0.22136815018E+02  0.18290053423E+02  0.84125002597E+02  0.88890898631E+02  0.10566000000E+00 0.  1.
        994    1    1    2    0    0  0.33901899392E+01  0.67508883035E+00  0.51661553920E+01  0.17131280832E+03  0.17120000000E+03 0.  0.
        998    1    1    2    0    0  0.18746625079E+02 -0.18965142254E+02  0.14107088383E+04  0.14109962930E+04  0.10000000000E+02 0.  1.
</event>
<event>
 5    1  0.1344348E-008  0.3712711E+03  0.7957747E-01  0.3490069E+00
         13   -1    0    0    0    0  0.00000000000E+00  0.00000000000E+00  0.14999999963E+04  0.15000000000E+04  0.10566000000E+00 0.  1.
        994   -1    0    0    0    0 -0.00000000000E+00 -0.00000000000E+00  0.11368683772E-12  0.17120000000E+03  0.17120000000E+03 0.  0.
         13    1    1    2    0    0 -0.77857257417E+01  0.30030845956E+02  0.50728837923E+02  0.59463395422E+02  0.10566000000E+00 0.  1.
        994    1    1    2    0    0  0.78960685277E+01 -0.31842373654E+02  0.12320362249E+02  0.17474986691E+03  0.17120000000E+03 0.  0.
        998    1    1    2    0    0 -0.11034278597E+00  0.18115276980E+01  0.14369507961E+04  0.14369867377E+04  0.10000000000E+02 0.  1.
</event>
<event>
 5    1  0.1344348E-008  0.3810745E+03  0.7957747E-01  0.3446493E+00
         13   -1    0    0    0    0  0.00000000000E+00  0.00000000000E+00  0.14999999963E+04  0.15000000000E+04  0.10566000000E+00 0. -1.
        994   -1    0    0    0    0 -0.00000000000E+00 -0.00000000000E+00  0.11368683772E-12  0.17120000000E+03  0.17120000000E+03 0.  0.
         13    1    1    2    0    0  0.10542720613E+02  0.62684169958E+01  0.20420404051E+02  0.23821126657E+02  0.10566000000E+00 0. -1.
        994    1    1    2    0    0  0.35369446387E+01  0.10239138284E+02  0.39827103237E+01  0.17158861242E+03  0.17120000000E+03 0.  0.
        998    1    1    2    0    0 -0.14079665252E+02 -0.16507555280E+02  0.14755968819E+04  0.14757902609E+04  0.10000000000E+02 0. -1.
</event>
<event>
 5    1  0.1344348E-008  0.3765379E+03  0.7957747E-01  0.3466373E+00
         13   -1    0    0    0    0  0.00000000000E+00  0.00000000000E+00  0.14999999963E+04  0.15000000000E+04  0.10566000000E+00 0.  1.
        994   -1    0    0    0    0 -0.00000000000E+00 -0.00000000000E+00  0.11368683772E-12  0.17120000000E+03  0.17120000000E+03 0.  0.
         13    1    1    2    0    0  0.13583238032E+02 -0.32160827191E+02  0.10433423431E+03  0.11002030165E+03  0.10566000000E+00 0.  1.
        994    1    1    2    0    0 -0.90688618794E+01  0.12327893885E+02  0.66835704592E+01  0.17201259064E+03  0.17120000000E+03 0.  0.
        998    1    1    2    0    0 -0.45143761523E+01  0.19832933306E+02  0.13889821915E+04  0.13891671077E+04  0.10000000000E+02 0.  1.
</event>
<event>
 5    1  0.1344348E-008  0.3850233E+03  0.7957747E-01  0.3429573E+00
         13   -1    0    0    0    0  0.00000000000E+00  0.00000000000E+00  0.14999999963E+04  0.15000000000E+04  0.10566000000E+00 0.  1.
        994   -1    0    0    0    0 -0.00000000000E+00 -0.00000000000E+00  0.11368683772E-12  0.17120000000E+03  0.17120000000E+03 0.  0.
         13    1    1    2    0    0 -0.10153928874E+02  0.10601641360E+02  0.76339240180E+02  0.77737943286E+02  0.10566000000E+00 0.  1.
        994    1    1    2    0    0 -0.52701778544E+02 -0.47186680119E+02  0.18250673577E+02  0.18613593777E+03  0.17120000000E+03 0.  0.
        998    1    1    2    0    0  0.62855707418E+02  0.36585038760E+02  0.14054100825E+04  0.14073261189E+04  0.10000000000E+02 0.  1.
</event>
<event>
 5    1  0.1344348E-008  0.3799379E+03  0.7957747E-01  0.3451429E+00
         13   -1    0    0    0    0  0.00000000000E+00  0.00000000000E+00  0.14999999963E+04  0.15000000000E+04  0.10566000000E+00 0.  1.
        994   -1    0    0    0    0 -0.00000000000E+00 -0.00000000000E+00  0.11368683772E-12  0.17120000000E+03  0.17120000000E+03 0.  0.
         13    1    1    2    0    0 -0.31643618234E+02 -0.28898671489E+02  0.19790674270E+03  0.20249331288E+03  0.10566000000E+00 0.  1.
        994    1    1    2    0    0  0.33574451314E+02  0.20901425443E+02  0.94120442773E+01  0.17596062044E+03  0.17120000000E+03 0.  0.
        998    1    1    2    0    0 -0.19308330800E+01  0.79972460455E+01  0.12926812093E+04  0.12927460667E+04  0.10000000000E+02 0.  1.
</event>
<event>
 5    1  0.1344348E-008  0.3860494E+03  0.7957747E-01  0.3425234E+00
         13   -1    0    0    0    0  0.00000000000E+00  0.00000000000E+00  0.14999999963E+04  0.15000000000E+04  0.10566000000E+00 0. -1.
        994   -1    0    0    0    0 -0.00000000000E+00 -0.00000000000E+00  0.11368683772E-12  0.17120000000E+03  0.17120000000E+03 0.  0.
         13    1    1    2    0    0 -0.78044610444E+01 -0.63353229908E+01  0.47051218980E+02  0.48113140629E+02  0.10566000000E+00 0. -1.
        994    1    1    2    0    0 -0.29907872864E+01  0.95527356274E+01  0.14384942934E+01  0.17149842224E+03  0.17120000000E+03 0.  0.
        998    1    1    2    0    0  0.10795248331E+02 -0.32174126366E+01  0.14515102830E+04  0.14515884371E+04  0.10000000000E+02 0. -1.
</event>
<event>
 5    1  0.1344348E-008  0.3858949E+03  0.7957747E-01  0.3425886E+00
         13   -1    0    0    0    0  0.00000000000E+00  0.00000000000E+00  0.14999999963E+04  0.15000000000E+04  0.10566000000E+00 0.  1.
        994   -1    0    0    0    0 -0.00000000000E+00 -0.00000000000E+00  0.11368683772E-12  0.17120000000E+03  0.17120000000E+03 0.  0.
         13    1    1    2    0    0 -0.24058344509E+01 -0.99142096532E+01  0.46891167209E+02  0.47988251883E+02  0.10566000000E+00 0.  1.
        994    1    1    2    0    0  0.45641883369E+01 -0.32656455778E+01  0.12897638431E+01  0.17129681768E+03  0.17120000000E+03 0.  0.
        998    1    1    2    0    0 -0.21583538860E+01  0.13179855231E+02  0.14518190652E+04  0.14519149304E+04  0.10000000000E+02 0.  1.
</event>
<event>
 5    1  0.1344348E-008  0.2933474E+03  0.7957747E-01  0.3944688E+00
         13   -1    0    0    0    0  0.00000000000E+00  0.00000000000E+00  0.14999999963E+04  0.15000000000E+04  0.10566000000E+00 0. -1.
        994   -1    0    0    0    0 -0.00000000000E+00 -0.00000000000E+00  0.11368683772E-12  0.17120000000E+03  0.17120000000E+03 0.  0.
         13    1    1    2    0    0  0.22219805718E+03  0.21614484811E+02  0.42014854085E+03  0.47577722740E+03  0.10566000000E+00 0. -1.
        994    1    1    2    0    0 -0.24046561439E+03 -0.19874522600E+02  0.32198054762E+03  0.43726378926E+03  0.17120000000E+03 0.  0.
        998    1    1    2    0    0  0.18267557206E+02 -0.17399622111E+01  0.75787090781E+03  0.75815898334E+03  0.10000000000E+02 0. -1.
</event>
<event>
 5    1  0.1344348E-008  0.3831256E+03  0.7957747E-01  0.3437661E+00
         13   -1    0    0    0    0  0.00000000000E+00  0.00000000000E+00  0.14999999963E+04  0.15000000000E+04  0.10566000000E+00 0. -1.
        994   -1    0    0    0    0 -0.00000000000E+00 -0.00000000000E+00  0.11368683772E-12  0.17120000000E+03  0.17120000000E+03 0.  0.
         13    1    1    2    0    0  0.33476625178E+01  0.12605847034E+02  0.34726789417E+02  0.37095488823E+02  0.10566000000E+00 0. -1.
        994    1    1    2    0    0 -0.10296492618E+02  0.12314246385E+02  0.34165957336E+01  0.17198480035E+03  0.17120000000E+03 0.  0.
        998    1    1    2    0    0  0.69488301002E+01 -0.24920093419E+02  0.14618566111E+04  0.14621197108E+04  0.10000000000E+02 0. -1.
</event>
<event>
 5    1  0.1344348E-008  0.3845606E+03  0.7957747E-01  0.3431538E+00
         13   -1    0    0    0    0  0.00000000000E+00  0.00000000000E+00  0.14999999963E+04  0.15000000000E+04  0.10566000000E+00 0. -1.
        994   -1    0    0    0    0 -0.00000000000E+00 -0.00000000000E+00  0.11368683772E-12  0.17120000000E+03  0.17120000000E+03 0.  0.
         13    1    1    2    0    0 -0.22228782012E+02 -0.92086986269E+02  0.18569294904E+03  0.20846106177E+03  0.10566000000E+00 0. -1.
        994    1    1    2    0    0  0.42853854185E+02  0.10760701439E+03  0.70158958298E+02  0.21828293977E+03  0.17120000000E+03 0.  0.
        998    1    1    2    0    0 -0.20625072172E+02 -0.15520028121E+02  0.12441480889E+04  0.12444559985E+04  0.10000000000E+02 0. -1.
</event>
<event>
 5    1  0.1344348E-008  0.3743769E+03  0.7957747E-01  0.3476014E+00
         13   -1    0    0    0    0  0.00000000000E+00  0.00000000000E+00  0.14999999963E+04  0.15000000000E+04  0.10566000000E+00 0.  1.
        994   -1    0    0    0    0 -0.00000000000E+00 -0.00000000000E+00  0.11368683772E-12  0.17120000000E+03  0.17120000000E+03 0.  0.
         13    1    1    2    0    0  0.72301876762E+01  0.10434665492E+02  0.86555528641E+01  0.15365142927E+02  0.10566000000E+00 0.  1.
        994    1    1    2    0    0  0.10260816811E+02  0.13947212957E+01  0.73644141013E+01  0.17167091834E+03  0.17120000000E+03 0.  0.
        998    1    1    2    0    0 -0.17491004488E+02 -0.11829386787E+02  0.14839800293E+04  0.14841639387E+04  0.10000000000E+02 0.  1.
</event>
<event>
 5    1  0.1344348E-008  0.3707302E+03  0.7957747E-01  0.3492542E+00
         13   -1    0    0    0    0  0.00000000000E+00  0.00000000000E+00  0.14999999963E+04  0.15000000000E+04  0.10566000000E+00 0.  1.
        994   -1    0    0    0    0 -0.00000000000E+00 -0.00000000000E+00  0.11368683772E-12  0.17120000000E+03  0.17120000000E+03 0.  0.
         13    1    1    2    0    0  0.17328417667E+02  0.77465083629E+02  0.24236189834E+03  0.25503022208E+03  0.10566000000E+00 0.  1.
        994    1    1    2    0    0 -0.43005284321E+02 -0.62886394481E+02  0.31956247892E+02  0.19009154339E+03  0.17120000000E+03 0.  0.
        998    1    1    2    0    0  0.25676866654E+02 -0.14578689148E+02  0.12256818500E+04  0.12260782345E+04  0.10000000000E+02 0.  1.
</event>
<event>
 5    1  0.1344348E-008  0.3844918E+03  0.7957747E-01  0.3431830E+00
         13   -1    0    0    0    0  0.00000000000E+00  0.00000000000E+00  0.14999999963E+04  0.15000000000E+04  0.10566000000E+00 0.  1.
        994   -1    0    0    0    0 -0.00000000000E+00 -0.00000000000E+00  0.11368683772E-12  0.17120000000E+03  0.17120000000E+03 0.  0.
         13    1    1    2    0    0 -0.11823740666E+02 -0.60334251226E+01  0.47152576981E+02  0.48985505428E+02  0.10566000000E+00 0.  1.
        994    1    1    2    0    0  0.66175964009E+01  0.52798537620E+00  0.20278386634E+01  0.17134066499E+03  0.17120000000E+03 0.  0.
        998    1    1    2    0    0  0.52061442651E+01  0.55054397464E+01  0.14508195806E+04  0.14508738296E+04  0.10000000000E+02 0.  1.
</event>
<event>
 5    1  0.1344348E-008  0.3761417E+03  0.7957747E-01  0.3468132E+00
         13   -1    0    0    0    0  0.00000000000E+00  0.00000000000E+00  0.14999999963E+04  0.15000000000E+04  0.10566000000E+00 0.  1.
        994   -1    0    0    0    0 -0.00000000000E+00 -0.00000000000E+00  0.11368683772E-12  0.17120000000E+03  0.17120000000E+03 0.  0.
         13    1    1    2    0    0  0.27655043675E+02 -0.41132379772E+02  0.17526735568E+03  0.18214096529E+03  0.10566000000E+00 0.  1.
        994    1    1    2    0    0 -0.31548145209E+02  0.40947050317E+02  0.15195403227E+02  0.17947781667E+03  0.17120000000E+03 0.  0.
        998    1    1    2    0    0  0.38931015341E+01  0.18532945493E+00  0.13095372374E+04  0.13095812180E+04  0.10000000000E+02 0.  1.
</event>
<event>
 5    1  0.1344348E-008  0.3847118E+03  0.7957747E-01  0.3430896E+00
         13   -1    0    0    0    0  0.00000000000E+00  0.00000000000E+00  0.14999999963E+04  0.15000000000E+04  0.10566000000E+00 0. -1.
        994   -1    0    0    0    0 -0.00000000000E+00 -0.00000000000E+00  0.11368683772E-12  0.17120000000E+03  0.17120000000E+03 0.  0.
         13    1    1    2    0    0 -0.67407747658E+01 -0.10983218528E+02  0.46128123278E+02  0.47894509653E+02  0.10566000000E+00 0. -1.
        994    1    1    2    0    0  0.52818422906E+01  0.92755015845E+01  0.21484404873E+01  0.17154587895E+03  0.17120000000E+03 0.  0.
        998    1    1    2    0    0  0.14589324752E+01  0.17077169435E+01  0.14517234325E+04  0.14517596114E+04  0.10000000000E+02 0. -1.
</event>
<event>
 5    1  0.1344348E-008  0.3799639E+03  0.7957747E-01  0.3451315E+00
         13   -1    0    0    0    0  0.00000000000E+00  0.00000000000E+00  0.14999999963E+04  0.15000000000E+04  0.10566000000E+00 0.  1.
        994   -1    0    0    0    0 -0.00000000000E+00 -0.00000000000E+00  0.11368683772E-12  0.17120000000E+03  0.17120000000E+03 0.  0.
         13    1    1    2    0    0  0.64139819391E+01  0.97944843412E+01  0.15611284728E+02  0.19513955589E+02  0.10566000000E+00 0.  1.
        994    1    1    2    0    0  0.99186149020E+01  0.11533002659E+02  0.49253288233E+01  0.17194501428E+03  0.17120000000E+03 0.  0.
        998    1    1    2    0    0 -0.16332596841E+02 -0.21327487000E+02  0.14794633827E+04  0.14797410301E+04  0.10000000000E+02 0.  1.
</event>
<event>
 5    1  0.1344348E-008  0.3756833E+03  0.7957747E-01  0.3470172E+00
         13   -1    0    0    0    0  0.00000000000E+00  0.00000000000E+00  0.14999999963E+04  0.15000000000E+04  0.10566000000E+00 0. -1.
        994   -1    0    0    0    0 -0.00000000000E+00 -0.00000000000E+00  0.11368683772E-12  0.17120000000E+03  0.17120000000E+03 0.  0.
         13    1    1    2    0    0  0.29520520949E+02  0.16223092776E+02  0.90476819723E+02  0.96543855151E+02  0.10566000000E+00 0. -1.
        994    1    1    2    0    0  0.46638240767E+01 -0.35059252707E+02  0.10582294479E+02  0.17513516897E+03  0.17120000000E+03 0.  0.
        998    1    1    2    0    0 -0.34184345025E+02  0.18836159930E+02  0.13989408821E+04  0.13995209759E+04  0.10000000000E+02 0. -1.
</event>
<event>
 5    1  0.2522751E-008  0.3860477E+03  0.7957747E-01  0.3425241E+00
         13   -1    0    0    0    0  0.00000000000E+00  0.00000000000E+00  0.14999999963E+04  0.15000000000E+04  0.10566000000E+00 0.  1.
        994   -1    0    0    0    0 -0.00000000000E+00 -0.00000000000E+00  0.11368683772E-12  0.17120000000E+03  0.17120000000E+03 0.  0.
         13    1    1    2    0    0  0.11156180922E+02 -0.60760337471E+01  0.75893932782E+02  0.76949845718E+02  0.10566000000E+00 0.  1.
        994    1    1    2    0    0 -0.38866544258E+01  0.24200487401E+01  0.11795872802E+01  0.17126527419E+03  0.17120000000E+03 0.  0.
        998    1    1    2    0    0 -0.72695264966E+01  0.36559850070E+01  0.14229264762E+04  0.14229848801E+04  0.10000000000E+02 0.  1.
</event>
<event>
 5    1  0.1344348E-008  0.3848631E+03  0.7957747E-01  0.3430253E+00
         13   -1    0    0    0    0  0.00000000000E+00  0.00000000000E+00  0.14999999963E+04  0.15000000000E+04  0.10566000000E+00 0. -1.
        994   -1    0    0    0    0 -0.00000000000E+00 -0.00000000000E+00  0.11368683772E-12  0.17120000000E+03  0.17120000000E+03 0.  0.
         13    1    1    2    0    0 -0.11956183935E+02  0.13133495461E+02  0.10435276887E+03  0.10585343911E+03  0.10566000000E+00 0. -1.
        994    1    1    2    0    0 -0.48004393373E+01 -0.17691705818E+00  0.17740308559E+01  0.17127656787E+03  0.17120000000E+03 0.  0.
        998    1    1    2    0    0  0.16756623272E+02 -0.12956578403E+02  0.13938731966E+04  0.13940699930E+04  0.10000000000E+02 0. -1.
</event>
<event>
 5    1  0.1344348E-008  0.3833460E+03  0.7957747E-01  0.3436718E+00
         13   -1    0    0    0    0  0.00000000000E+00  0.00000000000E+00  0.14999999963E+04  0.15000000000E+04  0.10566000000E+00 0.  1.
        994   -1    0    0    0    0 -0.00000000000E+00 -0.00000000000E+00  0.11368683772E-12  0.17120000000E+03  0.17120000000E+03 0.  0.
         13    1    1    2    0    0  0.14634984922E+02 -0.20648418051E+02  0.12881522427E+03  0.13127799937E+03  0.10566000000E+00 0.  1.
        994    1    1    2    0    0 -0.15693767093E+02  0.91653102278E+01  0.35464194253E+01  0.17219847365E+03  0.17120000000E+03 0.  0.
        998    1    1    2    0    0  0.10587821710E+01  0.11483107823E+02  0.13676383526E+04  0.13677235270E+04  0.10000000000E+02 0. -1.
</event>
<event>
 5    1  0.1344348E-008  0.3747872E+03  0.7957747E-01  0.3474175E+00
         13   -1    0    0    0    0  0.00000000000E+00  0.00000000000E+00  0.14999999963E+04  0.15000000000E+04  0.10566000000E+00 0. -1.
        994   -1    0    0    0    0 -0.00000000000E+00 -0.00000000000E+00  0.11368683772E-12  0.17120000000E+03  0.17120000000E+03 0.  0.
         13    1    1    2    0    0  0.53401291713E+02 -0.55379717777E+02  0.43879800052E+03  0.44549108580E+03  0.10566000000E+00 0. -1.
        994    1    1    2    0    0 -0.39624690482E+02  0.21798477608E+02  0.13777361795E+02  0.17760784166E+03  0.17120000000E+03 0.  0.
        998    1    1    2    0    0 -0.13776601231E+02  0.33581240168E+02  0.10474246340E+04  0.10481010725E+04  0.10000000000E+02 0. -1.
</event>
<event>
 5    1  0.1344348E-008  0.3753398E+03  0.7957747E-01  0.3471705E+00
         13   -1    0    0    0    0  0.00000000000E+00  0.00000000000E+00  0.14999999963E+04  0.15000000000E+04  0.10566000000E+00 0.  1.
        994   -1    0    0    0    0 -0.00000000000E+00 -0.00000000000E+00  0.11368683772E-12  0.17120000000E+03  0.17120000000E+03 0.  0.
         13    1    1    2    0    0  0.30414360336E+00  0.23585001975E+02  0.39644826366E+02  0.46130990051E+02  0.10566000000E+00 0.  1.
        994    1    1    2    0    0  0.25567485830E+01 -0.20332155570E+02  0.79314521194E+01  0.17260440738E+03  0.17120000000E+03 0.  0.
        998    1    1    2    0    0 -0.28608921864E+01 -0.32528464048E+01  0.14524237178E+04  0.14524646026E+04  0.10000000000E+02 0.  1.
</event>
<event>
 5    1  0.1344348E-008  0.3855264E+03  0.7957747E-01  0.3427443E+00
         13   -1    0    0    0    0  0.00000000000E+00  0.00000000000E+00  0.14999999963E+04  0.15000000000E+04  0.10566000000E+00 0.  1.
        994   -1    0    0    0    0 -0.00000000000E+00 -0.00000000000E+00  0.11368683772E-12  0.17120000000E+03  0.17120000000E+03 0.  0.
         13    1    1    2    0    0 -0.89919053630E+01 -0.72956629313E+01  0.48971610718E+02  0.50322071500E+02  0.10566000000E+00 0.  1.
        994    1    1    2    0    0  0.81120499329E+01  0.35767884283E+01  0.16271119607E+01  0.17143712043E+03  0.17120000000E+03 0.  0.
        998    1    1    2    0    0  0.87985543007E+00  0.37188745030E+01  0.14494012736E+04  0.14494408081E+04  0.10000000000E+02 0.  1.
</event>
<event>
 5    1  0.1344348E-008  0.3814240E+03  0.7957747E-01  0.3444982E+00
         13   -1    0    0    0    0  0.00000000000E+00  0.00000000000E+00  0.14999999963E+04  0.15000000000E+04  0.10566000000E+00 0. -1.
        994   -1    0    0    0    0 -0.00000000000E+00 -0.00000000000E+00  0.11368683772E-12  0.17120000000E+03  0.17120000000E+03 0.  0.
         13    1    1    2    0    0 -0.19592973081E+02 -0.54175362203E+01  0.59114903146E+02  0.62512536589E+02  0.10566000000E+00 0. -1.
        994    1    1    2    0    0  0.13869899153E+02  0.17153683674E+01  0.40662039889E+01  0.17181760854E+03  0.17120000000E+03 0.  0.
        998    1    1    2    0    0  0.57230739279E+01  0.37021678529E+01  0.14368188891E+04  0.14368698549E+04  0.10000000000E+02 0.  0.
</event>
<event>
 5    1  0.1344348E-008  0.3768095E+03  0.7957747E-01  0.3465169E+00
         13   -1    0    0    0    0  0.00000000000E+00  0.00000000000E+00  0.14999999963E+04  0.15000000000E+04  0.10566000000E+00 0.  1.
        994   -1    0    0    0    0 -0.00000000000E+00 -0.00000000000E+00  0.11368683772E-12  0.17120000000E+03  0.17120000000E+03 0.  0.
         13    1    1    2    0    0  0.12711648302E+02 -0.31238143756E+02  0.95289220698E+02  0.10108142447E+03  0.10566000000E+00 0.  1.
        994    1    1    2    0    0 -0.23535852710E+02  0.16747970049E+02  0.85767797076E+01  0.17383161972E+03  0.17120000000E+03 0.  0.
        998    1    1    2    0    0  0.10824204408E+02  0.14490173707E+02  0.13961339959E+04  0.13962869558E+04  0.10000000000E+02 0.  1.
</event>
<event>
 5    1  0.1344348E-008  0.3701215E+03  0.7957747E-01  0.3495333E+00
         13   -1    0    0    0    0  0.00000000000E+00  0.00000000000E+00  0.14999999963E+04  0.15000000000E+04  0.10566000000E+00 0. -1.
        994   -1    0    0    0    0 -0.00000000000E+00 -0.00000000000E+00  0.11368683772E-12  0.17120000000E+03  0.17120000000E+03 0.  0.
         13    1    1    2    0    0 -0.10393558995E+03  0.18941123379E+03  0.83282010631E+03  0.86038861160E+03  0.10566000000E+00 0. -1.
        994    1    1    2    0    0  0.99870366105E+02 -0.19090234737E+03  0.19209267511E+03  0.33559921348E+03  0.17120000000E+03 0.  0.
        998    1    1    2    0    0  0.40652238447E+01  0.14911135851E+01  0.47508721486E+03  0.47521217491E+03  0.10000000000E+02 0. -1.
</event>
<event>
 5    1  0.1344348E-008  0.3808741E+03  0.7957747E-01  0.3447361E+00
         13   -1    0    0    0    0  0.00000000000E+00  0.00000000000E+00  0.14999999963E+04  0.15000000000E+04  0.10566000000E+00 0.  1.
        994   -1    0    0    0    0 -0.00000000000E+00 -0.00000000000E+00  0.11368683772E-12  0.17120000000E+03  0.17120000000E+03 0.  0.
         13    1    1    2    0    0  0.19674739872E+02 -0.21122725533E+01  0.53592270374E+02  0.57128799149E+02  0.10566000000E+00 0.  1.
        994    1    1    2    0    0 -0.48263913992E+01 -0.76920996812E+01  0.39674949514E+01  0.17148656935E+03  0.17120000000E+03 0.  0.
        998    1    1    2    0    0 -0.14848348473E+02  0.98043722345E+01  0.14424402310E+04  0.14425846315E+04  0.10000000000E+02 0.  1.
</event>
<event>
 5    1  0.1344348E-008  0.3852424E+03  0.7957747E-01  0.3428645E+00
         13   -1    0    0    0    0  0.00000000000E+00  0.00000000000E+00  0.14999999963E+04  0.15000000000E+04  0.10566000000E+00 0.  1.
        994   -1    0    0    0    0 -0.00000000000E+00 -0.00000000000E+00  0.11368683772E-12  0.17120000000E+03  0.17120000000E+03 0.  0.
         13    1    1    2    0    0  0.15748382716E+02 -0.24007526980E+01  0.87720294523E+02  0.89155125523E+02  0.10566000000E+00 0.  1.
        994    1    1    2    0    0 -0.46787279895E+01  0.31564018955E+01  0.16145172189E+01  0.17130061306E+03  0.17120000000E+03 0.  0.
        998    1    1    2    0    0 -0.11069654726E+02 -0.75564919745E+00  0.14106651845E+04  0.14107442614E+04  0.10000000000E+02 0.  1.
</event>
<event>
 5    1  0.1344348E-008  0.3720252E+03  0.7957747E-01  0.3486635E+00
         13   -1    0    0    0    0  0.00000000000E+00  0.00000000000E+00  0.14999999963E+04  0.15000000000E+04  0.10566000000E+00 0.  1.
        994   -1    0    0    0    0 -0.00000000000E+00 -0.00000000000E+00  0.11368683772E-12  0.17120000000E+03  0.17120000000E+03 0.  0.
         13    1    1    2    0    0  0.10525600522E+02 -0.20529022223E+00  0.32369629478E+01  0.11014513316E+02  0.10566000000E+00 0.  1.
        994    1    1    2    0    0  0.26031135246E+02  0.13362098115E+02  0.11159792395E+02  0.17404064650E+03  0.17120000000E+03 0.  0.
        998    1    1    2    0    0 -0.36556735769E+02 -0.13156807893E+02  0.14856032409E+04  0.14861448402E+04  0.10000000000E+02 0.  1.
</event>
<event>
 5    1  0.1344348E-008  0.3845077E+03  0.7957747E-01  0.3431763E+00
         13   -1    0    0    0    0  0.00000000000E+00  0.00000000000E+00  0.14999999963E+04  0.15000000000E+04  0.10566000000E+00 0. -1.
        994   -1    0    0    0    0 -0.00000000000E+00 -0.00000000000E+00  0.11368683772E-12  0.17120000000E+03  0.17120000000E+03 0.  0.
         13    1    1    2    0    0  0.17482573161E+02  0.19229143353E+02  0.15681636157E+03  0.15895528534E+03  0.10566000000E+00 0. -1.
        994    1    1    2    0    0 -0.14228847595E+02 -0.28882818866E+02  0.52969594258E+01  0.17428188405E+03  0.17120000000E+03 0.  0.
        998    1    1    2    0    0 -0.32537255664E+01  0.96536755121E+01  0.13378866753E+04  0.13379628306E+04  0.10000000000E+02 0. -1.
</event>
<event>
 5    1  0.1344348E-008  0.3717688E+03  0.7957747E-01  0.3487801E+00
         13   -1    0    0    0    0  0.00000000000E+00  0.00000000000E+00  0.14999999963E+04  0.15000000000E+04  0.10566000000E+00 0.  1.
        994   -1    0    0    0    0 -0.00000000000E+00 -0.00000000000E+00  0.11368683772E-12  0.17120000000E+03  0.17120000000E+03 0.  0.
         13    1    1    2    0    0  0.49380375942E-02  0.56931947862E+02  0.20308137182E+03  0.21091064803E+03  0.10566000000E+00 0.  1.
        994    1    1    2    0    0  0.76533437772E+02 -0.27826092567E+02  0.31495052170E+02  0.19217969933E+03  0.17120000000E+03 0.  0.
        998    1    1    2    0    0 -0.76538375810E+02 -0.29105855295E+02  0.12654235723E+04  0.12681096526E+04  0.10000000000E+02 0.  1.
</event>
<event>
 5    1  0.1344348E-008  0.3741647E+03  0.7957747E-01  0.3476967E+00
         13   -1    0    0    0    0  0.00000000000E+00  0.00000000000E+00  0.14999999963E+04  0.15000000000E+04  0.10566000000E+00 0.  1.
        994   -1    0    0    0    0 -0.00000000000E+00 -0.00000000000E+00  0.11368683772E-12  0.17120000000E+03  0.17120000000E+03 0.  0.
         13    1    1    2    0    0  0.11863911389E+02 -0.15994798402E+02  0.25259889956E+02  0.32166118416E+02  0.10566000000E+00 0.  1.
        994    1    1    2    0    0  0.24467950317E+02  0.27615177718E+02  0.11762748930E+02  0.17552515744E+03  0.17120000000E+03 0.  0.
        998    1    1    2    0    0 -0.36331861706E+02 -0.11620379316E+02  0.14629773574E+04  0.14635087241E+04  0.10000000000E+02 0.  1.
</event>
<event>
 5    1  0.1344348E-008  0.3708293E+03  0.7957747E-01  0.3492088E+00
         13   -1    0    0    0    0  0.00000000000E+00  0.00000000000E+00  0.14999999963E+04  0.15000000000E+04  0.10566000000E+00 0.  1.
        994   -1    0    0    0    0 -0.00000000000E+00 -0.00000000000E+00  0.11368683772E-12  0.17120000000E+03  0.17120000000E+03 0.  0.
         13    1    1    2    0    0 -0.68317271353E+01  0.22593749075E+02  0.27245565086E+02  0.36048328308E+02  0.10566000000E+00 0.  1.
        994    1    1    2    0    0  0.11334210700E+02 -0.23189420901E+02  0.11136610661E+02  0.17349258679E+03  0.17120000000E+03 0.  0.
        998    1    1    2    0    0 -0.45024835645E+01  0.59567182558E+00  0.14616178205E+04  0.14616590849E+04  0.10000000000E+02 0.  1.
</event>
<event>
 5    1  0.1344348E-008  0.3854650E+03  0.7957747E-01  0.3427703E+00
         13   -1    0    0    0    0  0.00000000000E+00  0.00000000000E+00  0.14999999963E+04  0.15000000000E+04  0.10566000000E+00 0. -1.
        994   -1    0    0    0    0 -0.00000000000E+00 -0.00000000000E+00  0.11368683772E-12  0.17120000000E+03  0.17120000000E+03 0.  0.
         13    1    1    2    0    0  0.11498342879E+02  0.80519107938E+01  0.69216388107E+02  0.70625524444E+02  0.10566000000E+00 0. -1.
        994    1    1    2    0    0 -0.14462222216E+02 -0.10258974909E+01  0.20900200609E+01  0.17182554094E+03  0.17120000000E+03 0.  0.
        998    1    1    2    0    0  0.29638793378E+01 -0.70260133029E+01  0.14286935881E+04  0.14287489346E+04  0.10000000000E+02 0. -1.
</event>
<event>
 5    1  0.1344348E-008  0.3732723E+03  0.7957747E-01  0.3480986E+00
         13   -1    0    0    0    0  0.00000000000E+00  0.00000000000E+00  0.14999999963E+04  0.15000000000E+04  0.10566000000E+00 0. -1.
        994   -1    0    0    0    0 -0.00000000000E+00 -0.00000000000E+00  0.11368683772E-12  0.17120000000E+03  0.17120000000E+03 0.  0.
         13    1    1    2    0    0 -0.18043788045E+01 -0.43328973960E+02  0.72470610346E+02  0.84455054883E+02  0.10566000000E+00 0. -1.
        994    1    1    2    0    0 -0.68247442317E+01  0.15668473391E+02  0.13713237356E+02  0.17259655579E+03  0.17120000000E+03 0.  0.
        998    1    1    2    0    0  0.86291230362E+01  0.27660500569E+02  0.14138161486E+04  0.14141483893E+04  0.10000000000E+02 0. -1.
</event>
<event>
 5    1  0.1344348E-008  0.3826150E+03  0.7957747E-01  0.3439851E+00
         13   -1    0    0    0    0  0.00000000000E+00  0.00000000000E+00  0.14999999963E+04  0.15000000000E+04  0.10566000000E+00 0.  1.
        994   -1    0    0    0    0 -0.00000000000E+00 -0.00000000000E+00  0.11368683772E-12  0.17120000000E+03  0.17120000000E+03 0.  0.
         13    1    1    2    0    0 -0.13725400777E+02 -0.93767426166E+00  0.31184774879E+02  0.34084706363E+02  0.10566000000E+00 0.  1.
        994    1    1    2    0    0  0.21636972044E+02  0.14889721279E+01  0.43793976106E+01  0.17262385328E+03  0.17120000000E+03 0.  0.
        998    1    1    2    0    0 -0.79115712674E+01 -0.55129786623E+00  0.14644358238E+04  0.14644914404E+04  0.10000000000E+02 0.  1.
</event>
<event>
 5    1  0.1344348E-008  0.3803115E+03  0.7957747E-01  0.3449803E+00
         13   -1    0    0    0    0  0.00000000000E+00  0.00000000000E+00  0.14999999963E+04  0.15000000000E+04  0.10566000000E+00 0.  1.
        994   -1    0    0    0    0 -0.00000000000E+00 -0.00000000000E+00  0.11368683772E-12  0.17120000000E+03  0.17120000000E+03 0.  0.
         13    1    1    2    0    0  0.64718189086E+02 -0.11355973160E+02  0.38774279111E+03  0.39327075323E+03  0.10566000000E+00 0.  1.
        994    1    1    2    0    0 -0.68741967280E+02  0.80759657553E+01  0.20143681025E+02  0.18575760327E+03  0.17120000000E+03 0.  0.
        998    1    1    2    0    0  0.40237781941E+01  0.32800074046E+01  0.10921135241E+04  0.10921716435E+04  0.10000000000E+02 0.  1.
</event>
<event>
 5    1  0.1344348E-008  0.3729410E+03  0.7957747E-01  0.3482483E+00
         13   -1    0    0    0    0  0.00000000000E+00  0.00000000000E+00  0.14999999963E+04  0.15000000000E+04  0.10566000000E+00 0. -1.
        994   -1    0    0    0    0 -0.00000000000E+00 -0.00000000000E+00  0.11368683772E-12  0.17120000000E+03  0.17120000000E+03 0.  0.
         13    1    1    2    0    0  0.36687751729E+02  0.46416707632E+02  0.31712352483E+03  0.32259547895E+03  0.10566000000E+00 0. -1.
        994    1    1    2    0    0  0.10655041893E+02  0.55380417720E+01  0.82336189861E+01  0.17181802090E+03  0.17120000000E+03 0.  0.
        998    1    1    2    0    0 -0.47342793622E+02 -0.51954749404E+02  0.11746428525E+04  0.11767865001E+04  0.10000000000E+02 0. -1.
</event>
<event>
 5    1  0.1344348E-008  0.3797763E+03  0.7957747E-01  0.3452133E+00
         13   -1    0    0    0    0  0.00000000000E+00  0.00000000000E+00  0.14999999963E+04  0.15000000000E+04  0.10566000000E+00 0. -1.
        994   -1    0    0    0    0 -0.00000000000E+00 -0.00000000000E+00  0.11368683772E-12  0.17120000000E+03  0.17120000000E+03 0.  0.
         13    1    1    2    0    0 -0.57059098662E+02  0.10122593663E+02  0.31904820984E+03  0.32426837498E+03  0.10566000000E+00 0. -1.
        994    1    1    2    0    0  0.53986429366E+02 -0.15075236327E+02  0.14829207459E+02  0.18075160497E+03  0.17120000000E+03 0.  0.
        998    1    1    2    0    0  0.30726692955E+01  0.49526426643E+01  0.11661225790E+04  0.11661800201E+04  0.10000000000E+02 0.  0.
</event>
<event>
 5    1  0.1344348E-008  0.3848451E+03  0.7957747E-01  0.3430330E+00
         13   -1    0    0    0    0  0.00000000000E+00  0.00000000000E+00  0.14999999963E+04  0.15000000000E+04  0.10566000000E+00 0.  1.
        994   -1    0    0    0    0 -0.00000000000E+00 -0.00000000000E+00  0.11368683772E-12  0.17120000000E+03  0.17120000000E+03 0.  0.
         13    1    1    2    0    0  0.15911192024E+02  0.50761058707E+01  0.78584599005E+02  0.80339798651E+02  0.10566000000E+00 0.  1.
        994    1    1    2    0    0 -0.13898018048E+02 -0.10907313675E+02  0.27347412664E+01  0.17213088975E+03  0.17120000000E+03 0.  0.
        998    1    1    2    0    0 -0.20131739763E+01  0.58312078048E+01  0.14186806560E+04  0.14187293116E+04  0.10000000000E+02 0.  1.
</event>
<event>
 5    1  0.1344348E-008  0.3826881E+03  0.7957747E-01  0.3439537E+00
         13   -1    0    0    0    0  0.00000000000E+00  0.00000000000E+00  0.14999999963E+04  0.15000000000E+04  0.10566000000E+00 0. -1.
        994   -1    0    0    0    0 -0.00000000000E+00 -0.00000000000E+00  0.11368683772E-12  0.17120000000E+03  0.17120000000E+03 0.  0.
         13    1    1    2    0    0  0.29830508466E+02  0.11584270278E+02  0.17971182773E+03  0.18253878147E+03  0.10566000000E+00 0. -1.
        994    1    1    2    0    0 -0.19616123307E+02 -0.76644354808E+01  0.42533596351E+01  0.17254294229E+03  0.17120000000E+03 0.  0.
        998    1    1    2    0    0 -0.10214385158E+02 -0.39198347967E+01  0.13160348089E+04  0.13161182762E+04  0.10000000000E+02 0. -1.
</event>
<event>
 5    1  0.1344348E-008  0.3819072E+03  0.7957747E-01  0.3442896E+00
         13   -1    0    0    0    0  0.00000000000E+00  0.00000000000E+00  0.14999999963E+04  0.15000000000E+04  0.10566000000E+00 0. -1.
        994   -1    0    0    0    0 -0.00000000000E+00 -0.00000000000E+00  0.11368683772E-12  0.17120000000E+03  0.17120000000E+03 0.  0.
         13    1    1    2    0    0 -0.10192243463E+02  0.93832766366E+01  0.28493585897E+02  0.31683170746E+02  0.10566000000E+00 0. -1.
        994    1    1    2    0    0  0.19174576815E+02 -0.18544982160E+01  0.44072599724E+01  0.17233678510E+03  0.17120000000E+03 0.  0.
        998    1    1    2    0    0 -0.89823333519E+01 -0.75287784206E+01  0.14670991504E+04  0.14671800441E+04  0.10000000000E+02 0. -1.
</event>
<event>
 5    1  0.1344348E-008  0.3826655E+03  0.7957747E-01  0.3439634E+00
         13   -1    0    0    0    0  0.00000000000E+00  0.00000000000E+00  0.14999999963E+04  0.15000000000E+04  0.10566000000E+00 0. -1.
        994   -1    0    0    0    0 -0.00000000000E+00 -0.00000000000E+00  0.11368683772E-12  0.17120000000E+03  0.17120000000E+03 0.  0.
         13    1    1    2    0    0 -0.12805393927E+02 -0.13978009222E+02  0.54416000274E+02  0.57623563803E+02  0.10566000000E+00 0. -1.
        994    1    1    2    0    0  0.24668656563E+02  0.40341075124E+02  0.10238556388E+02  0.17790506737E+03  0.17120000000E+03 0.  0.
        998    1    1    2    0    0 -0.11863262636E+02 -0.26363065902E+02  0.14353454396E+04  0.14356713688E+04  0.10000000000E+02 0. -1.
</event>
<event>
 5    1  0.1344348E-008  0.3799248E+03  0.7957747E-01  0.3451486E+00
         13   -1    0    0    0    0  0.00000000000E+00  0.00000000000E+00  0.14999999963E+04  0.15000000000E+04  0.10566000000E+00 0.  1.
        994   -1    0    0    0    0 -0.00000000000E+00 -0.00000000000E+00  0.11368683772E-12  0.17120000000E+03  0.17120000000E+03 0.  0.
         13    1    1    2    0    0  0.24995063322E+02  0.32987941319E+02  0.23458540198E+03  0.23820847896E+03  0.10566000000E+00 0.  1.
        994    1    1    2    0    0 -0.15006167383E+02  0.24187992930E+01  0.49440006759E+01  0.17194452243E+03  0.17120000000E+03 0.  0.
        998    1    1    2    0    0 -0.99888959390E+01 -0.35406740612E+02  0.12604705936E+04  0.12610469986E+04  0.10000000000E+02 0.  1.
</event>
<event>
 5    1  0.1344348E-008  0.3848011E+03  0.7957747E-01  0.3430516E+00
         13   -1    0    0    0    0  0.00000000000E+00  0.00000000000E+00  0.14999999963E+04  0.15000000000E+04  0.10566000000E+00 0.  1.
        994   -1    0    0    0    0 -0.00000000000E+00 -0.00000000000E+00  0.11368683772E-12  0.17120000000E+03  0.17120000000E+03 0.  0.
         13    1    1    2    0    0 -0.52963704766E+00  0.11593605643E+02  0.40081156041E+02  0.41727717897E+02  0.10566000000E+00 0.  1.
        994    1    1    2    0    0  0.41824764693E+01 -0.68071525748E+00  0.17880278379E+01  0.17126176902E+03  0.17120000000E+03 0.  0.
        998    1    1    2    0    0 -0.36528394216E+01 -0.10912890386E+02  0.14581308124E+04  0.14582105131E+04  0.10000000000E+02 0.  1.
</event>
<event>
 5    1  0.1344348E-008  0.3832593E+03  0.7957747E-01  0.3437088E+00
         13   -1    0    0    0    0  0.00000000000E+00  0.00000000000E+00  0.14999999963E+04  0.15000000000E+04  0.10566000000E+00 0. -1.
        994   -1    0    0    0    0 -0.00000000000E+00 -0.00000000000E+00  0.11368683772E-12  0.17120000000E+03  0.17120000000E+03 0.  0.
         13    1    1    2    0    0 -0.37614704035E+02 -0.73798312116E+00  0.22611568882E+03  0.22922418388E+03  0.10566000000E+00 0. -1.
        994    1    1    2    0    0  0.45024974769E+02  0.67445165909E+01  0.93824512242E+01  0.17739844207E+03  0.17120000000E+03 0.  0.
        998    1    1    2    0    0 -0.74102707340E+01 -0.60065334697E+01  0.12645018562E+04  0.12645773741E+04  0.10000000000E+02 0. -1.
</event>
<event>
 5    1  0.1344348E-008  0.3817768E+03  0.7957747E-01  0.3443458E+00
         13   -1    0    0    0    0  0.00000000000E+00  0.00000000000E+00  0.14999999963E+04  0.15000000000E+04  0.10566000000E+00 0.  1.
        994   -1    0    0    0    0 -0.00000000000E+00 -0.00000000000E+00  0.11368683772E-12  0.17120000000E+03  0.17120000000E+03 0.  0.
         13    1    1    2    0    0  0.14335203693E+02  0.56969713716E+01  0.34135080008E+02  0.37458889451E+02  0.10566000000E+00 0.  1.
        994    1    1    2    0    0 -0.27127460903E+02  0.86921865520E+01  0.59403515091E+01  0.17365535125E+03  0.17120000000E+03 0.  0.
        998    1    1    2    0    0  0.12792257211E+02 -0.14389157924E+02  0.14599245648E+04  0.14600857593E+04  0.10000000000E+02 0.  1.
</event>
<event>
 5    1  0.1344348E-008  0.3836344E+03  0.7957747E-01  0.3435485E+00
         13   -1    0    0    0    0  0.00000000000E+00  0.00000000000E+00  0.14999999963E+04  0.15000000000E+04  0.10566000000E+00 0. -1.
        994   -1    0    0    0    0 -0.00000000000E+00 -0.00000000000E+00  0.11368683772E-12  0.17120000000E+03  0.17120000000E+03 0.  0.
         13    1    1    2    0    0 -0.19127934163E+02 -0.19143171837E+02  0.14752631163E+03  0.14998787511E+03  0.10566000000E+00 0. -1.
        994    1    1    2    0    0  0.14648555110E+02  0.20311294500E+02  0.43840021615E+01  0.17307740559E+03  0.17120000000E+03 0.  0.
        998    1    1    2    0    0  0.44793790526E+01 -0.11681226636E+01  0.13480896825E+04  0.13481347193E+04  0.10000000000E+02 0. -1.
</event>
<event>
 5    1  0.1344348E-008  0.3805342E+03  0.7957747E-01  0.3448836E+00
         13   -1    0    0    0    0  0.00000000000E+00  0.00000000000E+00  0.14999999963E+04  0.15000000000E+04  0.10566000000E+00 0. -1.
        994   -1    0    0    0    0 -0.00000000000E+00 -0.00000000000E+00  0.11368683772E-12  0.17120000000E+03  0.17120000000E+03 0.  0.
         13    1    1    2    0    0 -0.13803315140E+02 -0.55848710136E+01  0.27118479140E+02  0.30937766047E+02  0.10566000000E+00 0. -1.
        994    1    1    2    0    0  0.12970850937E+02 -0.35509062999E+01  0.44674645160E+01  0.17178547712E+03  0.17120000000E+03 0.  0.
        998    1    1    2    0    0  0.83246420214E+00  0.91357773135E+01  0.14684140526E+04  0.14684767568E+04  0.10000000000E+02 0. -1.
</event>
<event>
 5    1  0.1344348E-008  0.3817416E+03  0.7957747E-01  0.3443610E+00
         13   -1    0    0    0    0  0.00000000000E+00  0.00000000000E+00  0.14999999963E+04  0.15000000000E+04  0.10566000000E+00 0. -1.
        994   -1    0    0    0    0 -0.00000000000E+00 -0.00000000000E+00  0.11368683772E-12  0.17120000000E+03  0.17120000000E+03 0.  0.
         13    1    1    2    0    0  0.27355016194E+02 -0.27871771693E+02  0.18484303639E+03  0.18892350789E+03  0.10566000000E+00 0. -1.
        994    1    1    2    0    0 -0.27947635539E+02  0.47521833098E+02  0.13425508731E+02  0.18035819704E+03  0.17120000000E+03 0.  0.
        998    1    1    2    0    0  0.59261934558E+00 -0.19650061405E+02  0.13017314512E+04  0.13019182951E+04  0.10000000000E+02 0. -1.
</event>
<event>
 5    1  0.1344348E-008  0.3856780E+03  0.7957747E-01  0.3426802E+00
         13   -1    0    0    0    0  0.00000000000E+00  0.00000000000E+00  0.14999999963E+04  0.15000000000E+04  0.10566000000E+00 0.  1.
        994   -1    0    0    0    0 -0.00000000000E+00 -0.00000000000E+00  0.11368683772E-12  0.17120000000E+03  0.17120000000E+03 0.  0.
         13    1    1    2    0    0  0.11158215043E+02  0.75659646436E+01  0.76366223954E+02  0.77547152810E+02  0.10566000000E+00 0.  1.
        994    1    1    2    0    0 -0.10632627509E+01  0.32369976403E+01  0.13320076989E+01  0.17123908119E+03  0.17120000000E+03 0.  0.
        998    1    1    2    0    0 -0.10094952292E+02 -0.10802962284E+02  0.14223017646E+04  0.14224137660E+04  0.10000000000E+02 0.  1.
</event>
<event>
 5    1  0.1344348E-008  0.3838265E+03  0.7957747E-01  0.3434664E+00
         13   -1    0    0    0    0  0.00000000000E+00  0.00000000000E+00  0.14999999963E+04  0.15000000000E+04  0.10566000000E+00 0. -1.
        994   -1    0    0    0    0 -0.00000000000E+00 -0.00000000000E+00  0.11368683772E-12  0.17120000000E+03  0.17120000000E+03 0.  0.
         13    1    1    2    0    0  0.14334782307E+02  0.21506354696E+01  0.47125849786E+02  0.49304848634E+02  0.10566000000E+00 0. -1.
        994    1    1    2    0    0 -0.90908212514E+01  0.19949605754E+01  0.24998977276E+01  0.17147102492E+03  0.17120000000E+03 0.  0.
        998    1    1    2    0    0 -0.52439610559E+01 -0.41455960450E+01  0.14503742488E+04  0.14504241264E+04  0.10000000000E+02 0. -1.
</event>
<event>
 5    1  0.1344348E-008  0.3829702E+03  0.7957747E-01  0.3438327E+00
         13   -1    0    0    0    0  0.00000000000E+00  0.00000000000E+00  0.14999999963E+04  0.15000000000E+04  0.10566000000E+00 0. -1.
        994   -1    0    0    0    0 -0.00000000000E+00 -0.00000000000E+00  0.11368683772E-12  0.17120000000E+03  0.17120000000E+03 0.  0.
         13    1    1    2    0    0 -0.13689421264E+02  0.19275545592E+02  0.13105958242E+03  0.13317496844E+03  0.10566000000E+00 0. -1.
        994    1    1    2    0    0 -0.91883507204E+01  0.11778937953E+02  0.33804093699E+01  0.17188378730E+03  0.17120000000E+03 0.  0.
        998    1    1    2    0    0  0.22877771985E+02 -0.31054483545E+02  0.13655600045E+04  0.13661412443E+04  0.10000000000E+02 0.  0.
</event>
<event>
 5    1  0.1344348E-008  0.3847753E+03  0.7957747E-01  0.3430626E+00
         13   -1    0    0    0    0  0.00000000000E+00  0.00000000000E+00  0.14999999963E+04  0.15000000000E+04  0.10566000000E+00 0.  1.
        994   -1    0    0    0    0 -0.00000000000E+00 -0.00000000000E+00  0.11368683772E-12  0.17120000000E+03  0.17120000000E+03 0.  0.
         13    1    1    2    0    0  0.19520225858E+02 -0.54828182194E+01  0.11530506848E+03  0.11707420935E+03  0.10566000000E+00 0.  1.
        994    1    1    2    0    0 -0.13489808081E+02  0.93861931935E+01  0.26310696666E+01  0.17200708727E+03  0.17120000000E+03 0.  0.
        998    1    1    2    0    0 -0.60304177763E+01 -0.39033749740E+01  0.13820638581E+04  0.13821187034E+04  0.10000000000E+02 0.  1.
</event>
<event>
 5    1  0.1344348E-008  0.3706204E+03  0.7957747E-01  0.3493045E+00
         13   -1    0    0    0    0  0.00000000000E+00  0.00000000000E+00  0.14999999963E+04  0.15000000000E+04  0.10566000000E+00 0.  1.
        994   -1    0    0    0    0 -0.00000000000E+00 -0.00000000000E+00  0.11368683772E-12  0.17120000000E+03  0.17120000000E+03 0.  0.
         13    1    1    2    0    0 -0.28233072137E+02 -0.83902290502E+01  0.32739151926E+02  0.44038228151E+02  0.10566000000E+00 0.  1.
        994    1    1    2    0    0  0.34015850742E+02  0.94344694328E+01  0.15645585834E+02  0.17550017570E+03  0.17120000000E+03 0.  0.
        998    1    1    2    0    0 -0.57827786059E+01 -0.10442403826E+01  0.14516152585E+04  0.14516615961E+04  0.10000000000E+02 0.  1.
</event>
<event>
 5    1  0.1344348E-008  0.3825803E+03  0.7957747E-01  0.3440000E+00
         13   -1    0    0    0    0  0.00000000000E+00  0.00000000000E+00  0.14999999963E+04  0.15000000000E+04  0.10566000000E+00 0.  1.
        994   -1    0    0    0    0 -0.00000000000E+00 -0.00000000000E+00  0.11368683772E-12  0.17120000000E+03  0.17120000000E+03 0.  0.
         13    1    1    2    0    0  0.55441890584E+01 -0.11256836554E+02  0.26485608313E+02  0.29307900185E+02  0.10566000000E+00 0.  1.
        994    1    1    2    0    0 -0.63104658065E+01  0.95750129753E+01  0.32722898470E+01  0.17161483250E+03  0.17120000000E+03 0.  0.
        998    1    1    2    0    0  0.76627674809E+00  0.16818235791E+01  0.14702420981E+04  0.14702772673E+04  0.10000000000E+02 0.  1.
</event>
<event>
 5    1  0.1344348E-008  0.3859638E+03  0.7957747E-01  0.3425595E+00
         13   -1    0    0    0    0  0.00000000000E+00  0.00000000000E+00  0.14999999963E+04  0.15000000000E+04  0.10566000000E+00 0. -1.
        994   -1    0    0    0    0 -0.00000000000E+00 -0.00000000000E+00  0.11368683772E-12  0.17120000000E+03  0.17120000000E+03 0.  0.
         13    1    1    2    0    0 -0.12181368910E+02 -0.66865289461E+01  0.80771903199E+02  0.81958568364E+02  0.10566000000E+00 0. -1.
        994    1    1    2    0    0  0.10794956471E+02  0.11200291734E+02  0.19460781712E+01  0.17191627276E+03  0.17120000000E+03 0.  0.
        998    1    1    2    0    0  0.13864124389E+01 -0.45137627878E+01  0.14172820149E+04  0.14173251589E+04  0.10000000000E+02 0. -1.
</event>
<event>
 5    1  0.1344348E-008  0.3803420E+03  0.7957747E-01  0.3449671E+00
         13   -1    0    0    0    0  0.00000000000E+00  0.00000000000E+00  0.14999999963E+04  0.15000000000E+04  0.10566000000E+00 0.  1.
        994   -1    0    0    0    0 -0.00000000000E+00 -0.00000000000E+00  0.11368683772E-12  0.17120000000E+03  0.17120000000E+03 0.  0.
         13    1    1    2    0    0  0.82162220800E+01 -0.28903138831E+02  0.11481552056E+03  0.11868240251E+03  0.10566000000E+00 0.  1.
        994    1    1    2    0    0 -0.13559301252E+02  0.11507743892E+02  0.50174228532E+01  0.17219435923E+03  0.17120000000E+03 0.  0.
        998    1    1    2    0    0  0.53430791716E+01  0.17395394939E+02  0.13801670529E+04  0.13803232383E+04  0.10000000000E+02 0.  1.
</event>
<event>
 5    1  0.1344348E-008  0.3850438E+03  0.7957747E-01  0.3429487E+00
         13   -1    0    0    0    0  0.00000000000E+00  0.00000000000E+00  0.14999999963E+04  0.15000000000E+04  0.10566000000E+00 0.  1.
        994   -1    0    0    0    0 -0.00000000000E+00 -0.00000000000E+00  0.11368683772E-12  0.17120000000E+03  0.17120000000E+03 0.  0.
         13    1    1    2    0    0  0.29946168994E+01 -0.17612913688E+02  0.10642459640E+03  0.10791380052E+03  0.10566000000E+00 0.  1.
        994    1    1    2    0    0  0.26634164421E+01  0.35637468882E+01  0.16734963413E+01  0.17126597639E+03  0.17120000000E+03 0.  0.
        998    1    1    2    0    0 -0.56580333416E+01  0.14049166800E+02  0.13919019035E+04  0.13920202231E+04  0.10000000000E+02 0.  1.
</event>
<event>
 5    1  0.1344348E-008  0.2820135E+03  0.7957747E-01  0.4033430E+00
         13   -1    0    0    0    0  0.00000000000E+00  0.00000000000E+00  0.14999999963E+04  0.15000000000E+04  0.10566000000E+00 0. -1.
        994   -1    0    0    0    0 -0.00000000000E+00 -0.00000000000E+00  0.11368683772E-12  0.17120000000E+03  0.17120000000E+03 0.  0.
         13    1    1    2    0    0  0.10816028205E+03  0.16128619539E+03  0.48555061342E+03  0.52294482767E+03  0.10566000000E+00 0. -1.
        994    1    1    2    0    0 -0.96556126176E+02 -0.16382053548E+03  0.17807739945E+03  0.31173907926E+03  0.17120000000E+03 0.  0.
        998    1    1    2    0    0 -0.11604155871E+02  0.25343400827E+01  0.83637198342E+03  0.83651609307E+03  0.10000000000E+02 0. -1.
</event>
<event>
 5    1  0.1344348E-008  0.3734516E+03  0.7957747E-01  0.3480177E+00
         13   -1    0    0    0    0  0.00000000000E+00  0.00000000000E+00  0.14999999963E+04  0.15000000000E+04  0.10566000000E+00 0. -1.
        994   -1    0    0    0    0 -0.00000000000E+00 -0.00000000000E+00  0.11368683772E-12  0.17120000000E+03  0.17120000000E+03 0.  0.
         13    1    1    2    0    0 -0.24997800142E+01  0.10914480779E+02  0.48190925142E+01  0.12190554027E+02  0.10566000000E+00 0. -1.
        994    1    1    2    0    0  0.27628462903E+01 -0.17099549313E+02  0.85019016245E+01  0.17228392333E+03  0.17120000000E+03 0.  0.
        998    1    1    2    0    0 -0.26306627611E+00  0.61850685337E+01  0.14866790021E+04  0.14867255226E+04  0.10000000000E+02 0. -1.
</event>
<event>
 5    1  0.1344348E-008  0.3771245E+03  0.7957747E-01  0.3463775E+00
         13   -1    0    0    0    0  0.00000000000E+00  0.00000000000E+00  0.14999999963E+04  0.15000000000E+04  0.10566000000E+00 0. -1.
        994   -1    0    0    0    0 -0.00000000000E+00 -0.00000000000E+00  0.11368683772E-12  0.17120000000E+03  0.17120000000E+03 0.  0.
         13    1    1    2    0    0 -0.25551704913E+02  0.21170890367E+02  0.10056645396E+03  0.10589957058E+03  0.10566000000E+00 0. -1.
        994    1    1    2    0    0 -0.18647596652E+02 -0.41697498024E+02  0.12666041696E+02  0.17764088160E+03  0.17120000000E+03 0.  0.
        998    1    1    2    0    0  0.44199301565E+02  0.20526607658E+02  0.13867675006E+04  0.13876595478E+04  0.10000000000E+02 0. -1.
</event>
<event>
 5    1  0.1344348E-008  0.3855744E+03  0.7957747E-01  0.3427240E+00
         13   -1    0    0    0    0  0.00000000000E+00  0.00000000000E+00  0.14999999963E+04  0.15000000000E+04  0.10566000000E+00 0.  1.
        994   -1    0    0    0    0 -0.00000000000E+00 -0.00000000000E+00  0.11368683772E-12  0.17120000000E+03  0.17120000000E+03 0.  0.
         13    1    1    2    0    0  0.40234034752E+01  0.12509944512E+02  0.62994421699E+02  0.64350561897E+02  0.10566000000E+00 0.  1.
        994    1    1    2    0    0  0.18802888384E+02 -0.19833581834E+02  0.38008498303E+01  0.17340935972E+03  0.17120000000E+03 0.  0.
        998    1    1    2    0    0 -0.22826291859E+02  0.73236373221E+01  0.14332047247E+04  0.14334400784E+04  0.10000000000E+02 0.  1.
</event>
<event>
 5    1  0.1344348E-008  0.3820930E+03  0.7957747E-01  0.3442095E+00
         13   -1    0    0    0    0  0.00000000000E+00  0.00000000000E+00  0.14999999963E+04  0.15000000000E+04  0.10566000000E+00 0.  1.
        994   -1    0    0    0    0 -0.00000000000E+00 -0.00000000000E+00  0.11368683772E-12  0.17120000000E+03  0.17120000000E+03 0.  0.
         13    1    1    2    0    0  0.90883818604E+01 -0.13410312956E+02  0.43116587371E+02  0.46059596709E+02  0.10566000000E+00 0.  1.
        994    1    1    2    0    0  0.41693478907E+01  0.44715464452E+01  0.32044327640E+01  0.17133909822E+03  0.17120000000E+03 0.  0.
        998    1    1    2    0    0 -0.13257729751E+02  0.89387665112E+01  0.14536789761E+04  0.14538013051E+04  0.10000000000E+02 0.  1.
</event>
<event>
 5    1  0.1344348E-008  0.3853660E+03  0.7957747E-01  0.3428122E+00
         13   -1    0    0    0    0  0.00000000000E+00  0.00000000000E+00  0.14999999963E+04  0.15000000000E+04  0.10566000000E+00 0. -1.
        994   -1    0    0    0    0 -0.00000000000E+00 -0.00000000000E+00  0.11368683772E-12  0.17120000000E+03  0.17120000000E+03 0.  0.
         13    1    1    2    0    0 -0.99309675219E+01  0.14125144418E+01  0.35158483921E+02  0.36561584603E+02  0.10566000000E+00 0. -1.
        994    1    1    2    0    0  0.36336560942E+01 -0.49223606998E+01  0.15715248757E+01  0.17131649886E+03  0.17120000000E+03 0.  0.
        998    1    1    2    0    0  0.62973114277E+01  0.35098462580E+01  0.14632699875E+04  0.14633219165E+04  0.10000000000E+02 0. -1.
</event>
<event>
 5    1  0.1344348E-008  0.3850315E+03  0.7957747E-01  0.3429538E+00
         13   -1    0    0    0    0  0.00000000000E+00  0.00000000000E+00  0.14999999963E+04  0.15000000000E+04  0.10566000000E+00 0.  1.
        994   -1    0    0    0    0 -0.00000000000E+00 -0.00000000000E+00  0.11368683772E-12  0.17120000000E+03  0.17120000000E+03 0.  0.
         13    1    1    2    0    0  0.12094412442E+02  0.20451050875E+01  0.37241249179E+02  0.39209425800E+02  0.10566000000E+00 0.  1.
        994    1    1    2    0    0 -0.50633355712E+02 -0.31755080318E+02  0.13450224266E+02  0.18183088398E+03  0.17120000000E+03 0.  0.
        998    1    1    2    0    0  0.38538943271E+02  0.29709975231E+02  0.14493085228E+04  0.14501596902E+04  0.10000000000E+02 0.  1.
</event>
<event>
 5    1  0.1344348E-008  0.3851289E+03  0.7957747E-01  0.3429126E+00
         13   -1    0    0    0    0  0.00000000000E+00  0.00000000000E+00  0.14999999963E+04  0.15000000000E+04  0.10566000000E+00 0. -1.
        994   -1    0    0    0    0 -0.00000000000E+00 -0.00000000000E+00  0.11368683772E-12  0.17120000000E+03  0.17120000000E+03 0.  0.
         13    1    1    2    0    0 -0.12432349154E+02  0.98870596232E+01  0.78326178145E+02  0.79920701951E+02  0.10566000000E+00 0. -1.
        994    1    1    2    0    0  0.11298735340E+02 -0.91779402272E+01  0.22630185030E+01  0.17183264317E+03  0.17120000000E+03 0.  0.
        998    1    1    2    0    0  0.11336138139E+01 -0.70911939603E+00  0.14194107996E+04  0.14194466549E+04  0.10000000000E+02 0.  0.
</event>
<event>
 5    1  0.1344348E-008  0.3791860E+03  0.7957747E-01  0.3454711E+00
         13   -1    0    0    0    0  0.00000000000E+00  0.00000000000E+00  0.14999999963E+04  0.15000000000E+04  0.10566000000E+00 0. -1.
        994   -1    0    0    0    0 -0.00000000000E+00 -0.00000000000E+00  0.11368683772E-12  0.17120000000E+03  0.17120000000E+03 0.  0.
         13    1    1    2    0    0  0.35258495765E+02 -0.30203161633E+01  0.15276456794E+03  0.15680978355E+03  0.10566000000E+00 0. -1.
        994    1    1    2    0    0 -0.21757405658E+01  0.34508046309E+01  0.46004078936E+01  0.17131037812E+03  0.17120000000E+03 0.  0.
        998    1    1    2    0    0 -0.33082755199E+02 -0.43048846756E+00  0.13426350204E+04  0.13430798383E+04  0.10000000000E+02 0. -1.
</event>
<event>
 5    1  0.1344348E-008  0.3828459E+03  0.7957747E-01  0.3438860E+00
         13   -1    0    0    0    0  0.00000000000E+00  0.00000000000E+00  0.14999999963E+04  0.15000000000E+04  0.10566000000E+00 0. -1.
        994   -1    0    0    0    0 -0.00000000000E+00 -0.00000000000E+00  0.11368683772E-12  0.17120000000E+03  0.17120000000E+03 0.  0.
         13    1    1    2    0    0 -0.13412702674E+02  0.39846610018E+00  0.33162839156E+02  0.35774913461E+02  0.10566000000E+00 0. -1.
        994    1    1    2    0    0  0.29217024952E+01  0.38319289819E+01  0.27802873405E+01  0.17129036757E+03  0.17120000000E+03 0.  0.
        998    1    1    2    0    0  0.10491000179E+02 -0.42303950821E+01  0.14640568698E+04  0.14641347190E+04  0.10000000000E+02 0. -1.
</event>
<event>
 5    1  0.2591136E-008  0.3862861E+03  0.7957747E-01  0.3424236E+00
         13   -1    0    0    0    0  0.00000000000E+00  0.00000000000E+00  0.14999999963E+04  0.15000000000E+04  0.10566000000E+00 0.  1.
        994   -1    0    0    0    0 -0.00000000000E+00 -0.00000000000E+00  0.11368683772E-12  0.17120000000E+03  0.17120000000E+03 0.  0.
         13    1    1    2    0    0 -0.10563428543E+02  0.79307012161E+00  0.60060546619E+02  0.60987666024E+02  0.10566000000E+00 0.  1.
        994    1    1    2    0    0  0.12631399602E+01 -0.30192659388E+01  0.10280071376E+01  0.17123436655E+03  0.17120000000E+03 0.  0.
        998    1    1    2    0    0  0.93002885826E+01  0.22261958172E+01  0.14389114425E+04  0.14389779674E+04  0.10000000000E+02 0.  1.
</event>
<event>
 5    1  0.1344348E-008  0.3850404E+03  0.7957747E-01  0.3429501E+00
         13   -1    0    0    0    0  0.00000000000E+00  0.00000000000E+00  0.14999999963E+04  0.15000000000E+04  0.10566000000E+00 0. -1.
        994   -1    0    0    0    0 -0.00000000000E+00 -0.00000000000E+00  0.11368683772E-12  0.17120000000E+03  0.17120000000E+03 0.  0.
         13    1    1    2    0    0 -0.12831421403E+02  0.10544395093E+02  0.90503146139E+02  0.92014456844E+02  0.10566000000E+00 0. -1.
        994    1    1    2    0    0 -0.11469650743E+01 -0.71679711217E+01  0.17833831667E+01  0.17136311095E+03  0.17120000000E+03 0.  0.
        998    1    1    2    0    0  0.13978386478E+02 -0.33764239715E+01  0.14077134670E+04  0.14078224322E+04  0.10000000000E+02 0. -1.
</event>
<event>
 5    1  0.1344348E-008  0.3827455E+03  0.7957747E-01  0.3439291E+00
         13   -1    0    0    0    0  0.00000000000E+00  0.00000000000E+00  0.14999999963E+04  0.15000000000E+04  0.10566000000E+00 0.  1.
        994   -1    0    0    0    0 -0.00000000000E+00 -0.00000000000E+00  0.11368683772E-12  0.17120000000E+03  0.17120000000E+03 0.  0.
         13    1    1    2    0    0  0.50876319549E+01  0.20350572998E+02  0.75499216907E+02  0.78359254322E+02  0.10566000000E+00 0.  1.
        994    1    1    2    0    0 -0.74531325429E+01 -0.20796353041E+02  0.43720992467E+01  0.17267481790E+03  0.17120000000E+03 0.  0.
        998    1    1    2    0    0  0.23655005880E+01  0.44578004297E+00  0.14201286801E+04  0.14201659278E+04  0.10000000000E+02 0.  1.
</event>
<event>
 5    1  0.1344348E-008  0.3800003E+03  0.7957747E-01  0.3451157E+00
         13   -1    0    0    0    0  0.00000000000E+00  0.00000000000E+00  0.14999999963E+04  0.15000000000E+04  0.10566000000E+00 0.  1.
        994   -1    0    0    0    0 -0.00000000000E+00 -0.00000000000E+00  0.11368683772E-12  0.17120000000E+03  0.17120000000E+03 0.  0.
         13    1    1    2    0    0 -0.49688638489E+02 -0.53124276747E+02  0.42657482294E+03  0.43273229635E+03  0.10566000000E+00 0.  1.
        994    1    1    2    0    0  0.51966406167E+02  0.58858895078E+02  0.25024782306E+02  0.19000146481E+03  0.17120000000E+03 0.  0.
        998    1    1    2    0    0 -0.22777676780E+01 -0.57346183302E+01  0.10484003910E+04  0.10484662388E+04  0.10000000000E+02 0.  1.
</event>
<event>
 5    1  0.1344348E-008  0.3818246E+03  0.7957747E-01  0.3443252E+00
         13   -1    0    0    0    0  0.00000000000E+00  0.00000000000E+00  0.14999999963E+04  0.15000000000E+04  0.10566000000E+00 0. -1.
        994   -1    0    0    0    0 -0.00000000000E+00 -0.00000000000E+00  0.11368683772E-12  0.17120000000E+03  0.17120000000E+03 0.  0.
         13    1    1    2    0    0  0.14667312876E+02  0.11651655214E+02  0.51775879656E+02  0.55060367002E+02  0.10566000000E+00 0. -1.
        994    1    1    2    0    0 -0.19512481577E+02 -0.74474383813E+01  0.46657181609E+01  0.17253234538E+03  0.17120000000E+03 0.  0.
        998    1    1    2    0    0  0.48451687014E+01 -0.42042168326E+01  0.14435583985E+04  0.14436072876E+04  0.10000000000E+02 0. -1.
</event>
<event>
 5    1  0.1344348E-008  0.3849995E+03  0.7957747E-01  0.3429674E+00
         13   -1    0    0    0    0  0.00000000000E+00  0.00000000000E+00  0.14999999963E+04  0.15000000000E+04  0.10566000000E+00 0. -1.
        994   -1    0    0    0    0 -0.00000000000E+00 -0.00000000000E+00  0.11368683772E-12  0.17120000000E+03  0.17120000000E+03 0.  0.
         13    1    1    2    0    0 -0.10167596958E+02 -0.50618155752E+01  0.40718459475E+02  0.42272995054E+02  0.10566000000E+00 0. -1.
        994    1    1    2    0    0  0.72001441869E+01 -0.11134156233E+02  0.22087818522E+01  0.17172690595E+03  0.17120000000E+03 0.  0.
        998    1    1    2    0    0  0.29674527707E+01  0.16195971809E+02  0.14570727550E+04  0.14572000990E+04  0.10000000000E+02 0. -1.
</event>
<event>
 5    1  0.1344348E-008  0.3822082E+03  0.7957747E-01  0.3441600E+00
         13   -1    0    0    0    0  0.00000000000E+00  0.00000000000E+00  0.14999999963E+04  0.15000000000E+04  0.10566000000E+00 0.  1.
        994   -1    0    0    0    0 -0.00000000000E+00 -0.00000000000E+00  0.11368683772E-12  0.17120000000E+03  0.17120000000E+03 0.  0.
         13    1    1    2    0    0  0.13358500858E+02 -0.27518925884E+02  0.14542248921E+03  0.14860502131E+03  0.10566000000E+00 0.  1.
        994    1    1    2    0    0 -0.10583588729E+02  0.23834421608E+02  0.52828890861E+01  0.17325542104E+03  0.17120000000E+03 0.  0.
        998    1    1    2    0    0 -0.27749121292E+01  0.36845042764E+01  0.13492946180E+04  0.13493395576E+04  0.10000000000E+02 0.  1.
</event>
<event>
 5    1  0.1344348E-008  0.3691596E+03  0.7957747E-01  0.3499762E+00
         13   -1    0    0    0    0  0.00000000000E+00  0.00000000000E+00  0.14999999963E+04  0.15000000000E+04  0.10566000000E+00 0.  1.
        994   -1    0    0    0    0 -0.00000000000E+00 -0.00000000000E+00  0.11368683772E-12  0.17120000000E+03  0.17120000000E+03 0.  0.
         13    1    1    2    0    0 -0.14073706305E+03 -0.18128151793E+01  0.68213337938E+03  0.69650281094E+03  0.10566000000E+00 0.  1.
        994    1    1    2    0    0  0.11462691405E+03  0.26635979964E+02  0.60454916957E+02  0.21636321739E+03  0.17120000000E+03 0.  0.
        998    1    1    2    0    0  0.26110149001E+02 -0.24823164784E+02  0.75741169994E+03  0.75833397168E+03  0.10000000000E+02 0.  1.
</event>
<event>
 5    1  0.1344348E-008  0.3831179E+03  0.7957747E-01  0.3437694E+00
         13   -1    0    0    0    0  0.00000000000E+00  0.00000000000E+00  0.14999999963E+04  0.15000000000E+04  0.10566000000E+00 0.  1.
        994   -1    0    0    0    0 -0.00000000000E+00 -0.00000000000E+00  0.11368683772E-12  0.17120000000E+03  0.17120000000E+03 0.  0.
         13    1    1    2    0    0  0.11079174581E+02 -0.34641436053E+00  0.25162337890E+02  0.27495863769E+02  0.10566000000E+00 0.  1.
        994    1    1    2    0    0  0.18297297168E+02 -0.40896001156E+01  0.37314518650E+01  0.17226398244E+03  0.17120000000E+03 0.  0.
        998    1    1    2    0    0 -0.29376471749E+02  0.44360144761E+01  0.14711062065E+04  0.14714401538E+04  0.10000000000E+02 0.  1.
</event>
<event>
 5    1  0.1344348E-008  0.3834796E+03  0.7957747E-01  0.3436146E+00
         13   -1    0    0    0    0  0.00000000000E+00  0.00000000000E+00  0.14999999963E+04  0.15000000000E+04  0.10566000000E+00 0. -1.
        994   -1    0    0    0    0 -0.00000000000E+00 -0.00000000000E+00  0.11368683772E-12  0.17120000000E+03  0.17120000000E+03 0.  0.
         13    1    1    2    0    0 -0.18028738925E+02  0.77270124813E+01  0.81774314401E+02  0.84093946327E+02  0.10566000000E+00 0. -1.
        994    1    1    2    0    0  0.63247913508E+01 -0.75954657830E+01  0.27098341107E+01  0.17150649343E+03  0.17120000000E+03 0.  0.
        998    1    1    2    0    0  0.11703947575E+02 -0.13154669826E+00  0.14155158478E+04  0.14155995602E+04  0.10000000000E+02 0. -1.
</event>
<event>
 5    1  0.1344348E-008  0.3790721E+03  0.7957747E-01  0.3455209E+00
         13   -1    0    0    0    0  0.00000000000E+00  0.00000000000E+00  0.14999999963E+04  0.15000000000E+04  0.10566000000E+00 0. -1.
        994   -1    0    0    0    0 -0.00000000000E+00 -0.00000000000E+00  0.11368683772E-12  0.17120000000E+03  0.17120000000E+03 0.  0.
         13    1    1    2    0    0  0.11581486729E+02 -0.34414257614E+01  0.13789121781E+02  0.18333720016E+02  0.10566000000E+00 0. -1.
        994    1    1    2    0    0 -0.10043401220E+02  0.34411082815E+01  0.49802978645E+01  0.17160114947E+03  0.17120000000E+03 0.  0.
        998    1    1    2    0    0 -0.15380855088E+01  0.31747988347E-03  0.14812305766E+04  0.14812651305E+04  0.10000000000E+02 0. -1.
</event>
<event>
 5    1  0.1344348E-008  0.3811909E+03  0.7957747E-01  0.3445989E+00
         13   -1    0    0    0    0  0.00000000000E+00  0.00000000000E+00  0.14999999963E+04  0.15000000000E+04  0.10566000000E+00 0. -1.
        994   -1    0    0    0    0 -0.00000000000E+00 -0.00000000000E+00  0.11368683772E-12  0.17120000000E+03  0.17120000000E+03 0.  0.
         13    1    1    2    0    0 -0.12478609515E+02 -0.26220104837E+02  0.13080059255E+03  0.13398513264E+03  0.10566000000E+00 0. -1.
        994    1    1    2    0    0 -0.28967033224E+00  0.18653266422E+01  0.35450755484E+01  0.17124710483E+03  0.17120000000E+03 0.  0.
        998    1    1    2    0    0  0.12768279847E+02  0.24354778195E+02  0.13656543282E+04  0.13659677625E+04  0.10000000000E+02 0. -1.
</event>
<event>
 5    1  0.1344348E-008  0.3846613E+03  0.7957747E-01  0.3431110E+00
         13   -1    0    0    0    0  0.00000000000E+00  0.00000000000E+00  0.14999999963E+04  0.15000000000E+04  0.10566000000E+00 0.  1.
        994   -1    0    0    0    0 -0.00000000000E+00 -0.00000000000E+00  0.11368683772E-12  0.17120000000E+03  0.17120000000E+03 0.  0.
         13    1    1    2    0    0  0.50509037150E+00 -0.12315351318E+02  0.41442654020E+02  0.43236879289E+02  0.10566000000E+00 0.  1.
        994    1    1    2    0    0  0.21468757052E+01  0.11030107002E+02  0.22142124201E+01  0.17158267708E+03  0.17120000000E+03 0.  0.
        998    1    1    2    0    0 -0.26519660767E+01  0.12852443154E+01  0.14563431298E+04  0.14563804436E+04  0.10000000000E+02 0.  1.
</event>
<event>
 5    1  0.1344348E-008  0.3740269E+03  0.7957747E-01  0.3477586E+00
         13   -1    0    0    0    0  0.00000000000E+00  0.00000000000E+00  0.14999999963E+04  0.15000000000E+04  0.10566000000E+00 0.  1.
        994   -1    0    0    0    0 -0.00000000000E+00 -0.00000000000E+00  0.11368683772E-12  0.17120000000E+03  0.17120000000E+03 0.  0.
         13    1    1    2    0    0  0.13281599774E+02  0.35771755743E+01  0.98974157045E+01  0.16946004818E+02  0.10566000000E+00 0.  1.
        994    1    1    2    0    0 -0.13360498419E+02  0.19248494244E+01  0.78009430347E+01  0.17190841363E+03  0.17120000000E+03 0.  0.
        998    1    1    2    0    0  0.78898644973E-01 -0.55020249987E+01  0.14823016375E+04  0.14823455816E+04  0.10000000000E+02 0.  1.
</event>
<event>
 5    1  0.1344348E-008  0.3760481E+03  0.7957747E-01  0.3468549E+00
         13   -1    0    0    0    0  0.00000000000E+00  0.00000000000E+00  0.14999999963E+04  0.15000000000E+04  0.10566000000E+00 0.  1.
        994   -1    0    0    0    0 -0.00000000000E+00 -0.00000000000E+00  0.11368683772E-12  0.17120000000E+03  0.17120000000E+03 0.  0.
         13    1    1    2    0    0 -0.25446433882E+02 -0.31092909000E+02  0.12213021498E+03  0.12856939979E+03  0.10566000000E+00 0.  1.
        994    1    1    2    0    0  0.27395024540E+02  0.24115326801E+02  0.10666707020E+02  0.17537176225E+03  0.17120000000E+03 0.  0.
        998    1    1    2    0    0 -0.19485906586E+01  0.69775821985E+01  0.13672030743E+04  0.13672588380E+04  0.10000000000E+02 0.  1.
</event>
<event>
 5    1  0.1344348E-008  0.3782104E+03  0.7957747E-01  0.3458988E+00
         13   -1    0    0    0    0  0.00000000000E+00  0.00000000000E+00  0.14999999963E+04  0.15000000000E+04  0.10566000000E+00 0. -1.
        994   -1    0    0    0    0 -0.00000000000E+00 -0.00000000000E+00  0.11368683772E-12  0.17120000000E+03  0.17120000000E+03 0.  0.
         13    1    1    2    0    0  0.25113969839E+02 -0.31692537812E+02  0.19520830897E+03  0.19935251061E+03  0.10566000000E+00 0. -1.
        994    1    1    2    0    0 -0.13444181539E+01 -0.72739111375E+01  0.52232839185E+01  0.17143931853E+03  0.17120000000E+03 0.  0.
        998    1    1    2    0    0 -0.23769551685E+02  0.38966448949E+02  0.12995684034E+04  0.13004081709E+04  0.10000000000E+02 0. -1.
</event>
<event>
 5    1  0.1344348E-008  0.3738710E+03  0.7957747E-01  0.3478287E+00
         13   -1    0    0    0    0  0.00000000000E+00  0.00000000000E+00  0.14999999963E+04  0.15000000000E+04  0.10566000000E+00 0.  1.
        994   -1    0    0    0    0 -0.00000000000E+00 -0.00000000000E+00  0.11368683772E-12  0.17120000000E+03  0.17120000000E+03 0.  0.
         13    1    1    2    0    0  0.37101581793E+02  0.15971048582E+02  0.58870037302E+02  0.71395337525E+02  0.10566000000E+00 0.  1.
        994    1    1    2    0    0 -0.16919074008E+02 -0.15860733527E+02  0.14908833041E+02  0.17340568398E+03  0.17120000000E+03 0.  0.
        998    1    1    2    0    0 -0.20182507785E+02 -0.11031505535E+00  0.14262211259E+04  0.14263989785E+04  0.10000000000E+02 0.  1.
</event>
<event>
 5    1  0.1344348E-008  0.3011299E+03  0.7957747E-01  0.3887985E+00
         13   -1    0    0    0    0  0.00000000000E+00  0.00000000000E+00  0.14999999963E+04  0.15000000000E+04  0.10566000000E+00 0. -1.
        994   -1    0    0    0    0 -0.00000000000E+00 -0.00000000000E+00  0.11368683772E-12  0.17120000000E+03  0.17120000000E+03 0.  0.
         13    1    1    2    0    0  0.16076370467E+03 -0.76633032459E+02  0.67360376748E+03  0.69674933594E+03  0.10566000000E+00 0. -1.
        994    1    1    2    0    0 -0.15186956429E+03  0.74039767365E+02  0.12159936403E+03  0.26952197877E+03  0.17120000000E+03 0.  0.
        998    1    1    2    0    0 -0.88941403780E+01  0.25932650935E+01  0.70479686477E+03  0.70492868529E+03  0.10000000000E+02 0. -1.
</event>
<event>
 5    1  0.1344348E-008  0.3711278E+03  0.7957747E-01  0.3490724E+00
         13   -1    0    0    0    0  0.00000000000E+00  0.00000000000E+00  0.14999999963E+04  0.15000000000E+04  0.10566000000E+00 0.  1.
        994   -1    0    0    0    0 -0.00000000000E+00 -0.00000000000E+00  0.11368683772E-12  0.17120000000E+03  0.17120000000E+03 0.  0.
         13    1    1    2    0    0  0.10523176204E+02 -0.24515844171E+02  0.36122917274E+02  0.44907016927E+02  0.10566000000E+00 0.  1.
        994    1    1    2    0    0 -0.11644164919E+02  0.30127445708E+02  0.12282471094E+02  0.17465265145E+03  0.17120000000E+03 0.  0.
        998    1    1    2    0    0  0.11209887155E+01 -0.56116015375E+01  0.14515946079E+04  0.14516403316E+04  0.10000000000E+02 0.  1.
</event>
<event>
 5    1  0.1344348E-008  0.3729651E+03  0.7957747E-01  0.3482374E+00
         13   -1    0    0    0    0  0.00000000000E+00  0.00000000000E+00  0.14999999963E+04  0.15000000000E+04  0.10566000000E+00 0.  1.
        994   -1    0    0    0    0 -0.00000000000E+00 -0.00000000000E+00  0.11368683772E-12  0.17120000000E+03  0.17120000000E+03 0.  0.
         13    1    1    2    0    0  0.24551347320E+02  0.12088821376E+02  0.24247757693E+02  0.36563276312E+02  0.10566000000E+00 0.  1.
        994    1    1    2    0    0 -0.26557275548E+02 -0.10245102210E+02  0.15382964514E+02  0.17423067067E+03  0.17120000000E+03 0.  0.
        998    1    1    2    0    0  0.20059282279E+01 -0.18437191661E+01  0.14603692741E+04  0.14604060530E+04  0.10000000000E+02 0.  1.
</event>
<event>
 5    1  0.1344348E-008  0.3780719E+03  0.7957747E-01  0.3459597E+00
         13   -1    0    0    0    0  0.00000000000E+00  0.00000000000E+00  0.14999999963E+04  0.15000000000E+04  0.10566000000E+00 0. -1.
        994   -1    0    0    0    0 -0.00000000000E+00 -0.00000000000E+00  0.11368683772E-12  0.17120000000E+03  0.17120000000E+03 0.  0.
         13    1    1    2    0    0  0.30811382905E+02 -0.40248891919E+02  0.22434477161E+03  0.22999978767E+03  0.10566000000E+00 0. -1.
        994    1    1    2    0    0 -0.10584713336E+03 -0.10859923311E+02  0.44197516027E+02  0.20635991374E+03  0.17120000000E+03 0.  0.
        998    1    1    2    0    0  0.75035750458E+02  0.51108815230E+02  0.12314577086E+04  0.12348402986E+04  0.10000000000E+02 0. -1.
</event>
<event>
 5    1  0.1344348E-008  0.3834289E+03  0.7957747E-01  0.3436363E+00
         13   -1    0    0    0    0  0.00000000000E+00  0.00000000000E+00  0.14999999963E+04  0.15000000000E+04  0.10566000000E+00 0. -1.
        994   -1    0    0    0    0 -0.00000000000E+00 -0.00000000000E+00  0.11368683772E-12  0.17120000000E+03  0.17120000000E+03 0.  0.
         13    1    1    2    0    0 -0.17228243357E+03 -0.18308929692E+02  0.10176247753E+04  0.10322677212E+04  0.10566000000E+00 0. -1.
        994    1    1    2    0    0  0.18425230083E+03  0.17198541517E+02  0.12531161926E+03  0.28152645011E+03  0.17120000000E+03 0.  0.
        998    1    1    2    0    0 -0.11969867260E+02  0.11103881756E+01  0.35706360175E+03  0.35740582869E+03  0.10000000000E+02 0.  0.
</event>
<event>
 5    1  0.1344348E-008  0.3838291E+03  0.7957747E-01  0.3434654E+00
         13   -1    0    0    0    0  0.00000000000E+00  0.00000000000E+00  0.14999999963E+04  0.15000000000E+04  0.10566000000E+00 0. -1.
        994   -1    0    0    0    0 -0.00000000000E+00 -0.00000000000E+00  0.11368683772E-12  0.17120000000E+03  0.17120000000E+03 0.  0.
         13    1    1    2    0    0  0.32491333592E+01 -0.17852280751E+02  0.77433845334E+02  0.79531580915E+02  0.10566000000E+00 0. -1.
        994    1    1    2    0    0 -0.23146948280E+01  0.36195630156E+01  0.22735453827E+01  0.17126899327E+03  0.17120000000E+03 0.  0.
        998    1    1    2    0    0 -0.93443853116E+00  0.14232717735E+02  0.14202926056E+04  0.14203994258E+04  0.10000000000E+02 0. -1.
</event>
<event>
 5    1  0.1344348E-008  0.3852372E+03  0.7957747E-01  0.3428667E+00
         13   -1    0    0    0    0  0.00000000000E+00  0.00000000000E+00  0.14999999963E+04  0.15000000000E+04  0.10566000000E+00 0. -1.
        994   -1    0    0    0    0 -0.00000000000E+00 -0.00000000000E+00  0.11368683772E-12  0.17120000000E+03  0.17120000000E+03 0.  0.
         13    1    1    2    0    0 -0.14214583066E+02  0.92224506529E-01  0.64252499709E+02  0.65806213689E+02  0.10566000000E+00 0. -1.
        994    1    1    2    0    0  0.15754649777E+02 -0.41186181111E+01  0.23843101420E+01  0.17198923495E+03  0.17120000000E+03 0.  0.
        998    1    1    2    0    0 -0.15400667117E+01  0.40263936046E+01  0.14333631864E+04  0.14334045514E+04  0.10000000000E+02 0. -1.
</event>
<event>
 5    1  0.1344348E-008  0.3840078E+03  0.7957747E-01  0.3433891E+00
         13   -1    0    0    0    0  0.00000000000E+00  0.00000000000E+00  0.14999999963E+04  0.15000000000E+04  0.10566000000E+00 0. -1.
        994   -1    0    0    0    0 -0.00000000000E+00 -0.00000000000E+00  0.11368683772E-12  0.17120000000E+03  0.17120000000E+03 0.  0.
         13    1    1    2    0    0  0.12226635294E+01 -0.28241911030E+02  0.15897747915E+03  0.16147120637E+03  0.10566000000E+00 0. -1.
        994    1    1    2    0    0  0.13814683221E+02  0.37291106894E+02  0.73587711260E+01  0.17591209065E+03  0.17120000000E+03 0.  0.
        998    1    1    2    0    0 -0.15037346750E+02 -0.90491958635E+01  0.13336637460E+04  0.13338167030E+04  0.10000000000E+02 0. -1.
</event>
<event>
 5    1  0.1344348E-008  0.3787516E+03  0.7957747E-01  0.3456612E+00
         13   -1    0    0    0    0  0.00000000000E+00  0.00000000000E+00  0.14999999963E+04  0.15000000000E+04  0.10566000000E+00 0. -1.
        994   -1    0    0    0    0 -0.00000000000E+00 -0.00000000000E+00  0.11368683772E-12  0.17120000000E+03  0.17120000000E+03 0.  0.
         13    1    1    2    0    0  0.42318629507E+01  0.11640990361E+02  0.14034797261E+02  0.18719188519E+02  0.10566000000E+00 0. -1.
        994    1    1    2    0    0 -0.53008701191E+01 -0.71177859973E+01  0.50290685181E+01  0.17150362571E+03  0.17120000000E+03 0.  0.
        998    1    1    2    0    0  0.10690071685E+01 -0.45232043641E+01  0.14809361305E+04  0.14809771858E+04  0.10000000000E+02 0. -1.
</event>
<event>
 5    1  0.1344348E-008  0.3692351E+03  0.7957747E-01  0.3499414E+00
         13   -1    0    0    0    0  0.00000000000E+00  0.00000000000E+00  0.14999999963E+04  0.15000000000E+04  0.10566000000E+00 0.  1.
        994   -1    0    0    0    0 -0.00000000000E+00 -0.00000000000E+00  0.11368683772E-12  0.17120000000E+03  0.17120000000E+03 0.  0.
         13    1    1    2    0    0 -0.27293520961E+02  0.61096789179E+01  0.35055873779E+02  0.44846292080E+02  0.10566000000E+00 0.  1.
        994    1    1    2    0    0 -0.44241360103E+01  0.84653963078E+01  0.10853087059E+02  0.17180938686E+03  0.17120000000E+03 0.  0.
        998    1    1    2    0    0  0.31717656971E+02 -0.14575075226E+02  0.14540910354E+04  0.14545443211E+04  0.10000000000E+02 0.  1.
</event>
<event>
 5    1  0.1344348E-008  0.3833995E+03  0.7957747E-01  0.3436489E+00
         13   -1    0    0    0    0  0.00000000000E+00  0.00000000000E+00  0.14999999963E+04  0.15000000000E+04  0.10566000000E+00 0.  1.
        994   -1    0    0    0    0 -0.00000000000E+00 -0.00000000000E+00  0.11368683772E-12  0.17120000000E+03  0.17120000000E+03 0.  0.
         13    1    1    2    0    0 -0.17780491410E+02  0.11947729570E+02  0.10524166965E+03  0.10739978730E+03  0.10566000000E+00 0.  1.
        994    1    1    2    0    0 -0.78871956426E+01 -0.60514643950E+01  0.27536368883E+01  0.17151049703E+03  0.17120000000E+03 0.  0.
        998    1    1    2    0    0  0.25667687052E+02 -0.58962651754E+01  0.13920046897E+04  0.13922897157E+04  0.10000000000E+02 0.  1.
</event>
<event>
 5    1  0.1344348E-008  0.3687352E+03  0.7957747E-01  0.3501724E+00
         13   -1    0    0    0    0  0.00000000000E+00  0.00000000000E+00  0.14999999963E+04  0.15000000000E+04  0.10566000000E+00 0.  1.
        994   -1    0    0    0    0 -0.00000000000E+00 -0.00000000000E+00  0.11368683772E-12  0.17120000000E+03  0.17120000000E+03 0.  0.
         13    1    1    2    0    0 -0.43951025872E+02  0.31347941375E+01  0.87525467055E+02  0.97991010591E+02  0.10566000000E+00 0.  1.
        994    1    1    2    0    0  0.39810802312E+02  0.89062478825E+01  0.16086398616E+02  0.17672700261E+03  0.17120000000E+03 0.  0.
        998    1    1    2    0    0  0.41402235598E+01 -0.12041042020E+02  0.13963881306E+04  0.13964819868E+04  0.10000000000E+02 0.  1.
</event>
<event>
 5    1  0.1344348E-008  0.3696381E+03  0.7957747E-01  0.3497556E+00
         13   -1    0    0    0    0  0.00000000000E+00  0.00000000000E+00  0.14999999963E+04  0.15000000000E+04  0.10566000000E+00 0. -1.
        994   -1    0    0    0    0 -0.00000000000E+00 -0.00000000000E+00  0.11368683772E-12  0.17120000000E+03  0.17120000000E+03 0.  0.
         13    1    1    2    0    0 -0.78305884828E+02  0.12397876563E+03  0.46523892201E+03  0.48780099595E+03  0.10566000000E+00 0. -1.
        994    1    1    2    0    0  0.12898721944E+03 -0.14831000145E+03  0.15805435048E+03  0.30483467160E+03  0.17120000000E+03 0.  0.
        998    1    1    2    0    0 -0.50681334611E+02  0.24331235812E+02  0.87670672379E+03  0.87856433245E+03  0.10000000000E+02 0. -1.
</event>
<event>
 5    1  0.1344348E-008  0.3913120E+03  0.7957747E-01  0.3403336E+00
         13   -1    0    0    0    0  0.00000000000E+00  0.00000000000E+00  0.14999999963E+04  0.15000000000E+04  0.10566000000E+00 0.  1.
        994   -1    0    0    0    0 -0.00000000000E+00 -0.00000000000E+00  0.11368683772E-12  0.17120000000E+03  0.17120000000E+03 0.  0.
         13    1    1    2    0    0  0.13370462607E+02 -0.88850929098E+01 -0.47308820107E+01  0.16736384167E+02  0.10566000000E+00 0.  1.
        994    1    1    2    0    0 -0.46301093180E+02 -0.28025651845E+02  0.33846303469E+02  0.18271354807E+03  0.17120000000E+03 0.  0.
        998    1    1    2    0    0  0.32930630573E+02  0.36910744755E+02  0.14708845748E+04  0.14717500678E+04  0.10000000000E+02 0.  1.
</event>
<event>
 5    1  0.1344348E-008  0.3843725E+03  0.7957747E-01  0.3432338E+00
         13   -1    0    0    0    0  0.00000000000E+00  0.00000000000E+00  0.14999999963E+04  0.15000000000E+04  0.10566000000E+00 0.  1.
        994   -1    0    0    0    0 -0.00000000000E+00 -0.00000000000E+00  0.11368683772E-12  0.17120000000E+03  0.17120000000E+03 0.  0.
         13    1    1    2    0    0  0.72778723046E+01  0.12416041517E+02  0.55956997120E+02  0.57778215644E+02  0.10566000000E+00 0.  1.
        994    1    1    2    0    0  0.36570914715E+01 -0.17786643274E+01  0.19965076399E+01  0.17125993112E+03  0.17120000000E+03 0.  0.
        998    1    1    2    0    0 -0.10934963776E+02 -0.10637377189E+02  0.14420464915E+04  0.14421618532E+04  0.10000000000E+02 0.  1.
</event>
<event>
 5    1  0.1344348E-008  0.4027361E+03  0.7957747E-01  0.3357766E+00
         13   -1    0    0    0    0  0.00000000000E+00  0.00000000000E+00  0.14999999963E+04  0.15000000000E+04  0.10566000000E+00 0.  1.
        994   -1    0    0    0    0 -0.00000000000E+00 -0.00000000000E+00  0.11368683772E-12  0.17120000000E+03  0.17120000000E+03 0.  0.
         13    1    1    2    0    0  0.26518024095E+02 -0.16166376492E+02  0.51203727457E+01  0.31476764635E+02  0.10566000000E+00 0.  1.
        994    1    1    2    0    0  0.11241022620E+02 -0.17611305527E+00  0.29927545036E+02  0.17415937976E+03  0.17120000000E+03 0.  0.
        998    1    1    2    0    0 -0.37759046716E+02  0.16342489547E+02  0.14649520785E+04  0.14655638556E+04  0.10000000000E+02 0.  1.
</event>
<event>
 5    1  0.1344348E-008  0.3748987E+03  0.7957747E-01  0.3473676E+00
         13   -1    0    0    0    0  0.00000000000E+00  0.00000000000E+00  0.14999999963E+04  0.15000000000E+04  0.10566000000E+00 0. -1.
        994   -1    0    0    0    0 -0.00000000000E+00 -0.00000000000E+00  0.11368683772E-12  0.17120000000E+03  0.17120000000E+03 0.  0.
         13    1    1    2    0    0  0.13634874784E+03  0.89524858794E+02  0.72424328937E+03  0.74238402107E+03  0.10566000000E+00 0. -1.
        994    1    1    2    0    0 -0.13470251641E+03 -0.12043275001E+03  0.12736155595E+03  0.27960547408E+03  0.17120000000E+03 0.  0.
        998    1    1    2    0    0 -0.16462314209E+01  0.30907891216E+02  0.64839515096E+03  0.64921050484E+03  0.10000000000E+02 0. -1.
</event>
<event>
 5    1  0.1344348E-008  0.3791866E+03  0.7957747E-01  0.3454708E+00
         13   -1    0    0    0    0  0.00000000000E+00  0.00000000000E+00  0.14999999963E+04  0.15000000000E+04  0.10566000000E+00 0. -1.
        994   -1    0    0    0    0 -0.00000000000E+00 -0.00000000000E+00  0.11368683772E-12  0.17120000000E+03  0.17120000000E+03 0.  0.
         13    1    1    2    0    0 -0.63924929758E+02 -0.83756914374E+01  0.34919046387E+03  0.35509229796E+03  0.10566000000E+00 0. -1.
        994    1    1    2    0    0  0.65686277725E+02 -0.18822261673E+00  0.19145487324E+02  0.18436570233E+03  0.17120000000E+03 0.  0.
        998    1    1    2    0    0 -0.17613479665E+01  0.85639140541E+01  0.11316640451E+04  0.11317419997E+04  0.10000000000E+02 0. -1.
</event>
<event>
 5    1  0.1344348E-008  0.3970728E+03  0.7957747E-01  0.3380030E+00
         13   -1    0    0    0    0  0.00000000000E+00  0.00000000000E+00  0.14999999963E+04  0.15000000000E+04  0.10566000000E+00 0.  1.
        994   -1    0    0    0    0 -0.00000000000E+00 -0.00000000000E+00  0.11368683772E-12  0.17120000000E+03  0.17120000000E+03 0.  0.
         13    1    1    2    0    0 -0.75141527312E+01  0.11837185481E+03  0.23153491207E+03  0.26014762189E+03  0.10566000000E+00 0.  1.
        994    1    1    2    0    0 -0.16620670635E+02 -0.10767179496E+03  0.73610488408E+02  0.21586432342E+03  0.17120000000E+03 0.  0.
        998    1    1    2    0    0  0.24134823366E+02 -0.10700059849E+02  0.11948545958E+04  0.11951880547E+04  0.10000000000E+02 0.  1.
</event>
<event>
 5    1  0.1344348E-008  0.3848662E+03  0.7957747E-01  0.3430240E+00
         13   -1    0    0    0    0  0.00000000000E+00  0.00000000000E+00  0.14999999963E+04  0.15000000000E+04  0.10566000000E+00 0. -1.
        994   -1    0    0    0    0 -0.00000000000E+00 -0.00000000000E+00  0.11368683772E-12  0.17120000000E+03  0.17120000000E+03 0.  0.
         13    1    1    2    0    0 -0.51002571845E+01  0.16244623981E+02  0.91639640212E+02  0.93208021403E+02  0.10566000000E+00 0. -1.
        994    1    1    2    0    0 -0.68925486858E+01 -0.38898264583E+01  0.19027183344E+01  0.17139340219E+03  0.17120000000E+03 0.  0.
        998    1    1    2    0    0  0.11992805870E+02 -0.12354797522E+02  0.14064576377E+04  0.14065985764E+04  0.10000000000E+02 0. -1.
</event>
<event>
 5    1  0.1344348E-008  0.3733529E+03  0.7957747E-01  0.3480622E+00
         13   -1    0    0    0    0  0.00000000000E+00  0.00000000000E+00  0.14999999963E+04  0.15000000000E+04  0.10566000000E+00 0.  1.
        994   -1    0    0    0    0 -0.00000000000E+00 -0.00000000000E+00  0.11368683772E-12  0.17120000000E+03  0.17120000000E+03 0.  0.
         13    1    1    2    0    0  0.79580935331E+01 -0.75493953225E+01  0.44797988579E+01  0.11849235598E+02  0.10566000000E+00 0.  1.
        994    1    1    2    0    0 -0.68346643757E+01  0.85908962917E+01  0.79390497114E+01  0.17173521668E+03  0.17120000000E+03 0.  0.
        998    1    1    2    0    0 -0.11234291574E+01 -0.10415009691E+01  0.14875811477E+04  0.14876155477E+04  0.10000000000E+02 0.  1.
</event>
<event>
 5    1  0.1344348E-008  0.3748830E+03  0.7957747E-01  0.3473746E+00
         13   -1    0    0    0    0  0.00000000000E+00  0.00000000000E+00  0.14999999963E+04  0.15000000000E+04  0.10566000000E+00 0. -1.
        994   -1    0    0    0    0 -0.00000000000E+00 -0.00000000000E+00  0.11368683772E-12  0.17120000000E+03  0.17120000000E+03 0.  0.
         13    1    1    2    0    0 -0.15626718349E+02  0.10490267558E+02  0.22996561539E+02  0.29716881506E+02  0.10566000000E+00 0. -1.
        994    1    1    2    0    0  0.17539306111E+02 -0.11000228564E+02  0.81977341896E+01  0.17264204335E+03  0.17120000000E+03 0.  0.
        998    1    1    2    0    0 -0.19125877618E+01  0.50996100621E+00  0.14688057005E+04  0.14688410751E+04  0.10000000000E+02 0. -1.
</event>
<event>
 5    1  0.1344348E-008  0.3861993E+03  0.7957747E-01  0.3424602E+00
         13   -1    0    0    0    0  0.00000000000E+00  0.00000000000E+00  0.14999999963E+04  0.15000000000E+04  0.10566000000E+00 0.  1.
        994   -1    0    0    0    0 -0.00000000000E+00 -0.00000000000E+00  0.11368683772E-12  0.17120000000E+03  0.17120000000E+03 0.  0.
         13    1    1    2    0    0 -0.11882742481E+03 -0.57805791628E+02  0.47998862923E+03  0.49784592174E+03  0.10566000000E+00 0.  1.
        994    1    1    2    0    0  0.58207575693E+02  0.27675029339E+02  0.35345924747E+02  0.18631372336E+03  0.17120000000E+03 0.  0.
        998    1    1    2    0    0  0.60619849122E+02  0.30130762289E+02  0.98466544230E+03  0.98704035490E+03  0.10000000000E+02 0.  0.
</event>
<event>
 5    1  0.1344348E-008  0.3821868E+03  0.7957747E-01  0.3441692E+00
         13   -1    0    0    0    0  0.00000000000E+00  0.00000000000E+00  0.14999999963E+04  0.15000000000E+04  0.10566000000E+00 0.  1.
        994   -1    0    0    0    0 -0.00000000000E+00 -0.00000000000E+00  0.11368683772E-12  0.17120000000E+03  0.17120000000E+03 0.  0.
         13    1    1    2    0    0  0.17670532379E+02  0.14325690294E+02  0.89787075057E+02  0.92623987867E+02  0.10566000000E+00 0.  1.
        994    1    1    2    0    0 -0.20058937481E+01 -0.24368813679E+01  0.30663924958E+01  0.17125654663E+03  0.17120000000E+03 0.  0.
        998    1    1    2    0    0 -0.15664638631E+02 -0.11888808926E+02  0.14071465287E+04  0.14073194655E+04  0.10000000000E+02 0.  1.
</event>
<event>
 5    1  0.1344348E-008  0.3798901E+03  0.7957747E-01  0.3451637E+00
         13   -1    0    0    0    0  0.00000000000E+00  0.00000000000E+00  0.14999999963E+04  0.15000000000E+04  0.10566000000E+00 0. -1.
        994   -1    0    0    0    0 -0.00000000000E+00 -0.00000000000E+00  0.11368683772E-12  0.17120000000E+03  0.17120000000E+03 0.  0.
         13    1    1    2    0    0 -0.37440054259E+02  0.65589503617E+01  0.36503504391E+02  0.52700042596E+02  0.10566000000E+00 0. -1.
        994    1    1    2    0    0  0.43654444783E+02 -0.10952451063E+02  0.23640188953E+02  0.17858881619E+03  0.17120000000E+03 0.  0.
        998    1    1    2    0    0 -0.62143905238E+01  0.43935007013E+01  0.14398563029E+04  0.14399111412E+04  0.10000000000E+02 0. -1.
</event>
<event>
 5    1  0.1344348E-008  0.3819783E+03  0.7957747E-01  0.3442590E+00
         13   -1    0    0    0    0  0.00000000000E+00  0.00000000000E+00  0.14999999963E+04  0.15000000000E+04  0.10566000000E+00 0. -1.
        994   -1    0    0    0    0 -0.00000000000E+00 -0.00000000000E+00  0.11368683772E-12  0.17120000000E+03  0.17120000000E+03 0.  0.
         13    1    1    2    0    0 -0.10271502512E+02  0.15888715487E+02  0.60815021589E+02  0.63690133133E+02  0.10566000000E+00 0. -1.
        994    1    1    2    0    0 -0.66634338279E+01  0.23924974635E+01  0.33043396484E+01  0.17137819014E+03  0.17120000000E+03 0.  0.
        998    1    1    2    0    0  0.16934936340E+02 -0.18281212950E+02  0.14358806350E+04  0.14361316767E+04  0.10000000000E+02 0. -1.
</event>
<event>
 5    1  0.1344348E-008  0.3834486E+03  0.7957747E-01  0.3436278E+00
         13   -1    0    0    0    0  0.00000000000E+00  0.00000000000E+00  0.14999999963E+04  0.15000000000E+04  0.10566000000E+00 0.  1.
        994   -1    0    0    0    0 -0.00000000000E+00 -0.00000000000E+00  0.11368683772E-12  0.17120000000E+03  0.17120000000E+03 0.  0.
         13    1    1    2    0    0  0.41679340651E+01  0.11242639075E+02  0.28774963129E+02  0.31173358414E+02  0.10566000000E+00 0.  1.
        994    1    1    2    0    0 -0.59603556700E+01 -0.10352365685E+02  0.28741223092E+01  0.17164031547E+03  0.17120000000E+03 0.  0.
        998    1    1    2    0    0  0.17924216049E+01 -0.89027338963E+00  0.14683509108E+04  0.14683863261E+04  0.10000000000E+02 0.  1.
</event>
<event>
 5    1  0.1344348E-008  0.3820976E+03  0.7957747E-01  0.3442075E+00
         13   -1    0    0    0    0  0.00000000000E+00  0.00000000000E+00  0.14999999963E+04  0.15000000000E+04  0.10566000000E+00 0.  1.
        994   -1    0    0    0    0 -0.00000000000E+00 -0.00000000000E+00  0.11368683772E-12  0.17120000000E+03  0.17120000000E+03 0.  0.
         13    1    1    2    0    0  0.13028364257E+02  0.14941537949E+02  0.67066930127E+02  0.69935485358E+02  0.10566000000E+00 0.  1.
        994    1    1    2    0    0  0.37273060216E+01 -0.23682403684E+01  0.31427519331E+01  0.17128577951E+03  0.17120000000E+03 0.  0.
        998    1    1    2    0    0 -0.16755670278E+02 -0.12573297580E+02  0.14297903142E+04  0.14299787351E+04  0.10000000000E+02 0.  1.
</event>
<event>
 5    1  0.1344348E-008  0.3805682E+03  0.7957747E-01  0.3448688E+00
         13   -1    0    0    0    0  0.00000000000E+00  0.00000000000E+00  0.14999999963E+04  0.15000000000E+04  0.10566000000E+00 0.  1.
        994   -1    0    0    0    0 -0.00000000000E+00 -0.00000000000E+00  0.11368683772E-12  0.17120000000E+03  0.17120000000E+03 0.  0.
         13    1    1    2    0    0 -0.18616520038E+02  0.33411749090E+02  0.16353103590E+03  0.16794442730E+03  0.10566000000E+00 0.  1.
        994    1    1    2    0    0  0.27175238370E+02 -0.35097903769E+02  0.10449142636E+02  0.17716935686E+03  0.17120000000E+03 0.  0.
        998    1    1    2    0    0 -0.85587183322E+01  0.16861546795E+01  0.13260198177E+04  0.13260862158E+04  0.10000000000E+02 0.  1.
</event>
<event>
 5    1  0.1344348E-008  0.3843745E+03  0.7957747E-01  0.3432329E+00
         13   -1    0    0    0    0  0.00000000000E+00  0.00000000000E+00  0.14999999963E+04  0.15000000000E+04  0.10566000000E+00 0. -1.
        994   -1    0    0    0    0 -0.00000000000E+00 -0.00000000000E+00  0.11368683772E-12  0.17120000000E+03  0.17120000000E+03 0.  0.
         13    1    1    2    0    0  0.11283772205E+02 -0.77766697438E+01  0.45993904454E+02  0.47992192266E+02  0.10566000000E+00 0. -1.
        994    1    1    2    0    0 -0.17856523235E+02  0.57793782745E+01  0.31026662409E+01  0.17225365939E+03  0.17120000000E+03 0.  0.
        998    1    1    2    0    0  0.65727510297E+01  0.19972914694E+01  0.14509034256E+04  0.14509541483E+04  0.10000000000E+02 0. -1.
</event>
<event>
 5    1  0.1344348E-008  0.3762038E+03  0.7957747E-01  0.3467856E+00
         13   -1    0    0    0    0  0.00000000000E+00  0.00000000000E+00  0.14999999963E+04  0.15000000000E+04  0.10566000000E+00 0.  1.
        994   -1    0    0    0    0 -0.00000000000E+00 -0.00000000000E+00  0.11368683772E-12  0.17120000000E+03  0.17120000000E+03 0.  0.
         13    1    1    2    0    0  0.10091430887E+02 -0.16665035624E+02  0.68855530907E+01  0.20663552335E+02  0.10566000000E+00 0.  1.
        994    1    1    2    0    0 -0.11209866569E+02  0.16625644799E+02  0.15695673289E+02  0.17308341149E+03  0.17120000000E+03 0.  0.
        998    1    1    2    0    0  0.11184356817E+01  0.39390824738E-01  0.14774187699E+04  0.14774530362E+04  0.10000000000E+02 0.  1.
</event>
<event>
 5    1  0.1344348E-008  0.3842145E+03  0.7957747E-01  0.3433011E+00
         13   -1    0    0    0    0  0.00000000000E+00  0.00000000000E+00  0.14999999963E+04  0.15000000000E+04  0.10566000000E+00 0.  1.
        994   -1    0    0    0    0 -0.00000000000E+00 -0.00000000000E+00  0.11368683772E-12  0.17120000000E+03  0.17120000000E+03 0.  0.
         13    1    1    2    0    0 -0.15976972381E+00 -0.20966542579E+02  0.11595528455E+03  0.11783573572E+03  0.10566000000E+00 0.  1.
        994    1    1    2    0    0  0.49132461627E+01  0.44454001614E+01  0.21654110287E+01  0.17134185296E+03  0.17120000000E+03 0.  0.
        998    1    1    2    0    0 -0.47534764389E+01  0.16521142418E+02  0.13818793007E+04  0.13820224113E+04  0.10000000000E+02 0.  1.
</event>
<event>
 5    1  0.1344348E-008  0.3837585E+03  0.7957747E-01  0.3434955E+00
         13   -1    0    0    0    0  0.00000000000E+00  0.00000000000E+00  0.14999999963E+04  0.15000000000E+04  0.10566000000E+00 0. -1.
        994   -1    0    0    0    0 -0.00000000000E+00 -0.00000000000E+00  0.11368683772E-12  0.17120000000E+03  0.17120000000E+03 0.  0.
         13    1    1    2    0    0  0.24709102011E+01  0.17527177215E+02  0.62176714115E+02  0.64647214020E+02  0.10566000000E+00 0. -1.
        994    1    1    2    0    0  0.91761685073E+01 -0.33477941182E+02  0.62367078205E+01  0.17479505467E+03  0.17120000000E+03 0.  0.
        998    1    1    2    0    0 -0.11647078708E+02  0.15950763967E+02  0.14315865743E+04  0.14317577313E+04  0.10000000000E+02 0. -1.
</event>
<event>
 5    1  0.1344348E-008  0.3838610E+03  0.7957747E-01  0.3434517E+00
         13   -1    0    0    0    0  0.00000000000E+00  0.00000000000E+00  0.14999999963E+04  0.15000000000E+04  0.10566000000E+00 0.  1.
        994   -1    0    0    0    0 -0.00000000000E+00 -0.00000000000E+00  0.11368683772E-12  0.17120000000E+03  0.17120000000E+03 0.  0.
         13    1    1    2    0    0  0.13665475806E+01  0.15088228126E+02  0.51969389978E+02  0.54132714130E+02  0.10566000000E+00 0.  1.
        994    1    1    2    0    0  0.35177903643E+01 -0.94646668182E+01  0.25333169671E+01  0.17151621632E+03  0.17120000000E+03 0.  0.
        998    1    1    2    0    0 -0.48843379449E+01 -0.56235613080E+01  0.14454972893E+04  0.14455510695E+04  0.10000000000E+02 0.  1.
</event>
<event>
 5    1  0.1344348E-008  0.3780382E+03  0.7957747E-01  0.3459745E+00
         13   -1    0    0    0    0  0.00000000000E+00  0.00000000000E+00  0.14999999963E+04  0.15000000000E+04  0.10566000000E+00 0. -1.
        994   -1    0    0    0    0 -0.00000000000E+00 -0.00000000000E+00  0.11368683772E-12  0.17120000000E+03  0.17120000000E+03 0.  0.
         13    1    1    2    0    0  0.17201970892E+02  0.14261673400E+02  0.44932106445E+02  0.50181754497E+02  0.10566000000E+00 0. -1.
        994    1    1    2    0    0 -0.19318235476E+02 -0.17987443654E+02  0.74746441962E+01  0.17338411881E+03  0.17120000000E+03 0.  0.
        998    1    1    2    0    0  0.21162645835E+01  0.37257702543E+01  0.14475932456E+04  0.14476341267E+04  0.10000000000E+02 0. -1.
</event>
<event>
 5    1  0.1344348E-008  0.3825638E+03  0.7957747E-01  0.3440071E+00
         13   -1    0    0    0    0  0.00000000000E+00  0.00000000000E+00  0.14999999963E+04  0.15000000000E+04  0.10566000000E+00 0.  1.
        994   -1    0    0    0    0 -0.00000000000E+00 -0.00000000000E+00  0.11368683772E-12  0.17120000000E+03  0.17120000000E+03 0.  0.
         13    1    1    2    0    0 -0.88718233223E+01  0.76643177423E+01  0.23198999390E+02  0.25993379008E+02  0.10566000000E+00 0.  1.
        994    1    1    2    0    0  0.24188334451E+01 -0.75859751168E+01  0.30547098989E+01  0.17141227793E+03  0.17120000000E+03 0.  0.
        998    1    1    2    0    0  0.64529898772E+01 -0.78342625500E-01  0.14737462870E+04  0.14737943431E+04  0.10000000000E+02 0.  1.
</event>
<event>
 5    1  0.1344348E-008  0.3763029E+03  0.7957747E-01  0.3467416E+00
         13   -1    0    0    0    0  0.00000000000E+00  0.00000000000E+00  0.14999999963E+04  0.15000000000E+04  0.10566000000E+00 0.  1.
        994   -1    0    0    0    0 -0.00000000000E+00 -0.00000000000E+00  0.11368683772E-12  0.17120000000E+03  0.17120000000E+03 0.  0.
         13    1    1    2    0    0 -0.15561226836E+02 -0.13059215714E+02  0.35576859463E+02  0.40968512165E+02  0.10566000000E+00 0.  1.
        994    1    1    2    0    0 -0.18401304079E+02 -0.16046166327E+02  0.80311628922E+01  0.17311853460E+03  0.17120000000E+03 0.  0.
        998    1    1    2    0    0  0.33962530914E+02  0.29105382041E+02  0.14563919739E+04  0.14571129532E+04  0.10000000000E+02 0.  1.
</event>
<event>
 5    1  0.1732640E-008  0.3861702E+03  0.7957747E-01  0.3424724E+00
         13   -1    0    0    0    0  0.00000000000E+00  0.00000000000E+00  0.14999999963E+04  0.15000000000E+04  0.10566000000E+00 0. -1.
        994   -1    0    0    0    0 -0.00000000000E+00 -0.00000000000E+00  0.11368683772E-12  0.17120000000E+03  0.17120000000E+03 0.  0.
         13    1    1    2    0    0  0.48065244957E+01  0.10705062757E+02  0.69035023107E+02  0.70025328459E+02  0.10566000000E+00 0. -1.
        994    1    1    2    0    0 -0.20979949383E+01 -0.26037269611E+01  0.10868847788E+01  0.17123610103E+03  0.17120000000E+03 0.  0.
        998    1    1    2    0    0 -0.27085295574E+01 -0.81013357961E+01  0.14298780884E+04  0.14299385705E+04  0.10000000000E+02 0. -1.
</event>
<event>
 5    1  0.1344348E-008  0.3737761E+03  0.7957747E-01  0.3478714E+00
         13   -1    0    0    0    0  0.00000000000E+00  0.00000000000E+00  0.14999999963E+04  0.15000000000E+04  0.10566000000E+00 0. -1.
        994   -1    0    0    0    0 -0.00000000000E+00 -0.00000000000E+00  0.11368683772E-12  0.17120000000E+03  0.17120000000E+03 0.  0.
         13    1    1    2    0    0 -0.19241129266E+02  0.17709480145E+02  0.20298483631E+02  0.33104174120E+02  0.10566000000E+00 0. -1.
        994    1    1    2    0    0  0.27488487290E+02 -0.18751210968E+02  0.16882439755E+02  0.17521895337E+03  0.17120000000E+03 0.  0.
        998    1    1    2    0    0 -0.82473580237E+01  0.10417308232E+01  0.14628190729E+04  0.14628768725E+04  0.10000000000E+02 0. -1.
</event>
<event>
 5    1  0.1344348E-008  0.3818272E+03  0.7957747E-01  0.3443241E+00
         13   -1    0    0    0    0  0.00000000000E+00  0.00000000000E+00  0.14999999963E+04  0.15000000000E+04  0.10566000000E+00 0.  1.
        994   -1    0    0    0    0 -0.00000000000E+00 -0.00000000000E+00  0.11368683772E-12  0.17120000000E+03  0.17120000000E+03 0.  0.
         13    1    1    2    0    0  0.82917765511E+01 -0.11869978721E+02  0.31039431277E+02  0.34250655633E+02  0.10566000000E+00 0.  1.
        994    1    1    2    0    0 -0.57149951728E+01  0.12494387243E+02  0.38411252721E+01  0.17179337917E+03  0.17120000000E+03 0.  0.
        998    1    1    2    0    0 -0.25767813783E+01 -0.62440852173E+00  0.14651194397E+04  0.14651559652E+04  0.10000000000E+02 0.  1.
</event>
<event>
 5    1  0.1344348E-008  0.3853576E+03  0.7957747E-01  0.3428157E+00
         13   -1    0    0    0    0  0.00000000000E+00  0.00000000000E+00  0.14999999963E+04  0.15000000000E+04  0.10566000000E+00 0. -1.
        994   -1    0    0    0    0 -0.00000000000E+00 -0.00000000000E+00  0.11368683772E-12  0.17120000000E+03  0.17120000000E+03 0.  0.
         13    1    1    2    0    0 -0.11040321299E+02  0.11931128042E+02  0.87248769675E+02  0.88750208363E+02  0.10566000000E+00 0. -1.
        994    1    1    2    0    0  0.80717631636E+01 -0.14888831548E+02  0.23954553080E+01  0.17205234341E+03  0.17120000000E+03 0.  0.
        998    1    1    2    0    0  0.29685581355E+01  0.29577035066E+01  0.14103557713E+04  0.14103974482E+04  0.10000000000E+02 0.  0.
</event>
<event>
 5    1  0.1344348E-008  0.3834454E+03  0.7957747E-01  0.3436292E+00
         13   -1    0    0    0    0  0.00000000000E+00  0.00000000000E+00  0.14999999963E+04  0.15000000000E+04  0.10566000000E+00 0.  1.
        994   -1    0    0    0    0 -0.00000000000E+00 -0.00000000000E+00  0.11368683772E-12  0.17120000000E+03  0.17120000000E+03 0.  0.
         13    1    1    2    0    0  0.12776342579E+02 -0.13080274797E+01  0.32946976064E+02  0.35361847539E+02  0.10566000000E+00 0.  1.
        994    1    1    2    0    0 -0.13842012666E+02 -0.21912668883E+01  0.30533749921E+01  0.17179978482E+03  0.17120000000E+03 0.  0.
        998    1    1    2    0    0  0.10656700874E+01  0.34992943680E+01  0.14639996452E+04  0.14640383676E+04  0.10000000000E+02 0.  1.
</event>
<event>
 5    1  0.1344348E-008  0.3743627E+03  0.7957747E-01  0.3476078E+00
         13   -1    0    0    0    0  0.00000000000E+00  0.00000000000E+00  0.14999999963E+04  0.15000000000E+04  0.10566000000E+00 0. -1.
        994   -1    0    0    0    0 -0.00000000000E+00 -0.00000000000E+00  0.11368683772E-12  0.17120000000E+03  0.17120000000E+03 0.  0.
         13    1    1    2    0    0 -0.11760731318E+02 -0.34660080183E+01  0.76435320835E+01  0.14448624829E+02  0.10566000000E+00 0. -1.
        994    1    1    2    0    0  0.70195632423E+00  0.85017627075E+01  0.72543072530E+01  0.17156584067E+03  0.17120000000E+03 0.  0.
        998    1    1    2    0    0  0.11058774993E+02 -0.50357546891E+01  0.14851021569E+04  0.14851855345E+04  0.10000000000E+02 0. -1.
</event>
<event>
 5    1  0.1344348E-008  0.3829655E+03  0.7957747E-01  0.3438347E+00
         13   -1    0    0    0    0  0.00000000000E+00  0.00000000000E+00  0.14999999963E+04  0.15000000000E+04  0.10566000000E+00 0.  1.
        994   -1    0    0    0    0 -0.00000000000E+00 -0.00000000000E+00  0.11368683772E-12  0.17120000000E+03  0.17120000000E+03 0.  0.
         13    1    1    2    0    0  0.16371538871E+02  0.62644072058E+01  0.61389496124E+02  0.63843178813E+02  0.10566000000E+00 0.  1.
        994    1    1    2    0    0  0.26359780816E+01 -0.55484460944E+00  0.26676112451E+01  0.17124197027E+03  0.17120000000E+03 0.  0.
        998    1    1    2    0    0 -0.19007516953E+02 -0.57095625963E+01  0.14359428889E+04  0.14361148509E+04  0.10000000000E+02 0.  1.
</event>
<event>
 5    1  0.1344348E-008  0.3894206E+03  0.7957747E-01  0.3411138E+00
         13   -1    0    0    0    0  0.00000000000E+00  0.00000000000E+00  0.14999999963E+04  0.15000000000E+04  0.10566000000E+00 0.  1.
        994   -1    0    0    0    0 -0.00000000000E+00 -0.00000000000E+00  0.11368683772E-12  0.17120000000E+03  0.17120000000E+03 0.  0.
         13    1    1    2    0    0 -0.14676480553E+02 -0.11426691405E+03  0.25889682156E+03  0.28337237358E+03  0.10566000000E+00 0.  1.
        994    1    1    2    0    0 -0.33235998971E+01  0.10574538027E+03  0.64964765929E+02  0.21147811371E+03  0.17120000000E+03 0.  0.
        998    1    1    2    0    0  0.18000080450E+02  0.85215337796E+01  0.11761384088E+04  0.11763495127E+04  0.10000000000E+02 0.  1.
</event>
<event>
 5    1  0.1344348E-008  0.3824201E+03  0.7957747E-01  0.3440688E+00
         13   -1    0    0    0    0  0.00000000000E+00  0.00000000000E+00  0.14999999963E+04  0.15000000000E+04  0.10566000000E+00 0.  1.
        994   -1    0    0    0    0 -0.00000000000E+00 -0.00000000000E+00  0.11368683772E-12  0.17120000000E+03  0.17120000000E+03 0.  0.
         13    1    1    2    0    0  0.43239600025E+01 -0.21114245468E+02  0.76484453116E+02  0.79463140664E+02  0.10566000000E+00 0.  1.
        994    1    1    2    0    0 -0.37178017067E+01  0.18762826538E+02  0.41307240413E+01  0.17231473701E+03  0.17120000000E+03 0.  0.
        998    1    1    2    0    0 -0.60615829585E+00  0.23514189294E+01  0.14193848191E+04  0.14194221223E+04  0.10000000000E+02 0.  1.
</event>
<event>
 5    1  0.1344348E-008  0.3708327E+03  0.7957747E-01  0.3492073E+00
         13   -1    0    0    0    0  0.00000000000E+00  0.00000000000E+00  0.14999999963E+04  0.15000000000E+04  0.10566000000E+00 0. -1.
        994   -1    0    0    0    0 -0.00000000000E+00 -0.00000000000E+00  0.11368683772E-12  0.17120000000E+03  0.17120000000E+03 0.  0.
         13    1    1    2    0    0  0.32762366316E+02 -0.53658914503E+01  0.42340675513E+02  0.53804362319E+02  0.10566000000E+00 0. -1.
        994    1    1    2    0    0 -0.35791071901E+02  0.12310437204E+02  0.16419345659E+02  0.17610105793E+03  0.17120000000E+03 0.  0.
        998    1    1    2    0    0  0.30287055849E+01 -0.69445457542E+01  0.14412399751E+04  0.14412945798E+04  0.10000000000E+02 0. -1.
</event>
<event>
 5    1  0.1344348E-008  0.3833450E+03  0.7957747E-01  0.3436722E+00
         13   -1    0    0    0    0  0.00000000000E+00  0.00000000000E+00  0.14999999963E+04  0.15000000000E+04  0.10566000000E+00 0. -1.
        994   -1    0    0    0    0 -0.00000000000E+00 -0.00000000000E+00  0.11368683772E-12  0.17120000000E+03  0.17120000000E+03 0.  0.
         13    1    1    2    0    0  0.15762512671E+02  0.21191725908E+02  0.12685701374E+03  0.12957723239E+03  0.10566000000E+00 0. -1.
        994    1    1    2    0    0 -0.26038176491E+01 -0.37575583839E+02  0.71590158190E+01  0.17544057648E+03  0.17120000000E+03 0.  0.
        998    1    1    2    0    0 -0.13158695022E+02  0.16383857931E+02  0.13659839667E+04  0.13661821911E+04  0.10000000000E+02 0. -1.
</event>
<event>
 5    1  0.1344348E-008  0.3843422E+03  0.7957747E-01  0.3432467E+00
         13   -1    0    0    0    0  0.00000000000E+00  0.00000000000E+00  0.14999999963E+04  0.15000000000E+04  0.10566000000E+00 0.  1.
        994   -1    0    0    0    0 -0.00000000000E+00 -0.00000000000E+00  0.11368683772E-12  0.17120000000E+03  0.17120000000E+03 0.  0.
         13    1    1    2    0    0 -0.43138785894E+01  0.14544104392E+02  0.57001610316E+02  0.58985890378E+02  0.10566000000E+00 0.  1.
        994    1    1    2    0    0  0.10799241728E+01 -0.15040574785E+02  0.27068311995E+01  0.17188412394E+03  0.17120000000E+03 0.  0.
        998    1    1    2    0    0  0.32339544167E+01  0.49647039317E+00  0.14402915548E+04  0.14403299857E+04  0.10000000000E+02 0.  1.
</event>
<event>
 5    1  0.1344348E-008  0.3850645E+03  0.7957747E-01  0.3429399E+00
         13   -1    0    0    0    0  0.00000000000E+00  0.00000000000E+00  0.14999999963E+04  0.15000000000E+04  0.10566000000E+00 0. -1.
        994   -1    0    0    0    0 -0.00000000000E+00 -0.00000000000E+00  0.11368683772E-12  0.17120000000E+03  0.17120000000E+03 0.  0.
         13    1    1    2    0    0  0.98908005041E+01  0.12615025780E+02  0.79865757133E+02  0.81458683617E+02  0.10566000000E+00 0. -1.
        994    1    1    2    0    0 -0.18833717292E+01 -0.13242340700E+02  0.21865656355E+01  0.17173563330E+03  0.17120000000E+03 0.  0.
        998    1    1    2    0    0 -0.80074287750E+01  0.62731491969E+00  0.14179476735E+04  0.14180056831E+04  0.10000000000E+02 0. -1.
</event>
<event>
 5    1  0.1344348E-008  0.3788125E+03  0.7957747E-01  0.3456345E+00
         13   -1    0    0    0    0  0.00000000000E+00  0.00000000000E+00  0.14999999963E+04  0.15000000000E+04  0.10566000000E+00 0. -1.
        994   -1    0    0    0    0 -0.00000000000E+00 -0.00000000000E+00  0.11368683772E-12  0.17120000000E+03  0.17120000000E+03 0.  0.
         13    1    1    2    0    0 -0.11270136278E+02 -0.29645283085E+02  0.10572028923E+03  0.11037504020E+03  0.10566000000E+00 0. -1.
        994    1    1    2    0    0 -0.75335466240E+01  0.21261133502E+02  0.64431963430E+01  0.17279972483E+03  0.17120000000E+03 0.  0.
        998    1    1    2    0    0  0.18803682902E+02  0.83841495831E+01  0.13878365107E+04  0.13880252350E+04  0.10000000000E+02 0. -1.
</event>
<event>
 5    1  0.1344348E-008  0.3832580E+03  0.7957747E-01  0.3437094E+00
         13   -1    0    0    0    0  0.00000000000E+00  0.00000000000E+00  0.14999999963E+04  0.15000000000E+04  0.10566000000E+00 0.  1.
        994   -1    0    0    0    0 -0.00000000000E+00 -0.00000000000E+00  0.11368683772E-12  0.17120000000E+03  0.17120000000E+03 0.  0.
         13    1    1    2    0    0 -0.95835753829E+01  0.40600303163E+01  0.20656708350E+02  0.23130921451E+02  0.10566000000E+00 0.  1.
        994    1    1    2    0    0  0.11331465792E+02  0.29400249505E+01  0.29508580695E+01  0.17162515383E+03  0.17120000000E+03 0.  0.
        998    1    1    2    0    0 -0.17478904089E+01 -0.70000552667E+01  0.14763924299E+04  0.14764439247E+04  0.10000000000E+02 0.  1.
</event>
<event>
 5    1  0.1344348E-008  0.3811888E+03  0.7957747E-01  0.3445999E+00
         13   -1    0    0    0    0  0.00000000000E+00  0.00000000000E+00  0.14999999963E+04  0.15000000000E+04  0.10566000000E+00 0. -1.
        994   -1    0    0    0    0 -0.00000000000E+00 -0.00000000000E+00  0.11368683772E-12  0.17120000000E+03  0.17120000000E+03 0.  0.
         13    1    1    2    0    0  0.29643749739E+02  0.18057327037E+02  0.15754780295E+03  0.16132619234E+03  0.10566000000E+00 0. -1.
        994    1    1    2    0    0 -0.18155217275E+02 -0.30032260496E+02  0.76459758966E+01  0.17492698343E+03  0.17120000000E+03 0.  0.
        998    1    1    2    0    0 -0.11488532463E+02  0.11974933459E+02  0.13348062174E+04  0.13349468242E+04  0.10000000000E+02 0. -1.
</event>
<event>
 5    1  0.1344348E-008  0.3842652E+03  0.7957747E-01  0.3432795E+00
         13   -1    0    0    0    0  0.00000000000E+00  0.00000000000E+00  0.14999999963E+04  0.15000000000E+04  0.10566000000E+00 0. -1.
        994   -1    0    0    0    0 -0.00000000000E+00 -0.00000000000E+00  0.11368683772E-12  0.17120000000E+03  0.17120000000E+03 0.  0.
         13    1    1    2    0    0 -0.21431418444E+01  0.12849553190E+02  0.42696640760E+02  0.44639874220E+02  0.10566000000E+00 0. -1.
        994    1    1    2    0    0 -0.20102415268E+02 -0.95920676903E+01  0.36325373772E+01  0.17268106494E+03  0.17120000000E+03 0.  0.
        998    1    1    2    0    0  0.22245557112E+02 -0.32574855001E+01  0.14536708181E+04  0.14538790608E+04  0.10000000000E+02 0. -1.
</event>
<event>
 5    1  0.1344348E-008  0.3846910E+03  0.7957747E-01  0.3430984E+00
         13   -1    0    0    0    0  0.00000000000E+00  0.00000000000E+00  0.14999999963E+04  0.15000000000E+04  0.10566000000E+00 0. -1.
        994   -1    0    0    0    0 -0.00000000000E+00 -0.00000000000E+00  0.11368683772E-12  0.17120000000E+03  0.17120000000E+03 0.  0.
         13    1    1    2    0    0 -0.26043060443E+00 -0.10289210919E+02  0.29137264069E+02  0.30901893257E+02  0.10566000000E+00 0. -1.
        994    1    1    2    0    0 -0.22996683097E+01  0.87126558154E+01  0.20509935893E+01  0.17144925028E+03  0.17120000000E+03 0.  0.
        998    1    1    2    0    0  0.25600989141E+01  0.15765551034E+01  0.14688117386E+04  0.14688488565E+04  0.10000000000E+02 0. -1.
</event>
<event>
 5    1  0.1344348E-008  0.3849089E+03  0.7957747E-01  0.3430059E+00
         13   -1    0    0    0    0  0.00000000000E+00  0.00000000000E+00  0.14999999963E+04  0.15000000000E+04  0.10566000000E+00 0.  1.
        994   -1    0    0    0    0 -0.00000000000E+00 -0.00000000000E+00  0.11368683772E-12  0.17120000000E+03  0.17120000000E+03 0.  0.
         13    1    1    2    0    0 -0.36008802237E+01 -0.10482045885E+02  0.37611281074E+02  0.39210448255E+02  0.10566000000E+00 0.  1.
        994    1    1    2    0    0 -0.36672143568E+01  0.24272466835E+01  0.17389880594E+01  0.17126530316E+03  0.17120000000E+03 0.  0.
        998    1    1    2    0    0  0.72680945804E+01  0.80547992013E+01  0.14606497271E+04  0.14607242486E+04  0.10000000000E+02 0.  1.
</event>
<event>
 5    1  0.1344348E-008  0.3850912E+03  0.7957747E-01  0.3429285E+00
         13   -1    0    0    0    0  0.00000000000E+00  0.00000000000E+00  0.14999999963E+04  0.15000000000E+04  0.10566000000E+00 0. -1.
        994   -1    0    0    0    0 -0.00000000000E+00 -0.00000000000E+00  0.11368683772E-12  0.17120000000E+03  0.17120000000E+03 0.  0.
         13    1    1    2    0    0  0.10790196716E+02 -0.33366251878E+01  0.40983842262E+02  0.42511738419E+02  0.10566000000E+00 0. -1.
        994    1    1    2    0    0 -0.38557997766E+01 -0.29445158456E-03  0.16337250750E+01  0.17125120802E+03  0.17120000000E+03 0.  0.
        998    1    1    2    0    0 -0.69343969392E+01  0.33369196393E+01  0.14573824289E+04  0.14574370536E+04  0.10000000000E+02 0. -1.
</event>
<event>
 5    1  0.1344348E-008  0.3829035E+03  0.7957747E-01  0.3438613E+00
         13   -1    0    0    0    0  0.00000000000E+00  0.00000000000E+00  0.14999999963E+04  0.15000000000E+04  0.10566000000E+00 0.  1.
        994   -1    0    0    0    0 -0.00000000000E+00 -0.00000000000E+00  0.11368683772E-12  0.17120000000E+03  0.17120000000E+03 0.  0.
         13    1    1    2    0    0  0.56273172730E+01  0.86259187573E+01  0.19464021243E+02  0.22021182100E+02  0.10566000000E+00 0.  1.
        994    1    1    2    0    0 -0.57773386676E+01  0.83808587330E+01  0.30177761708E+01  0.17152889963E+03  0.17120000000E+03 0.  0.
        998    1    1    2    0    0  0.15002139459E+00 -0.17006777490E+02  0.14775181989E+04  0.14776499183E+04  0.10000000000E+02 0.  1.
</event>
<event>
 5    1  0.1344348E-008  0.3817104E+03  0.7957747E-01  0.3443745E+00
         13   -1    0    0    0    0  0.00000000000E+00  0.00000000000E+00  0.14999999963E+04  0.15000000000E+04  0.10566000000E+00 0.  1.
        994   -1    0    0    0    0 -0.00000000000E+00 -0.00000000000E+00  0.11368683772E-12  0.17120000000E+03  0.17120000000E+03 0.  0.
         13    1    1    2    0    0 -0.31623430392E+02 -0.10637496644E+02  0.19263015960E+03  0.19549830495E+03  0.10566000000E+00 0.  1.
        994    1    1    2    0    0  0.39806024276E+00  0.10750622018E+02  0.36570284718E+01  0.17157665396E+03  0.17120000000E+03 0.  0.
        998    1    1    2    0    0  0.31225370149E+02 -0.11312537486E+00  0.13037128082E+04  0.13041250411E+04  0.10000000000E+02 0.  1.
</event>
<event>
 5    1  0.1344348E-008  0.3747800E+03  0.7957747E-01  0.3474207E+00
         13   -1    0    0    0    0  0.00000000000E+00  0.00000000000E+00  0.14999999963E+04  0.15000000000E+04  0.10566000000E+00 0. -1.
        994   -1    0    0    0    0 -0.00000000000E+00 -0.00000000000E+00  0.11368683772E-12  0.17120000000E+03  0.17120000000E+03 0.  0.
         13    1    1    2    0    0 -0.23288430719E+02  0.42573796094E+02  0.19096157092E+03  0.19703099211E+03  0.10566000000E+00 0. -1.
        994    1    1    2    0    0 -0.32347051751E+01 -0.12817939965E+02  0.73864491041E+01  0.17186844543E+03  0.17120000000E+03 0.  0.
        998    1    1    2    0    0  0.26523135894E+02 -0.29755856129E+02  0.13016519763E+04  0.13023005625E+04  0.10000000000E+02 0. -1.
</event>
<event>
 5    1  0.1344348E-008  0.3845314E+03  0.7957747E-01  0.3431662E+00
         13   -1    0    0    0    0  0.00000000000E+00  0.00000000000E+00  0.14999999963E+04  0.15000000000E+04  0.10566000000E+00 0. -1.
        994   -1    0    0    0    0 -0.00000000000E+00 -0.00000000000E+00  0.11368683772E-12  0.17120000000E+03  0.17120000000E+03 0.  0.
         13    1    1    2    0    0  0.30000230805E+00  0.13061043405E+02  0.44713634307E+02  0.46583270744E+02  0.10566000000E+00 0. -1.
        994    1    1    2    0    0 -0.18632590259E+02 -0.12167572118E+02  0.34957478931E+01  0.17267565979E+03  0.17120000000E+03 0.  0.
        998    1    1    2    0    0  0.18332587951E+02 -0.89347128701E+00  0.14517906141E+04  0.14519410695E+04  0.10000000000E+02 0. -1.
</event>
<event>
 5    1  0.1344348E-008  0.4021761E+03  0.7957747E-01  0.3359940E+00
         13   -1    0    0    0    0  0.00000000000E+00  0.00000000000E+00  0.14999999963E+04  0.15000000000E+04  0.10566000000E+00 0.  1.
        994   -1    0    0    0    0 -0.00000000000E+00 -0.00000000000E+00  0.11368683772E-12  0.17120000000E+03  0.17120000000E+03 0.  0.
         13    1    1    2    0    0 -0.70944317259E+02  0.56816091648E+02  0.17976130351E+03  0.20143311998E+03  0.10566000000E+00 0.  1.
        994    1    1    2    0    0 -0.29365609105E+02  0.28270175216E+01  0.32530693229E+02  0.17674279908E+03  0.17120000000E+03 0.  0.
        998    1    1    2    0    0  0.10030992636E+03 -0.59643109170E+02  0.12877079995E+04  0.12930240809E+04  0.10000000000E+02 0.  1.
</event>
<event>
 5    1  0.1344348E-008  0.3847056E+03  0.7957747E-01  0.3430922E+00
         13   -1    0    0    0    0  0.00000000000E+00  0.00000000000E+00  0.14999999963E+04  0.15000000000E+04  0.10566000000E+00 0.  1.
        994   -1    0    0    0    0 -0.00000000000E+00 -0.00000000000E+00  0.11368683772E-12  0.17120000000E+03  0.17120000000E+03 0.  0.
         13    1    1    2    0    0 -0.12950091263E+02  0.13581487430E+02  0.91719886875E+02  0.93620032455E+02  0.10566000000E+00 0.  1.
        994    1    1    2    0    0  0.10541771003E+02 -0.21432669473E+02  0.36565297177E+01  0.17289678559E+03  0.17120000000E+03 0.  0.
        998    1    1    2    0    0  0.24083202598E+01  0.78511820432E+01  0.14046235797E+04  0.14046831820E+04  0.10000000000E+02 0.  1.
</event>
<event>
 5    1  0.1344348E-008  0.3854076E+03  0.7957747E-01  0.3427945E+00
         13   -1    0    0    0    0  0.00000000000E+00  0.00000000000E+00  0.14999999963E+04  0.15000000000E+04  0.10566000000E+00 0. -1.
        994   -1    0    0    0    0 -0.00000000000E+00 -0.00000000000E+00  0.11368683772E-12  0.17120000000E+03  0.17120000000E+03 0.  0.
         13    1    1    2    0    0 -0.12269325596E+02 -0.67070597658E+01  0.66706223425E+02  0.68156088568E+02  0.10566000000E+00 0. -1.
        994    1    1    2    0    0  0.12993884745E+02  0.47407490779E+01  0.20564811205E+01  0.17177015124E+03  0.17120000000E+03 0.  0.
        998    1    1    2    0    0 -0.72455914861E+00  0.19663106879E+01  0.14312372917E+04  0.14312737602E+04  0.10000000000E+02 0. -1.
</event>
<event>
 5    1  0.1344348E-008  0.3831341E+03  0.7957747E-01  0.3437625E+00
         13   -1    0    0    0    0  0.00000000000E+00  0.00000000000E+00  0.14999999963E+04  0.15000000000E+04  0.10566000000E+00 0.  1.
        994   -1    0    0    0    0 -0.00000000000E+00 -0.00000000000E+00  0.11368683772E-12  0.17120000000E+03  0.17120000000E+03 0.  0.
         13    1    1    2    0    0 -0.25986296324E+02 -0.20320276508E+01  0.14388333862E+03  0.14622531597E+03  0.10566000000E+00 0.  1.
        994    1    1    2    0    0  0.37418435534E+01  0.24749272672E+02  0.46351125908E+01  0.17308221214E+03  0.17120000000E+03 0.  0.
        998    1    1    2    0    0  0.22244452770E+02 -0.22717245021E+02  0.13514815451E+04  0.13518924719E+04  0.10000000000E+02 0.  1.
</event>
<event>
 5    1  0.1344348E-008  0.3826766E+03  0.7957747E-01  0.3439586E+00
         13   -1    0    0    0    0  0.00000000000E+00  0.00000000000E+00  0.14999999963E+04  0.15000000000E+04  0.10566000000E+00 0.  1.
        994   -1    0    0    0    0 -0.00000000000E+00 -0.00000000000E+00  0.11368683772E-12  0.17120000000E+03  0.17120000000E+03 0.  0.
         13    1    1    2    0    0 -0.29030770515E+02  0.45413062044E+01  0.16424388859E+02  0.33662751108E+02  0.10566000000E+00 0.  1.
        994    1    1    2    0    0  0.31818635109E+02 -0.59305164623E+01  0.21648332471E+02  0.17557245474E+03  0.17120000000E+03 0.  0.
        998    1    1    2    0    0 -0.27878645946E+01  0.13892102579E+01  0.14619272749E+04  0.14619647941E+04  0.10000000000E+02 0.  1.
</event>
<event>
 5    1  0.1344348E-008  0.3806321E+03  0.7957747E-01  0.3448411E+00
         13   -1    0    0    0    0  0.00000000000E+00  0.00000000000E+00  0.14999999963E+04  0.15000000000E+04  0.10566000000E+00 0.  1.
        994   -1    0    0    0    0 -0.00000000000E+00 -0.00000000000E+00  0.11368683772E-12  0.17120000000E+03  0.17120000000E+03 0.  0.
         13    1    1    2    0    0 -0.25382468985E+01  0.46438775113E+02  0.70567408668E+02  0.84514926856E+02  0.10566000000E+00 0.  1.
        994    1    1    2    0    0  0.11197915833E+02  0.35186080573E+02  0.21642918007E+02  0.17646900432E+03  0.17120000000E+03 0.  0.
        998    1    1    2    0    0 -0.86596689349E+01 -0.81624855687E+02  0.14077896696E+04  0.14102160688E+04  0.10000000000E+02 0.  1.
</event>
<event>
 5    1  0.1344348E-008  0.3831892E+03  0.7957747E-01  0.3437388E+00
         13   -1    0    0    0    0  0.00000000000E+00  0.00000000000E+00  0.14999999963E+04  0.15000000000E+04  0.10566000000E+00 0.  1.
        994   -1    0    0    0    0 -0.00000000000E+00 -0.00000000000E+00  0.11368683772E-12  0.17120000000E+03  0.17120000000E+03 0.  0.
         13    1    1    2    0    0  0.10727317429E+02  0.11064466383E+02  0.47917733791E+02  0.50335058669E+02  0.10566000000E+00 0.  1.
        994    1    1    2    0    0 -0.32092031505E+01  0.40122990740E+00  0.25664340921E+01  0.17124977826E+03  0.17120000000E+03 0.  0.
        998    1    1    2    0    0 -0.75181142785E+01 -0.11465696290E+02  0.14495158284E+04  0.14496151631E+04  0.10000000000E+02 0.  1.
</event>
<event>
 5    1  0.1344348E-008  0.3807565E+03  0.7957747E-01  0.3447871E+00
         13   -1    0    0    0    0  0.00000000000E+00  0.00000000000E+00  0.14999999963E+04  0.15000000000E+04  0.10566000000E+00 0.  1.
        994   -1    0    0    0    0 -0.00000000000E+00 -0.00000000000E+00  0.11368683772E-12  0.17120000000E+03  0.17120000000E+03 0.  0.
         13    1    1    2    0    0 -0.25081998104E+02  0.40357377625E+01  0.88218553586E+02  0.91803693657E+02  0.10566000000E+00 0.  1.
        994    1    1    2    0    0  0.76597689631E+01 -0.12413508049E+01  0.39525597206E+01  0.17142133981E+03  0.17120000000E+03 0.  0.
        998    1    1    2    0    0  0.17422229141E+02 -0.27943869576E+01  0.14078288830E+04  0.14079749665E+04  0.10000000000E+02 0.  1.
</event>
<event>
 5    1  0.1344348E-008  0.3773892E+03  0.7957747E-01  0.3462606E+00
         13   -1    0    0    0    0  0.00000000000E+00  0.00000000000E+00  0.14999999963E+04  0.15000000000E+04  0.10566000000E+00 0. -1.
        994   -1    0    0    0    0 -0.00000000000E+00 -0.00000000000E+00  0.11368683772E-12  0.17120000000E+03  0.17120000000E+03 0.  0.
         13    1    1    2    0    0 -0.18601168989E+02  0.51655048733E+02  0.28529972237E+03  0.29053431862E+03  0.10566000000E+00 0. -1.
        994    1    1    2    0    0  0.63194426029E+01 -0.25834522949E+02  0.78457927017E+01  0.17343112291E+03  0.17120000000E+03 0.  0.
        998    1    1    2    0    0  0.12281726386E+02 -0.25820525785E+02  0.12068544812E+04  0.12072345585E+04  0.10000000000E+02 0.  1.
</event>
<event>
 5    1  0.1344348E-008  0.3853688E+03  0.7957747E-01  0.3428110E+00
         13   -1    0    0    0    0  0.00000000000E+00  0.00000000000E+00  0.14999999963E+04  0.15000000000E+04  0.10566000000E+00 0.  1.
        994   -1    0    0    0    0 -0.00000000000E+00 -0.00000000000E+00  0.11368683772E-12  0.17120000000E+03  0.17120000000E+03 0.  0.
         13    1    1    2    0    0 -0.12360197152E+02 -0.11450319899E+02  0.97913512909E+02  0.99352662137E+02  0.10566000000E+00 0.  1.
        994    1    1    2    0    0  0.13580133514E+02  0.23469724923E+01  0.20712761286E+01  0.17176629032E+03  0.17120000000E+03 0.  0.
        998    1    1    2    0    0 -0.12199363627E+01  0.91033474068E+01  0.14000152072E+04  0.14000810475E+04  0.10000000000E+02 0.  1.
</event>
<event>
 5    1  0.1344348E-008  0.3695663E+03  0.7957747E-01  0.3497886E+00
         13   -1    0    0    0    0  0.00000000000E+00  0.00000000000E+00  0.14999999963E+04  0.15000000000E+04  0.10566000000E+00 0.  1.
        994   -1    0    0    0    0 -0.00000000000E+00 -0.00000000000E+00  0.11368683772E-12  0.17120000000E+03  0.17120000000E+03 0.  0.
         13    1    1    2    0    0  0.60641410478E+02 -0.10109533351E+02  0.20907191164E+03  0.21792351578E+03  0.10566000000E+00 0.  1.
        994    1    1    2    0    0 -0.26192628251E+02 -0.99340615047E+01  0.12218126611E+02  0.17390647478E+03  0.17120000000E+03 0.  0.
        998    1    1    2    0    0 -0.34448782228E+02  0.20043594856E+02  0.12787099580E+04  0.12793700094E+04  0.10000000000E+02 0.  1.
</event>
<event>
 5    1  0.1344348E-008  0.3730578E+03  0.7957747E-01  0.3481955E+00
         13   -1    0    0    0    0  0.00000000000E+00  0.00000000000E+00  0.14999999963E+04  0.15000000000E+04  0.10566000000E+00 0.  1.
        994   -1    0    0    0    0 -0.00000000000E+00 -0.00000000000E+00  0.11368683772E-12  0.17120000000E+03  0.17120000000E+03 0.  0.
         13    1    1    2    0    0 -0.37237125513E+02 -0.76008698522E+02  0.39324901066E+03  0.40225454791E+03  0.10566000000E+00 0.  1.
        994    1    1    2    0    0 -0.18616037041E+02  0.13002205712E+02  0.14389067152E+02  0.17329771909E+03  0.17120000000E+03 0.  0.
        998    1    1    2    0    0  0.55853162554E+02  0.63006492810E+02  0.10923619185E+04  0.10956477330E+04  0.10000000000E+02 0.  1.
</event>
<event>
 5    1  0.1344348E-008  0.3732037E+03  0.7957747E-01  0.3481295E+00
         13   -1    0    0    0    0  0.00000000000E+00  0.00000000000E+00  0.14999999963E+04  0.15000000000E+04  0.10566000000E+00 0. -1.
        994   -1    0    0    0    0 -0.00000000000E+00 -0.00000000000E+00  0.11368683772E-12  0.17120000000E+03  0.17120000000E+03 0.  0.
         13    1    1    2    0    0 -0.11005739157E+02 -0.36879226297E+02  0.52861279351E+02  0.65387534326E+02  0.10566000000E+00 0. -1.
        994    1    1    2    0    0  0.26450069056E+02  0.26352839702E+02  0.17588083015E+02  0.17610468187E+03  0.17120000000E+03 0.  0.
        998    1    1    2    0    0 -0.15444329899E+02  0.10526386595E+02  0.14295506339E+04  0.14297077838E+04  0.10000000000E+02 0. -1.
</event>
<event>
 5    1  0.1344348E-008  0.3833641E+03  0.7957747E-01  0.3436640E+00
         13   -1    0    0    0    0  0.00000000000E+00  0.00000000000E+00  0.14999999963E+04  0.15000000000E+04  0.10566000000E+00 0.  1.
        994   -1    0    0    0    0 -0.00000000000E+00 -0.00000000000E+00  0.11368683772E-12  0.17120000000E+03  0.17120000000E+03 0.  0.
         13    1    1    2    0    0 -0.96998922429E+01  0.13620191138E+02  0.56613226137E+02  0.59031060077E+02  0.10566000000E+00 0.  1.
        994    1    1    2    0    0  0.39892770033E+01 -0.10222663287E+02  0.28427408373E+01  0.17157487681E+03  0.17120000000E+03 0.  0.
        998    1    1    2    0    0  0.57106152396E+01 -0.33975278507E+01  0.14405440293E+04  0.14405940631E+04  0.10000000000E+02 0.  1.
</event>
<event>
 5    1  0.1344348E-008  0.3790704E+03  0.7957747E-01  0.3455216E+00
         13   -1    0    0    0    0  0.00000000000E+00  0.00000000000E+00  0.14999999963E+04  0.15000000000E+04  0.10566000000E+00 0. -1.
        994   -1    0    0    0    0 -0.00000000000E+00 -0.00000000000E+00  0.11368683772E-12  0.17120000000E+03  0.17120000000E+03 0.  0.
         13    1    1    2    0    0 -0.39033772093E+02  0.23993553737E+02  0.24532337276E+03  0.24956541101E+03  0.10566000000E+00 0. -1.
        994    1    1    2    0    0  0.14888710386E+02 -0.68177704433E+01  0.55028237474E+01  0.17206939519E+03  0.17120000000E+03 0.  0.
        998    1    1    2    0    0  0.24145061707E+02 -0.17175783294E+02  0.12491737998E+04  0.12495651938E+04  0.10000000000E+02 0. -1.
</event>
<event>
 5    1  0.1344348E-008  0.3777935E+03  0.7957747E-01  0.3460823E+00
         13   -1    0    0    0    0  0.00000000000E+00  0.00000000000E+00  0.14999999963E+04  0.15000000000E+04  0.10566000000E+00 0. -1.
        994   -1    0    0    0    0 -0.00000000000E+00 -0.00000000000E+00  0.11368683772E-12  0.17120000000E+03  0.17120000000E+03 0.  0.
         13    1    1    2    0    0 -0.10371704639E+01 -0.13409395367E+02  0.14840374948E+02  0.20028367365E+02  0.10566000000E+00 0. -1.
        994    1    1    2    0    0 -0.17705216657E+01  0.12401032220E+02  0.57797530353E+01  0.17175495886E+03  0.17120000000E+03 0.  0.
        998    1    1    2    0    0  0.28076921296E+01  0.10083631469E+01  0.14793798683E+04  0.14794166738E+04  0.10000000000E+02 0. -1.
</event>
<event>
 5    1  0.1409887E-008  0.3828929E+03  0.7957747E-01  0.3438658E+00
         13   -1    0    0    0    0  0.00000000000E+00  0.00000000000E+00  0.14999999963E+04  0.15000000000E+04  0.10566000000E+00 0.  1.
        994   -1    0    0    0    0 -0.00000000000E+00 -0.00000000000E+00  0.11368683772E-12  0.17120000000E+03  0.17120000000E+03 0.  0.
         13    1    1    2    0    0 -0.88011964489E+01 -0.96728308849E+01  0.30397100660E+02  0.33091080502E+02  0.10566000000E+00 0.  1.
        994    1    1    2    0    0  0.99749267277E+01  0.10295787128E+02  0.33606795987E+01  0.17183200099E+03  0.17120000000E+03 0.  0.
        998    1    1    2    0    0 -0.11737302787E+01 -0.62295624312E+00  0.14662422160E+04  0.14662769185E+04  0.10000000000E+02 0.  1.
</event>
<event>
 5    1  0.1344348E-008  0.3744667E+03  0.7957747E-01  0.3475611E+00
         13   -1    0    0    0    0  0.00000000000E+00  0.00000000000E+00  0.14999999963E+04  0.15000000000E+04  0.10566000000E+00 0. -1.
        994   -1    0    0    0    0 -0.00000000000E+00 -0.00000000000E+00  0.11368683772E-12  0.17120000000E+03  0.17120000000E+03 0.  0.
         13    1    1    2    0    0  0.98809210571E+01  0.13911040475E+02  0.16604942178E+02  0.23809345157E+02  0.10566000000E+00 0. -1.
        994    1    1    2    0    0 -0.30433200515E+02 -0.31839772639E+02  0.13587847429E+02  0.17729641963E+03  0.17120000000E+03 0.  0.
        998    1    1    2    0    0  0.20552279458E+02  0.17928732164E+02  0.14698072067E+04  0.14700942352E+04  0.10000000000E+02 0. -1.
</event>
<event>
 5    1  0.1344348E-008  0.3777080E+03  0.7957747E-01  0.3461199E+00
         13   -1    0    0    0    0  0.00000000000E+00  0.00000000000E+00  0.14999999963E+04  0.15000000000E+04  0.10566000000E+00 0. -1.
        994   -1    0    0    0    0 -0.00000000000E+00 -0.00000000000E+00  0.11368683772E-12  0.17120000000E+03  0.17120000000E+03 0.  0.
         13    1    1    2    0    0  0.70827061601E+02  0.12631535412E+03  0.44684276313E+03  0.46972386300E+03  0.10566000000E+00 0. -1.
        994    1    1    2    0    0 -0.80100764531E+02 -0.12452690515E+03  0.98716287462E+02  0.24693608079E+03  0.17120000000E+03 0.  0.
        998    1    1    2    0    0  0.92737029309E+01 -0.17884489706E+01  0.95444094568E+03  0.95454005621E+03  0.10000000000E+02 0.  0.
</event>
<event>
 5    1  0.1863887E-008  0.3858132E+03  0.7957747E-01  0.3426231E+00
         13   -1    0    0    0    0  0.00000000000E+00  0.00000000000E+00  0.14999999963E+04  0.15000000000E+04  0.10566000000E+00 0. -1.
        994   -1    0    0    0    0 -0.00000000000E+00 -0.00000000000E+00  0.11368683772E-12  0.17120000000E+03  0.17120000000E+03 0.  0.
         13    1    1    2    0    0 -0.14871404849E+02 -0.11468844259E+00  0.85823703346E+02  0.87102761470E+02  0.10566000000E+00 0. -1.
        994    1    1    2    0    0  0.16636885220E+02 -0.21031870647E+00  0.21354593491E+01  0.17201985458E+03  0.17120000000E+03 0.  0.
        998    1    1    2    0    0 -0.17654803705E+01  0.32500714906E+00  0.14120408336E+04  0.14120773839E+04  0.10000000000E+02 0. -1.
</event>
<event>
 5    1  0.1608694E-008  0.3819879E+03  0.7957747E-01  0.3442548E+00
         13   -1    0    0    0    0  0.00000000000E+00  0.00000000000E+00  0.14999999963E+04  0.15000000000E+04  0.10566000000E+00 0. -1.
        994   -1    0    0    0    0 -0.00000000000E+00 -0.00000000000E+00  0.11368683772E-12  0.17120000000E+03  0.17120000000E+03 0.  0.
         13    1    1    2    0    0  0.78599192672E+01  0.97216956038E+01  0.23390473910E+02  0.26521974475E+02  0.10566000000E+00 0. -1.
        994    1    1    2    0    0 -0.83605355165E+01 -0.10508439142E+02  0.37321344523E+01  0.17176639565E+03  0.17120000000E+03 0.  0.
        998    1    1    2    0    0  0.50061624922E+00  0.78674353797E+00  0.14728773879E+04  0.14729116299E+04  0.10000000000E+02 0.  0.
</event>
<event>
 5    1  0.1344348E-008  0.3731064E+03  0.7957747E-01  0.3481735E+00
         13   -1    0    0    0    0  0.00000000000E+00  0.00000000000E+00  0.14999999963E+04  0.15000000000E+04  0.10566000000E+00 0.  1.
        994   -1    0    0    0    0 -0.00000000000E+00 -0.00000000000E+00  0.11368683772E-12  0.17120000000E+03  0.17120000000E+03 0.  0.
         13    1    1    2    0    0 -0.12174560268E+03  0.22956095458E+02  0.57213998021E+03  0.58539998480E+03  0.10566000000E+00 0.  1.
        994    1    1    2    0    0  0.12371410165E+03 -0.27371890947E+02  0.64741736995E+02  0.22261026902E+03  0.17120000000E+03 0.  0.
        998    1    1    2    0    0 -0.19684989740E+01  0.44157954888E+01  0.86311827908E+03  0.86318974618E+03  0.10000000000E+02 0.  1.
</event>
<event>
 5    1  0.1344348E-008  0.3771481E+03  0.7957747E-01  0.3463671E+00
         13   -1    0    0    0    0  0.00000000000E+00  0.00000000000E+00  0.14999999963E+04  0.15000000000E+04  0.10566000000E+00 0. -1.
        994   -1    0    0    0    0 -0.00000000000E+00 -0.00000000000E+00  0.11368683772E-12  0.17120000000E+03  0.17120000000E+03 0.  0.
         13    1    1    2    0    0  0.19005865890E+02  0.33033413736E+02  0.11951416292E+03  0.12544351583E+03  0.10566000000E+00 0. -1.
        994    1    1    2    0    0 -0.28726831476E+02 -0.26381245427E+02  0.10730645154E+02  0.17591414867E+03  0.17120000000E+03 0.  0.
        998    1    1    2    0    0  0.97209655859E+01 -0.66521683087E+01  0.13697551882E+04  0.13698423355E+04  0.10000000000E+02 0. -1.
</event>
<event>
 5    1  0.1344348E-008  0.3748169E+03  0.7957747E-01  0.3474042E+00
         13   -1    0    0    0    0  0.00000000000E+00  0.00000000000E+00  0.14999999963E+04  0.15000000000E+04  0.10566000000E+00 0.  1.
        994   -1    0    0    0    0 -0.00000000000E+00 -0.00000000000E+00  0.11368683772E-12  0.17120000000E+03  0.17120000000E+03 0.  0.
         13    1    1    2    0    0 -0.43629252957E+02  0.68475424472E+01  0.12565502643E+03  0.13319007989E+03  0.10566000000E+00 0.  1.
        994    1    1    2    0    0  0.55214444776E+02  0.13302215846E+02  0.17824223204E+02  0.18125321181E+03  0.17120000000E+03 0.  0.
        998    1    1    2    0    0 -0.11585191819E+02 -0.20149758293E+02  0.13565207466E+04  0.13567567083E+04  0.10000000000E+02 0.  1.
</event>
<event>
 5    1  0.1344348E-008  0.3800722E+03  0.7957747E-01  0.3450844E+00
         13   -1    0    0    0    0  0.00000000000E+00  0.00000000000E+00  0.14999999963E+04  0.15000000000E+04  0.10566000000E+00 0.  1.
        994   -1    0    0    0    0 -0.00000000000E+00 -0.00000000000E+00  0.11368683772E-12  0.17120000000E+03  0.17120000000E+03 0.  0.
         13    1    1    2    0    0 -0.51490939767E+01  0.10528437620E+02  0.15233326180E+02  0.19220472368E+02  0.10566000000E+00 0.  1.
        994    1    1    2    0    0 -0.56448274855E+00 -0.30251618754E+01  0.41283631981E+01  0.17127741716E+03  0.17120000000E+03 0.  0.
        998    1    1    2    0    0  0.57135767253E+01 -0.75032757444E+01  0.14806383069E+04  0.14807021105E+04  0.10000000000E+02 0.  1.
</event>
<event>
 5    1  0.1344348E-008  0.3708898E+03  0.7957747E-01  0.3491812E+00
         13   -1    0    0    0    0  0.00000000000E+00  0.00000000000E+00  0.14999999963E+04  0.15000000000E+04  0.10566000000E+00 0.  1.
        994   -1    0    0    0    0 -0.00000000000E+00 -0.00000000000E+00  0.11368683772E-12  0.17120000000E+03  0.17120000000E+03 0.  0.
         13    1    1    2    0    0 -0.46526897358E+01  0.28542220664E+02  0.44401200637E+02  0.52988523892E+02  0.10566000000E+00 0.  1.
        994    1    1    2    0    0  0.40260048562E+02 -0.96302624017E+01  0.14734873456E+02  0.17674888956E+03  0.17120000000E+03 0.  0.
        998    1    1    2    0    0 -0.35607358826E+02 -0.18911958262E+02  0.14408639222E+04  0.14414625865E+04  0.10000000000E+02 0.  1.
</event>
<event>
 5    1  0.1344348E-008  0.3859483E+03  0.7957747E-01  0.3425660E+00
         13   -1    0    0    0    0  0.00000000000E+00  0.00000000000E+00  0.14999999963E+04  0.15000000000E+04  0.10566000000E+00 0.  1.
        994   -1    0    0    0    0 -0.00000000000E+00 -0.00000000000E+00  0.11368683772E-12  0.17120000000E+03  0.17120000000E+03 0.  0.
         13    1    1    2    0    0 -0.78968143084E+02 -0.10221336106E+03  0.34062771734E+03  0.36429492418E+03  0.10566000000E+00 0.  1.
        994    1    1    2    0    0  0.92354024490E+02  0.75422923308E+02  0.74441441532E+02  0.22151490112E+03  0.17120000000E+03 0.  0.
        998    1    1    2    0    0 -0.13385881405E+02  0.26790437754E+02  0.10849308374E+04  0.10853901747E+04  0.10000000000E+02 0.  1.
</event>
<event>
 5    1  0.1344348E-008  0.3842787E+03  0.7957747E-01  0.3432737E+00
         13   -1    0    0    0    0  0.00000000000E+00  0.00000000000E+00  0.14999999963E+04  0.15000000000E+04  0.10566000000E+00 0. -1.
        994   -1    0    0    0    0 -0.00000000000E+00 -0.00000000000E+00  0.11368683772E-12  0.17120000000E+03  0.17120000000E+03 0.  0.
         13    1    1    2    0    0 -0.10717300437E+02  0.17596377144E+02  0.11446247519E+03  0.11630203097E+03  0.10566000000E+00 0. -1.
        994    1    1    2    0    0  0.53530115063E+01 -0.88150621032E+00  0.20856938669E+01  0.17129863369E+03  0.17120000000E+03 0.  0.
        998    1    1    2    0    0  0.53642889306E+01 -0.16714870934E+02  0.13834518272E+04  0.13835993353E+04  0.10000000000E+02 0. -1.
</event>
<event>
 5    1  0.1344348E-008  0.3732711E+03  0.7957747E-01  0.3480991E+00
         13   -1    0    0    0    0  0.00000000000E+00  0.00000000000E+00  0.14999999963E+04  0.15000000000E+04  0.10566000000E+00 0.  1.
        994   -1    0    0    0    0 -0.00000000000E+00 -0.00000000000E+00  0.11368683772E-12  0.17120000000E+03  0.17120000000E+03 0.  0.
         13    1    1    2    0    0 -0.11502487938E+01  0.34876171175E+02  0.75045040120E+02  0.82761341210E+02  0.10566000000E+00 0.  1.
        994    1    1    2    0    0  0.10087576964E+02 -0.31410575074E+02  0.11299664281E+02  0.17471549974E+03  0.17120000000E+03 0.  0.
        998    1    1    2    0    0 -0.89373281701E+01 -0.34655961015E+01  0.14136552919E+04  0.14137231591E+04  0.10000000000E+02 0.  1.
</event>
<event>
 5    1  0.1344348E-008  0.3747406E+03  0.7957747E-01  0.3474383E+00
         13   -1    0    0    0    0  0.00000000000E+00  0.00000000000E+00  0.14999999963E+04  0.15000000000E+04  0.10566000000E+00 0.  1.
        994   -1    0    0    0    0 -0.00000000000E+00 -0.00000000000E+00  0.11368683772E-12  0.17120000000E+03  0.17120000000E+03 0.  0.
         13    1    1    2    0    0 -0.10678525752E+03 -0.43376852518E+02  0.61489446350E+03  0.62560359252E+03  0.10566000000E+00 0.  1.
        994    1    1    2    0    0  0.45956280151E+02  0.57142227510E+01  0.21131415939E+02  0.17860741521E+03  0.17120000000E+03 0.  0.
        998    1    1    2    0    0  0.60828977367E+02  0.37662629767E+02  0.86397411684E+03  0.86698899228E+03  0.10000000000E+02 0.  1.
</event>
<event>
 5    1  0.1344348E-008  0.3798872E+03  0.7957747E-01  0.3451650E+00
         13   -1    0    0    0    0  0.00000000000E+00  0.00000000000E+00  0.14999999963E+04  0.15000000000E+04  0.10566000000E+00 0. -1.
        994   -1    0    0    0    0 -0.00000000000E+00 -0.00000000000E+00  0.11368683772E-12  0.17120000000E+03  0.17120000000E+03 0.  0.
         13    1    1    2    0    0 -0.59907283278E+01  0.11918772935E+02  0.19071840634E+02  0.23274282876E+02  0.10566000000E+00 0. -1.
        994    1    1    2    0    0  0.74510904419E+01 -0.15644108137E+02  0.51948244799E+01  0.17215308034E+03  0.17120000000E+03 0.  0.
        998    1    1    2    0    0 -0.14603621141E+01  0.37253352025E+01  0.14757333312E+04  0.14757726368E+04  0.10000000000E+02 0. -1.
</event>
<event>
 5    1  0.1344348E-008  0.3752416E+03  0.7957747E-01  0.3472143E+00
         13   -1    0    0    0    0  0.00000000000E+00  0.00000000000E+00  0.14999999963E+04  0.15000000000E+04  0.10566000000E+00 0.  1.
        994   -1    0    0    0    0 -0.00000000000E+00 -0.00000000000E+00  0.11368683772E-12  0.17120000000E+03  0.17120000000E+03 0.  0.
         13    1    1    2    0    0  0.18570864150E+02 -0.48461229955E+02  0.17643768634E+03  0.18391203367E+03  0.10566000000E+00 0.  1.
        994    1    1    2    0    0 -0.15002830973E+02  0.53978771956E+02  0.17291056510E+02  0.18096191145E+03  0.17120000000E+03 0.  0.
        998    1    1    2    0    0 -0.35680331774E+01 -0.55175420016E+01  0.13062712534E+04  0.13063260549E+04  0.10000000000E+02 0.  1.
</event>
<event>
 5    1  0.1344348E-008  0.3833719E+03  0.7957747E-01  0.3436607E+00
         13   -1    0    0    0    0  0.00000000000E+00  0.00000000000E+00  0.14999999963E+04  0.15000000000E+04  0.10566000000E+00 0. -1.
        994   -1    0    0    0    0 -0.00000000000E+00 -0.00000000000E+00  0.11368683772E-12  0.17120000000E+03  0.17120000000E+03 0.  0.
         13    1    1    2    0    0  0.70309217632E+01 -0.16186908423E+02  0.66915741430E+02  0.69203883419E+02  0.10566000000E+00 0. -1.
        994    1    1    2    0    0 -0.62155523724E+01 -0.18910423339E+01  0.25802037161E+01  0.17134265839E+03  0.17120000000E+03 0.  0.
        998    1    1    2    0    0 -0.81536939074E+00  0.18077950757E+02  0.14305040511E+04  0.14306534582E+04  0.10000000000E+02 0. -1.
</event>
<event>
 5    1  0.1344348E-008  0.3780545E+03  0.7957747E-01  0.3459673E+00
         13   -1    0    0    0    0  0.00000000000E+00  0.00000000000E+00  0.14999999963E+04  0.15000000000E+04  0.10566000000E+00 0.  1.
        994   -1    0    0    0    0 -0.00000000000E+00 -0.00000000000E+00  0.11368683772E-12  0.17120000000E+03  0.17120000000E+03 0.  0.
         13    1    1    2    0    0 -0.85923950350E+00  0.19512393478E+02  0.34443983120E+02  0.39596349945E+02  0.10566000000E+00 0.  1.
        994    1    1    2    0    0 -0.13189810118E+00 -0.20527543734E+02  0.65375375390E+01  0.17255021543E+03  0.17120000000E+03 0.  0.
        998    1    1    2    0    0  0.99113760469E+00  0.10151502560E+01  0.14590184756E+04  0.14590534346E+04  0.10000000000E+02 0.  1.
</event>
<event>
 5    1  0.1344348E-008  0.3732167E+03  0.7957747E-01  0.3481237E+00
         13   -1    0    0    0    0  0.00000000000E+00  0.00000000000E+00  0.14999999963E+04  0.15000000000E+04  0.10566000000E+00 0.  1.
        994   -1    0    0    0    0 -0.00000000000E+00 -0.00000000000E+00  0.11368683772E-12  0.17120000000E+03  0.17120000000E+03 0.  0.
         13    1    1    2    0    0  0.32990062053E+02  0.16367210602E+02  0.48672622205E+02  0.61034949770E+02  0.10566000000E+00 0.  1.
        994    1    1    2    0    0 -0.18745131155E+02 -0.21374260949E+02  0.15512958523E+02  0.17423642230E+03  0.17120000000E+03 0.  0.
        998    1    1    2    0    0 -0.14244930898E+02  0.50070503476E+01  0.14358144156E+04  0.14359286279E+04  0.10000000000E+02 0.  1.
</event>
<event>
 5    1  0.1344348E-008  0.3836229E+03  0.7957747E-01  0.3435534E+00
         13   -1    0    0    0    0  0.00000000000E+00  0.00000000000E+00  0.14999999963E+04  0.15000000000E+04  0.10566000000E+00 0. -1.
        994   -1    0    0    0    0 -0.00000000000E+00 -0.00000000000E+00  0.11368683772E-12  0.17120000000E+03  0.17120000000E+03 0.  0.
         13    1    1    2    0    0  0.16731581098E+02 -0.13912502286E+02  0.97688882967E+02  0.10008312817E+03  0.10566000000E+00 0. -1.
        994    1    1    2    0    0 -0.20172153862E+02  0.67072605663E+01  0.38096064728E+01  0.17255682032E+03  0.17120000000E+03 0.  0.
        998    1    1    2    0    0  0.34405727641E+01  0.72052417198E+01  0.13985015068E+04  0.13985600515E+04  0.10000000000E+02 0. -1.
</event>
<event>
 5    1  0.1344348E-008  0.3829152E+03  0.7957747E-01  0.3438563E+00
         13   -1    0    0    0    0  0.00000000000E+00  0.00000000000E+00  0.14999999963E+04  0.15000000000E+04  0.10566000000E+00 0.  1.
        994   -1    0    0    0    0 -0.00000000000E+00 -0.00000000000E+00  0.11368683772E-12  0.17120000000E+03  0.17120000000E+03 0.  0.
         13    1    1    2    0    0 -0.94013147690E+01 -0.17013513733E+02  0.70316087176E+02  0.72953462211E+02  0.10566000000E+00 0.  1.
        994    1    1    2    0    0  0.90988647931E+01  0.82692529842E+01  0.31694461455E+01  0.17167019332E+03  0.17120000000E+03 0.  0.
        998    1    1    2    0    0  0.30244997580E+00  0.87442607484E+01  0.14265144630E+04  0.14265763445E+04  0.10000000000E+02 0.  1.
</event>
<event>
 5    1  0.1344348E-008  0.3702112E+03  0.7957747E-01  0.3494921E+00
         13   -1    0    0    0    0  0.00000000000E+00  0.00000000000E+00  0.14999999963E+04  0.15000000000E+04  0.10566000000E+00 0.  1.
        994   -1    0    0    0    0 -0.00000000000E+00 -0.00000000000E+00  0.11368683772E-12  0.17120000000E+03  0.17120000000E+03 0.  0.
         13    1    1    2    0    0  0.12530937036E+02  0.43436865506E+02  0.10534510494E+03  0.11463589301E+03  0.10566000000E+00 0.  1.
        994    1    1    2    0    0 -0.20980850872E+02 -0.30915724243E+02  0.13997414457E+02  0.17578778604E+03  0.17120000000E+03 0.  0.
        998    1    1    2    0    0  0.84499138351E+01 -0.12521141263E+02  0.13806574769E+04  0.13807763210E+04  0.10000000000E+02 0.  1.
</event>
<event>
 5    1  0.1344348E-008  0.2174753E+03  0.7957747E-01  0.4747025E+00
         13   -1    0    0    0    0  0.00000000000E+00  0.00000000000E+00  0.14999999963E+04  0.15000000000E+04  0.10566000000E+00 0.  1.
        994   -1    0    0    0    0 -0.00000000000E+00 -0.00000000000E+00  0.11368683772E-12  0.17120000000E+03  0.17120000000E+03 0.  0.
         13    1    1    2    0    0 -0.13806105880E+02 -0.65045005087E+02  0.94937689775E+00  0.66500930271E+02  0.10566000000E+00 0.  1.
        994    1    1    2    0    0 -0.55002802358E+01  0.34975061177E+02  0.92738333980E+02  0.19789731321E+03  0.17120000000E+03 0.  0.
        998    1    1    2    0    0  0.19306386116E+02  0.30069943910E+02  0.14063122854E+04  0.14068017565E+04  0.10000000000E+02 0.  1.
</event>
<event>
 5    1  0.1344348E-008  0.3764615E+03  0.7957747E-01  0.3466712E+00
         13   -1    0    0    0    0  0.00000000000E+00  0.00000000000E+00  0.14999999963E+04  0.15000000000E+04  0.10566000000E+00 0. -1.
        994   -1    0    0    0    0 -0.00000000000E+00 -0.00000000000E+00  0.11368683772E-12  0.17120000000E+03  0.17120000000E+03 0.  0.
         13    1    1    2    0    0 -0.19680957376E+01 -0.25236544145E+02  0.48941115634E+02  0.55099914017E+02  0.10566000000E+00 0. -1.
        994    1    1    2    0    0  0.61513751103E+01  0.33089278446E+02  0.97712166853E+01  0.17475026878E+03  0.17120000000E+03 0.  0.
        998    1    1    2    0    0 -0.41832793727E+01 -0.78527343006E+01  0.14412876640E+04  0.14413498172E+04  0.10000000000E+02 0. -1.
</event>
<event>
 5    1  0.1344348E-008  0.3710477E+03  0.7957747E-01  0.3491090E+00
         13   -1    0    0    0    0  0.00000000000E+00  0.00000000000E+00  0.14999999963E+04  0.15000000000E+04  0.10566000000E+00 0.  1.
        994   -1    0    0    0    0 -0.00000000000E+00 -0.00000000000E+00  0.11368683772E-12  0.17120000000E+03  0.17120000000E+03 0.  0.
         13    1    1    2    0    0  0.74918951794E+02  0.11870749148E+02  0.40772800917E+03  0.41472388965E+03  0.10566000000E+00 0.  1.
        994    1    1    2    0    0 -0.16493364725E+02 -0.86083472828E+01  0.99158584115E+01  0.17249318529E+03  0.17120000000E+03 0.  0.
        998    1    1    2    0    0 -0.58425587068E+02 -0.32624018649E+01  0.10823561287E+04  0.10839829251E+04  0.10000000000E+02 0.  1.
</event>
<event>
 5    1  0.1344348E-008  0.3705344E+03  0.7957747E-01  0.3493439E+00
         13   -1    0    0    0    0  0.00000000000E+00  0.00000000000E+00  0.14999999963E+04  0.15000000000E+04  0.10566000000E+00 0.  1.
        994   -1    0    0    0    0 -0.00000000000E+00 -0.00000000000E+00  0.11368683772E-12  0.17120000000E+03  0.17120000000E+03 0.  0.
         13    1    1    2    0    0  0.17721487403E+02 -0.20203016872E+02  0.27456135424E+02  0.38419572395E+02  0.10566000000E+00 0.  1.
        994    1    1    2    0    0 -0.11200823083E+02  0.17874166529E+02  0.12781598593E+02  0.17296749270E+03  0.17120000000E+03 0.  0.
        998    1    1    2    0    0 -0.65206643198E+01  0.23288503432E+01  0.14597622623E+04  0.14598129349E+04  0.10000000000E+02 0.  1.
</event>
<event>
 5    1  0.1344348E-008  0.3713207E+03  0.7957747E-01  0.3489843E+00
         13   -1    0    0    0    0  0.00000000000E+00  0.00000000000E+00  0.14999999963E+04  0.15000000000E+04  0.10566000000E+00 0. -1.
        994   -1    0    0    0    0 -0.00000000000E+00 -0.00000000000E+00  0.11368683772E-12  0.17120000000E+03  0.17120000000E+03 0.  0.
         13    1    1    2    0    0 -0.11567949578E+02  0.33161634532E+02  0.47575562545E+02  0.59135072316E+02  0.10566000000E+00 0. -1.
        994    1    1    2    0    0  0.80366531179E+01 -0.30441896819E+02  0.15128438923E+02  0.17472723468E+03  0.17120000000E+03 0.  0.
        998    1    1    2    0    0  0.35312964601E+01 -0.27197377126E+01  0.14372959948E+04  0.14373376930E+04  0.10000000000E+02 0. -1.
</event>
<event>
 5    1  0.1344348E-008  0.3929683E+03  0.7957747E-01  0.3396565E+00
         13   -1    0    0    0    0  0.00000000000E+00  0.00000000000E+00  0.14999999963E+04  0.15000000000E+04  0.10566000000E+00 0.  1.
        994   -1    0    0    0    0 -0.00000000000E+00 -0.00000000000E+00  0.11368683772E-12  0.17120000000E+03  0.17120000000E+03 0.  0.
         13    1    1    2    0    0 -0.73522095056E+02  0.71255252552E+02  0.19471373514E+03  0.21999149823E+03  0.10566000000E+00 0.  1.
        994    1    1    2    0    0  0.69583191221E+02 -0.59764305562E+02  0.56433595717E+02  0.20225672658E+03  0.17120000000E+03 0.  0.
        998    1    1    2    0    0  0.39389038344E+01 -0.11490946990E+02  0.12488526654E+04  0.12489517752E+04  0.10000000000E+02 0. -1.
</event>
<event>
 5    1  0.1344348E-008  0.3703408E+03  0.7957747E-01  0.3494326E+00
         13   -1    0    0    0    0  0.00000000000E+00  0.00000000000E+00  0.14999999963E+04  0.15000000000E+04  0.10566000000E+00 0. -1.
        994   -1    0    0    0    0 -0.00000000000E+00 -0.00000000000E+00  0.11368683772E-12  0.17120000000E+03  0.17120000000E+03 0.  0.
         13    1    1    2    0    0  0.19720559305E+02 -0.49560289718E+02  0.11850196796E+03  0.12995326217E+03  0.10566000000E+00 0. -1.
        994    1    1    2    0    0 -0.14860623797E+02  0.43227699268E+02  0.18468582617E+02  0.17815723580E+03  0.17120000000E+03 0.  0.
        998    1    1    2    0    0 -0.48599355080E+01  0.63325904500E+01  0.13630294457E+04  0.13630895020E+04  0.10000000000E+02 0. -1.
</event>
<event>
 5    1  0.1344348E-008  0.3813361E+03  0.7957747E-01  0.3445361E+00
         13   -1    0    0    0    0  0.00000000000E+00  0.00000000000E+00  0.14999999963E+04  0.15000000000E+04  0.10566000000E+00 0. -1.
        994   -1    0    0    0    0 -0.00000000000E+00 -0.00000000000E+00  0.11368683772E-12  0.17120000000E+03  0.17120000000E+03 0.  0.
         13    1    1    2    0    0 -0.29491582116E+02  0.14972732567E+02  0.14234301532E+03  0.14613514741E+03  0.10566000000E+00 0. -1.
        994    1    1    2    0    0  0.23160508544E+02 -0.31193925870E+02  0.85003812750E+01  0.17575883093E+03  0.17120000000E+03 0.  0.
        998    1    1    2    0    0  0.63310735724E+01  0.16221193303E+02  0.13491565997E+04  0.13493060217E+04  0.10000000000E+02 0. -1.
</event>
<event>
 5    1  0.1344348E-008  0.3826293E+03  0.7957747E-01  0.3439789E+00
         13   -1    0    0    0    0  0.00000000000E+00  0.00000000000E+00  0.14999999963E+04  0.15000000000E+04  0.10566000000E+00 0.  1.
        994   -1    0    0    0    0 -0.00000000000E+00 -0.00000000000E+00  0.11368683772E-12  0.17120000000E+03  0.17120000000E+03 0.  0.
         13    1    1    2    0    0  0.28635264994E+02  0.13811370652E+03  0.40760414541E+03  0.43131951596E+03  0.10566000000E+00 0.  1.
        994    1    1    2    0    0 -0.40773599546E+02 -0.12729518691E+03  0.86480142540E+02  0.23378367369E+03  0.17120000000E+03 0.  0.
        998    1    1    2    0    0  0.12138334552E+02 -0.10818519618E+02  0.10059157083E+04  0.10060968103E+04  0.10000000000E+02 0.  1.
</event>
<event>
 5    1  0.1344348E-008  0.3848406E+03  0.7957747E-01  0.3430349E+00
         13   -1    0    0    0    0  0.00000000000E+00  0.00000000000E+00  0.14999999963E+04  0.15000000000E+04  0.10566000000E+00 0. -1.
        994   -1    0    0    0    0 -0.00000000000E+00 -0.00000000000E+00  0.11368683772E-12  0.17120000000E+03  0.17120000000E+03 0.  0.
         13    1    1    2    0    0  0.62779681350E+01 -0.13994601994E+02  0.72789045978E+02  0.74387620928E+02  0.10566000000E+00 0. -1.
        994    1    1    2    0    0 -0.13212240751E+02 -0.40900111008E+01  0.23389864969E+01  0.17177369518E+03  0.17120000000E+03 0.  0.
        998    1    1    2    0    0  0.69342726161E+01  0.18084613095E+02  0.14248719638E+04  0.14250386839E+04  0.10000000000E+02 0. -1.
</event>
<event>
 5    1  0.1344348E-008  0.3791328E+03  0.7957747E-01  0.3454943E+00
         13   -1    0    0    0    0  0.00000000000E+00  0.00000000000E+00  0.14999999963E+04  0.15000000000E+04  0.10566000000E+00 0.  1.
        994   -1    0    0    0    0 -0.00000000000E+00 -0.00000000000E+00  0.11368683772E-12  0.17120000000E+03  0.17120000000E+03 0.  0.
         13    1    1    2    0    0 -0.45052233766E+01  0.91235312756E+01  0.92844666131E+01  0.13774917239E+02  0.10566000000E+00 0.  1.
        994    1    1    2    0    0  0.14799431071E+01 -0.70964055234E+01  0.47477215909E+01  0.17141916481E+03  0.17120000000E+03 0.  0.
        998    1    1    2    0    0  0.30252802695E+01 -0.20271257523E+01  0.14859678081E+04  0.14860059180E+04  0.10000000000E+02 0.  1.
</event>
