<event>
 5    1  0.1675361E-008  0.3730894E+03  0.7957747E-01  0.3481812E+00
         13   -1    0    0    0    0  0.00000000000E+00  0.00000000000E+00  0.14999999963E+04  0.15000000000E+04  0.10566000000E+00 0.  1.
        994   -1    0    0    0    0 -0.00000000000E+00 -0.00000000000E+00  0.11368683772E-12  0.17120000000E+03  0.17120000000E+03 0.  0.
         13    1    1    2    0    0 -0.19736803067E+02  0.11331886551E+02  0.14393117749E+02  0.26928164636E+02  0.10566000000E+00 0.  1.
        994    1    1    2    0    0  0.36979743418E+02 -0.12149155717E+02  0.17955599865E+02  0.17648497663E+03  0.17120000000E+03 0.  0.
        998    1    1    2    0    0 -0.17242940351E+02  0.81726916539E+00  0.14676512787E+04  0.14677868587E+04  0.10000000000E+02 0.  1.
</event>
<event>
 5    1  0.1675361E-008  0.3713631E+03  0.7957747E-01  0.3489650E+00
         13   -1    0    0    0    0  0.00000000000E+00  0.00000000000E+00  0.14999999963E+04  0.15000000000E+04  0.10566000000E+00 0. -1.
        994   -1    0    0    0    0 -0.00000000000E+00 -0.00000000000E+00  0.11368683772E-12  0.17120000000E+03  0.17120000000E+03 0.  0.
         13    1    1    2    0    0 -0.25518770744E+02 -0.11841737742E+03  0.66672630655E+03  0.67764139627E+03  0.10566000000E+00 0. -1.
        994    1    1    2    0    0 -0.31261254067E+02  0.79617014461E+02  0.37825298843E+02  0.19508031226E+03  0.17120000000E+03 0.  0.
        998    1    1    2    0    0  0.56780024810E+02  0.38800362963E+02  0.79544839089E+03  0.79847829147E+03  0.10000000000E+02 0. -1.
</event>
<event>
 5    1  0.1675361E-008  0.3722874E+03  0.7957747E-01  0.3485444E+00
         13   -1    0    0    0    0  0.00000000000E+00  0.00000000000E+00  0.14999999963E+04  0.15000000000E+04  0.10566000000E+00 0.  1.
        994   -1    0    0    0    0 -0.00000000000E+00 -0.00000000000E+00  0.11368683772E-12  0.17120000000E+03  0.17120000000E+03 0.  0.
         13    1    1    2    0    0 -0.36832374338E+02 -0.84452796736E+02  0.40863968682E+03  0.41889772437E+03  0.10566000000E+00 0.  1.
        994    1    1    2    0    0  0.30977629421E+02  0.76993119035E+02  0.32090070709E+02  0.19294239177E+03  0.17120000000E+03 0.  0.
        998    1    1    2    0    0  0.58547449174E+01  0.74596777013E+01  0.10592702388E+04  0.10593598839E+04  0.10000000000E+02 0.  1.
</event>
<event>
 5    1  0.1675361E-008  0.3784273E+03  0.7957747E-01  0.3458035E+00
         13   -1    0    0    0    0  0.00000000000E+00  0.00000000000E+00  0.14999999963E+04  0.15000000000E+04  0.10566000000E+00 0. -1.
        994   -1    0    0    0    0 -0.00000000000E+00 -0.00000000000E+00  0.11368683772E-12  0.17120000000E+03  0.17120000000E+03 0.  0.
         13    1    1    2    0    0  0.80995748834E+01  0.32104106304E+02  0.11381629731E+03  0.11853454118E+03  0.10566000000E+00 0. -1.
        994    1    1    2    0    0  0.45707621872E+01 -0.13929888982E+02  0.56517165791E+01  0.17191950318E+03  0.17120000000E+03 0.  0.
        998    1    1    2    0    0 -0.12670337071E+02 -0.18174217322E+02  0.13805319824E+04  0.13807459556E+04  0.10000000000E+02 0. -1.
</event>
<event>
 5    1  0.1675361E-008  0.2728129E+03  0.7957747E-01  0.4111516E+00
         13   -1    0    0    0    0  0.00000000000E+00  0.00000000000E+00  0.14999999963E+04  0.15000000000E+04  0.10566000000E+00 0. -1.
        994   -1    0    0    0    0 -0.00000000000E+00 -0.00000000000E+00  0.11368683772E-12  0.17120000000E+03  0.17120000000E+03 0.  0.
         13    1    1    2    0    0 -0.21639036112E+03  0.17934669818E+02  0.46707501732E+03  0.51507817246E+03  0.10566000000E+00 0. -1.
        994    1    1    2    0    0  0.15295901025E+03 -0.88336658988E+01  0.15808562732E+03  0.27888169183E+03  0.17120000000E+03 0.  0.
        998    1    1    2    0    0  0.63431350871E+02 -0.91010039196E+01  0.87483935163E+03  0.87724013571E+03  0.10000000000E+02 0. -1.
</event>
<event>
 5    1  0.1675361E-008  0.2744524E+03  0.7957747E-01  0.4097172E+00
         13   -1    0    0    0    0  0.00000000000E+00  0.00000000000E+00  0.14999999963E+04  0.15000000000E+04  0.10566000000E+00 0. -1.
        994   -1    0    0    0    0 -0.00000000000E+00 -0.00000000000E+00  0.11368683772E-12  0.17120000000E+03  0.17120000000E+03 0.  0.
         13    1    1    2    0    0  0.18013596539E+03 -0.87130519426E+02  0.40059735491E+03  0.44779341818E+03  0.10566000000E+00 0. -1.
        994    1    1    2    0    0 -0.18280523961E+03  0.73829211998E+02  0.21333627688E+03  0.33717994485E+03  0.17120000000E+03 0.  0.
        998    1    1    2    0    0  0.26692742233E+01  0.13301307428E+02  0.88606636448E+03  0.88622663697E+03  0.10000000000E+02 0. -1.
</event>
<event>
 5    1  0.1675361E-008  0.3745836E+03  0.7957747E-01  0.3475087E+00
         13   -1    0    0    0    0  0.00000000000E+00  0.00000000000E+00  0.14999999963E+04  0.15000000000E+04  0.10566000000E+00 0. -1.
        994   -1    0    0    0    0 -0.00000000000E+00 -0.00000000000E+00  0.11368683772E-12  0.17120000000E+03  0.17120000000E+03 0.  0.
         13    1    1    2    0    0 -0.19647692953E+02  0.11077689228E+01  0.26479320502E+02  0.32991280191E+02  0.10566000000E+00 0. -1.
        994    1    1    2    0    0 -0.55933363326E+01  0.17297738596E+01  0.70094226635E+01  0.17144342955E+03  0.17120000000E+03 0.  0.
        998    1    1    2    0    0  0.25241029285E+02 -0.28375427824E+01  0.14665112531E+04  0.14667652903E+04  0.10000000000E+02 0. -1.
</event>
<event>
 5    1  0.1675361E-008  0.3788274E+03  0.7957747E-01  0.3456280E+00
         13   -1    0    0    0    0  0.00000000000E+00  0.00000000000E+00  0.14999999963E+04  0.15000000000E+04  0.10566000000E+00 0. -1.
        994   -1    0    0    0    0 -0.00000000000E+00 -0.00000000000E+00  0.11368683772E-12  0.17120000000E+03  0.17120000000E+03 0.  0.
         13    1    1    2    0    0 -0.12615309244E+02 -0.41928566208E+02  0.18252417747E+03  0.18770252320E+03  0.10566000000E+00 0. -1.
        994    1    1    2    0    0  0.16489775748E+02  0.37151309071E+02  0.10290733645E+02  0.17625967114E+03  0.17120000000E+03 0.  0.
        998    1    1    2    0    0 -0.38744665033E+01  0.47772571370E+01  0.13071850852E+04  0.13072378057E+04  0.10000000000E+02 0. -1.
</event>
<event>
 5    1  0.1675361E-008  0.3719408E+03  0.7957747E-01  0.3487019E+00
         13   -1    0    0    0    0  0.00000000000E+00  0.00000000000E+00  0.14999999963E+04  0.15000000000E+04  0.10566000000E+00 0.  1.
        994   -1    0    0    0    0 -0.00000000000E+00 -0.00000000000E+00  0.11368683772E-12  0.17120000000E+03  0.17120000000E+03 0.  0.
         13    1    1    2    0    0  0.20494961273E+02  0.25564334389E+02  0.64554724951E+02  0.72394076470E+02  0.10566000000E+00 0.  1.
        994    1    1    2    0    0  0.13377337377E+02 -0.21371937660E+02  0.10444707427E+02  0.17336160125E+03  0.17120000000E+03 0.  0.
        998    1    1    2    0    0 -0.33872298651E+02 -0.41923967287E+01  0.14250005639E+04  0.14254443223E+04  0.10000000000E+02 0.  1.
</event>
<event>
 5    1  0.2422224E-008  0.3862388E+03  0.7957747E-01  0.3424435E+00
         13   -1    0    0    0    0  0.00000000000E+00  0.00000000000E+00  0.14999999963E+04  0.15000000000E+04  0.10566000000E+00 0.  1.
        994   -1    0    0    0    0 -0.00000000000E+00 -0.00000000000E+00  0.11368683772E-12  0.17120000000E+03  0.17120000000E+03 0.  0.
         13    1    1    2    0    0  0.75235378211E+01 -0.93625381182E+01  0.72108588555E+02  0.73102123421E+02  0.10566000000E+00 0.  1.
        994    1    1    2    0    0 -0.14753082734E+01  0.90355745215E+01  0.12909184551E+01  0.17144948122E+03  0.17120000000E+03 0.  0.
        998    1    1    2    0    0 -0.60482295477E+01  0.32696359671E+00  0.14266004893E+04  0.14266483954E+04  0.10000000000E+02 0.  1.
</event>
<event>
 5    1  0.1675361E-008  0.3801139E+03  0.7957747E-01  0.3450663E+00
         13   -1    0    0    0    0  0.00000000000E+00  0.00000000000E+00  0.14999999963E+04  0.15000000000E+04  0.10566000000E+00 0. -1.
        994   -1    0    0    0    0 -0.00000000000E+00 -0.00000000000E+00  0.11368683772E-12  0.17120000000E+03  0.17120000000E+03 0.  0.
         13    1    1    2    0    0 -0.19974024755E+02  0.78131999590E+01  0.56480971002E+02  0.60416214776E+02  0.10566000000E+00 0. -1.
        994    1    1    2    0    0  0.66027369204E+01 -0.20673864188E+01  0.42356529399E+01  0.17139209718E+03  0.17120000000E+03 0.  0.
        998    1    1    2    0    0  0.13371287835E+02 -0.57458135402E+01  0.14392833723E+04  0.14393916880E+04  0.10000000000E+02 0. -1.
</event>
<event>
 5    1  0.1675361E-008  0.3813867E+03  0.7957747E-01  0.3445143E+00
         13   -1    0    0    0    0  0.00000000000E+00  0.00000000000E+00  0.14999999963E+04  0.15000000000E+04  0.10566000000E+00 0. -1.
        994   -1    0    0    0    0 -0.00000000000E+00 -0.00000000000E+00  0.11368683772E-12  0.17120000000E+03  0.17120000000E+03 0.  0.
         13    1    1    2    0    0 -0.14435718900E+03  0.40182633411E+02  0.49435545960E+03  0.51656652393E+03  0.10566000000E+00 0. -1.
        994    1    1    2    0    0  0.12212402822E+03 -0.35373565386E+02  0.78625863544E+02  0.22728183785E+03  0.17120000000E+03 0.  0.
        998    1    1    2    0    0  0.22233160776E+02 -0.48090680252E+01  0.92701867313E+03  0.92735163822E+03  0.10000000000E+02 0. -1.
</event>
<event>
 5    1  0.1675361E-008  0.3826896E+03  0.7957747E-01  0.3439530E+00
         13   -1    0    0    0    0  0.00000000000E+00  0.00000000000E+00  0.14999999963E+04  0.15000000000E+04  0.10566000000E+00 0.  1.
        994   -1    0    0    0    0 -0.00000000000E+00 -0.00000000000E+00  0.11368683772E-12  0.17120000000E+03  0.17120000000E+03 0.  0.
         13    1    1    2    0    0 -0.58038259434E+01 -0.26791597160E+02  0.12452062735E+03  0.12750243870E+03  0.10566000000E+00 0.  1.
        994    1    1    2    0    0  0.24781484748E+01  0.27739090374E+02  0.53557215474E+01  0.17353305768E+03  0.17120000000E+03 0.  0.
        998    1    1    2    0    0  0.33256774686E+01 -0.94749321359E+00  0.13701236474E+04  0.13701645036E+04  0.10000000000E+02 0.  1.
</event>
<event>
 5    1  0.1675361E-008  0.3846878E+03  0.7957747E-01  0.3430997E+00
         13   -1    0    0    0    0  0.00000000000E+00  0.00000000000E+00  0.14999999963E+04  0.15000000000E+04  0.10566000000E+00 0.  1.
        994   -1    0    0    0    0 -0.00000000000E+00 -0.00000000000E+00  0.11368683772E-12  0.17120000000E+03  0.17120000000E+03 0.  0.
         13    1    1    2    0    0  0.16316785635E+02 -0.15649281487E+01  0.76888259404E+02  0.78616169405E+02  0.10566000000E+00 0.  1.
        994    1    1    2    0    0 -0.89428738382E+01 -0.14985124828E+02  0.27883519110E+01  0.17210968556E+03  0.17120000000E+03 0.  0.
        998    1    1    2    0    0 -0.73739117971E+01  0.16550052977E+02  0.14203233850E+04  0.14204741450E+04  0.10000000000E+02 0.  1.
</event>
<event>
 5    1  0.1675361E-008  0.3840514E+03  0.7957747E-01  0.3433705E+00
         13   -1    0    0    0    0  0.00000000000E+00  0.00000000000E+00  0.14999999963E+04  0.15000000000E+04  0.10566000000E+00 0. -1.
        994   -1    0    0    0    0 -0.00000000000E+00 -0.00000000000E+00  0.11368683772E-12  0.17120000000E+03  0.17120000000E+03 0.  0.
         13    1    1    2    0    0  0.14846493631E+02 -0.38106951072E+01  0.59509273136E+02  0.61451643782E+02  0.10566000000E+00 0. -1.
        994    1    1    2    0    0  0.34144018246E+01  0.19867303594E+01  0.21533040814E+01  0.17125910766E+03  0.17120000000E+03 0.  0.
        998    1    1    2    0    0 -0.18260895455E+02  0.18239647478E+01  0.14383374191E+04  0.14384892486E+04  0.10000000000E+02 0. -1.
</event>
<event>
 5    1  0.1675361E-008  0.3999988E+03  0.7957747E-01  0.3368449E+00
         13   -1    0    0    0    0  0.00000000000E+00  0.00000000000E+00  0.14999999963E+04  0.15000000000E+04  0.10566000000E+00 0. -1.
        994   -1    0    0    0    0 -0.00000000000E+00 -0.00000000000E+00  0.11368683772E-12  0.17120000000E+03  0.17120000000E+03 0.  0.
         13    1    1    2    0    0  0.10253748120E+03 -0.40491552831E+02  0.18257873931E+03  0.21328035098E+03  0.10566000000E+00 0. -1.
        994    1    1    2    0    0 -0.10523078103E+03  0.37743158516E+02  0.78605910790E+02  0.21905796608E+03  0.17120000000E+03 0.  0.
        998    1    1    2    0    0  0.26932998341E+01  0.27483943154E+01  0.12388153462E+04  0.12388616829E+04  0.10000000000E+02 0.  0.
</event>
<event>
 5    1  0.1675361E-008  0.3804742E+03  0.7957747E-01  0.3449096E+00
         13   -1    0    0    0    0  0.00000000000E+00  0.00000000000E+00  0.14999999963E+04  0.15000000000E+04  0.10566000000E+00 0.  1.
        994   -1    0    0    0    0 -0.00000000000E+00 -0.00000000000E+00  0.11368683772E-12  0.17120000000E+03  0.17120000000E+03 0.  0.
         13    1    1    2    0    0  0.30718306153E+02  0.21361572219E+02  0.17318152707E+03  0.17717726599E+03  0.10566000000E+00 0.  1.
        994    1    1    2    0    0 -0.17791388499E+02 -0.20169545026E+02  0.63120126594E+01  0.17341460595E+03  0.17120000000E+03 0.  0.
        998    1    1    2    0    0 -0.12926917654E+02 -0.11920271934E+01  0.13205064565E+04  0.13206081281E+04  0.10000000000E+02 0.  1.
</event>
<event>
 5    1  0.1675361E-008  0.3799627E+03  0.7957747E-01  0.3451321E+00
         13   -1    0    0    0    0  0.00000000000E+00  0.00000000000E+00  0.14999999963E+04  0.15000000000E+04  0.10566000000E+00 0. -1.
        994   -1    0    0    0    0 -0.00000000000E+00 -0.00000000000E+00  0.11368683772E-12  0.17120000000E+03  0.17120000000E+03 0.  0.
         13    1    1    2    0    0  0.53419575744E+02 -0.88950631630E+01  0.31723422848E+03  0.32182346109E+03  0.10566000000E+00 0. -1.
        994    1    1    2    0    0 -0.42652410577E+02 -0.15725407781E+01  0.10266663675E+02  0.17673863583E+03  0.17120000000E+03 0.  0.
        998    1    1    2    0    0 -0.10767165167E+02  0.10467603941E+02  0.11724991041E+04  0.11726379031E+04  0.10000000000E+02 0.  0.
</event>
<event>
 5    1  0.1675361E-008  0.3853747E+03  0.7957747E-01  0.3428084E+00
         13   -1    0    0    0    0  0.00000000000E+00  0.00000000000E+00  0.14999999963E+04  0.15000000000E+04  0.10566000000E+00 0. -1.
        994   -1    0    0    0    0 -0.00000000000E+00 -0.00000000000E+00  0.11368683772E-12  0.17120000000E+03  0.17120000000E+03 0.  0.
         13    1    1    2    0    0  0.10923703195E+02 -0.10438049521E+02  0.81211322308E+02  0.82604904239E+02  0.10566000000E+00 0. -1.
        994    1    1    2    0    0 -0.32078770609E+01  0.64352444033E+01  0.16140521758E+01  0.17135853644E+03  0.17120000000E+03 0.  0.
        998    1    1    2    0    0 -0.77158261346E+01  0.40028051175E+01  0.14171746218E+04  0.14172365593E+04  0.10000000000E+02 0. -1.
</event>
<event>
 5    1  0.1675361E-008  0.3812774E+03  0.7957747E-01  0.3445615E+00
         13   -1    0    0    0    0  0.00000000000E+00  0.00000000000E+00  0.14999999963E+04  0.15000000000E+04  0.10566000000E+00 0.  1.
        994   -1    0    0    0    0 -0.00000000000E+00 -0.00000000000E+00  0.11368683772E-12  0.17120000000E+03  0.17120000000E+03 0.  0.
         13    1    1    2    0    0  0.34924122719E+02  0.87688014770E+02  0.20938102675E+03  0.22967217465E+03  0.10566000000E+00 0.  1.
        994    1    1    2    0    0 -0.34728664821E+02 -0.98576167371E+02  0.57969858989E+02  0.20879005121E+03  0.17120000000E+03 0.  0.
        998    1    1    2    0    0 -0.19545789799E+00  0.10888152601E+02  0.12326491105E+04  0.12327377741E+04  0.10000000000E+02 0.  1.
</event>
<event>
 5    1  0.1675361E-008  0.3796137E+03  0.7957747E-01  0.3452842E+00
         13   -1    0    0    0    0  0.00000000000E+00  0.00000000000E+00  0.14999999963E+04  0.15000000000E+04  0.10566000000E+00 0. -1.
        994   -1    0    0    0    0 -0.00000000000E+00 -0.00000000000E+00  0.11368683772E-12  0.17120000000E+03  0.17120000000E+03 0.  0.
         13    1    1    2    0    0 -0.21532154291E+02  0.28546940509E+02  0.32301207104E+02  0.48186519124E+02  0.10566000000E+00 0. -1.
        994    1    1    2    0    0  0.26805336995E+02 -0.28564766304E+02  0.21687905859E+02  0.17695840536E+03  0.17120000000E+03 0.  0.
        998    1    1    2    0    0 -0.52731827038E+01  0.17825794895E-01  0.14460108833E+04  0.14460550755E+04  0.10000000000E+02 0. -1.
</event>
<event>
 5    1  0.3230078E-008  0.3864001E+03  0.7957747E-01  0.3423756E+00
         13   -1    0    0    0    0  0.00000000000E+00  0.00000000000E+00  0.14999999963E+04  0.15000000000E+04  0.10566000000E+00 0.  1.
        994   -1    0    0    0    0 -0.00000000000E+00 -0.00000000000E+00  0.11368683772E-12  0.17120000000E+03  0.17120000000E+03 0.  0.
         13    1    1    2    0    0  0.40561564034E+01  0.98466418968E+01  0.59483042646E+02  0.60428902752E+02  0.10566000000E+00 0.  1.
        994    1    1    2    0    0 -0.67949284241E+01 -0.10021161978E+02  0.14166680519E+01  0.17163345154E+03  0.17120000000E+03 0.  0.
        998    1    1    2    0    0  0.27387720208E+01  0.17452008110E+00  0.14391002856E+04  0.14391376457E+04  0.10000000000E+02 0.  1.
</event>
<event>
 5    1  0.1675361E-008  0.3761940E+03  0.7957747E-01  0.3467900E+00
         13   -1    0    0    0    0  0.00000000000E+00  0.00000000000E+00  0.14999999963E+04  0.15000000000E+04  0.10566000000E+00 0.  1.
        994   -1    0    0    0    0 -0.00000000000E+00 -0.00000000000E+00  0.11368683772E-12  0.17120000000E+03  0.17120000000E+03 0.  0.
         13    1    1    2    0    0 -0.63361804696E+01  0.12313923057E+02  0.13028919688E+02  0.19014305043E+02  0.10566000000E+00 0.  1.
        994    1    1    2    0    0  0.13006642385E+02 -0.80185932714E+01  0.68576874555E+01  0.17201726210E+03  0.17120000000E+03 0.  0.
        998    1    1    2    0    0 -0.66704619154E+01 -0.42953297857E+01  0.14801133891E+04  0.14801684329E+04  0.10000000000E+02 0.  1.
</event>
<event>
 5    1  0.1675361E-008  0.3755056E+03  0.7957747E-01  0.3470965E+00
         13   -1    0    0    0    0  0.00000000000E+00  0.00000000000E+00  0.14999999963E+04  0.15000000000E+04  0.10566000000E+00 0. -1.
        994   -1    0    0    0    0 -0.00000000000E+00 -0.00000000000E+00  0.11368683772E-12  0.17120000000E+03  0.17120000000E+03 0.  0.
         13    1    1    2    0    0 -0.16430396495E+02  0.26408410363E+01  0.18208427406E+02  0.24667589323E+02  0.10566000000E+00 0. -1.
        994    1    1    2    0    0  0.23045178487E+02 -0.13795815505E+02  0.88712117185E+01  0.17352101652E+03  0.17120000000E+03 0.  0.
        998    1    1    2    0    0 -0.66147819920E+01  0.11154974469E+02  0.14729203572E+04  0.14730113942E+04  0.10000000000E+02 0. -1.
</event>
<event>
 5    1  0.1675361E-008  0.3808809E+03  0.7957747E-01  0.3447332E+00
         13   -1    0    0    0    0  0.00000000000E+00  0.00000000000E+00  0.14999999963E+04  0.15000000000E+04  0.10566000000E+00 0.  1.
        994   -1    0    0    0    0 -0.00000000000E+00 -0.00000000000E+00  0.11368683772E-12  0.17120000000E+03  0.17120000000E+03 0.  0.
         13    1    1    2    0    0 -0.22441386464E+02  0.11502179407E+02  0.73234902640E+02  0.77455006851E+02  0.10566000000E+00 0.  1.
        994    1    1    2    0    0  0.45087220209E+02 -0.17131815974E+02  0.11482591714E+02  0.17823480709E+03  0.17120000000E+03 0.  0.
        998    1    1    2    0    0 -0.22645833745E+02  0.56296365668E+01  0.14152825019E+04  0.14155101861E+04  0.10000000000E+02 0.  1.
</event>
<event>
 5    1  0.1675361E-008  0.3825470E+03  0.7957747E-01  0.3440143E+00
         13   -1    0    0    0    0  0.00000000000E+00  0.00000000000E+00  0.14999999963E+04  0.15000000000E+04  0.10566000000E+00 0. -1.
        994   -1    0    0    0    0 -0.00000000000E+00 -0.00000000000E+00  0.11368683772E-12  0.17120000000E+03  0.17120000000E+03 0.  0.
         13    1    1    2    0    0 -0.14561346298E+02  0.13351359260E+02  0.78246640196E+02  0.80702165189E+02  0.10566000000E+00 0. -1.
        994    1    1    2    0    0  0.12412348400E+01  0.22004041224E+02  0.44647488117E+01  0.17267047367E+03  0.17120000000E+03 0.  0.
        998    1    1    2    0    0  0.13320111458E+02 -0.35355400484E+02  0.14172886073E+04  0.14178273611E+04  0.10000000000E+02 0. -1.
</event>
<event>
 5    1  0.1675361E-008  0.3823529E+03  0.7957747E-01  0.3440977E+00
         13   -1    0    0    0    0  0.00000000000E+00  0.00000000000E+00  0.14999999963E+04  0.15000000000E+04  0.10566000000E+00 0. -1.
        994   -1    0    0    0    0 -0.00000000000E+00 -0.00000000000E+00  0.11368683772E-12  0.17120000000E+03  0.17120000000E+03 0.  0.
         13    1    1    2    0    0  0.20010691582E+01  0.20705366573E+02  0.63593746617E+02  0.66909582689E+02  0.10566000000E+00 0. -1.
        994    1    1    2    0    0  0.71873916267E+01 -0.41651326029E+02  0.88988640417E+01  0.17656477944E+03  0.17120000000E+03 0.  0.
        998    1    1    2    0    0 -0.91884607849E+01  0.20945959456E+02  0.14275073856E+04  0.14277256379E+04  0.10000000000E+02 0. -1.
</event>
<event>
 5    1  0.1675361E-008  0.3832721E+03  0.7957747E-01  0.3437034E+00
         13   -1    0    0    0    0  0.00000000000E+00  0.00000000000E+00  0.14999999963E+04  0.15000000000E+04  0.10566000000E+00 0. -1.
        994   -1    0    0    0    0 -0.00000000000E+00 -0.00000000000E+00  0.11368683772E-12  0.17120000000E+03  0.17120000000E+03 0.  0.
         13    1    1    2    0    0 -0.10329942953E+02 -0.27391275880E+02  0.15293278941E+03  0.15570946970E+03  0.10566000000E+00 0. -1.
        994    1    1    2    0    0  0.89379428534E+01  0.30661558932E+02  0.58711501565E+01  0.17425248470E+03  0.17120000000E+03 0.  0.
        998    1    1    2    0    0  0.13920000991E+01 -0.32702830521E+01  0.13411960567E+04  0.13412380456E+04  0.10000000000E+02 0. -1.
</event>
<event>
 5    1  0.1675361E-008  0.3773071E+03  0.7957747E-01  0.3462968E+00
         13   -1    0    0    0    0  0.00000000000E+00  0.00000000000E+00  0.14999999963E+04  0.15000000000E+04  0.10566000000E+00 0.  1.
        994   -1    0    0    0    0 -0.00000000000E+00 -0.00000000000E+00  0.11368683772E-12  0.17120000000E+03  0.17120000000E+03 0.  0.
         13    1    1    2    0    0 -0.27449150615E+02  0.13082156945E+02  0.81775319689E+02  0.87245703470E+02  0.10566000000E+00 0.  1.
        994    1    1    2    0    0  0.17530271986E+02 -0.92004263854E+01  0.68218963633E+01  0.17247590136E+03  0.17120000000E+03 0.  0.
        998    1    1    2    0    0  0.99188786293E+01 -0.38817305601E+01  0.14114027802E+04  0.14114783952E+04  0.10000000000E+02 0.  1.
</event>
<event>
 5    1  0.1675361E-008  0.3725753E+03  0.7957747E-01  0.3484138E+00
         13   -1    0    0    0    0  0.00000000000E+00  0.00000000000E+00  0.14999999963E+04  0.15000000000E+04  0.10566000000E+00 0. -1.
        994   -1    0    0    0    0 -0.00000000000E+00 -0.00000000000E+00  0.11368683772E-12  0.17120000000E+03  0.17120000000E+03 0.  0.
         13    1    1    2    0    0  0.72441365633E+01 -0.22183967838E+02  0.28328311218E+02  0.36703001568E+02  0.10566000000E+00 0. -1.
        994    1    1    2    0    0 -0.15796902648E+02  0.48967039721E+02  0.17057192001E+02  0.17957644865E+03  0.17120000000E+03 0.  0.
        998    1    1    2    0    0  0.85527660846E+01 -0.26783071883E+02  0.14546144931E+04  0.14549205498E+04  0.10000000000E+02 0. -1.
</event>
<event>
 5    1  0.1675361E-008  0.3858926E+03  0.7957747E-01  0.3425896E+00
         13   -1    0    0    0    0  0.00000000000E+00  0.00000000000E+00  0.14999999963E+04  0.15000000000E+04  0.10566000000E+00 0.  1.
        994   -1    0    0    0    0 -0.00000000000E+00 -0.00000000000E+00  0.11368683772E-12  0.17120000000E+03  0.17120000000E+03 0.  0.
         13    1    1    2    0    0  0.11550708069E+02 -0.32216923426E+01  0.65916138562E+02  0.66998109267E+02  0.10566000000E+00 0.  1.
        994    1    1    2    0    0  0.31559964953E+01  0.41390230102E+01  0.12764912261E+01  0.17128386163E+03  0.17120000000E+03 0.  0.
        998    1    1    2    0    0 -0.14706704565E+02 -0.91733066762E+00  0.14328073665E+04  0.14329180291E+04  0.10000000000E+02 0.  1.
</event>
<event>
 5    1  0.1675361E-008  0.3842494E+03  0.7957747E-01  0.3432862E+00
         13   -1    0    0    0    0  0.00000000000E+00  0.00000000000E+00  0.14999999963E+04  0.15000000000E+04  0.10566000000E+00 0.  1.
        994   -1    0    0    0    0 -0.00000000000E+00 -0.00000000000E+00  0.11368683772E-12  0.17120000000E+03  0.17120000000E+03 0.  0.
         13    1    1    2    0    0 -0.41973477498E+01  0.10504178672E+02  0.31319987536E+02  0.33300274488E+02  0.10566000000E+00 0.  1.
        994    1    1    2    0    0  0.60310247368E+01 -0.69039951827E+01  0.22803741434E+01  0.17146042842E+03  0.17120000000E+03 0.  0.
        998    1    1    2    0    0 -0.18336769870E+01 -0.36001834892E+01  0.14663996346E+04  0.14664392971E+04  0.10000000000E+02 0.  1.
</event>
<event>
 5    1  0.1675361E-008  0.3838946E+03  0.7957747E-01  0.3434374E+00
         13   -1    0    0    0    0  0.00000000000E+00  0.00000000000E+00  0.14999999963E+04  0.15000000000E+04  0.10566000000E+00 0.  1.
        994   -1    0    0    0    0 -0.00000000000E+00 -0.00000000000E+00  0.11368683772E-12  0.17120000000E+03  0.17120000000E+03 0.  0.
         13    1    1    2    0    0  0.14511535571E+02  0.91295689980E+01  0.71660152359E+02  0.73682577960E+02  0.10566000000E+00 0.  1.
        994    1    1    2    0    0  0.26507453656E+01 -0.33818134342E+01  0.22409015781E+01  0.17126857491E+03  0.17120000000E+03 0.  0.
        998    1    1    2    0    0 -0.17162280936E+02 -0.57477555638E+01  0.14260989423E+04  0.14262488471E+04  0.10000000000E+02 0.  1.
</event>
<event>
 5    1  0.1675361E-008  0.3815841E+03  0.7957747E-01  0.3444290E+00
         13   -1    0    0    0    0  0.00000000000E+00  0.00000000000E+00  0.14999999963E+04  0.15000000000E+04  0.10566000000E+00 0.  1.
        994   -1    0    0    0    0 -0.00000000000E+00 -0.00000000000E+00  0.11368683772E-12  0.17120000000E+03  0.17120000000E+03 0.  0.
         13    1    1    2    0    0  0.34189536877E+02 -0.22221805648E+02  0.22762029819E+03  0.23124390671E+03  0.10566000000E+00 0.  1.
        994    1    1    2    0    0 -0.21991811963E+02  0.27930671207E+02  0.75496869206E+01  0.17501485640E+03  0.17120000000E+03 0.  0.
        998    1    1    2    0    0 -0.12197724914E+02 -0.57088655590E+01  0.12648300112E+04  0.12649412369E+04  0.10000000000E+02 0.  1.
</event>
<event>
 5    1  0.1675361E-008  0.3844517E+03  0.7957747E-01  0.3432001E+00
         13   -1    0    0    0    0  0.00000000000E+00  0.00000000000E+00  0.14999999963E+04  0.15000000000E+04  0.10566000000E+00 0.  1.
        994   -1    0    0    0    0 -0.00000000000E+00 -0.00000000000E+00  0.11368683772E-12  0.17120000000E+03  0.17120000000E+03 0.  0.
         13    1    1    2    0    0  0.17093082848E+02 -0.11988004093E+02  0.11110491372E+03  0.11304954109E+03  0.10566000000E+00 0.  1.
        994    1    1    2    0    0 -0.89301837838E+01  0.16648485986E+02  0.30793571600E+01  0.17226677773E+03  0.17120000000E+03 0.  0.
        998    1    1    2    0    0 -0.81628990646E+01 -0.46604818927E+01  0.13858157254E+04  0.13858836812E+04  0.10000000000E+02 0.  1.
</event>
<event>
 5    1  0.1675361E-008  0.3716439E+03  0.7957747E-01  0.3488370E+00
         13   -1    0    0    0    0  0.00000000000E+00  0.00000000000E+00  0.14999999963E+04  0.15000000000E+04  0.10566000000E+00 0.  1.
        994   -1    0    0    0    0 -0.00000000000E+00 -0.00000000000E+00  0.11368683772E-12  0.17120000000E+03  0.17120000000E+03 0.  0.
         13    1    1    2    0    0  0.12580626159E+02 -0.32215059569E+02  0.45307400897E+02  0.56998718913E+02  0.10566000000E+00 0.  1.
        994    1    1    2    0    0 -0.38315309804E+02  0.16901960478E+02  0.18002716699E+02  0.17716454793E+03  0.17120000000E+03 0.  0.
        998    1    1    2    0    0  0.25734683646E+02  0.15313099091E+02  0.14366898787E+04  0.14370367332E+04  0.10000000000E+02 0.  1.
</event>
<event>
 5    1  0.1675361E-008  0.3810171E+03  0.7957747E-01  0.3446742E+00
         13   -1    0    0    0    0  0.00000000000E+00  0.00000000000E+00  0.14999999963E+04  0.15000000000E+04  0.10566000000E+00 0. -1.
        994   -1    0    0    0    0 -0.00000000000E+00 -0.00000000000E+00  0.11368683772E-12  0.17120000000E+03  0.17120000000E+03 0.  0.
         13    1    1    2    0    0 -0.84240499635E+01  0.63807232370E+01  0.13928676015E+02  0.17484205054E+02  0.10566000000E+00 0. -1.
        994    1    1    2    0    0  0.12145972876E+02  0.58408765485E+01  0.42260001720E+01  0.17178166251E+03  0.17120000000E+03 0.  0.
        998    1    1    2    0    0 -0.37219229130E+01 -0.12221599786E+02  0.14818453201E+04  0.14819341324E+04  0.10000000000E+02 0. -1.
</event>
<event>
 5    1  0.1675361E-008  0.3779652E+03  0.7957747E-01  0.3460066E+00
         13   -1    0    0    0    0  0.00000000000E+00  0.00000000000E+00  0.14999999963E+04  0.15000000000E+04  0.10566000000E+00 0.  1.
        994   -1    0    0    0    0 -0.00000000000E+00 -0.00000000000E+00  0.11368683772E-12  0.17120000000E+03  0.17120000000E+03 0.  0.
         13    1    1    2    0    0  0.45224277219E+02  0.52155574110E+02  0.18398799981E+03  0.19651217366E+03  0.10566000000E+00 0.  1.
        994    1    1    2    0    0 -0.14506729059E+02  0.15994346791E+02  0.16892782624E+02  0.17338128625E+03  0.17120000000E+03 0.  0.
        998    1    1    2    0    0 -0.30717548160E+02 -0.68149920901E+02  0.12991192138E+04  0.13013065401E+04  0.10000000000E+02 0.  1.
</event>
<event>
 5    1  0.1675361E-008  0.3851864E+03  0.7957747E-01  0.3428882E+00
         13   -1    0    0    0    0  0.00000000000E+00  0.00000000000E+00  0.14999999963E+04  0.15000000000E+04  0.10566000000E+00 0. -1.
        994   -1    0    0    0    0 -0.00000000000E+00 -0.00000000000E+00  0.11368683772E-12  0.17120000000E+03  0.17120000000E+03 0.  0.
         13    1    1    2    0    0  0.12277989142E+02 -0.20200705358E+01  0.48669471295E+02  0.50235030632E+02  0.10566000000E+00 0. -1.
        994    1    1    2    0    0 -0.14256890938E+02  0.26544106689E+01  0.22291193386E+01  0.17182756999E+03  0.17120000000E+03 0.  0.
        998    1    1    2    0    0  0.19789017960E+01 -0.63434013309E+00  0.14491014056E+04  0.14491373994E+04  0.10000000000E+02 0. -1.
</event>
<event>
 5    1  0.1675361E-008  0.3854059E+03  0.7957747E-01  0.3427952E+00
         13   -1    0    0    0    0  0.00000000000E+00  0.00000000000E+00  0.14999999963E+04  0.15000000000E+04  0.10566000000E+00 0. -1.
        994   -1    0    0    0    0 -0.00000000000E+00 -0.00000000000E+00  0.11368683772E-12  0.17120000000E+03  0.17120000000E+03 0.  0.
         13    1    1    2    0    0  0.10332481607E+02 -0.56721656008E+00  0.38199024567E+02  0.39575984545E+02  0.10566000000E+00 0. -1.
        994    1    1    2    0    0 -0.33304830918E+01  0.43666101004E+01  0.15277984755E+01  0.17129487316E+03  0.17120000000E+03 0.  0.
        998    1    1    2    0    0 -0.70019985156E+01 -0.37993935403E+01  0.14602731732E+04  0.14603291423E+04  0.10000000000E+02 0. -1.
</event>
<event>
 5    1  0.1675361E-008  0.3757873E+03  0.7957747E-01  0.3469709E+00
         13   -1    0    0    0    0  0.00000000000E+00  0.00000000000E+00  0.14999999963E+04  0.15000000000E+04  0.10566000000E+00 0. -1.
        994   -1    0    0    0    0 -0.00000000000E+00 -0.00000000000E+00  0.11368683772E-12  0.17120000000E+03  0.17120000000E+03 0.  0.
         13    1    1    2    0    0 -0.19446684436E+01 -0.99815854901E+01  0.53188874175E+01  0.11476737849E+02  0.10566000000E+00 0. -1.
        994    1    1    2    0    0  0.30762799222E+01  0.91069756610E+01  0.65883057460E+01  0.17159617209E+03  0.17120000000E+03 0.  0.
        998    1    1    2    0    0 -0.11316114786E+01  0.87460982912E+00  0.14880928031E+04  0.14881270901E+04  0.10000000000E+02 0. -1.
</event>
<event>
 5    1  0.1675361E-008  0.3852393E+03  0.7957747E-01  0.3428658E+00
         13   -1    0    0    0    0  0.00000000000E+00  0.00000000000E+00  0.14999999963E+04  0.15000000000E+04  0.10566000000E+00 0.  1.
        994   -1    0    0    0    0 -0.00000000000E+00 -0.00000000000E+00  0.11368683772E-12  0.17120000000E+03  0.17120000000E+03 0.  0.
         13    1    1    2    0    0 -0.79878152147E+01 -0.15653486324E+02  0.96404867405E+02  0.97993604125E+02  0.10566000000E+00 0.  1.
        994    1    1    2    0    0  0.95857127217E+01  0.16330126010E+02  0.26905204434E+01  0.17226502200E+03  0.17120000000E+03 0.  0.
        998    1    1    2    0    0 -0.15978975071E+01 -0.67663968564E+00  0.14009046084E+04  0.14009413739E+04  0.10000000000E+02 0.  1.
</event>
<event>
 5    1  0.1675361E-008  0.3816307E+03  0.7957747E-01  0.3444089E+00
         13   -1    0    0    0    0  0.00000000000E+00  0.00000000000E+00  0.14999999963E+04  0.15000000000E+04  0.10566000000E+00 0. -1.
        994   -1    0    0    0    0 -0.00000000000E+00 -0.00000000000E+00  0.11368683772E-12  0.17120000000E+03  0.17120000000E+03 0.  0.
         13    1    1    2    0    0 -0.24754861054E+02 -0.10911806399E+02  0.11031138142E+03  0.11358029186E+03  0.10566000000E+00 0. -1.
        994    1    1    2    0    0  0.12196803965E+02  0.96305642887E+01  0.41156491643E+01  0.17195315747E+03  0.17120000000E+03 0.  0.
        998    1    1    2    0    0  0.12558057089E+02  0.12812421100E+01  0.13855729657E+04  0.13856665507E+04  0.10000000000E+02 0. -1.
</event>
<event>
 5    1  0.1675361E-008  0.3764262E+03  0.7957747E-01  0.3466869E+00
         13   -1    0    0    0    0  0.00000000000E+00  0.00000000000E+00  0.14999999963E+04  0.15000000000E+04  0.10566000000E+00 0.  1.
        994   -1    0    0    0    0 -0.00000000000E+00 -0.00000000000E+00  0.11368683772E-12  0.17120000000E+03  0.17120000000E+03 0.  0.
         13    1    1    2    0    0  0.28849657108E+02  0.72323103164E+02  0.44260099937E+03  0.44939803045E+03  0.10566000000E+00 0.  1.
        994    1    1    2    0    0 -0.29014254836E+02 -0.51293535620E+02  0.17788330997E+02  0.18193053207E+03  0.17120000000E+03 0.  0.
        998    1    1    2    0    0  0.16459772717E+00 -0.21029567544E+02  0.10396106659E+04  0.10398714375E+04  0.10000000000E+02 0.  1.
</event>
<event>
 5    1  0.1675361E-008  0.3792416E+03  0.7957747E-01  0.3454467E+00
         13   -1    0    0    0    0  0.00000000000E+00  0.00000000000E+00  0.14999999963E+04  0.15000000000E+04  0.10566000000E+00 0. -1.
        994   -1    0    0    0    0 -0.00000000000E+00 -0.00000000000E+00  0.11368683772E-12  0.17120000000E+03  0.17120000000E+03 0.  0.
         13    1    1    2    0    0  0.56501836485E+00 -0.17489877142E+02  0.31698889921E+02  0.36208366912E+02  0.10566000000E+00 0. -1.
        994    1    1    2    0    0 -0.24475503618E+01  0.15895039895E+02  0.53837134354E+01  0.17203798176E+03  0.17120000000E+03 0.  0.
        998    1    1    2    0    0  0.18825319970E+01  0.15948372472E+01  0.14629173929E+04  0.14629536513E+04  0.10000000000E+02 0. -1.
</event>
<event>
 5    1  0.1675361E-008  0.3855063E+03  0.7957747E-01  0.3427528E+00
         13   -1    0    0    0    0  0.00000000000E+00  0.00000000000E+00  0.14999999963E+04  0.15000000000E+04  0.10566000000E+00 0. -1.
        994   -1    0    0    0    0 -0.00000000000E+00 -0.00000000000E+00  0.11368683772E-12  0.17120000000E+03  0.17120000000E+03 0.  0.
         13    1    1    2    0    0 -0.47438282430E+01  0.10990864938E+02  0.52480331440E+02  0.53828425302E+02  0.10566000000E+00 0. -1.
        994    1    1    2    0    0  0.51033544252E+01 -0.56012130567E+01  0.15675374750E+01  0.17137477932E+03  0.17120000000E+03 0.  0.
        998    1    1    2    0    0 -0.35952618221E+00 -0.53896518815E+01  0.14459521274E+04  0.14459967954E+04  0.10000000000E+02 0. -1.
</event>
<event>
 5    1  0.1675361E-008  0.3816165E+03  0.7957747E-01  0.3444150E+00
         13   -1    0    0    0    0  0.00000000000E+00  0.00000000000E+00  0.14999999963E+04  0.15000000000E+04  0.10566000000E+00 0.  1.
        994   -1    0    0    0    0 -0.00000000000E+00 -0.00000000000E+00  0.11368683772E-12  0.17120000000E+03  0.17120000000E+03 0.  0.
         13    1    1    2    0    0  0.46896524008E+02  0.45341324225E+02  0.38802483663E+03  0.39346969979E+03  0.10566000000E+00 0.  1.
        994    1    1    2    0    0 -0.48100980104E+02 -0.69555841542E+02  0.27476743052E+02  0.19291482781E+03  0.17120000000E+03 0.  0.
        998    1    1    2    0    0  0.12044560967E+01  0.24214517317E+02  0.10844984166E+04  0.10848154724E+04  0.10000000000E+02 0.  1.
</event>
<event>
 5    1  0.1675361E-008  0.3837366E+03  0.7957747E-01  0.3435048E+00
         13   -1    0    0    0    0  0.00000000000E+00  0.00000000000E+00  0.14999999963E+04  0.15000000000E+04  0.10566000000E+00 0.  1.
        994   -1    0    0    0    0 -0.00000000000E+00 -0.00000000000E+00  0.11368683772E-12  0.17120000000E+03  0.17120000000E+03 0.  0.
         13    1    1    2    0    0  0.30453299300E+02  0.75565655276E+01  0.18631016679E+03  0.18893383639E+03  0.10566000000E+00 0.  1.
        994    1    1    2    0    0 -0.38666601494E+02  0.68407697740E+01  0.73670212502E+01  0.17579992948E+03  0.17120000000E+03 0.  0.
        998    1    1    2    0    0  0.82133021939E+01 -0.14397335302E+02  0.13063228082E+04  0.13064662341E+04  0.10000000000E+02 0.  1.
</event>
<event>
 5    1  0.1675361E-008  0.3780777E+03  0.7957747E-01  0.3459572E+00
         13   -1    0    0    0    0  0.00000000000E+00  0.00000000000E+00  0.14999999963E+04  0.15000000000E+04  0.10566000000E+00 0.  1.
        994   -1    0    0    0    0 -0.00000000000E+00 -0.00000000000E+00  0.11368683772E-12  0.17120000000E+03  0.17120000000E+03 0.  0.
         13    1    1    2    0    0  0.46019354617E+02  0.59744754288E+02  0.14969332538E+03  0.16761658477E+03  0.10566000000E+00 0.  1.
        994    1    1    2    0    0 -0.94864542505E+02 -0.49099369050E+02  0.57570587504E+02  0.20984242186E+03  0.17120000000E+03 0.  0.
        998    1    1    2    0    0  0.48845187887E+02 -0.10645385238E+02  0.12927360834E+04  0.12937409934E+04  0.10000000000E+02 0.  1.
</event>
<event>
 5    1  0.1675361E-008  0.3848888E+03  0.7957747E-01  0.3430144E+00
         13   -1    0    0    0    0  0.00000000000E+00  0.00000000000E+00  0.14999999963E+04  0.15000000000E+04  0.10566000000E+00 0. -1.
        994   -1    0    0    0    0 -0.00000000000E+00 -0.00000000000E+00  0.11368683772E-12  0.17120000000E+03  0.17120000000E+03 0.  0.
         13    1    1    2    0    0 -0.84132062768E-01  0.11728310470E+02  0.40590515787E+02  0.42251171351E+02  0.10566000000E+00 0. -1.
        994    1    1    2    0    0 -0.65413781436E+01 -0.82195489760E+01  0.20484585406E+01  0.17153421465E+03  0.17120000000E+03 0.  0.
        998    1    1    2    0    0  0.66255102064E+01 -0.35087614938E+01  0.14573610220E+04  0.14574146140E+04  0.10000000000E+02 0. -1.
</event>
<event>
 5    1  0.1675361E-008  0.3712846E+03  0.7957747E-01  0.3490008E+00
         13   -1    0    0    0    0  0.00000000000E+00  0.00000000000E+00  0.14999999963E+04  0.15000000000E+04  0.10566000000E+00 0.  1.
        994   -1    0    0    0    0 -0.00000000000E+00 -0.00000000000E+00  0.11368683772E-12  0.17120000000E+03  0.17120000000E+03 0.  0.
         13    1    1    2    0    0 -0.11966232791E+01 -0.52519107144E+02  0.18928399148E+03  0.19643861412E+03  0.10566000000E+00 0.  1.
        994    1    1    2    0    0  0.38091833161E+02 -0.28764231624E+01  0.13639211552E+02  0.17593956251E+03  0.17120000000E+03 0.  0.
        998    1    1    2    0    0 -0.36895209882E+02  0.55395530307E+02  0.12970767932E+04  0.12988218234E+04  0.10000000000E+02 0.  1.
</event>
<event>
 5    1  0.1675361E-008  0.3836959E+03  0.7957747E-01  0.3435222E+00
         13   -1    0    0    0    0  0.00000000000E+00  0.00000000000E+00  0.14999999963E+04  0.15000000000E+04  0.10566000000E+00 0.  1.
        994   -1    0    0    0    0 -0.00000000000E+00 -0.00000000000E+00  0.11368683772E-12  0.17120000000E+03  0.17120000000E+03 0.  0.
         13    1    1    2    0    0 -0.14339816705E+02  0.13796688061E+02  0.87555179557E+02  0.89788081480E+02  0.10566000000E+00 0.  1.
        994    1    1    2    0    0  0.56867306781E+01 -0.90978007196E+01  0.26592133281E+01  0.17155646388E+03  0.17120000000E+03 0.  0.
        998    1    1    2    0    0  0.86530860271E+01 -0.46988873415E+01  0.14097856034E+04  0.14098554546E+04  0.10000000000E+02 0.  1.
</event>
<event>
 5    1  0.1675361E-008  0.3744817E+03  0.7957747E-01  0.3475544E+00
         13   -1    0    0    0    0  0.00000000000E+00  0.00000000000E+00  0.14999999963E+04  0.15000000000E+04  0.10566000000E+00 0. -1.
        994   -1    0    0    0    0 -0.00000000000E+00 -0.00000000000E+00  0.11368683772E-12  0.17120000000E+03  0.17120000000E+03 0.  0.
         13    1    1    2    0    0  0.14287555388E+02  0.18734889293E+02  0.35465101306E+02  0.42578338278E+02  0.10566000000E+00 0. -1.
        994    1    1    2    0    0 -0.21275762692E+02 -0.24755947896E+02  0.10581958768E+02  0.17460507692E+03  0.17120000000E+03 0.  0.
        998    1    1    2    0    0  0.69882073033E+01  0.60210586027E+01  0.14539529362E+04  0.14540165848E+04  0.10000000000E+02 0. -1.
</event>
<event>
 5    1  0.1675361E-008  0.3860748E+03  0.7957747E-01  0.3425127E+00
         13   -1    0    0    0    0  0.00000000000E+00  0.00000000000E+00  0.14999999963E+04  0.15000000000E+04  0.10566000000E+00 0. -1.
        994   -1    0    0    0    0 -0.00000000000E+00 -0.00000000000E+00  0.11368683772E-12  0.17120000000E+03  0.17120000000E+03 0.  0.
         13    1    1    2    0    0 -0.77540692696E+02  0.25663430773E+02  0.14842604461E+03  0.16941508960E+03  0.10566000000E+00 0. -1.
        994    1    1    2    0    0  0.77095028673E+02 -0.20745807729E+02  0.43733767548E+02  0.19389717483E+03  0.17120000000E+03 0.  0.
        998    1    1    2    0    0  0.44566402278E+00 -0.49176230445E+01  0.13078401841E+04  0.13078877356E+04  0.10000000000E+02 0. -1.
</event>
<event>
 5    1  0.1675361E-008  0.3840249E+03  0.7957747E-01  0.3433818E+00
         13   -1    0    0    0    0  0.00000000000E+00  0.00000000000E+00  0.14999999963E+04  0.15000000000E+04  0.10566000000E+00 0. -1.
        994   -1    0    0    0    0 -0.00000000000E+00 -0.00000000000E+00  0.11368683772E-12  0.17120000000E+03  0.17120000000E+03 0.  0.
         13    1    1    2    0    0 -0.80514422875E+02  0.10605360192E+03  0.50275777652E+03  0.52009165710E+03  0.10566000000E+00 0. -1.
        994    1    1    2    0    0  0.36131391335E+02 -0.60941869284E+02  0.37259125457E+02  0.18898960633E+03  0.17120000000E+03 0.  0.
        998    1    1    2    0    0  0.44383031540E+02 -0.45111732631E+02  0.95998309430E+03  0.96211873656E+03  0.10000000000E+02 0. -1.
</event>
<event>
 5    1  0.1675361E-008  0.3772005E+03  0.7957747E-01  0.3463440E+00
         13   -1    0    0    0    0  0.00000000000E+00  0.00000000000E+00  0.14999999963E+04  0.15000000000E+04  0.10566000000E+00 0. -1.
        994   -1    0    0    0    0 -0.00000000000E+00 -0.00000000000E+00  0.11368683772E-12  0.17120000000E+03  0.17120000000E+03 0.  0.
         13    1    1    2    0    0 -0.24134359235E+02 -0.12680755862E+02  0.19356019826E+02  0.33435542952E+02  0.10566000000E+00 0. -1.
        994    1    1    2    0    0 -0.99109749743E+01  0.38143656574E+02  0.20389298732E+02  0.17685680497E+03  0.17120000000E+03 0.  0.
        998    1    1    2    0    0  0.34045334209E+02 -0.25462900711E+02  0.14602546777E+04  0.14609076521E+04  0.10000000000E+02 0. -1.
</event>
<event>
 5    1  0.1675361E-008  0.3849887E+03  0.7957747E-01  0.3429720E+00
         13   -1    0    0    0    0  0.00000000000E+00  0.00000000000E+00  0.14999999963E+04  0.15000000000E+04  0.10566000000E+00 0.  1.
        994   -1    0    0    0    0 -0.00000000000E+00 -0.00000000000E+00  0.11368683772E-12  0.17120000000E+03  0.17120000000E+03 0.  0.
         13    1    1    2    0    0 -0.11544144646E+02  0.12141659526E+02  0.81237165639E+02  0.82946822825E+02  0.10566000000E+00 0.  1.
        994    1    1    2    0    0  0.13439879853E+02 -0.13084478651E+02  0.27936915440E+01  0.17224714414E+03  0.17120000000E+03 0.  0.
        998    1    1    2    0    0 -0.18957352072E+01  0.94281912486E+00  0.14159691391E+04  0.14160060330E+04  0.10000000000E+02 0.  1.
</event>
<event>
 5    1  0.1675361E-008  0.3813139E+03  0.7957747E-01  0.3445457E+00
         13   -1    0    0    0    0  0.00000000000E+00  0.00000000000E+00  0.14999999963E+04  0.15000000000E+04  0.10566000000E+00 0.  1.
        994   -1    0    0    0    0 -0.00000000000E+00 -0.00000000000E+00  0.11368683772E-12  0.17120000000E+03  0.17120000000E+03 0.  0.
         13    1    1    2    0    0 -0.33647067249E+02 -0.21248907536E+02  0.21007614660E+03  0.21381215995E+03  0.10566000000E+00 0.  1.
        994    1    1    2    0    0  0.34786007374E+02  0.62489174468E+01  0.76401701672E+01  0.17497693413E+03  0.17120000000E+03 0.  0.
        998    1    1    2    0    0 -0.11389401253E+01  0.14999990089E+02  0.12822836795E+04  0.12824109059E+04  0.10000000000E+02 0.  1.
</event>
<event>
 5    1  0.1675361E-008  0.3843319E+03  0.7957747E-01  0.3432511E+00
         13   -1    0    0    0    0  0.00000000000E+00  0.00000000000E+00  0.14999999963E+04  0.15000000000E+04  0.10566000000E+00 0. -1.
        994   -1    0    0    0    0 -0.00000000000E+00 -0.00000000000E+00  0.11368683772E-12  0.17120000000E+03  0.17120000000E+03 0.  0.
         13    1    1    2    0    0 -0.11284506622E+02 -0.11947870117E+02  0.77776164023E+02  0.79493613229E+02  0.10566000000E+00 0. -1.
        994    1    1    2    0    0 -0.28796293464E+01 -0.93816696862E+01  0.22796725062E+01  0.17149619500E+03  0.17120000000E+03 0.  0.
        998    1    1    2    0    0  0.14164135968E+02  0.21329539803E+02  0.14199441597E+04  0.14202101918E+04  0.10000000000E+02 0. -1.
</event>
<event>
 5    1  0.1675361E-008  0.3768623E+03  0.7957747E-01  0.3464936E+00
         13   -1    0    0    0    0  0.00000000000E+00  0.00000000000E+00  0.14999999963E+04  0.15000000000E+04  0.10566000000E+00 0. -1.
        994   -1    0    0    0    0 -0.00000000000E+00 -0.00000000000E+00  0.11368683772E-12  0.17120000000E+03  0.17120000000E+03 0.  0.
         13    1    1    2    0    0  0.84418324395E+01 -0.51599002672E+02  0.30930282965E+03  0.31369088799E+03  0.10566000000E+00 0. -1.
        994    1    1    2    0    0 -0.81742868207E+01 -0.22788603768E+01  0.59687896144E+01  0.17151407703E+03  0.17120000000E+03 0.  0.
        998    1    1    2    0    0 -0.26754561874E+00  0.53877863048E+02  0.11847283770E+04  0.11859950350E+04  0.10000000000E+02 0. -1.
</event>
<event>
 5    1  0.1675361E-008  0.3699622E+03  0.7957747E-01  0.3496065E+00
         13   -1    0    0    0    0  0.00000000000E+00  0.00000000000E+00  0.14999999963E+04  0.15000000000E+04  0.10566000000E+00 0. -1.
        994   -1    0    0    0    0 -0.00000000000E+00 -0.00000000000E+00  0.11368683772E-12  0.17120000000E+03  0.17120000000E+03 0.  0.
         13    1    1    2    0    0 -0.19319613917E+02 -0.23379857608E+01  0.16220250316E+02  0.25334193172E+02  0.10566000000E+00 0. -1.
        994    1    1    2    0    0  0.17839294702E+02  0.39558272569E+00  0.10390617909E+02  0.17244071985E+03  0.17120000000E+03 0.  0.
        998    1    1    2    0    0  0.14803192149E+01  0.19424030351E+01  0.14733891281E+04  0.14734250870E+04  0.10000000000E+02 0. -1.
</event>
<event>
 5    1  0.1823092E-008  0.3856442E+03  0.7957747E-01  0.3426945E+00
         13   -1    0    0    0    0  0.00000000000E+00  0.00000000000E+00  0.14999999963E+04  0.15000000000E+04  0.10566000000E+00 0.  1.
        994   -1    0    0    0    0 -0.00000000000E+00 -0.00000000000E+00  0.11368683772E-12  0.17120000000E+03  0.17120000000E+03 0.  0.
         13    1    1    2    0    0 -0.59095798862E+00  0.10792683472E+02  0.45081332561E+02  0.46359130248E+02  0.10566000000E+00 0.  1.
        994    1    1    2    0    0  0.20225747168E+01 -0.62310775656E+01  0.14515018912E+01  0.17133144485E+03  0.17120000000E+03 0.  0.
        998    1    1    2    0    0 -0.14316167281E+01 -0.45616059062E+01  0.14534671618E+04  0.14535094249E+04  0.10000000000E+02 0.  1.
</event>
<event>
 5    1  0.1675361E-008  0.3843791E+03  0.7957747E-01  0.3432310E+00
         13   -1    0    0    0    0  0.00000000000E+00  0.00000000000E+00  0.14999999963E+04  0.15000000000E+04  0.10566000000E+00 0.  1.
        994   -1    0    0    0    0 -0.00000000000E+00 -0.00000000000E+00  0.11368683772E-12  0.17120000000E+03  0.17120000000E+03 0.  0.
         13    1    1    2    0    0  0.10004826438E+02 -0.29571597411E+01  0.27543557050E+02  0.29453353711E+02  0.10566000000E+00 0.  1.
        994    1    1    2    0    0 -0.68277469259E+01  0.33607862502E+01  0.21295728224E+01  0.17138228640E+03  0.17120000000E+03 0.  0.
        998    1    1    2    0    0 -0.31770795123E+01 -0.40362650910E+00  0.14703268664E+04  0.14703643599E+04  0.10000000000E+02 0.  1.
</event>
<event>
 5    1  0.1675361E-008  0.3791254E+03  0.7957747E-01  0.3454976E+00
         13   -1    0    0    0    0  0.00000000000E+00  0.00000000000E+00  0.14999999963E+04  0.15000000000E+04  0.10566000000E+00 0.  1.
        994   -1    0    0    0    0 -0.00000000000E+00 -0.00000000000E+00  0.11368683772E-12  0.17120000000E+03  0.17120000000E+03 0.  0.
         13    1    1    2    0    0 -0.63331050985E+00 -0.18986090161E+02  0.38770893469E+02  0.43174831166E+02  0.10566000000E+00 0.  1.
        994    1    1    2    0    0  0.83617540387E-01  0.36763725627E+01  0.46206344026E+01  0.17130181835E+03  0.17120000000E+03 0.  0.
        998    1    1    2    0    0  0.54969296946E+00  0.15309717598E+02  0.14566084684E+04  0.14567233505E+04  0.10000000000E+02 0.  1.
</event>
<event>
 5    1  0.1675361E-008  0.3816342E+03  0.7957747E-01  0.3444073E+00
         13   -1    0    0    0    0  0.00000000000E+00  0.00000000000E+00  0.14999999963E+04  0.15000000000E+04  0.10566000000E+00 0.  1.
        994   -1    0    0    0    0 -0.00000000000E+00 -0.00000000000E+00  0.11368683772E-12  0.17120000000E+03  0.17120000000E+03 0.  0.
         13    1    1    2    0    0 -0.20062863198E+02  0.13016193242E+02  0.88788885427E+02  0.91953342003E+02  0.10566000000E+00 0.  1.
        994    1    1    2    0    0  0.13846588098E+02  0.74674222699E+01  0.41337823228E+01  0.17197098172E+03  0.17120000000E+03 0.  0.
        998    1    1    2    0    0  0.62162750999E+01 -0.20483615512E+02  0.14070773285E+04  0.14072756763E+04  0.10000000000E+02 0.  1.
</event>
<event>
 5    1  0.1675361E-008  0.3777213E+03  0.7957747E-01  0.3461141E+00
         13   -1    0    0    0    0  0.00000000000E+00  0.00000000000E+00  0.14999999963E+04  0.15000000000E+04  0.10566000000E+00 0. -1.
        994   -1    0    0    0    0 -0.00000000000E+00 -0.00000000000E+00  0.11368683772E-12  0.17120000000E+03  0.17120000000E+03 0.  0.
         13    1    1    2    0    0 -0.21931810970E+02  0.21968808962E+02  0.85535610051E+02  0.90994420985E+02  0.10566000000E+00 0. -1.
        994    1    1    2    0    0  0.17503376241E+02 -0.23441848074E+02  0.81761331241E+01  0.17387402789E+03  0.17120000000E+03 0.  0.
        998    1    1    2    0    0  0.44284347289E+01  0.14730391120E+01  0.14062882531E+04  0.14063315511E+04  0.10000000000E+02 0. -1.
</event>
<event>
 5    1  0.1675361E-008  0.3854343E+03  0.7957747E-01  0.3427832E+00
         13   -1    0    0    0    0  0.00000000000E+00  0.00000000000E+00  0.14999999963E+04  0.15000000000E+04  0.10566000000E+00 0.  1.
        994   -1    0    0    0    0 -0.00000000000E+00 -0.00000000000E+00  0.11368683772E-12  0.17120000000E+03  0.17120000000E+03 0.  0.
         13    1    1    2    0    0 -0.12095537496E+02  0.47984276721E+01  0.74852124084E+02  0.75974854915E+02  0.10566000000E+00 0.  1.
        994    1    1    2    0    0 -0.24816594451E+02 -0.88989517189E+01  0.37005684418E+01  0.17325757966E+03  0.17120000000E+03 0.  0.
        998    1    1    2    0    0  0.36912131947E+02  0.41005240468E+01  0.14214473038E+04  0.14219675654E+04  0.10000000000E+02 0.  1.
</event>
<event>
 5    1  0.1675361E-008  0.3691810E+03  0.7957747E-01  0.3499663E+00
         13   -1    0    0    0    0  0.00000000000E+00  0.00000000000E+00  0.14999999963E+04  0.15000000000E+04  0.10566000000E+00 0. -1.
        994   -1    0    0    0    0 -0.00000000000E+00 -0.00000000000E+00  0.11368683772E-12  0.17120000000E+03  0.17120000000E+03 0.  0.
         13    1    1    2    0    0 -0.31641290441E+02  0.81082140723E+02  0.47768946201E+03  0.48555403210E+03  0.10566000000E+00 0. -1.
        994    1    1    2    0    0  0.75263965296E+01 -0.15974904832E+02  0.11594233418E+02  0.17249843616E+03  0.17120000000E+03 0.  0.
        998    1    1    2    0    0  0.24114893911E+02 -0.65107235891E+02  0.10107163008E+04  0.10131475317E+04  0.10000000000E+02 0. -1.
</event>
<event>
 5    1  0.1675361E-008  0.3827397E+03  0.7957747E-01  0.3439315E+00
         13   -1    0    0    0    0  0.00000000000E+00  0.00000000000E+00  0.14999999963E+04  0.15000000000E+04  0.10566000000E+00 0. -1.
        994   -1    0    0    0    0 -0.00000000000E+00 -0.00000000000E+00  0.11368683772E-12  0.17120000000E+03  0.17120000000E+03 0.  0.
         13    1    1    2    0    0 -0.99995954820E+01 -0.18718003544E+01  0.17928823807E+02  0.20614301674E+02  0.10566000000E+00 0. -1.
        994    1    1    2    0    0  0.36908057420E+01 -0.40110261601E+01  0.28549662518E+01  0.17131054028E+03  0.17120000000E+03 0.  0.
        998    1    1    2    0    0  0.63087897400E+01  0.58828265145E+01  0.14792162062E+04  0.14792751580E+04  0.10000000000E+02 0. -1.
</event>
<event>
 5    1  0.1675361E-008  0.3807498E+03  0.7957747E-01  0.3447900E+00
         13   -1    0    0    0    0  0.00000000000E+00  0.00000000000E+00  0.14999999963E+04  0.15000000000E+04  0.10566000000E+00 0.  1.
        994   -1    0    0    0    0 -0.00000000000E+00 -0.00000000000E+00  0.11368683772E-12  0.17120000000E+03  0.17120000000E+03 0.  0.
         13    1    1    2    0    0  0.11607995341E+02 -0.99425120396E+01  0.29231123362E+02  0.32985888476E+02  0.10566000000E+00 0.  1.
        994    1    1    2    0    0 -0.98243028627E+01  0.11300480243E+02  0.45031579944E+01  0.17191258305E+03  0.17120000000E+03 0.  0.
        998    1    1    2    0    0 -0.17836924787E+01 -0.13579682036E+01  0.14662657149E+04  0.14663015285E+04  0.10000000000E+02 0.  1.
</event>
<event>
 5    1  0.1675361E-008  0.3996550E+03  0.7957747E-01  0.3369801E+00
         13   -1    0    0    0    0  0.00000000000E+00  0.00000000000E+00  0.14999999963E+04  0.15000000000E+04  0.10566000000E+00 0. -1.
        994   -1    0    0    0    0 -0.00000000000E+00 -0.00000000000E+00  0.11368683772E-12  0.17120000000E+03  0.17120000000E+03 0.  0.
         13    1    1    2    0    0 -0.47667138909E+02 -0.37921108043E+02  0.58157862827E+02  0.84217069170E+02  0.10566000000E+00 0. -1.
        994    1    1    2    0    0  0.31749086650E+02  0.32361744516E+02  0.35649046114E+02  0.18065320783E+03  0.17120000000E+03 0.  0.
        998    1    1    2    0    0  0.15918052259E+02  0.55593635271E+01  0.14061930873E+04  0.14063297230E+04  0.10000000000E+02 0. -1.
</event>
<event>
 5    1  0.1675361E-008  0.3816527E+03  0.7957747E-01  0.3443994E+00
         13   -1    0    0    0    0  0.00000000000E+00  0.00000000000E+00  0.14999999963E+04  0.15000000000E+04  0.10566000000E+00 0.  1.
        994   -1    0    0    0    0 -0.00000000000E+00 -0.00000000000E+00  0.11368683772E-12  0.17120000000E+03  0.17120000000E+03 0.  0.
         13    1    1    2    0    0 -0.36187068797E+02 -0.10212445473E+02  0.19611469647E+03  0.19968671295E+03  0.10566000000E+00 0.  1.
        994    1    1    2    0    0  0.31013696283E+02  0.84517166251E+01  0.67441998146E+01  0.17432213027E+03  0.17120000000E+03 0.  0.
        998    1    1    2    0    0  0.51733725144E+01  0.17607288480E+01  0.12971411000E+04  0.12971911568E+04  0.10000000000E+02 0.  1.
</event>
<event>
 5    1  0.1675361E-008  0.3864348E+03  0.7957747E-01  0.3423610E+00
         13   -1    0    0    0    0  0.00000000000E+00  0.00000000000E+00  0.14999999963E+04  0.15000000000E+04  0.10566000000E+00 0.  1.
        994   -1    0    0    0    0 -0.00000000000E+00 -0.00000000000E+00  0.11368683772E-12  0.17120000000E+03  0.17120000000E+03 0.  0.
         13    1    1    2    0    0  0.11630705803E+02  0.58397942918E+01  0.78468996650E+02  0.79541002722E+02  0.10566000000E+00 0.  1.
        994    1    1    2    0    0 -0.19699485500E+02 -0.25709578116E+02  0.43609872327E+01  0.17429145230E+03  0.17120000000E+03 0.  0.
        998    1    1    2    0    0  0.80687796969E+01  0.19869783824E+02  0.14171700124E+04  0.14173675450E+04  0.10000000000E+02 0.  1.
</event>
<event>
 5    1  0.1675361E-008  0.3778401E+03  0.7957747E-01  0.3460617E+00
         13   -1    0    0    0    0  0.00000000000E+00  0.00000000000E+00  0.14999999963E+04  0.15000000000E+04  0.10566000000E+00 0.  1.
        994   -1    0    0    0    0 -0.00000000000E+00 -0.00000000000E+00  0.11368683772E-12  0.17120000000E+03  0.17120000000E+03 0.  0.
         13    1    1    2    0    0 -0.16314256147E+02 -0.97683539259E+01  0.33864242540E+02  0.38837788028E+02  0.10566000000E+00 0.  1.
        994    1    1    2    0    0  0.14199203339E+01 -0.47948588558E+01  0.53116422588E+01  0.17135536288E+03  0.17120000000E+03 0.  0.
        998    1    1    2    0    0  0.14894335813E+02  0.14563212782E+02  0.14608241115E+04  0.14610068491E+04  0.10000000000E+02 0.  1.
</event>
<event>
 5    1  0.1675361E-008  0.3845713E+03  0.7957747E-01  0.3431492E+00
         13   -1    0    0    0    0  0.00000000000E+00  0.00000000000E+00  0.14999999963E+04  0.15000000000E+04  0.10566000000E+00 0. -1.
        994   -1    0    0    0    0 -0.00000000000E+00 -0.00000000000E+00  0.11368683772E-12  0.17120000000E+03  0.17120000000E+03 0.  0.
         13    1    1    2    0    0 -0.13882616440E+02  0.35350952306E+01  0.54176625264E+02  0.56038752899E+02  0.10566000000E+00 0. -1.
        994    1    1    2    0    0  0.12514814425E+02 -0.65656475503E+01  0.25011308501E+01  0.17180053540E+03  0.17120000000E+03 0.  0.
        998    1    1    2    0    0  0.13678020150E+01  0.30305523197E+01  0.14433222402E+04  0.14433607117E+04  0.10000000000E+02 0. -1.
</event>
<event>
 5    1  0.1675361E-008  0.3805800E+03  0.7957747E-01  0.3448637E+00
         13   -1    0    0    0    0  0.00000000000E+00  0.00000000000E+00  0.14999999963E+04  0.15000000000E+04  0.10566000000E+00 0. -1.
        994   -1    0    0    0    0 -0.00000000000E+00 -0.00000000000E+00  0.11368683772E-12  0.17120000000E+03  0.17120000000E+03 0.  0.
         13    1    1    2    0    0 -0.50172717905E+01 -0.50780485798E+02  0.70102315109E+02  0.86707418955E+02  0.10566000000E+00 0. -1.
        994    1    1    2    0    0  0.36574533520E+00  0.46688705532E+02  0.24604527658E+02  0.17915019334E+03  0.17120000000E+03 0.  0.
        998    1    1    2    0    0  0.46515264553E+01  0.40917802666E+01  0.14052931535E+04  0.14053423877E+04  0.10000000000E+02 0. -1.
</event>
<event>
 5    1  0.1675361E-008  0.3717828E+03  0.7957747E-01  0.3487737E+00
         13   -1    0    0    0    0  0.00000000000E+00  0.00000000000E+00  0.14999999963E+04  0.15000000000E+04  0.10566000000E+00 0. -1.
        994   -1    0    0    0    0 -0.00000000000E+00 -0.00000000000E+00  0.11368683772E-12  0.17120000000E+03  0.17120000000E+03 0.  0.
         13    1    1    2    0    0 -0.19007941006E+03 -0.16333586350E+03  0.11648599071E+04  0.11915147505E+04  0.10566000000E+00 0. -1.
        994    1    1    2    0    0  0.16944074692E+03  0.15136795516E+03  0.21446412364E+03  0.35626777134E+03  0.17120000000E+03 0.  0.
        998    1    1    2    0    0  0.20638663139E+02  0.11967908337E+02  0.12067596555E+03  0.12341747813E+03  0.10000000000E+02 0.  0.
</event>
<event>
 5    1  0.1675361E-008  0.3705863E+03  0.7957747E-01  0.3493201E+00
         13   -1    0    0    0    0  0.00000000000E+00  0.00000000000E+00  0.14999999963E+04  0.15000000000E+04  0.10566000000E+00 0. -1.
        994   -1    0    0    0    0 -0.00000000000E+00 -0.00000000000E+00  0.11368683772E-12  0.17120000000E+03  0.17120000000E+03 0.  0.
         13    1    1    2    0    0 -0.79900522643E+02 -0.13323834236E+03  0.51032863194E+03  0.53345278436E+03  0.10566000000E+00 0. -1.
        994    1    1    2    0    0  0.86217680214E+02  0.15788795192E+03  0.13504042375E+03  0.28267905793E+03  0.17120000000E+03 0.  0.
        998    1    1    2    0    0 -0.63171575711E+01 -0.24649609560E+02  0.85463094059E+03  0.85506815771E+03  0.10000000000E+02 0. -1.
</event>
<event>
 5    1  0.1675361E-008  0.3860216E+03  0.7957747E-01  0.3425351E+00
         13   -1    0    0    0    0  0.00000000000E+00  0.00000000000E+00  0.14999999963E+04  0.15000000000E+04  0.10566000000E+00 0. -1.
        994   -1    0    0    0    0 -0.00000000000E+00 -0.00000000000E+00  0.11368683772E-12  0.17120000000E+03  0.17120000000E+03 0.  0.
         13    1    1    2    0    0 -0.42420465793E+01  0.11112024989E+02  0.63454300527E+02  0.64559518879E+02  0.10566000000E+00 0. -1.
        994    1    1    2    0    0 -0.45686291472E+01 -0.10912663609E+02  0.15826889749E+01  0.17161556894E+03  0.17120000000E+03 0.  0.
        998    1    1    2    0    0  0.88106757265E+01 -0.19936138055E+00  0.14349630068E+04  0.14350249122E+04  0.10000000000E+02 0. -1.
</event>
<event>
 5    1  0.1675361E-008  0.3710701E+03  0.7957747E-01  0.3490987E+00
         13   -1    0    0    0    0  0.00000000000E+00  0.00000000000E+00  0.14999999963E+04  0.15000000000E+04  0.10566000000E+00 0. -1.
        994   -1    0    0    0    0 -0.00000000000E+00 -0.00000000000E+00  0.11368683772E-12  0.17120000000E+03  0.17120000000E+03 0.  0.
         13    1    1    2    0    0  0.28215774691E+02 -0.68996353961E+01  0.31499474095E+02  0.42848138143E+02  0.10566000000E+00 0. -1.
        994    1    1    2    0    0 -0.27463708716E+02  0.17539541893E+01  0.14167914486E+02  0.17397557717E+03  0.17120000000E+03 0.  0.
        998    1    1    2    0    0 -0.75206597506E+00  0.51456812068E+01  0.14543326077E+04  0.14543762847E+04  0.10000000000E+02 0. -1.
</event>
<event>
 5    1  0.1675361E-008  0.3830024E+03  0.7957747E-01  0.3438189E+00
         13   -1    0    0    0    0  0.00000000000E+00  0.00000000000E+00  0.14999999963E+04  0.15000000000E+04  0.10566000000E+00 0. -1.
        994   -1    0    0    0    0 -0.00000000000E+00 -0.00000000000E+00  0.11368683772E-12  0.17120000000E+03  0.17120000000E+03 0.  0.
         13    1    1    2    0    0 -0.11801772880E+02 -0.91512119653E+01  0.44521872419E+02  0.46959927718E+02  0.10566000000E+00 0. -1.
        994    1    1    2    0    0 -0.49210162612E+01 -0.24926534592E+01  0.27259077361E+01  0.17131053761E+03  0.17120000000E+03 0.  0.
        998    1    1    2    0    0  0.16722789141E+02  0.11643865425E+02  0.14527522161E+04  0.14529295347E+04  0.10000000000E+02 0. -1.
</event>
<event>
 5    1  0.1675361E-008  0.3849008E+03  0.7957747E-01  0.3430093E+00
         13   -1    0    0    0    0  0.00000000000E+00  0.00000000000E+00  0.14999999963E+04  0.15000000000E+04  0.10566000000E+00 0. -1.
        994   -1    0    0    0    0 -0.00000000000E+00 -0.00000000000E+00  0.11368683772E-12  0.17120000000E+03  0.17120000000E+03 0.  0.
         13    1    1    2    0    0 -0.16720473251E+01  0.14679115071E+02  0.64143066726E+02  0.65822612639E+02  0.10566000000E+00 0. -1.
        994    1    1    2    0    0  0.17998666567E+01 -0.11613224565E+02  0.21338404783E+01  0.17161614079E+03  0.17120000000E+03 0.  0.
        998    1    1    2    0    0 -0.12781933168E+00 -0.30658905054E+01  0.14337230891E+04  0.14337612466E+04  0.10000000000E+02 0.  0.
</event>
<event>
 5    1  0.1675361E-008  0.3150039E+03  0.7957747E-01  0.3794404E+00
         13   -1    0    0    0    0  0.00000000000E+00  0.00000000000E+00  0.14999999963E+04  0.15000000000E+04  0.10566000000E+00 0. -1.
        994   -1    0    0    0    0 -0.00000000000E+00 -0.00000000000E+00  0.11368683772E-12  0.17120000000E+03  0.17120000000E+03 0.  0.
         13    1    1    2    0    0 -0.18441029764E+02  0.15814338993E+03  0.93224676662E+03  0.94574491720E+03  0.10566000000E+00 0. -1.
        994    1    1    2    0    0  0.73455895732E+02 -0.72789825722E+02  0.61834936597E+02  0.20934929360E+03  0.17120000000E+03 0.  0.
        998    1    1    2    0    0 -0.55014865969E+02 -0.85353564209E+02  0.50591829306E+03  0.51610578921E+03  0.10000000000E+02 0.  1.
</event>
<event>
 5    1  0.1675361E-008  0.3684667E+03  0.7957747E-01  0.3502967E+00
         13   -1    0    0    0    0  0.00000000000E+00  0.00000000000E+00  0.14999999963E+04  0.15000000000E+04  0.10566000000E+00 0.  1.
        994   -1    0    0    0    0 -0.00000000000E+00 -0.00000000000E+00  0.11368683772E-12  0.17120000000E+03  0.17120000000E+03 0.  0.
         13    1    1    2    0    0 -0.43528975460E+02  0.71712370966E+01  0.99033392626E+02  0.10841504677E+03  0.10566000000E+00 0.  1.
        994    1    1    2    0    0  0.11539504220E+02  0.38845814248E+01  0.10588215856E+02  0.17195871727E+03  0.17120000000E+03 0.  0.
        998    1    1    2    0    0  0.31989471240E+02 -0.11055818521E+02  0.13903783878E+04  0.13908262360E+04  0.10000000000E+02 0.  1.
</event>
<event>
 5    1  0.1675361E-008  0.3822006E+03  0.7957747E-01  0.3441632E+00
         13   -1    0    0    0    0  0.00000000000E+00  0.00000000000E+00  0.14999999963E+04  0.15000000000E+04  0.10566000000E+00 0.  1.
        994   -1    0    0    0    0 -0.00000000000E+00 -0.00000000000E+00  0.11368683772E-12  0.17120000000E+03  0.17120000000E+03 0.  0.
         13    1    1    2    0    0  0.12482088985E+02  0.26348085535E+01  0.25519300201E+02  0.28530520646E+02  0.10566000000E+00 0.  1.
        994    1    1    2    0    0 -0.11844172343E+02 -0.19685690961E+00  0.34922281438E+01  0.17164486252E+03  0.17120000000E+03 0.  0.
        998    1    1    2    0    0 -0.63791664224E+00 -0.24379516439E+01  0.14709884679E+04  0.14710246168E+04  0.10000000000E+02 0.  1.
</event>
<event>
 5    1  0.1675361E-008  0.3771669E+03  0.7957747E-01  0.3463588E+00
         13   -1    0    0    0    0  0.00000000000E+00  0.00000000000E+00  0.14999999963E+04  0.15000000000E+04  0.10566000000E+00 0.  1.
        994   -1    0    0    0    0 -0.00000000000E+00 -0.00000000000E+00  0.11368683772E-12  0.17120000000E+03  0.17120000000E+03 0.  0.
         13    1    1    2    0    0 -0.50755505934E+02 -0.46124087770E+02  0.28385570392E+03  0.29202332897E+03  0.10566000000E+00 0.  1.
        994    1    1    2    0    0  0.64281557470E+02  0.65460029149E+02  0.34523029859E+02  0.19727750413E+03  0.17120000000E+03 0.  0.
        998    1    1    2    0    0 -0.13526051536E+02 -0.19335941379E+02  0.11816212625E+04  0.11818991669E+04  0.10000000000E+02 0.  1.
</event>
<event>
 5    1  0.1675361E-008  0.3859427E+03  0.7957747E-01  0.3425684E+00
         13   -1    0    0    0    0  0.00000000000E+00  0.00000000000E+00  0.14999999963E+04  0.15000000000E+04  0.10566000000E+00 0.  1.
        994   -1    0    0    0    0 -0.00000000000E+00 -0.00000000000E+00  0.11368683772E-12  0.17120000000E+03  0.17120000000E+03 0.  0.
         13    1    1    2    0    0  0.74118708468E+01  0.90941461787E+01  0.60616215336E+02  0.61741202206E+02  0.10566000000E+00 0.  1.
        994    1    1    2    0    0 -0.66323638986E+01 -0.23908290804E+01  0.13258182510E+01  0.17135023230E+03  0.17120000000E+03 0.  0.
        998    1    1    2    0    0 -0.77950694819E+00 -0.67033170983E+01  0.14380579627E+04  0.14381085655E+04  0.10000000000E+02 0.  1.
</event>
<event>
 5    1  0.1675361E-008  0.3839907E+03  0.7957747E-01  0.3433964E+00
         13   -1    0    0    0    0  0.00000000000E+00  0.00000000000E+00  0.14999999963E+04  0.15000000000E+04  0.10566000000E+00 0.  1.
        994   -1    0    0    0    0 -0.00000000000E+00 -0.00000000000E+00  0.11368683772E-12  0.17120000000E+03  0.17120000000E+03 0.  0.
         13    1    1    2    0    0  0.12217076599E+02 -0.38740688780E+01  0.39494698122E+02  0.41522376065E+02  0.10566000000E+00 0.  1.
        994    1    1    2    0    0 -0.19246758815E+01 -0.61781070155E+01  0.22702186843E+01  0.17133729097E+03  0.17120000000E+03 0.  0.
        998    1    1    2    0    0 -0.10292400718E+02  0.10052175894E+02  0.14582350795E+04  0.14583403330E+04  0.10000000000E+02 0.  1.
</event>
<event>
 5    1  0.1675361E-008  0.3833281E+03  0.7957747E-01  0.3436794E+00
         13   -1    0    0    0    0  0.00000000000E+00  0.00000000000E+00  0.14999999963E+04  0.15000000000E+04  0.10566000000E+00 0. -1.
        994   -1    0    0    0    0 -0.00000000000E+00 -0.00000000000E+00  0.11368683772E-12  0.17120000000E+03  0.17120000000E+03 0.  0.
         13    1    1    2    0    0 -0.98024623511E+01  0.11482413918E+02  0.48986457412E+02  0.51260299173E+02  0.10566000000E+00 0. -1.
        994    1    1    2    0    0 -0.66658101847E+01  0.15529043328E+01  0.26173752404E+01  0.17135674831E+03  0.17120000000E+03 0.  0.
        998    1    1    2    0    0  0.16468272536E+02 -0.13035318251E+02  0.14483961636E+04  0.14485829525E+04  0.10000000000E+02 0. -1.
</event>
<event>
 5    1  0.1675361E-008  0.3727986E+03  0.7957747E-01  0.3483127E+00
         13   -1    0    0    0    0  0.00000000000E+00  0.00000000000E+00  0.14999999963E+04  0.15000000000E+04  0.10566000000E+00 0. -1.
        994   -1    0    0    0    0 -0.00000000000E+00 -0.00000000000E+00  0.11368683772E-12  0.17120000000E+03  0.17120000000E+03 0.  0.
         13    1    1    2    0    0 -0.11360087340E+02  0.29871216237E+02  0.66544512666E+02  0.73820894562E+02  0.10566000000E+00 0. -1.
        994    1    1    2    0    0 -0.13548408118E+02 -0.67943171593E+01  0.86006657392E+01  0.17208466974E+03  0.17120000000E+03 0.  0.
        998    1    1    2    0    0  0.24908495458E+02 -0.23076899078E+02  0.14248548179E+04  0.14252944357E+04  0.10000000000E+02 0. -1.
</event>
<event>
 5    1  0.1675361E-008  0.3858013E+03  0.7957747E-01  0.3426281E+00
         13   -1    0    0    0    0  0.00000000000E+00  0.00000000000E+00  0.14999999963E+04  0.15000000000E+04  0.10566000000E+00 0. -1.
        994   -1    0    0    0    0 -0.00000000000E+00 -0.00000000000E+00  0.11368683772E-12  0.17120000000E+03  0.17120000000E+03 0.  0.
         13    1    1    2    0    0  0.73757296453E+01  0.11470660133E+02  0.74192168518E+02  0.75435180553E+02  0.10566000000E+00 0. -1.
        994    1    1    2    0    0 -0.10969695882E+02 -0.75539527062E+01  0.18149486033E+01  0.17172690665E+03  0.17120000000E+03 0.  0.
        998    1    1    2    0    0  0.35939662365E+01 -0.39167074271E+01  0.14239928792E+04  0.14240379128E+04  0.10000000000E+02 0. -1.
</event>
<event>
 5    1  0.1675361E-008  0.3853865E+03  0.7957747E-01  0.3428034E+00
         13   -1    0    0    0    0  0.00000000000E+00  0.00000000000E+00  0.14999999963E+04  0.15000000000E+04  0.10566000000E+00 0.  1.
        994   -1    0    0    0    0 -0.00000000000E+00 -0.00000000000E+00  0.11368683772E-12  0.17120000000E+03  0.17120000000E+03 0.  0.
         13    1    1    2    0    0 -0.10544546393E+02 -0.44221888823E+01  0.46177574698E+02  0.47572290066E+02  0.10566000000E+00 0.  1.
        994    1    1    2    0    0  0.15078894755E+01  0.10432539578E+02  0.18033849989E+01  0.17153368127E+03  0.17120000000E+03 0.  0.
        998    1    1    2    0    0  0.90366569171E+01 -0.60103506958E+01  0.14520190366E+04  0.14520940287E+04  0.10000000000E+02 0.  1.
</event>
<event>
 5    1  0.1675361E-008  0.3847280E+03  0.7957747E-01  0.3430827E+00
         13   -1    0    0    0    0  0.00000000000E+00  0.00000000000E+00  0.14999999963E+04  0.15000000000E+04  0.10566000000E+00 0.  1.
        994   -1    0    0    0    0 -0.00000000000E+00 -0.00000000000E+00  0.11368683772E-12  0.17120000000E+03  0.17120000000E+03 0.  0.
         13    1    1    2    0    0 -0.19884250930E+02  0.10324276672E+01  0.10766356265E+03  0.10948928363E+03  0.10566000000E+00 0.  1.
        994    1    1    2    0    0  0.18830348945E+02  0.12923107925E+02  0.34839775507E+01  0.17275174922E+03  0.17120000000E+03 0.  0.
        998    1    1    2    0    0  0.10539019849E+01 -0.13955535592E+02  0.13888524561E+04  0.13889589672E+04  0.10000000000E+02 0.  1.
</event>
<event>
 5    1  0.1675361E-008  0.3835979E+03  0.7957747E-01  0.3435640E+00
         13   -1    0    0    0    0  0.00000000000E+00  0.00000000000E+00  0.14999999963E+04  0.15000000000E+04  0.10566000000E+00 0.  1.
        994   -1    0    0    0    0 -0.00000000000E+00 -0.00000000000E+00  0.11368683772E-12  0.17120000000E+03  0.17120000000E+03 0.  0.
         13    1    1    2    0    0 -0.64745054312E+01 -0.90394924131E+01  0.25460219725E+02  0.27782469223E+02  0.10566000000E+00 0.  1.
        994    1    1    2    0    0  0.95321680485E+01  0.72347942301E+01  0.28010868911E+01  0.17164058542E+03  0.17120000000E+03 0.  0.
        998    1    1    2    0    0 -0.30576626174E+01  0.18046981830E+01  0.14717386897E+04  0.14717769454E+04  0.10000000000E+02 0.  1.
</event>
<event>
 5    1  0.1675361E-008  0.3826697E+03  0.7957747E-01  0.3439616E+00
         13   -1    0    0    0    0  0.00000000000E+00  0.00000000000E+00  0.14999999963E+04  0.15000000000E+04  0.10566000000E+00 0. -1.
        994   -1    0    0    0    0 -0.00000000000E+00 -0.00000000000E+00  0.11368683772E-12  0.17120000000E+03  0.17120000000E+03 0.  0.
         13    1    1    2    0    0 -0.26876257572E+02  0.13654640696E+02  0.14162234647E+03  0.14479531283E+03  0.10566000000E+00 0. -1.
        994    1    1    2    0    0  0.26362548659E+02 -0.29637766346E+02  0.80227954714E+01  0.17591812417E+03  0.17120000000E+03 0.  0.
        998    1    1    2    0    0  0.51370891223E+00  0.15983125650E+02  0.13503548543E+04  0.13504865630E+04  0.10000000000E+02 0. -1.
</event>
<event>
 5    1  0.1675361E-008  0.3804988E+03  0.7957747E-01  0.3448990E+00
         13   -1    0    0    0    0  0.00000000000E+00  0.00000000000E+00  0.14999999963E+04  0.15000000000E+04  0.10566000000E+00 0.  1.
        994   -1    0    0    0    0 -0.00000000000E+00 -0.00000000000E+00  0.11368683772E-12  0.17120000000E+03  0.17120000000E+03 0.  0.
         13    1    1    2    0    0 -0.23762440726E+02 -0.29548596511E+01  0.74152955945E+02  0.77923403572E+02  0.10566000000E+00 0.  1.
        994    1    1    2    0    0  0.65121093021E+01  0.35467200307E+02  0.82335145197E+01  0.17515010884E+03  0.17120000000E+03 0.  0.
        998    1    1    2    0    0  0.17250331424E+02 -0.32512340656E+02  0.14176135258E+04  0.14181264876E+04  0.10000000000E+02 0.  1.
</event>
<event>
 5    1  0.1675361E-008  0.3852575E+03  0.7957747E-01  0.3428581E+00
         13   -1    0    0    0    0  0.00000000000E+00  0.00000000000E+00  0.14999999963E+04  0.15000000000E+04  0.10566000000E+00 0.  1.
        994   -1    0    0    0    0 -0.00000000000E+00 -0.00000000000E+00  0.11368683772E-12  0.17120000000E+03  0.17120000000E+03 0.  0.
         13    1    1    2    0    0  0.11476637449E+02  0.10986640417E+02  0.94384409241E+02  0.95712315543E+02  0.10566000000E+00 0.  1.
        994    1    1    2    0    0  0.15003145840E+02 -0.11143677416E+02  0.26508742662E+01  0.17223746127E+03  0.17120000000E+03 0.  0.
        998    1    1    2    0    0 -0.26479783289E+02  0.15703699901E+00  0.14029647128E+04  0.14032502232E+04  0.10000000000E+02 0.  1.
</event>
<event>
 5    1  0.1675361E-008  0.3817699E+03  0.7957747E-01  0.3443488E+00
         13   -1    0    0    0    0  0.00000000000E+00  0.00000000000E+00  0.14999999963E+04  0.15000000000E+04  0.10566000000E+00 0. -1.
        994   -1    0    0    0    0 -0.00000000000E+00 -0.00000000000E+00  0.11368683772E-12  0.17120000000E+03  0.17120000000E+03 0.  0.
         13    1    1    2    0    0 -0.64928136598E+01  0.22203245482E+02  0.88226667289E+02  0.91209082465E+02  0.10566000000E+00 0. -1.
        994    1    1    2    0    0  0.23299591791E+02  0.64985910229E+01  0.51893802360E+01  0.17297824236E+03  0.17120000000E+03 0.  0.
        998    1    1    2    0    0 -0.16806778131E+02 -0.28701836505E+02  0.14065839488E+04  0.14070126752E+04  0.10000000000E+02 0. -1.
</event>
<event>
 5    1  0.1675361E-008  0.3851419E+03  0.7957747E-01  0.3429071E+00
         13   -1    0    0    0    0  0.00000000000E+00  0.00000000000E+00  0.14999999963E+04  0.15000000000E+04  0.10566000000E+00 0. -1.
        994   -1    0    0    0    0 -0.00000000000E+00 -0.00000000000E+00  0.11368683772E-12  0.17120000000E+03  0.17120000000E+03 0.  0.
         13    1    1    2    0    0  0.12592304810E+02  0.10991180582E+02  0.92645718256E+02  0.94141449247E+02  0.10566000000E+00 0. -1.
        994    1    1    2    0    0 -0.12443754381E+02  0.38585928355E+01  0.21178430315E+01  0.17170806918E+03  0.17120000000E+03 0.  0.
        998    1    1    2    0    0 -0.14855042830E+00 -0.14849773417E+02  0.14052364350E+04  0.14053504816E+04  0.10000000000E+02 0. -1.
</event>
<event>
 5    1  0.1675361E-008  0.3801318E+03  0.7957747E-01  0.3450585E+00
         13   -1    0    0    0    0  0.00000000000E+00  0.00000000000E+00  0.14999999963E+04  0.15000000000E+04  0.10566000000E+00 0.  1.
        994   -1    0    0    0    0 -0.00000000000E+00 -0.00000000000E+00  0.11368683772E-12  0.17120000000E+03  0.17120000000E+03 0.  0.
         13    1    1    2    0    0  0.16592829887E+02 -0.11413486326E+02  0.48116723235E+02  0.52161479012E+02  0.10566000000E+00 0.  1.
        994    1    1    2    0    0 -0.18580841447E+02 -0.13821463425E+01  0.52275001305E+01  0.17229023407E+03  0.17120000000E+03 0.  0.
        998    1    1    2    0    0  0.19880115604E+01  0.12795632669E+02  0.14466557729E+04  0.14467482869E+04  0.10000000000E+02 0.  1.
</event>
<event>
 5    1  0.1675361E-008  0.3860258E+03  0.7957747E-01  0.3425333E+00
         13   -1    0    0    0    0  0.00000000000E+00  0.00000000000E+00  0.14999999963E+04  0.15000000000E+04  0.10566000000E+00 0. -1.
        994   -1    0    0    0    0 -0.00000000000E+00 -0.00000000000E+00  0.11368683772E-12  0.17120000000E+03  0.17120000000E+03 0.  0.
         13    1    1    2    0    0 -0.89045935071E+01 -0.59590783262E+01  0.46894848272E+02  0.48103433958E+02  0.10566000000E+00 0. -1.
        994    1    1    2    0    0  0.21059923954E+02  0.97202047550E+01  0.28871221325E+01  0.17278824686E+03  0.17120000000E+03 0.  0.
        998    1    1    2    0    0 -0.12155330447E+02 -0.37611264288E+01  0.14502180259E+04  0.14503083192E+04  0.10000000000E+02 0. -1.
</event>
<event>
 5    1  0.1675361E-008  0.3823885E+03  0.7957747E-01  0.3440824E+00
         13   -1    0    0    0    0  0.00000000000E+00  0.00000000000E+00  0.14999999963E+04  0.15000000000E+04  0.10566000000E+00 0. -1.
        994   -1    0    0    0    0 -0.00000000000E+00 -0.00000000000E+00  0.11368683772E-12  0.17120000000E+03  0.17120000000E+03 0.  0.
         13    1    1    2    0    0  0.11415008967E+02 -0.31258816810E+02  0.17909416197E+03  0.18215967192E+03  0.10566000000E+00 0. -1.
        994    1    1    2    0    0 -0.11061253555E+02  0.23030940383E+02  0.51003752326E+01  0.17317109855E+03  0.17120000000E+03 0.  0.
        998    1    1    2    0    0 -0.35375541209E+00  0.82278764263E+01  0.13158054591E+04  0.13158692295E+04  0.10000000000E+02 0. -1.
</event>
<event>
 5    1  0.1675361E-008  0.3804466E+03  0.7957747E-01  0.3449216E+00
         13   -1    0    0    0    0  0.00000000000E+00  0.00000000000E+00  0.14999999963E+04  0.15000000000E+04  0.10566000000E+00 0.  1.
        994   -1    0    0    0    0 -0.00000000000E+00 -0.00000000000E+00  0.11368683772E-12  0.17120000000E+03  0.17120000000E+03 0.  0.
         13    1    1    2    0    0 -0.21900546977E+02 -0.20052952178E+02  0.98635762095E+02  0.10300863836E+03  0.10566000000E+00 0.  1.
        994    1    1    2    0    0  0.17833605270E+01  0.62033019652E+02  0.16872147474E+02  0.18288079523E+03  0.17120000000E+03 0.  0.
        998    1    1    2    0    0  0.20117186450E+02 -0.41980067473E+02  0.13844920867E+04  0.13853105664E+04  0.10000000000E+02 0.  1.
</event>
<event>
 5    1  0.1675361E-008  0.3811169E+03  0.7957747E-01  0.3446310E+00
         13   -1    0    0    0    0  0.00000000000E+00  0.00000000000E+00  0.14999999963E+04  0.15000000000E+04  0.10566000000E+00 0.  1.
        994   -1    0    0    0    0 -0.00000000000E+00 -0.00000000000E+00  0.11368683772E-12  0.17120000000E+03  0.17120000000E+03 0.  0.
         13    1    1    2    0    0 -0.23916419095E+02  0.24913135114E+02  0.18452327307E+03  0.18772721932E+03  0.10566000000E+00 0.  1.
        994    1    1    2    0    0  0.12952486617E+02  0.34449220973E+01  0.41689101903E+01  0.17177442828E+03  0.17120000000E+03 0.  0.
        998    1    1    2    0    0  0.10963932478E+02 -0.28358057211E+02  0.13113078130E+04  0.13116983524E+04  0.10000000000E+02 0.  1.
</event>
<event>
 5    1  0.1675361E-008  0.3923115E+03  0.7957747E-01  0.3399243E+00
         13   -1    0    0    0    0  0.00000000000E+00  0.00000000000E+00  0.14999999963E+04  0.15000000000E+04  0.10566000000E+00 0.  1.
        994   -1    0    0    0    0 -0.00000000000E+00 -0.00000000000E+00  0.11368683772E-12  0.17120000000E+03  0.17120000000E+03 0.  0.
         13    1    1    2    0    0 -0.17504599002E+02  0.55687685849E+00 -0.41806726961E+01  0.18005840338E+02  0.10566000000E+00 0.  1.
        994    1    1    2    0    0  0.43259029478E+02 -0.18579461162E+02  0.31723186901E+02  0.18036723814E+03  0.17120000000E+03 0.  0.
        998    1    1    2    0    0 -0.25754430476E+02  0.18022584304E+02  0.14724574821E+04  0.14728269215E+04  0.10000000000E+02 0.  1.
</event>
<event>
 5    1  0.1675361E-008  0.3848788E+03  0.7957747E-01  0.3430186E+00
         13   -1    0    0    0    0  0.00000000000E+00  0.00000000000E+00  0.14999999963E+04  0.15000000000E+04  0.10566000000E+00 0. -1.
        994   -1    0    0    0    0 -0.00000000000E+00 -0.00000000000E+00  0.11368683772E-12  0.17120000000E+03  0.17120000000E+03 0.  0.
         13    1    1    2    0    0 -0.12456339045E+02  0.73855207090E+01  0.60123538912E+02  0.61843006022E+02  0.10566000000E+00 0. -1.
        994    1    1    2    0    0  0.11595014652E+02 -0.91578298578E+01  0.24088859648E+01  0.17185328901E+03  0.17120000000E+03 0.  0.
        998    1    1    2    0    0  0.86132439232E+00  0.17723091488E+01  0.14374675714E+04  0.14375037050E+04  0.10000000000E+02 0. -1.
</event>
<event>
 5    1  0.1675361E-008  0.3845030E+03  0.7957747E-01  0.3431783E+00
         13   -1    0    0    0    0  0.00000000000E+00  0.00000000000E+00  0.14999999963E+04  0.15000000000E+04  0.10566000000E+00 0.  1.
        994   -1    0    0    0    0 -0.00000000000E+00 -0.00000000000E+00  0.11368683772E-12  0.17120000000E+03  0.17120000000E+03 0.  0.
         13    1    1    2    0    0  0.10889497728E+02  0.82465464741E+00  0.31685137985E+02  0.33514479695E+02  0.10566000000E+00 0.  1.
        994    1    1    2    0    0 -0.54807021365E+01  0.56326128212E+01  0.20805531795E+01  0.17139292029E+03  0.17120000000E+03 0.  0.
        998    1    1    2    0    0 -0.54087955919E+01 -0.64572674686E+01  0.14662343051E+04  0.14662926000E+04  0.10000000000E+02 0.  1.
</event>
<event>
 5    1  0.1675361E-008  0.3834149E+03  0.7957747E-01  0.3436423E+00
         13   -1    0    0    0    0  0.00000000000E+00  0.00000000000E+00  0.14999999963E+04  0.15000000000E+04  0.10566000000E+00 0.  1.
        994   -1    0    0    0    0 -0.00000000000E+00 -0.00000000000E+00  0.11368683772E-12  0.17120000000E+03  0.17120000000E+03 0.  0.
         13    1    1    2    0    0 -0.26348612303E+02 -0.16104000725E+02  0.14446998233E+03  0.14773345988E+03  0.10566000000E+00 0.  1.
        994    1    1    2    0    0  0.52570810851E+02  0.27725522069E+02  0.14184818713E+02  0.18177745682E+03  0.17120000000E+03 0.  0.
        998    1    1    2    0    0 -0.26222198548E+02 -0.11621521344E+02  0.13413451952E+04  0.13416890833E+04  0.10000000000E+02 0.  1.
</event>
<event>
 5    1  0.1675361E-008  0.3817599E+03  0.7957747E-01  0.3443531E+00
         13   -1    0    0    0    0  0.00000000000E+00  0.00000000000E+00  0.14999999963E+04  0.15000000000E+04  0.10566000000E+00 0.  1.
        994   -1    0    0    0    0 -0.00000000000E+00 -0.00000000000E+00  0.11368683772E-12  0.17120000000E+03  0.17120000000E+03 0.  0.
         13    1    1    2    0    0  0.23447643777E+02  0.26221023636E+01  0.89191684919E+02  0.92259607859E+02  0.10566000000E+00 0.  1.
        994    1    1    2    0    0 -0.52244909142E+01  0.10928907220E+01  0.33420983605E+01  0.17131578835E+03  0.17120000000E+03 0.  0.
        998    1    1    2    0    0 -0.18223152862E+02 -0.37149930856E+01  0.14074662130E+04  0.14076246038E+04  0.10000000000E+02 0.  1.
</event>
<event>
 5    1  0.1675361E-008  0.3792484E+03  0.7957747E-01  0.3454438E+00
         13   -1    0    0    0    0  0.00000000000E+00  0.00000000000E+00  0.14999999963E+04  0.15000000000E+04  0.10566000000E+00 0. -1.
        994   -1    0    0    0    0 -0.00000000000E+00 -0.00000000000E+00  0.11368683772E-12  0.17120000000E+03  0.17120000000E+03 0.  0.
         13    1    1    2    0    0 -0.25505891442E+02 -0.84344161116E+01  0.84938679800E+02  0.89085803379E+02  0.10566000000E+00 0. -1.
        994    1    1    2    0    0  0.31319345218E+01 -0.11724366803E+02  0.50067258116E+01  0.17170258325E+03  0.17120000000E+03 0.  0.
        998    1    1    2    0    0  0.22373956920E+02  0.20158782914E+02  0.14100545907E+04  0.14104116134E+04  0.10000000000E+02 0. -1.
</event>
<event>
 5    1  0.1675361E-008  0.3696664E+03  0.7957747E-01  0.3497426E+00
         13   -1    0    0    0    0  0.00000000000E+00  0.00000000000E+00  0.14999999963E+04  0.15000000000E+04  0.10566000000E+00 0. -1.
        994   -1    0    0    0    0 -0.00000000000E+00 -0.00000000000E+00  0.11368683772E-12  0.17120000000E+03  0.17120000000E+03 0.  0.
         13    1    1    2    0    0  0.30417563320E+03 -0.77545240824E+02  0.86574747655E+03  0.92089890028E+03  0.10566000000E+00 0. -1.
        994    1    1    2    0    0 -0.29590580371E+03  0.76724482875E+02  0.47354311264E+03  0.58906655861E+03  0.17120000000E+03 0.  0.
        998    1    1    2    0    0 -0.82698294876E+01  0.82075794968E+00  0.16070940709E+03  0.16123454112E+03  0.10000000000E+02 0. -1.
</event>
<event>
 5    1  0.1675361E-008  0.3826637E+03  0.7957747E-01  0.3439642E+00
         13   -1    0    0    0    0  0.00000000000E+00  0.00000000000E+00  0.14999999963E+04  0.15000000000E+04  0.10566000000E+00 0.  1.
        994   -1    0    0    0    0 -0.00000000000E+00 -0.00000000000E+00  0.11368683772E-12  0.17120000000E+03  0.17120000000E+03 0.  0.
         13    1    1    2    0    0 -0.10215963860E+02 -0.79734047580E+01  0.29570636736E+02  0.32285830050E+02  0.10566000000E+00 0.  1.
        994    1    1    2    0    0  0.29008946247E+01  0.26834353110E+01  0.28462764344E+01  0.17126925382E+03  0.17120000000E+03 0.  0.
        998    1    1    2    0    0  0.73150692352E+01  0.52899694470E+01  0.14675830831E+04  0.14676449161E+04  0.10000000000E+02 0.  1.
</event>
<event>
 5    1  0.1675361E-008  0.4121642E+03  0.7957747E-01  0.3322049E+00
         13   -1    0    0    0    0  0.00000000000E+00  0.00000000000E+00  0.14999999963E+04  0.15000000000E+04  0.10566000000E+00 0.  1.
        994   -1    0    0    0    0 -0.00000000000E+00 -0.00000000000E+00  0.11368683772E-12  0.17120000000E+03  0.17120000000E+03 0.  0.
         13    1    1    2    0    0  0.70905734420E+02  0.89395245622E+01  0.56739138093E+02  0.91251735483E+02  0.10566000000E+00 0.  1.
        994    1    1    2    0    0 -0.80689198563E+02 -0.17489459199E+02  0.63947779652E+02  0.20053774326E+03  0.17120000000E+03 0.  0.
        998    1    1    2    0    0  0.97834641430E+01  0.85499346366E+01  0.13793130785E+04  0.13794105213E+04  0.10000000000E+02 0.  1.
</event>
<event>
 5    1  0.1675361E-008  0.3828406E+03  0.7957747E-01  0.3438882E+00
         13   -1    0    0    0    0  0.00000000000E+00  0.00000000000E+00  0.14999999963E+04  0.15000000000E+04  0.10566000000E+00 0.  1.
        994   -1    0    0    0    0 -0.00000000000E+00 -0.00000000000E+00  0.11368683772E-12  0.17120000000E+03  0.17120000000E+03 0.  0.
         13    1    1    2    0    0 -0.16028267085E+02 -0.10180587623E+02  0.64172844490E+02  0.66923201090E+02  0.10566000000E+00 0.  1.
        994    1    1    2    0    0  0.13164478692E+02  0.11552124012E+02  0.37226087516E+01  0.17213382260E+03  0.17120000000E+03 0.  0.
        998    1    1    2    0    0  0.28637883926E+01 -0.13715363891E+01  0.14321045430E+04  0.14321429763E+04  0.10000000000E+02 0.  1.
</event>
<event>
 5    1  0.1675361E-008  0.3853819E+03  0.7957747E-01  0.3428054E+00
         13   -1    0    0    0    0  0.00000000000E+00  0.00000000000E+00  0.14999999963E+04  0.15000000000E+04  0.10566000000E+00 0. -1.
        994   -1    0    0    0    0 -0.00000000000E+00 -0.00000000000E+00  0.11368683772E-12  0.17120000000E+03  0.17120000000E+03 0.  0.
         13    1    1    2    0    0 -0.14220821656E+02 -0.23675313833E+01  0.66881899059E+02  0.68418101107E+02  0.10566000000E+00 0. -1.
        994    1    1    2    0    0  0.19022434416E+02  0.17173625971E+02  0.36009164486E+01  0.17314500582E+03  0.17120000000E+03 0.  0.
        998    1    1    2    0    0 -0.48016127606E+01 -0.14806094588E+02  0.14295171808E+04  0.14296368931E+04  0.10000000000E+02 0. -1.
</event>
<event>
 5    1  0.1675361E-008  0.3840207E+03  0.7957747E-01  0.3433836E+00
         13   -1    0    0    0    0  0.00000000000E+00  0.00000000000E+00  0.14999999963E+04  0.15000000000E+04  0.10566000000E+00 0. -1.
        994   -1    0    0    0    0 -0.00000000000E+00 -0.00000000000E+00  0.11368683772E-12  0.17120000000E+03  0.17120000000E+03 0.  0.
         13    1    1    2    0    0  0.12003134580E+02 -0.44728428949E+01  0.38480326564E+02  0.40556482340E+02  0.10566000000E+00 0. -1.
        994    1    1    2    0    0 -0.50651446155E+01  0.69453432155E+01  0.23609391439E+01  0.17143193260E+03  0.17120000000E+03 0.  0.
        998    1    1    2    0    0 -0.69379899650E+01 -0.24725003206E+01  0.14591587306E+04  0.14592115851E+04  0.10000000000E+02 0. -1.
</event>
<event>
 5    1  0.1675361E-008  0.3851853E+03  0.7957747E-01  0.3428887E+00
         13   -1    0    0    0    0  0.00000000000E+00  0.00000000000E+00  0.14999999963E+04  0.15000000000E+04  0.10566000000E+00 0. -1.
        994   -1    0    0    0    0 -0.00000000000E+00 -0.00000000000E+00  0.11368683772E-12  0.17120000000E+03  0.17120000000E+03 0.  0.
         13    1    1    2    0    0 -0.16272751514E+02  0.21098177645E+01  0.92958232442E+02  0.94395433765E+02  0.10566000000E+00 0. -1.
        994    1    1    2    0    0  0.39995092359E+01  0.54230199273E+01  0.16874189873E+01  0.17134086670E+03  0.17120000000E+03 0.  0.
        998    1    1    2    0    0  0.12273242278E+02 -0.75328376918E+01  0.14053543448E+04  0.14054636995E+04  0.10000000000E+02 0. -1.
</event>
<event>
 5    1  0.1675361E-008  0.3737989E+03  0.7957747E-01  0.3478612E+00
         13   -1    0    0    0    0  0.00000000000E+00  0.00000000000E+00  0.14999999963E+04  0.15000000000E+04  0.10566000000E+00 0. -1.
        994   -1    0    0    0    0 -0.00000000000E+00 -0.00000000000E+00  0.11368683772E-12  0.17120000000E+03  0.17120000000E+03 0.  0.
         13    1    1    2    0    0  0.79999618183E+02 -0.14665798018E+02  0.21722506763E+03  0.23195207632E+03  0.10566000000E+00 0. -1.
        994    1    1    2    0    0 -0.77361532293E+02  0.15842225340E+02  0.35399360500E+02  0.19182892771E+03  0.17120000000E+03 0.  0.
        998    1    1    2    0    0 -0.26380858895E+01 -0.11764273224E+01  0.12473755682E+04  0.12474189960E+04  0.10000000000E+02 0. -1.
</event>
<event>
 5    1  0.1675361E-008  0.3840794E+03  0.7957747E-01  0.3433586E+00
         13   -1    0    0    0    0  0.00000000000E+00  0.00000000000E+00  0.14999999963E+04  0.15000000000E+04  0.10566000000E+00 0. -1.
        994   -1    0    0    0    0 -0.00000000000E+00 -0.00000000000E+00  0.11368683772E-12  0.17120000000E+03  0.17120000000E+03 0.  0.
         13    1    1    2    0    0 -0.74318010990E+01  0.18630112329E+02  0.11158397473E+03  0.11337242757E+03  0.10566000000E+00 0. -1.
        994    1    1    2    0    0  0.19351647917E+02  0.14553736246E+02  0.40241670202E+01  0.17295066185E+03  0.17120000000E+03 0.  0.
        998    1    1    2    0    0 -0.11919846818E+02 -0.33183848575E+02  0.13843918545E+04  0.13848769106E+04  0.10000000000E+02 0. -1.
</event>
<event>
 5    1  0.1675361E-008  0.3831556E+03  0.7957747E-01  0.3437532E+00
         13   -1    0    0    0    0  0.00000000000E+00  0.00000000000E+00  0.14999999963E+04  0.15000000000E+04  0.10566000000E+00 0.  1.
        994   -1    0    0    0    0 -0.00000000000E+00 -0.00000000000E+00  0.11368683772E-12  0.17120000000E+03  0.17120000000E+03 0.  0.
         13    1    1    2    0    0 -0.14196559593E+01  0.26709281063E+02  0.13033127232E+03  0.13304755852E+03  0.10566000000E+00 0.  1.
        994    1    1    2    0    0  0.69565759965E+00 -0.25673211463E+02  0.47338888388E+01  0.17318038985E+03  0.17120000000E+03 0.  0.
        998    1    1    2    0    0  0.72399835964E+00 -0.10360696005E+01  0.13649348351E+04  0.13649720516E+04  0.10000000000E+02 0.  0.
</event>
<event>
 5    1  0.1675361E-008  0.3833267E+03  0.7957747E-01  0.3436800E+00
         13   -1    0    0    0    0  0.00000000000E+00  0.00000000000E+00  0.14999999963E+04  0.15000000000E+04  0.10566000000E+00 0.  1.
        994   -1    0    0    0    0 -0.00000000000E+00 -0.00000000000E+00  0.11368683772E-12  0.17120000000E+03  0.17120000000E+03 0.  0.
         13    1    1    2    0    0 -0.13141943351E+02 -0.17027053030E+02  0.99225400655E+02  0.10152990943E+03  0.10566000000E+00 0.  1.
        994    1    1    2    0    0 -0.42112845387E+01  0.83325193956E+01  0.27514558446E+01  0.17147645992E+03  0.17120000000E+03 0.  0.
        998    1    1    2    0    0  0.17353227889E+02  0.86945336343E+01  0.13980231398E+04  0.13981936307E+04  0.10000000000E+02 0.  1.
</event>
<event>
 5    1  0.1675361E-008  0.3829864E+03  0.7957747E-01  0.3438257E+00
         13   -1    0    0    0    0  0.00000000000E+00  0.00000000000E+00  0.14999999963E+04  0.15000000000E+04  0.10566000000E+00 0. -1.
        994   -1    0    0    0    0 -0.00000000000E+00 -0.00000000000E+00  0.11368683772E-12  0.17120000000E+03  0.17120000000E+03 0.  0.
         13    1    1    2    0    0  0.20039692763E+02 -0.19803176831E+02  0.15107988787E+03  0.15368441295E+03  0.10566000000E+00 0. -1.
        994    1    1    2    0    0 -0.61053788818E+01  0.16497352416E+02  0.36581466482E+01  0.17214023447E+03  0.17120000000E+03 0.  0.
        998    1    1    2    0    0 -0.13934313882E+02  0.33058244143E+01  0.13452619618E+04  0.13453753526E+04  0.10000000000E+02 0. -1.
</event>
<event>
 5    1  0.1675361E-008  0.3793185E+03  0.7957747E-01  0.3454131E+00
         13   -1    0    0    0    0  0.00000000000E+00  0.00000000000E+00  0.14999999963E+04  0.15000000000E+04  0.10566000000E+00 0.  1.
        994   -1    0    0    0    0 -0.00000000000E+00 -0.00000000000E+00  0.11368683772E-12  0.17120000000E+03  0.17120000000E+03 0.  0.
         13    1    1    2    0    0  0.12209753647E+02 -0.85031113943E+01  0.22913638785E+02  0.27320816128E+02  0.10566000000E+00 0.  1.
        994    1    1    2    0    0 -0.94197972727E+01  0.32578324115E+01  0.48104781237E+01  0.17155735703E+03  0.17120000000E+03 0.  0.
        998    1    1    2    0    0 -0.27899563748E+01  0.52452789828E+01  0.14722758794E+04  0.14723218268E+04  0.10000000000E+02 0.  1.
</event>
<event>
 5    1  0.1675361E-008  0.3722906E+03  0.7957747E-01  0.3485430E+00
         13   -1    0    0    0    0  0.00000000000E+00  0.00000000000E+00  0.14999999963E+04  0.15000000000E+04  0.10566000000E+00 0.  1.
        994   -1    0    0    0    0 -0.00000000000E+00 -0.00000000000E+00  0.11368683772E-12  0.17120000000E+03  0.17120000000E+03 0.  0.
         13    1    1    2    0    0 -0.52585044141E+02 -0.29436535292E+02  0.21478378149E+03  0.22307796941E+03  0.10566000000E+00 0.  1.
        994    1    1    2    0    0  0.32438504947E+02  0.26082452732E+02  0.14043773826E+02  0.17674619806E+03  0.17120000000E+03 0.  0.
        998    1    1    2    0    0  0.20146539194E+02  0.33540825602E+01  0.12711724410E+04  0.12713758325E+04  0.10000000000E+02 0.  1.
</event>
<event>
 5    1  0.1675361E-008  0.3828223E+03  0.7957747E-01  0.3438961E+00
         13   -1    0    0    0    0  0.00000000000E+00  0.00000000000E+00  0.14999999963E+04  0.15000000000E+04  0.10566000000E+00 0. -1.
        994   -1    0    0    0    0 -0.00000000000E+00 -0.00000000000E+00  0.11368683772E-12  0.17120000000E+03  0.17120000000E+03 0.  0.
         13    1    1    2    0    0 -0.24772357221E+02 -0.12761186917E+02  0.16321793229E+03  0.16557965503E+03  0.10566000000E+00 0. -1.
        994    1    1    2    0    0  0.20258431243E+01 -0.42114000521E+01  0.27875162728E+01  0.17128645649E+03  0.17120000000E+03 0.  0.
        998    1    1    2    0    0  0.22746514097E+02  0.16972586969E+02  0.13339945477E+04  0.13343338885E+04  0.10000000000E+02 0. -1.
</event>
<event>
 5    1  0.1675361E-008  0.3835431E+03  0.7957747E-01  0.3435875E+00
         13   -1    0    0    0    0  0.00000000000E+00  0.00000000000E+00  0.14999999963E+04  0.15000000000E+04  0.10566000000E+00 0.  1.
        994   -1    0    0    0    0 -0.00000000000E+00 -0.00000000000E+00  0.11368683772E-12  0.17120000000E+03  0.17120000000E+03 0.  0.
         13    1    1    2    0    0 -0.12732118467E+02 -0.36829541294E+01  0.35947541509E+02  0.38313286160E+02  0.10566000000E+00 0.  1.
        994    1    1    2    0    0  0.13667006683E+02  0.10544235347E+01  0.29763057223E+01  0.17177368039E+03  0.17120000000E+03 0.  0.
        998    1    1    2    0    0 -0.93488821616E+00  0.26285305947E+01  0.14610761490E+04  0.14611130334E+04  0.10000000000E+02 0.  1.
</event>
<event>
 5    1  0.1675361E-008  0.3819869E+03  0.7957747E-01  0.3442552E+00
         13   -1    0    0    0    0  0.00000000000E+00  0.00000000000E+00  0.14999999963E+04  0.15000000000E+04  0.10566000000E+00 0.  1.
        994   -1    0    0    0    0 -0.00000000000E+00 -0.00000000000E+00  0.11368683772E-12  0.17120000000E+03  0.17120000000E+03 0.  0.
         13    1    1    2    0    0  0.11051651187E+02  0.25756634744E+01  0.19723048283E+02  0.22754841988E+02  0.10566000000E+00 0.  1.
        994    1    1    2    0    0  0.13173275056E+01 -0.81025867269E+01  0.33573513623E+01  0.17142957467E+03  0.17120000000E+03 0.  0.
        998    1    1    2    0    0 -0.12368978693E+02  0.55269232525E+01  0.14769195966E+04  0.14770155833E+04  0.10000000000E+02 0.  1.
</event>
<event>
 5    1  0.1675361E-008  0.3837306E+03  0.7957747E-01  0.3435074E+00
         13   -1    0    0    0    0  0.00000000000E+00  0.00000000000E+00  0.14999999963E+04  0.15000000000E+04  0.10566000000E+00 0. -1.
        994   -1    0    0    0    0 -0.00000000000E+00 -0.00000000000E+00  0.11368683772E-12  0.17120000000E+03  0.17120000000E+03 0.  0.
         13    1    1    2    0    0  0.10725708843E+02  0.29740199544E+01  0.27618537281E+02  0.29777179021E+02  0.10566000000E+00 0. -1.
        994    1    1    2    0    0  0.45167852538E+00  0.42752092650E+01  0.23227325930E+01  0.17126971861E+03  0.17120000000E+03 0.  0.
        998    1    1    2    0    0 -0.11177387368E+02 -0.72492292194E+01  0.14700587264E+04  0.14701531024E+04  0.10000000000E+02 0. -1.
</event>
<event>
 5    1  0.1675361E-008  0.3847011E+03  0.7957747E-01  0.3430941E+00
         13   -1    0    0    0    0  0.00000000000E+00  0.00000000000E+00  0.14999999963E+04  0.15000000000E+04  0.10566000000E+00 0. -1.
        994   -1    0    0    0    0 -0.00000000000E+00 -0.00000000000E+00  0.11368683772E-12  0.17120000000E+03  0.17120000000E+03 0.  0.
         13    1    1    2    0    0 -0.15694365850E+02 -0.76596999679E+01  0.85759543279E+02  0.87519680933E+02  0.10566000000E+00 0. -1.
        994    1    1    2    0    0  0.23512492855E+02 -0.20428886429E+02  0.49787866595E+01  0.17408160454E+03  0.17120000000E+03 0.  0.
        998    1    1    2    0    0 -0.78181270048E+01  0.28088586397E+02  0.14092616663E+04  0.14095987145E+04  0.10000000000E+02 0. -1.
</event>
<event>
 5    1  0.1675361E-008  0.3834264E+03  0.7957747E-01  0.3436374E+00
         13   -1    0    0    0    0  0.00000000000E+00  0.00000000000E+00  0.14999999963E+04  0.15000000000E+04  0.10566000000E+00 0. -1.
        994   -1    0    0    0    0 -0.00000000000E+00 -0.00000000000E+00  0.11368683772E-12  0.17120000000E+03  0.17120000000E+03 0.  0.
         13    1    1    2    0    0  0.20847376684E+02 -0.10829146374E+02  0.11285636245E+03  0.11527555350E+03  0.10566000000E+00 0. -1.
        994    1    1    2    0    0 -0.86425015382E+01  0.17460595852E+02  0.36690907256E+01  0.17234403810E+03  0.17120000000E+03 0.  0.
        998    1    1    2    0    0 -0.12204875146E+02 -0.66314494778E+01  0.13834745431E+04  0.13835804084E+04  0.10000000000E+02 0. -1.
</event>
<event>
 5    1  0.1675361E-008  0.3788287E+03  0.7957747E-01  0.3456275E+00
         13   -1    0    0    0    0  0.00000000000E+00  0.00000000000E+00  0.14999999963E+04  0.15000000000E+04  0.10566000000E+00 0. -1.
        994   -1    0    0    0    0 -0.00000000000E+00 -0.00000000000E+00  0.11368683772E-12  0.17120000000E+03  0.17120000000E+03 0.  0.
         13    1    1    2    0    0  0.71149395972E+01 -0.11292216373E+02  0.16812233893E+02  0.21466226697E+02  0.10566000000E+00 0. -1.
        994    1    1    2    0    0 -0.58695542691E+01  0.77105751739E+01  0.50407890450E+01  0.17154811043E+03  0.17120000000E+03 0.  0.
        998    1    1    2    0    0 -0.12453853282E+01  0.35816411987E+01  0.14781469733E+04  0.14781856629E+04  0.10000000000E+02 0. -1.
</event>
<event>
 5    1  0.1675361E-008  0.3806063E+03  0.7957747E-01  0.3448523E+00
         13   -1    0    0    0    0  0.00000000000E+00  0.00000000000E+00  0.14999999963E+04  0.15000000000E+04  0.10566000000E+00 0. -1.
        994   -1    0    0    0    0 -0.00000000000E+00 -0.00000000000E+00  0.11368683772E-12  0.17120000000E+03  0.17120000000E+03 0.  0.
         13    1    1    2    0    0 -0.63115398365E+02 -0.35965822604E+01  0.35564008246E+03  0.36121512750E+03  0.10566000000E+00 0. -1.
        994    1    1    2    0    0  0.73553783473E+02  0.72059053785E+01  0.22270368714E+02  0.18779641492E+03  0.17120000000E+03 0.  0.
        998    1    1    2    0    0 -0.10438385108E+02 -0.36093231181E+01  0.11220895451E+04  0.11221884576E+04  0.10000000000E+02 0. -1.
</event>
<event>
 5    1  0.1675361E-008  0.3812846E+03  0.7957747E-01  0.3445584E+00
         13   -1    0    0    0    0  0.00000000000E+00  0.00000000000E+00  0.14999999963E+04  0.15000000000E+04  0.10566000000E+00 0.  1.
        994   -1    0    0    0    0 -0.00000000000E+00 -0.00000000000E+00  0.11368683772E-12  0.17120000000E+03  0.17120000000E+03 0.  0.
         13    1    1    2    0    0  0.89141383645E+01  0.29812783819E+02  0.13244866641E+03  0.13605485783E+03  0.10566000000E+00 0.  1.
        994    1    1    2    0    0  0.19936903757E+02 -0.32692610817E+02  0.83824644909E+01  0.17563027257E+03  0.17120000000E+03 0.  0.
        998    1    1    2    0    0 -0.28851042122E+02  0.28798269977E+01  0.13591688654E+04  0.13595148696E+04  0.10000000000E+02 0.  1.
</event>
<event>
 5    1  0.1675361E-008  0.3761472E+03  0.7957747E-01  0.3468108E+00
         13   -1    0    0    0    0  0.00000000000E+00  0.00000000000E+00  0.14999999963E+04  0.15000000000E+04  0.10566000000E+00 0. -1.
        994   -1    0    0    0    0 -0.00000000000E+00 -0.00000000000E+00  0.11368683772E-12  0.17120000000E+03  0.17120000000E+03 0.  0.
         13    1    1    2    0    0  0.31835058762E+02  0.59113578602E+02  0.30189085323E+03  0.30926685010E+03  0.10566000000E+00 0. -1.
        994    1    1    2    0    0 -0.23345775470E+02 -0.60374252286E+02  0.20413280432E+02  0.18416356206E+03  0.17120000000E+03 0.  0.
        998    1    1    2    0    0 -0.84892832916E+01  0.12606736842E+01  0.11776958626E+04  0.11777695878E+04  0.10000000000E+02 0. -1.
</event>
<event>
 5    1  0.1675361E-008  0.3846798E+03  0.7957747E-01  0.3431031E+00
         13   -1    0    0    0    0  0.00000000000E+00  0.00000000000E+00  0.14999999963E+04  0.15000000000E+04  0.10566000000E+00 0. -1.
        994   -1    0    0    0    0 -0.00000000000E+00 -0.00000000000E+00  0.11368683772E-12  0.17120000000E+03  0.17120000000E+03 0.  0.
         13    1    1    2    0    0  0.81854518030E+01  0.57913213060E+01  0.28447796123E+02  0.30163376667E+02  0.10566000000E+00 0. -1.
        994    1    1    2    0    0 -0.48208565111E+01  0.57669309325E+01  0.19752123728E+01  0.17137630996E+03  0.17120000000E+03 0.  0.
        998    1    1    2    0    0 -0.33645952920E+01 -0.11558252238E+02  0.14695769878E+04  0.14696603134E+04  0.10000000000E+02 0. -1.
</event>
<event>
 5    1  0.3107090E-008  0.3861273E+03  0.7957747E-01  0.3424905E+00
         13   -1    0    0    0    0  0.00000000000E+00  0.00000000000E+00  0.14999999963E+04  0.15000000000E+04  0.10566000000E+00 0.  1.
        994   -1    0    0    0    0 -0.00000000000E+00 -0.00000000000E+00  0.11368683772E-12  0.17120000000E+03  0.17120000000E+03 0.  0.
         13    1    1    2    0    0 -0.46037744330E+01 -0.95907567786E+01  0.54384024416E+02  0.55414895383E+02  0.10566000000E+00 0.  1.
        994    1    1    2    0    0  0.47431097906E+00  0.53218656121E+01  0.11650080988E+01  0.17128731555E+03  0.17120000000E+03 0.  0.
        998    1    1    2    0    0  0.41294634540E+01  0.42688911665E+01  0.14444509638E+04  0.14444977891E+04  0.10000000000E+02 0.  1.
</event>
<event>
 5    1  0.1675361E-008  0.3800961E+03  0.7957747E-01  0.3450740E+00
         13   -1    0    0    0    0  0.00000000000E+00  0.00000000000E+00  0.14999999963E+04  0.15000000000E+04  0.10566000000E+00 0.  1.
        994   -1    0    0    0    0 -0.00000000000E+00 -0.00000000000E+00  0.11368683772E-12  0.17120000000E+03  0.17120000000E+03 0.  0.
         13    1    1    2    0    0  0.45457371806E+01  0.10589764125E+02  0.14802259208E+02  0.18759660776E+02  0.10566000000E+00 0.  1.
        994    1    1    2    0    0  0.10119849513E+02 -0.42757857910E+01  0.44880783862E+01  0.17161082875E+03  0.17120000000E+03 0.  0.
        998    1    1    2    0    0 -0.14665586694E+02 -0.63139783336E+01  0.14807096587E+04  0.14808295105E+04  0.10000000000E+02 0.  1.
</event>
<event>
 5    1  0.1675361E-008  0.3841815E+03  0.7957747E-01  0.3433151E+00
         13   -1    0    0    0    0  0.00000000000E+00  0.00000000000E+00  0.14999999963E+04  0.15000000000E+04  0.10566000000E+00 0. -1.
        994   -1    0    0    0    0 -0.00000000000E+00 -0.00000000000E+00  0.11368683772E-12  0.17120000000E+03  0.17120000000E+03 0.  0.
         13    1    1    2    0    0 -0.14355333719E+02  0.13589656042E+00  0.49993707361E+02  0.52014190504E+02  0.10566000000E+00 0. -1.
        994    1    1    2    0    0  0.10265408959E+02 -0.80545616793E+01  0.25986453838E+01  0.17171618311E+03  0.17120000000E+03 0.  0.
        998    1    1    2    0    0  0.40899247604E+01  0.79186651189E+01  0.14474076435E+04  0.14474696264E+04  0.10000000000E+02 0. -1.
</event>
<event>
 5    1  0.1675361E-008  0.3768156E+03  0.7957747E-01  0.3465142E+00
         13   -1    0    0    0    0  0.00000000000E+00  0.00000000000E+00  0.14999999963E+04  0.15000000000E+04  0.10566000000E+00 0.  1.
        994   -1    0    0    0    0 -0.00000000000E+00 -0.00000000000E+00  0.11368683772E-12  0.17120000000E+03  0.17120000000E+03 0.  0.
         13    1    1    2    0    0  0.81775435164E+02 -0.91310080516E+02  0.63165430797E+03  0.64343758714E+03  0.10566000000E+00 0.  1.
        994    1    1    2    0    0 -0.89628280570E+02  0.96414360072E+02  0.66735934759E+02  0.22603557794E+03  0.17120000000E+03 0.  0.
        998    1    1    2    0    0  0.78528454062E+01 -0.51042795564E+01  0.80160975355E+03  0.80172683492E+03  0.10000000000E+02 0.  0.
</event>
<event>
 5    1  0.1675361E-008  0.3833000E+03  0.7957747E-01  0.3436914E+00
         13   -1    0    0    0    0  0.00000000000E+00  0.00000000000E+00  0.14999999963E+04  0.15000000000E+04  0.10566000000E+00 0. -1.
        994   -1    0    0    0    0 -0.00000000000E+00 -0.00000000000E+00  0.11368683772E-12  0.17120000000E+03  0.17120000000E+03 0.  0.
         13    1    1    2    0    0 -0.13149992805E+02 -0.14267079144E+02  0.83556485937E+02  0.85779772466E+02  0.10566000000E+00 0. -1.
        994    1    1    2    0    0  0.45369998031E+01 -0.10605470915E+02  0.29166557135E+01  0.17161295773E+03  0.17120000000E+03 0.  0.
        998    1    1    2    0    0  0.86129930021E+01  0.24872550059E+02  0.14135268546E+04  0.14138072698E+04  0.10000000000E+02 0. -1.
</event>
<event>
 5    1  0.1675361E-008  0.3799650E+03  0.7957747E-01  0.3451311E+00
         13   -1    0    0    0    0  0.00000000000E+00  0.00000000000E+00  0.14999999963E+04  0.15000000000E+04  0.10566000000E+00 0. -1.
        994   -1    0    0    0    0 -0.00000000000E+00 -0.00000000000E+00  0.11368683772E-12  0.17120000000E+03  0.17120000000E+03 0.  0.
         13    1    1    2    0    0  0.38342556401E+02 -0.99059473921E+01  0.17509400946E+03  0.17951658067E+03  0.10566000000E+00 0. -1.
        994    1    1    2    0    0 -0.33615509147E+02  0.23954175672E+01  0.79572531051E+01  0.17466682100E+03  0.17120000000E+03 0.  0.
        998    1    1    2    0    0 -0.47270472543E+01  0.75105298249E+01  0.13169487337E+04  0.13170165983E+04  0.10000000000E+02 0. -1.
</event>
<event>
 5    1  0.1675361E-008  0.3708540E+03  0.7957747E-01  0.3491975E+00
         13   -1    0    0    0    0  0.00000000000E+00  0.00000000000E+00  0.14999999963E+04  0.15000000000E+04  0.10566000000E+00 0. -1.
        994   -1    0    0    0    0 -0.00000000000E+00 -0.00000000000E+00  0.11368683772E-12  0.17120000000E+03  0.17120000000E+03 0.  0.
         13    1    1    2    0    0  0.36081237252E+02 -0.15069290456E+02  0.88720142095E+02  0.96954700628E+02  0.10566000000E+00 0. -1.
        994    1    1    2    0    0 -0.55834218679E+01  0.70506251297E+01  0.91022961912E+01  0.17167753991E+03  0.17120000000E+03 0.  0.
        998    1    1    2    0    0 -0.30497815384E+02  0.80186653267E+01  0.14021775580E+04  0.14025677595E+04  0.10000000000E+02 0. -1.
</event>
<event>
 5    1  0.1675361E-008  0.3844686E+03  0.7957747E-01  0.3431929E+00
         13   -1    0    0    0    0  0.00000000000E+00  0.00000000000E+00  0.14999999963E+04  0.15000000000E+04  0.10566000000E+00 0. -1.
        994   -1    0    0    0    0 -0.00000000000E+00 -0.00000000000E+00  0.11368683772E-12  0.17120000000E+03  0.17120000000E+03 0.  0.
         13    1    1    2    0    0 -0.64094108585E+01  0.16483399842E+02  0.77841538046E+02  0.79825429703E+02  0.10566000000E+00 0. -1.
        994    1    1    2    0    0  0.12372914188E+02 -0.16884214051E+02  0.33389761692E+01  0.17250725913E+03  0.17120000000E+03 0.  0.
        998    1    1    2    0    0 -0.59635033293E+01  0.40081420917E+00  0.14188194821E+04  0.14188673112E+04  0.10000000000E+02 0. -1.
</event>
<event>
 5    1  0.1675361E-008  0.3976929E+03  0.7957747E-01  0.3377562E+00
         13   -1    0    0    0    0  0.00000000000E+00  0.00000000000E+00  0.14999999963E+04  0.15000000000E+04  0.10566000000E+00 0. -1.
        994   -1    0    0    0    0 -0.00000000000E+00 -0.00000000000E+00  0.11368683772E-12  0.17120000000E+03  0.17120000000E+03 0.  0.
         13    1    1    2    0    0 -0.35883223311E+02 -0.26216620910E+02  0.26473362942E+02  0.51727816855E+02  0.10566000000E+00 0. -1.
        994    1    1    2    0    0  0.39978681687E+02  0.26107810134E+02  0.35300715472E+02  0.18120566562E+03  0.17120000000E+03 0.  0.
        998    1    1    2    0    0 -0.40954583765E+01  0.10881077643E+00  0.14382259179E+04  0.14382665175E+04  0.10000000000E+02 0. -1.
</event>
<event>
 5    1  0.1675361E-008  0.3848948E+03  0.7957747E-01  0.3430118E+00
         13   -1    0    0    0    0  0.00000000000E+00  0.00000000000E+00  0.14999999963E+04  0.15000000000E+04  0.10566000000E+00 0.  1.
        994   -1    0    0    0    0 -0.00000000000E+00 -0.00000000000E+00  0.11368683772E-12  0.17120000000E+03  0.17120000000E+03 0.  0.
         13    1    1    2    0    0  0.13805273777E+02  0.77407289277E+01  0.77313811531E+02  0.78917305364E+02  0.10566000000E+00 0.  1.
        994    1    1    2    0    0 -0.31203162157E+01 -0.41878759569E+01  0.17720983674E+01  0.17128880585E+03  0.17120000000E+03 0.  0.
        998    1    1    2    0    0 -0.10684957561E+02 -0.35528529708E+01  0.14209140864E+04  0.14209938888E+04  0.10000000000E+02 0.  1.
</event>
<event>
 5    1  0.1675361E-008  0.3768314E+03  0.7957747E-01  0.3465072E+00
         13   -1    0    0    0    0  0.00000000000E+00  0.00000000000E+00  0.14999999963E+04  0.15000000000E+04  0.10566000000E+00 0. -1.
        994   -1    0    0    0    0 -0.00000000000E+00 -0.00000000000E+00  0.11368683772E-12  0.17120000000E+03  0.17120000000E+03 0.  0.
         13    1    1    2    0    0  0.10002348418E+03 -0.77088009298E+02  0.59202002669E+03  0.60533873305E+03  0.10566000000E+00 0. -1.
        994    1    1    2    0    0 -0.13021159360E+03  0.75680620052E+02  0.86668829683E+02  0.24393347740E+03  0.17120000000E+03 0.  0.
        998    1    1    2    0    0  0.30188109422E+02  0.14073892459E+01  0.82131113990E+03  0.82192778954E+03  0.10000000000E+02 0.  1.
</event>
<event>
 5    1  0.1675361E-008  0.3835070E+03  0.7957747E-01  0.3436029E+00
         13   -1    0    0    0    0  0.00000000000E+00  0.00000000000E+00  0.14999999963E+04  0.15000000000E+04  0.10566000000E+00 0.  1.
        994   -1    0    0    0    0 -0.00000000000E+00 -0.00000000000E+00  0.11368683772E-12  0.17120000000E+03  0.17120000000E+03 0.  0.
         13    1    1    2    0    0 -0.80002494126E+01  0.27288622292E+02  0.15001769169E+03  0.15268920028E+03  0.10566000000E+00 0.  1.
        994    1    1    2    0    0  0.21685750186E+02 -0.27789566860E+02  0.64901900792E+01  0.17491167587E+03  0.17120000000E+03 0.  0.
        998    1    1    2    0    0 -0.13685500773E+02  0.50094456768E+00  0.13434921145E+04  0.13435991239E+04  0.10000000000E+02 0.  1.
</event>
<event>
 5    1  0.1675361E-008  0.3829079E+03  0.7957747E-01  0.3438594E+00
         13   -1    0    0    0    0  0.00000000000E+00  0.00000000000E+00  0.14999999963E+04  0.15000000000E+04  0.10566000000E+00 0. -1.
        994   -1    0    0    0    0 -0.00000000000E+00 -0.00000000000E+00  0.11368683772E-12  0.17120000000E+03  0.17120000000E+03 0.  0.
         13    1    1    2    0    0 -0.89215289085E+01 -0.19074308516E+02  0.80637014817E+02  0.83341239768E+02  0.10566000000E+00 0. -1.
        994    1    1    2    0    0  0.24124602564E+01  0.17338596165E+02  0.36877439954E+01  0.17213217694E+03  0.17120000000E+03 0.  0.
        998    1    1    2    0    0  0.65090686521E+01  0.17357123510E+01  0.14156752375E+04  0.14157265833E+04  0.10000000000E+02 0. -1.
</event>
<event>
 5    1  0.1675361E-008  0.3851907E+03  0.7957747E-01  0.3428864E+00
         13   -1    0    0    0    0  0.00000000000E+00  0.00000000000E+00  0.14999999963E+04  0.15000000000E+04  0.10566000000E+00 0. -1.
        994   -1    0    0    0    0 -0.00000000000E+00 -0.00000000000E+00  0.11368683772E-12  0.17120000000E+03  0.17120000000E+03 0.  0.
         13    1    1    2    0    0 -0.13126630357E+02  0.42177017414E+01  0.62904976538E+02  0.64398328160E+02  0.10566000000E+00 0. -1.
        994    1    1    2    0    0  0.98379388490E+01  0.76114175060E+01  0.20441510957E+01  0.17166344186E+03  0.17120000000E+03 0.  0.
        998    1    1    2    0    0  0.32886915080E+01 -0.11829119247E+02  0.14350508686E+04  0.14351382300E+04  0.10000000000E+02 0. -1.
</event>
<event>
 5    1  0.1675361E-008  0.3802349E+03  0.7957747E-01  0.3450136E+00
         13   -1    0    0    0    0  0.00000000000E+00  0.00000000000E+00  0.14999999963E+04  0.15000000000E+04  0.10566000000E+00 0.  1.
        994   -1    0    0    0    0 -0.00000000000E+00 -0.00000000000E+00  0.11368683772E-12  0.17120000000E+03  0.17120000000E+03 0.  0.
         13    1    1    2    0    0 -0.58378414652E+01 -0.95979614863E+01  0.13836883701E+02  0.17823349075E+02  0.10566000000E+00 0.  1.
        994    1    1    2    0    0  0.41981335711E+01  0.12026033798E+02  0.45567770766E+01  0.17173367181E+03  0.17120000000E+03 0.  0.
        998    1    1    2    0    0  0.16397078941E+01 -0.24280723118E+01  0.14816063355E+04  0.14816429791E+04  0.10000000000E+02 0.  1.
</event>
<event>
 5    1  0.1675361E-008  0.3827495E+03  0.7957747E-01  0.3439273E+00
         13   -1    0    0    0    0  0.00000000000E+00  0.00000000000E+00  0.14999999963E+04  0.15000000000E+04  0.10566000000E+00 0. -1.
        994   -1    0    0    0    0 -0.00000000000E+00 -0.00000000000E+00  0.11368683772E-12  0.17120000000E+03  0.17120000000E+03 0.  0.
         13    1    1    2    0    0  0.87527063601E+01 -0.16270128077E+02  0.66098914139E+02  0.68632387039E+02  0.10566000000E+00 0. -1.
        994    1    1    2    0    0 -0.21552461298E+01 -0.48154429516E+01  0.28438185789E+01  0.17130487699E+03  0.17120000000E+03 0.  0.
        998    1    1    2    0    0 -0.65974602303E+01  0.21085571029E+02  0.14310572636E+04  0.14312627360E+04  0.10000000000E+02 0. -1.
</event>
<event>
 5    1  0.1675361E-008  0.3740007E+03  0.7957747E-01  0.3477704E+00
         13   -1    0    0    0    0  0.00000000000E+00  0.00000000000E+00  0.14999999963E+04  0.15000000000E+04  0.10566000000E+00 0. -1.
        994   -1    0    0    0    0 -0.00000000000E+00 -0.00000000000E+00  0.11368683772E-12  0.17120000000E+03  0.17120000000E+03 0.  0.
         13    1    1    2    0    0 -0.81672187341E+02  0.63936335589E+01  0.20384601194E+03  0.21969167596E+03  0.10566000000E+00 0. -1.
        994    1    1    2    0    0  0.96984929803E+02  0.13782444022E+02  0.47926453734E+02  0.20298378590E+03  0.17120000000E+03 0.  0.
        998    1    1    2    0    0 -0.15312742462E+02 -0.20176077581E+02  0.12482275306E+04  0.12485245381E+04  0.10000000000E+02 0. -1.
</event>
<event>
 5    1  0.1675361E-008  0.3844137E+03  0.7957747E-01  0.3432162E+00
         13   -1    0    0    0    0  0.00000000000E+00  0.00000000000E+00  0.14999999963E+04  0.15000000000E+04  0.10566000000E+00 0. -1.
        994   -1    0    0    0    0 -0.00000000000E+00 -0.00000000000E+00  0.11368683772E-12  0.17120000000E+03  0.17120000000E+03 0.  0.
         13    1    1    2    0    0 -0.10721334606E+02 -0.70193211063E+01  0.44796762164E+02  0.46593765129E+02  0.10566000000E+00 0. -1.
        994    1    1    2    0    0 -0.64997520616E+00 -0.37105305332E+01  0.19682515929E+01  0.17125275040E+03  0.17120000000E+03 0.  0.
        998    1    1    2    0    0  0.11371309812E+02  0.10729851640E+02  0.14532349825E+04  0.14533534845E+04  0.10000000000E+02 0. -1.
</event>
<event>
 5    1  0.1675361E-008  0.3771814E+03  0.7957747E-01  0.3463524E+00
         13   -1    0    0    0    0  0.00000000000E+00  0.00000000000E+00  0.14999999963E+04  0.15000000000E+04  0.10566000000E+00 0. -1.
        994   -1    0    0    0    0 -0.00000000000E+00 -0.00000000000E+00  0.11368683772E-12  0.17120000000E+03  0.17120000000E+03 0.  0.
         13    1    1    2    0    0  0.13586210372E+03 -0.15237020375E+03  0.72564967635E+03  0.75381871439E+03  0.10566000000E+00 0. -1.
        994    1    1    2    0    0 -0.13778525139E+03  0.20810750807E+03  0.25733634431E+03  0.39727187733E+03  0.17120000000E+03 0.  0.
        998    1    1    2    0    0  0.19231476747E+01 -0.55737304318E+02  0.51701397562E+03  0.52010940828E+03  0.10000000000E+02 0. -1.
</event>
<event>
 5    1  0.1675361E-008  0.3840642E+03  0.7957747E-01  0.3433651E+00
         13   -1    0    0    0    0  0.00000000000E+00  0.00000000000E+00  0.14999999963E+04  0.15000000000E+04  0.10566000000E+00 0.  1.
        994   -1    0    0    0    0 -0.00000000000E+00 -0.00000000000E+00  0.11368683772E-12  0.17120000000E+03  0.17120000000E+03 0.  0.
         13    1    1    2    0    0  0.32338018292E+01  0.29036758405E+02  0.17445898747E+03  0.17688849676E+03  0.10566000000E+00 0.  1.
        994    1    1    2    0    0  0.13954758683E+02 -0.36515508099E+02  0.71525405499E+01  0.17575186047E+03  0.17120000000E+03 0.  0.
        998    1    1    2    0    0 -0.17188560512E+02  0.74787496940E+01  0.13183884683E+04  0.13185596428E+04  0.10000000000E+02 0.  1.
</event>
<event>
 5    1  0.1675361E-008  0.3734699E+03  0.7957747E-01  0.3480094E+00
         13   -1    0    0    0    0  0.00000000000E+00  0.00000000000E+00  0.14999999963E+04  0.15000000000E+04  0.10566000000E+00 0. -1.
        994   -1    0    0    0    0 -0.00000000000E+00 -0.00000000000E+00  0.11368683772E-12  0.17120000000E+03  0.17120000000E+03 0.  0.
         13    1    1    2    0    0  0.53315883098E+02 -0.20505581066E+02  0.11530899643E+03  0.12868270306E+03  0.10566000000E+00 0. -1.
        994    1    1    2    0    0 -0.48281345182E+02  0.27586509283E+02  0.23810420985E+02  0.18157224439E+03  0.17120000000E+03 0.  0.
        998    1    1    2    0    0 -0.50345379160E+01 -0.70809282173E+01  0.13608805789E+04  0.13609450525E+04  0.10000000000E+02 0. -1.
</event>
<event>
 5    1  0.1675361E-008  0.3842120E+03  0.7957747E-01  0.3433021E+00
         13   -1    0    0    0    0  0.00000000000E+00  0.00000000000E+00  0.14999999963E+04  0.15000000000E+04  0.10566000000E+00 0. -1.
        994   -1    0    0    0    0 -0.00000000000E+00 -0.00000000000E+00  0.11368683772E-12  0.17120000000E+03  0.17120000000E+03 0.  0.
         13    1    1    2    0    0 -0.95313694765E+00  0.13499031369E+02  0.47959749739E+02  0.49832530309E+02  0.10566000000E+00 0. -1.
        994    1    1    2    0    0 -0.11799192316E+01  0.41461750824E+01  0.20831220104E+01  0.17126693310E+03  0.17120000000E+03 0.  0.
        998    1    1    2    0    0  0.21330561793E+01 -0.17645206451E+02  0.14499571245E+04  0.14501005366E+04  0.10000000000E+02 0. -1.
</event>
<event>
 5    1  0.1675361E-008  0.3843040E+03  0.7957747E-01  0.3432629E+00
         13   -1    0    0    0    0  0.00000000000E+00  0.00000000000E+00  0.14999999963E+04  0.15000000000E+04  0.10566000000E+00 0.  1.
        994   -1    0    0    0    0 -0.00000000000E+00 -0.00000000000E+00  0.11368683772E-12  0.17120000000E+03  0.17120000000E+03 0.  0.
         13    1    1    2    0    0 -0.40506066970E+01  0.11682378445E+02  0.38667398770E+02  0.40596357871E+02  0.10566000000E+00 0.  1.
        994    1    1    2    0    0  0.51666776822E+01 -0.46004352974E+01  0.21338356097E+01  0.17135300353E+03  0.17120000000E+03 0.  0.
        998    1    1    2    0    0 -0.11160709852E+01 -0.70819431472E+01  0.14591987619E+04  0.14592506386E+04  0.10000000000E+02 0.  1.
</event>
<event>
 5    1  0.1675361E-008  0.3850797E+03  0.7957747E-01  0.3429334E+00
         13   -1    0    0    0    0  0.00000000000E+00  0.00000000000E+00  0.14999999963E+04  0.15000000000E+04  0.10566000000E+00 0.  1.
        994   -1    0    0    0    0 -0.00000000000E+00 -0.00000000000E+00  0.11368683772E-12  0.17120000000E+03  0.17120000000E+03 0.  0.
         13    1    1    2    0    0  0.24717373185E+00  0.12566749528E+02  0.48919246055E+02  0.50508297212E+02  0.10566000000E+00 0.  1.
        994    1    1    2    0    0  0.63085158998E+01 -0.11220762191E+02  0.21355548015E+01  0.17169654473E+03  0.17120000000E+03 0.  0.
        998    1    1    2    0    0 -0.65556896317E+01 -0.13459873365E+01  0.14489451954E+04  0.14489951581E+04  0.10000000000E+02 0.  1.
</event>
<event>
 5    1  0.1675361E-008  0.3713495E+03  0.7957747E-01  0.3489712E+00
         13   -1    0    0    0    0  0.00000000000E+00  0.00000000000E+00  0.14999999963E+04  0.15000000000E+04  0.10566000000E+00 0. -1.
        994   -1    0    0    0    0 -0.00000000000E+00 -0.00000000000E+00  0.11368683772E-12  0.17120000000E+03  0.17120000000E+03 0.  0.
         13    1    1    2    0    0  0.26265279794E+02  0.20164940077E+02  0.62603017959E+02  0.70821174464E+02  0.10566000000E+00 0. -1.
        994    1    1    2    0    0  0.47076672035E+01 -0.26248693769E+02  0.11016827081E+02  0.17361441914E+03  0.17120000000E+03 0.  0.
        998    1    1    2    0    0 -0.30972946997E+02  0.60837536917E+01  0.14263801512E+04  0.14267644064E+04  0.10000000000E+02 0. -1.
</event>
<event>
 5    1  0.1675361E-008  0.3845233E+03  0.7957747E-01  0.3431697E+00
         13   -1    0    0    0    0  0.00000000000E+00  0.00000000000E+00  0.14999999963E+04  0.15000000000E+04  0.10566000000E+00 0.  1.
        994   -1    0    0    0    0 -0.00000000000E+00 -0.00000000000E+00  0.11368683772E-12  0.17120000000E+03  0.17120000000E+03 0.  0.
         13    1    1    2    0    0 -0.59913859559E+01  0.13244742786E+02  0.56609329641E+02  0.58446105804E+02  0.10566000000E+00 0.  1.
        994    1    1    2    0    0  0.27339583506E+01 -0.84124608502E+01  0.21247767846E+01  0.17144153144E+03  0.17120000000E+03 0.  0.
        998    1    1    2    0    0  0.32574276054E+01 -0.48322819361E+01  0.14412658899E+04  0.14413123628E+04  0.10000000000E+02 0.  1.
</event>
<event>
 5    1  0.1675361E-008  0.3859942E+03  0.7957747E-01  0.3425467E+00
         13   -1    0    0    0    0  0.00000000000E+00  0.00000000000E+00  0.14999999963E+04  0.15000000000E+04  0.10566000000E+00 0. -1.
        994   -1    0    0    0    0 -0.00000000000E+00 -0.00000000000E+00  0.11368683772E-12  0.17120000000E+03  0.17120000000E+03 0.  0.
         13    1    1    2    0    0  0.66055015998E+01  0.10905871721E+02  0.70470045454E+02  0.71614308344E+02  0.10566000000E+00 0. -1.
        994    1    1    2    0    0 -0.41341734938E+01 -0.11199373948E+02  0.16046711134E+01  0.17162322785E+03  0.17120000000E+03 0.  0.
        998    1    1    2    0    0 -0.24713281060E+01  0.29350222664E+00  0.14279252797E+04  0.14279624638E+04  0.10000000000E+02 0. -1.
</event>
<event>
 5    1  0.1675361E-008  0.3838193E+03  0.7957747E-01  0.3434695E+00
         13   -1    0    0    0    0  0.00000000000E+00  0.00000000000E+00  0.14999999963E+04  0.15000000000E+04  0.10566000000E+00 0. -1.
        994   -1    0    0    0    0 -0.00000000000E+00 -0.00000000000E+00  0.11368683772E-12  0.17120000000E+03  0.17120000000E+03 0.  0.
         13    1    1    2    0    0 -0.17877007186E+02 -0.12542432962E+02  0.99502164787E+02  0.10187046663E+03  0.10566000000E+00 0. -1.
        994    1    1    2    0    0  0.20141060020E+02  0.13984979543E+02  0.42048454324E+01  0.17299815802E+03  0.17120000000E+03 0.  0.
        998    1    1    2    0    0 -0.22640528348E+01 -0.14425465810E+01  0.13962929861E+04  0.13963313754E+04  0.10000000000E+02 0. -1.
</event>
<event>
 5    1  0.1675361E-008  0.3815511E+03  0.7957747E-01  0.3444433E+00
         13   -1    0    0    0    0  0.00000000000E+00  0.00000000000E+00  0.14999999963E+04  0.15000000000E+04  0.10566000000E+00 0.  1.
        994   -1    0    0    0    0 -0.00000000000E+00 -0.00000000000E+00  0.11368683772E-12  0.17120000000E+03  0.17120000000E+03 0.  0.
         13    1    1    2    0    0 -0.21601330045E+02 -0.60404469411E+02  0.31691978357E+03  0.32334730208E+03  0.10566000000E+00 0.  1.
        994    1    1    2    0    0  0.30991391627E+02  0.10136717724E+03  0.41669478057E+02  0.20562479514E+03  0.17120000000E+03 0.  0.
        998    1    1    2    0    0 -0.93900615826E+01 -0.40962707827E+02  0.11414107347E+04  0.11422279028E+04  0.10000000000E+02 0.  1.
</event>
<event>
 5    1  0.1675361E-008  0.3852266E+03  0.7957747E-01  0.3428712E+00
         13   -1    0    0    0    0  0.00000000000E+00  0.00000000000E+00  0.14999999963E+04  0.15000000000E+04  0.10566000000E+00 0. -1.
        994   -1    0    0    0    0 -0.00000000000E+00 -0.00000000000E+00  0.11368683772E-12  0.17120000000E+03  0.17120000000E+03 0.  0.
         13    1    1    2    0    0 -0.34997379271E+01 -0.12833445100E+02  0.51187779241E+02  0.52888045780E+02  0.10566000000E+00 0. -1.
        994    1    1    2    0    0 -0.79352741140E+01  0.35570379576E+02  0.58947426691E+01  0.17513540039E+03  0.17120000000E+03 0.  0.
        998    1    1    2    0    0  0.11435012041E+02 -0.22736934476E+02  0.14429174744E+04  0.14431765538E+04  0.10000000000E+02 0. -1.
</event>
<event>
 5    1  0.1675361E-008  0.3729836E+03  0.7957747E-01  0.3482290E+00
         13   -1    0    0    0    0  0.00000000000E+00  0.00000000000E+00  0.14999999963E+04  0.15000000000E+04  0.10566000000E+00 0.  1.
        994   -1    0    0    0    0 -0.00000000000E+00 -0.00000000000E+00  0.11368683772E-12  0.17120000000E+03  0.17120000000E+03 0.  0.
         13    1    1    2    0    0  0.12366420945E+03 -0.96520200382E+02  0.55443368945E+03  0.57619936909E+03  0.10566000000E+00 0.  1.
        994    1    1    2    0    0 -0.12554611444E+03  0.17230738824E+03  0.18392237242E+03  0.32952775599E+03  0.17120000000E+03 0.  0.
        998    1    1    2    0    0  0.18819049899E+01 -0.75787187861E+02  0.76164393441E+03  0.76547287492E+03  0.10000000000E+02 0. -1.
</event>
<event>
 5    1  0.1675361E-008  0.3821697E+03  0.7957747E-01  0.3441765E+00
         13   -1    0    0    0    0  0.00000000000E+00  0.00000000000E+00  0.14999999963E+04  0.15000000000E+04  0.10566000000E+00 0. -1.
        994   -1    0    0    0    0 -0.00000000000E+00 -0.00000000000E+00  0.11368683772E-12  0.17120000000E+03  0.17120000000E+03 0.  0.
         13    1    1    2    0    0  0.44403541258E+01 -0.92525885297E+01  0.16932856157E+02  0.19800503047E+02  0.10566000000E+00 0. -1.
        994    1    1    2    0    0 -0.61988687723E+01 -0.15517360036E+02  0.39691981922E+01  0.17205931817E+03  0.17120000000E+03 0.  0.
        998    1    1    2    0    0  0.17585146464E+01  0.24769948566E+02  0.14790979419E+04  0.14793401788E+04  0.10000000000E+02 0. -1.
</event>
<event>
 5    1  0.1675361E-008  0.3775277E+03  0.7957747E-01  0.3461994E+00
         13   -1    0    0    0    0  0.00000000000E+00  0.00000000000E+00  0.14999999963E+04  0.15000000000E+04  0.10566000000E+00 0. -1.
        994   -1    0    0    0    0 -0.00000000000E+00 -0.00000000000E+00  0.11368683772E-12  0.17120000000E+03  0.17120000000E+03 0.  0.
         13    1    1    2    0    0 -0.10561348218E+02  0.23623769071E+02  0.61053141746E+02  0.66310797178E+02  0.10566000000E+00 0. -1.
        994    1    1    2    0    0  0.79028556582E+01 -0.10121921104E+02  0.59423735149E+01  0.17178376005E+03  0.17120000000E+03 0.  0.
        998    1    1    2    0    0  0.26584925598E+01 -0.13501847967E+02  0.14330044810E+04  0.14331054428E+04  0.10000000000E+02 0. -1.
</event>
<event>
 5    1  0.1675361E-008  0.3807042E+03  0.7957747E-01  0.3448098E+00
         13   -1    0    0    0    0  0.00000000000E+00  0.00000000000E+00  0.14999999963E+04  0.15000000000E+04  0.10566000000E+00 0. -1.
        994   -1    0    0    0    0 -0.00000000000E+00 -0.00000000000E+00  0.11368683772E-12  0.17120000000E+03  0.17120000000E+03 0.  0.
         13    1    1    2    0    0  0.29371990121E+02 -0.15343472621E+02  0.13215889929E+03  0.13625021755E+03  0.10566000000E+00 0. -1.
        994    1    1    2    0    0 -0.34114763488E+02  0.79208216642E+01  0.78796911919E+01  0.17492308606E+03  0.17120000000E+03 0.  0.
        998    1    1    2    0    0  0.47427733674E+01  0.74226509571E+01  0.13599614058E+04  0.13600266964E+04  0.10000000000E+02 0. -1.
</event>
<event>
 5    1  0.1675361E-008  0.3794554E+03  0.7957747E-01  0.3453533E+00
         13   -1    0    0    0    0  0.00000000000E+00  0.00000000000E+00  0.14999999963E+04  0.15000000000E+04  0.10566000000E+00 0. -1.
        994   -1    0    0    0    0 -0.00000000000E+00 -0.00000000000E+00  0.11368683772E-12  0.17120000000E+03  0.17120000000E+03 0.  0.
         13    1    1    2    0    0 -0.23864476493E+02 -0.28702554748E+02  0.13570118502E+03  0.14074151011E+03  0.10566000000E+00 0. -1.
        994    1    1    2    0    0  0.25051736510E+02  0.40283777949E+02  0.11981823710E+02  0.17805441968E+03  0.17120000000E+03 0.  0.
        998    1    1    2    0    0 -0.11872600168E+01 -0.11581223201E+02  0.13523169875E+04  0.13524040702E+04  0.10000000000E+02 0. -1.
</event>
<event>
 5    1  0.1675361E-008  0.3820783E+03  0.7957747E-01  0.3442159E+00
         13   -1    0    0    0    0  0.00000000000E+00  0.00000000000E+00  0.14999999963E+04  0.15000000000E+04  0.10566000000E+00 0.  1.
        994   -1    0    0    0    0 -0.00000000000E+00 -0.00000000000E+00  0.11368683772E-12  0.17120000000E+03  0.17120000000E+03 0.  0.
         13    1    1    2    0    0  0.26454253425E+02 -0.14971661682E+00  0.11502318235E+03  0.11802624108E+03  0.10566000000E+00 0.  1.
        994    1    1    2    0    0 -0.12322815219E+02  0.45830128568E+01  0.36617821630E+01  0.17174313503E+03  0.17120000000E+03 0.  0.
        998    1    1    2    0    0 -0.14131438206E+02 -0.44332962400E+01  0.13813150318E+04  0.13814306239E+04  0.10000000000E+02 0.  1.
</event>
<event>
 5    1  0.1675361E-008  0.3843900E+03  0.7957747E-01  0.3432263E+00
         13   -1    0    0    0    0  0.00000000000E+00  0.00000000000E+00  0.14999999963E+04  0.15000000000E+04  0.10566000000E+00 0.  1.
        994   -1    0    0    0    0 -0.00000000000E+00 -0.00000000000E+00  0.11368683772E-12  0.17120000000E+03  0.17120000000E+03 0.  0.
         13    1    1    2    0    0 -0.49619292791E+01 -0.10166370196E+02  0.32734280615E+02  0.34634088938E+02  0.10566000000E+00 0.  1.
        994    1    1    2    0    0  0.25566645721E+00  0.78672236492E+01  0.21374804895E+01  0.17139418717E+03  0.17120000000E+03 0.  0.
        998    1    1    2    0    0  0.47062628219E+01  0.22991465473E+01  0.14651282352E+04  0.14651717239E+04  0.10000000000E+02 0.  1.
</event>
<event>
 5    1  0.1675361E-008  0.3781589E+03  0.7957747E-01  0.3459214E+00
         13   -1    0    0    0    0  0.00000000000E+00  0.00000000000E+00  0.14999999963E+04  0.15000000000E+04  0.10566000000E+00 0. -1.
        994   -1    0    0    0    0 -0.00000000000E+00 -0.00000000000E+00  0.11368683772E-12  0.17120000000E+03  0.17120000000E+03 0.  0.
         13    1    1    2    0    0  0.26327901384E+02 -0.69345583771E+02  0.31052639387E+03  0.31926262048E+03  0.10566000000E+00 0. -1.
        994    1    1    2    0    0 -0.10489557215E+01  0.12168358565E+03  0.56605744372E+02  0.21753538935E+03  0.17120000000E+03 0.  0.
        998    1    1    2    0    0 -0.25278945662E+02 -0.52338001876E+02  0.11328678580E+04  0.11344019902E+04  0.10000000000E+02 0. -1.
</event>
<event>
 5    1  0.1675361E-008  0.3844081E+03  0.7957747E-01  0.3432186E+00
         13   -1    0    0    0    0  0.00000000000E+00  0.00000000000E+00  0.14999999963E+04  0.15000000000E+04  0.10566000000E+00 0.  1.
        994   -1    0    0    0    0 -0.00000000000E+00 -0.00000000000E+00  0.11368683772E-12  0.17120000000E+03  0.17120000000E+03 0.  0.
         13    1    1    2    0    0  0.17101894065E+02  0.25527507447E+01  0.81505668647E+02  0.83319724571E+02  0.10566000000E+00 0.  1.
        994    1    1    2    0    0 -0.35958299037E+01  0.99661483418E+00  0.19701727983E+01  0.17125199215E+03  0.17120000000E+03 0.  0.
        998    1    1    2    0    0 -0.13506064161E+02 -0.35493655789E+01  0.14165241548E+04  0.14166282833E+04  0.10000000000E+02 0.  1.
</event>
<event>
 5    1  0.1675361E-008  0.3783496E+03  0.7957747E-01  0.3458377E+00
         13   -1    0    0    0    0  0.00000000000E+00  0.00000000000E+00  0.14999999963E+04  0.15000000000E+04  0.10566000000E+00 0. -1.
        994   -1    0    0    0    0 -0.00000000000E+00 -0.00000000000E+00  0.11368683772E-12  0.17120000000E+03  0.17120000000E+03 0.  0.
         13    1    1    2    0    0  0.41901214061E+02 -0.79168505216E+01  0.15709306006E+03  0.16277785152E+03  0.10566000000E+00 0. -1.
        994    1    1    2    0    0 -0.48835972851E+02  0.73008475585E+01  0.13208336846E+02  0.17866772171E+03  0.17120000000E+03 0.  0.
        998    1    1    2    0    0  0.69347587894E+01  0.61600296306E+00  0.13296985994E+04  0.13297544268E+04  0.10000000000E+02 0. -1.
</event>
<event>
 5    1  0.1675361E-008  0.3756374E+03  0.7957747E-01  0.3470377E+00
         13   -1    0    0    0    0  0.00000000000E+00  0.00000000000E+00  0.14999999963E+04  0.15000000000E+04  0.10566000000E+00 0.  1.
        994   -1    0    0    0    0 -0.00000000000E+00 -0.00000000000E+00  0.11368683772E-12  0.17120000000E+03  0.17120000000E+03 0.  0.
         13    1    1    2    0    0 -0.11634446192E+02  0.35828098298E+02  0.11105181904E+03  0.11726692049E+03  0.10566000000E+00 0.  1.
        994    1    1    2    0    0  0.15235585594E+02 -0.15785877882E+02  0.79860732228E+01  0.17278464739E+03  0.17120000000E+03 0.  0.
        998    1    1    2    0    0 -0.36011394017E+01 -0.20042220416E+02  0.13809621040E+04  0.13811484321E+04  0.10000000000E+02 0.  1.
</event>
<event>
 5    1  0.1675361E-008  0.3834043E+03  0.7957747E-01  0.3436468E+00
         13   -1    0    0    0    0  0.00000000000E+00  0.00000000000E+00  0.14999999963E+04  0.15000000000E+04  0.10566000000E+00 0. -1.
        994   -1    0    0    0    0 -0.00000000000E+00 -0.00000000000E+00  0.11368683772E-12  0.17120000000E+03  0.17120000000E+03 0.  0.
         13    1    1    2    0    0  0.18146540211E+02 -0.13840891094E+03  0.58997003644E+03  0.60625982764E+03  0.10566000000E+00 0. -1.
        994    1    1    2    0    0  0.67253550588E+02  0.89069493040E+02  0.65492876954E+02  0.21460468678E+03  0.17120000000E+03 0.  0.
        998    1    1    2    0    0 -0.85400090799E+02  0.49339417896E+02  0.84453708289E+03  0.85033548558E+03  0.10000000000E+02 0. -1.
</event>
<event>
 5    1  0.1675361E-008  0.3813854E+03  0.7957747E-01  0.3445148E+00
         13   -1    0    0    0    0  0.00000000000E+00  0.00000000000E+00  0.14999999963E+04  0.15000000000E+04  0.10566000000E+00 0.  1.
        994   -1    0    0    0    0 -0.00000000000E+00 -0.00000000000E+00  0.11368683772E-12  0.17120000000E+03  0.17120000000E+03 0.  0.
         13    1    1    2    0    0 -0.13621365593E+02 -0.89878480829E+01  0.35739332925E+02  0.39289109124E+02  0.10566000000E+00 0.  1.
        994    1    1    2    0    0  0.30409245622E+02 -0.13618308789E+01  0.65249173795E+01  0.17400744625E+03  0.17120000000E+03 0.  0.
        998    1    1    2    0    0 -0.16787880029E+02  0.10349678962E+02  0.14577357460E+04  0.14579034446E+04  0.10000000000E+02 0.  1.
</event>
<event>
 5    1  0.1675361E-008  0.3850283E+03  0.7957747E-01  0.3429552E+00
         13   -1    0    0    0    0  0.00000000000E+00  0.00000000000E+00  0.14999999963E+04  0.15000000000E+04  0.10566000000E+00 0.  1.
        994   -1    0    0    0    0 -0.00000000000E+00 -0.00000000000E+00  0.11368683772E-12  0.17120000000E+03  0.17120000000E+03 0.  0.
         13    1    1    2    0    0  0.10116253608E+02 -0.13354848176E+02  0.84623330399E+02  0.86265924725E+02  0.10566000000E+00 0.  1.
        994    1    1    2    0    0 -0.52210100345E+01  0.14320953437E+02  0.23805188640E+01  0.17189373323E+03  0.17120000000E+03 0.  0.
        998    1    1    2    0    0 -0.48952435731E+01 -0.96610526096E+00  0.14129961470E+04  0.14130403420E+04  0.10000000000E+02 0.  0.
</event>
<event>
 5    1  0.1675361E-008  0.3745638E+03  0.7957747E-01  0.3475176E+00
         13   -1    0    0    0    0  0.00000000000E+00  0.00000000000E+00  0.14999999963E+04  0.15000000000E+04  0.10566000000E+00 0.  1.
        994   -1    0    0    0    0 -0.00000000000E+00 -0.00000000000E+00  0.11368683772E-12  0.17120000000E+03  0.17120000000E+03 0.  0.
         13    1    1    2    0    0  0.18510131031E+02 -0.45199885703E+01  0.23137680341E+02  0.29973632797E+02  0.10566000000E+00 0.  1.
        994    1    1    2    0    0 -0.16792488792E+02  0.50384270157E+01  0.79499714854E+01  0.17227888865E+03  0.17120000000E+03 0.  0.
        998    1    1    2    0    0 -0.17176422386E+01 -0.51843844543E+00  0.14689123445E+04  0.14689474786E+04  0.10000000000E+02 0.  1.
</event>
<event>
 5    1  0.1675361E-008  0.3820206E+03  0.7957747E-01  0.3442407E+00
         13   -1    0    0    0    0  0.00000000000E+00  0.00000000000E+00  0.14999999963E+04  0.15000000000E+04  0.10566000000E+00 0.  1.
        994   -1    0    0    0    0 -0.00000000000E+00 -0.00000000000E+00  0.11368683772E-12  0.17120000000E+03  0.17120000000E+03 0.  0.
         13    1    1    2    0    0  0.33898894717E+01  0.32925030442E+02  0.16673315688E+03  0.16998678109E+03  0.10566000000E+00 0.  1.
        994    1    1    2    0    0  0.36135532210E+01 -0.26208391838E+02  0.54444141380E+01  0.17331768293E+03  0.17120000000E+03 0.  0.
        998    1    1    2    0    0 -0.70034426927E+01 -0.67166386038E+01  0.13278224253E+04  0.13278955360E+04  0.10000000000E+02 0.  1.
</event>
<event>
 5    1  0.1675361E-008  0.3802569E+03  0.7957747E-01  0.3450041E+00
         13   -1    0    0    0    0  0.00000000000E+00  0.00000000000E+00  0.14999999963E+04  0.15000000000E+04  0.10566000000E+00 0.  1.
        994   -1    0    0    0    0 -0.00000000000E+00 -0.00000000000E+00  0.11368683772E-12  0.17120000000E+03  0.17120000000E+03 0.  0.
         13    1    1    2    0    0  0.41149386441E+02 -0.96375748683E+01  0.25198590750E+03  0.25550550600E+03  0.10566000000E+00 0.  1.
        994    1    1    2    0    0 -0.92536303248E+01  0.26349703498E+01  0.43127996899E+01  0.17152438014E+03  0.17120000000E+03 0.  0.
        998    1    1    2    0    0 -0.31895756117E+02  0.70026045185E+01  0.12437012891E+04  0.12441701139E+04  0.10000000000E+02 0.  1.
</event>
<event>
 5    1  0.3141021E-008  0.3861432E+03  0.7957747E-01  0.3424838E+00
         13   -1    0    0    0    0  0.00000000000E+00  0.00000000000E+00  0.14999999963E+04  0.15000000000E+04  0.10566000000E+00 0.  1.
        994   -1    0    0    0    0 -0.00000000000E+00 -0.00000000000E+00  0.11368683772E-12  0.17120000000E+03  0.17120000000E+03 0.  0.
         13    1    1    2    0    0  0.51347895265E+01  0.93208182905E+01  0.52145767846E+02  0.53220634959E+02  0.10566000000E+00 0.  1.
        994    1    1    2    0    0 -0.28248594905E+01 -0.12391282483E+02  0.15930215038E+01  0.17167848272E+03  0.17120000000E+03 0.  0.
        998    1    1    2    0    0 -0.23099300360E+01  0.30704641927E+01  0.14462612069E+04  0.14463008823E+04  0.10000000000E+02 0.  1.
</event>
<event>
 5    1  0.1675361E-008  0.3733646E+03  0.7957747E-01  0.3480569E+00
         13   -1    0    0    0    0  0.00000000000E+00  0.00000000000E+00  0.14999999963E+04  0.15000000000E+04  0.10566000000E+00 0. -1.
        994   -1    0    0    0    0 -0.00000000000E+00 -0.00000000000E+00  0.11368683772E-12  0.17120000000E+03  0.17120000000E+03 0.  0.
         13    1    1    2    0    0 -0.11483616525E+02 -0.91872817960E+01  0.11040916443E+02  0.18390013464E+02  0.10566000000E+00 0. -1.
        994    1    1    2    0    0  0.81076095207E+01  0.57897288861E+01  0.78602735121E+01  0.17166967756E+03  0.17120000000E+03 0.  0.
        998    1    1    2    0    0  0.33760070038E+01  0.33975529099E+01  0.14810988063E+04  0.14811403090E+04  0.10000000000E+02 0. -1.
</event>
<event>
 5    1  0.1675361E-008  0.3828430E+03  0.7957747E-01  0.3438872E+00
         13   -1    0    0    0    0  0.00000000000E+00  0.00000000000E+00  0.14999999963E+04  0.15000000000E+04  0.10566000000E+00 0. -1.
        994   -1    0    0    0    0 -0.00000000000E+00 -0.00000000000E+00  0.11368683772E-12  0.17120000000E+03  0.17120000000E+03 0.  0.
         13    1    1    2    0    0  0.22342008240E+02 -0.24317022791E+02  0.18373157521E+03  0.18667561657E+03  0.10566000000E+00 0. -1.
        994    1    1    2    0    0 -0.20427905183E+02  0.21748318775E+02  0.56589059235E+01  0.17387280378E+03  0.17120000000E+03 0.  0.
        998    1    1    2    0    0 -0.19141030575E+01  0.25687040162E+01  0.13106095151E+04  0.13106515796E+04  0.10000000000E+02 0. -1.
</event>
<event>
 5    1  0.1675361E-008  0.3694723E+03  0.7957747E-01  0.3498320E+00
         13   -1    0    0    0    0  0.00000000000E+00  0.00000000000E+00  0.14999999963E+04  0.15000000000E+04  0.10566000000E+00 0.  1.
        994   -1    0    0    0    0 -0.00000000000E+00 -0.00000000000E+00  0.11368683772E-12  0.17120000000E+03  0.17120000000E+03 0.  0.
         13    1    1    2    0    0 -0.12233594732E+02  0.60575580765E+02  0.21300804882E+03  0.22179157300E+03  0.10566000000E+00 0.  1.
        994    1    1    2    0    0  0.66641334559E+01 -0.20930173924E+02  0.11218242350E+02  0.17296754556E+03  0.17120000000E+03 0.  0.
        998    1    1    2    0    0  0.55694612757E+01 -0.39645406841E+02  0.12757737051E+04  0.12764408814E+04  0.10000000000E+02 0.  1.
</event>
<event>
 5    1  0.1675361E-008  0.3822337E+03  0.7957747E-01  0.3441490E+00
         13   -1    0    0    0    0  0.00000000000E+00  0.00000000000E+00  0.14999999963E+04  0.15000000000E+04  0.10566000000E+00 0. -1.
        994   -1    0    0    0    0 -0.00000000000E+00 -0.00000000000E+00  0.11368683772E-12  0.17120000000E+03  0.17120000000E+03 0.  0.
         13    1    1    2    0    0  0.11353174840E+00 -0.11071571756E+02  0.19440705900E+02  0.22372858568E+02  0.10566000000E+00 0. -1.
        994    1    1    2    0    0  0.80687970091E+01  0.32865735164E+01  0.32617413924E+01  0.17145257656E+03  0.17120000000E+03 0.  0.
        998    1    1    2    0    0 -0.81823287575E+01  0.77849982392E+01  0.14772975490E+04  0.14773745649E+04  0.10000000000E+02 0. -1.
</event>
<event>
 5    1  0.1675361E-008  0.3852706E+03  0.7957747E-01  0.3428525E+00
         13   -1    0    0    0    0  0.00000000000E+00  0.00000000000E+00  0.14999999963E+04  0.15000000000E+04  0.10566000000E+00 0.  1.
        994   -1    0    0    0    0 -0.00000000000E+00 -0.00000000000E+00  0.11368683772E-12  0.17120000000E+03  0.17120000000E+03 0.  0.
         13    1    1    2    0    0  0.15282370466E+02 -0.82617250403E+01  0.94536426605E+02  0.96119478083E+02  0.10566000000E+00 0.  1.
        994    1    1    2    0    0 -0.15655606590E+02  0.12619397975E+02  0.28255447182E+01  0.17240003169E+03  0.17120000000E+03 0.  0.
        998    1    1    2    0    0  0.37323612346E+00 -0.43576729345E+01  0.14026380250E+04  0.14026804902E+04  0.10000000000E+02 0.  1.
</event>
<event>
 5    1  0.1675361E-008  0.3791684E+03  0.7957747E-01  0.3454787E+00
         13   -1    0    0    0    0  0.00000000000E+00  0.00000000000E+00  0.14999999963E+04  0.15000000000E+04  0.10566000000E+00 0. -1.
        994   -1    0    0    0    0 -0.00000000000E+00 -0.00000000000E+00  0.11368683772E-12  0.17120000000E+03  0.17120000000E+03 0.  0.
         13    1    1    2    0    0 -0.86109808845E+01  0.24272168776E+02  0.69373651743E+02  0.74000012764E+02  0.10566000000E+00 0. -1.
        994    1    1    2    0    0  0.76992029592E+01 -0.21034058118E+02  0.62371044464E+01  0.17277167244E+03  0.17120000000E+03 0.  0.
        998    1    1    2    0    0  0.91177792525E+00 -0.32381106582E+01  0.14243892401E+04  0.14244283148E+04  0.10000000000E+02 0. -1.
</event>
<event>
 5    1  0.1675361E-008  0.3843207E+03  0.7957747E-01  0.3432558E+00
         13   -1    0    0    0    0  0.00000000000E+00  0.00000000000E+00  0.14999999963E+04  0.15000000000E+04  0.10566000000E+00 0.  1.
        994   -1    0    0    0    0 -0.00000000000E+00 -0.00000000000E+00  0.11368683772E-12  0.17120000000E+03  0.17120000000E+03 0.  0.
         13    1    1    2    0    0  0.91522889202E+01  0.11743143042E+02  0.54782272450E+02  0.56769484230E+02  0.10566000000E+00 0.  1.
        994    1    1    2    0    0 -0.54431408337E+01 -0.13459925406E+02  0.26628353685E+01  0.17183517703E+03  0.17120000000E+03 0.  0.
        998    1    1    2    0    0 -0.37091480865E+01  0.17167823636E+01  0.14425548885E+04  0.14425953387E+04  0.10000000000E+02 0.  1.
</event>
<event>
 5    1  0.1675361E-008  0.3832791E+03  0.7957747E-01  0.3437004E+00
         13   -1    0    0    0    0  0.00000000000E+00  0.00000000000E+00  0.14999999963E+04  0.15000000000E+04  0.10566000000E+00 0.  1.
        994   -1    0    0    0    0 -0.00000000000E+00 -0.00000000000E+00  0.11368683772E-12  0.17120000000E+03  0.17120000000E+03 0.  0.
         13    1    1    2    0    0  0.19201749059E+02  0.13507421379E+02  0.10619614019E+03  0.10876023609E+03  0.10566000000E+00 0.  1.
        994    1    1    2    0    0 -0.16568052855E+02 -0.11195754868E+02  0.38104098255E+01  0.17240592950E+03  0.17120000000E+03 0.  0.
        998    1    1    2    0    0 -0.26336962046E+01 -0.23116665112E+01  0.13899934463E+04  0.13900338344E+04  0.10000000000E+02 0.  1.
</event>
<event>
 5    1  0.1675361E-008  0.3814001E+03  0.7957747E-01  0.3445085E+00
         13   -1    0    0    0    0  0.00000000000E+00  0.00000000000E+00  0.14999999963E+04  0.15000000000E+04  0.10566000000E+00 0.  1.
        994   -1    0    0    0    0 -0.00000000000E+00 -0.00000000000E+00  0.11368683772E-12  0.17120000000E+03  0.17120000000E+03 0.  0.
         13    1    1    2    0    0 -0.16001896802E+02  0.20213845294E+02  0.89856031564E+02  0.93481430323E+02  0.10566000000E+00 0.  1.
        994    1    1    2    0    0  0.43003651575E+02 -0.28190544322E+01  0.96329046603E+01  0.17680354626E+03  0.17120000000E+03 0.  0.
        998    1    1    2    0    0 -0.27001754773E+02 -0.17394790862E+02  0.14005110601E+04  0.14009150234E+04  0.10000000000E+02 0.  1.
</event>
<event>
 5    1  0.1675361E-008  0.3893375E+03  0.7957747E-01  0.3411482E+00
         13   -1    0    0    0    0  0.00000000000E+00  0.00000000000E+00  0.14999999963E+04  0.15000000000E+04  0.10566000000E+00 0. -1.
        994   -1    0    0    0    0 -0.00000000000E+00 -0.00000000000E+00  0.11368683772E-12  0.17120000000E+03  0.17120000000E+03 0.  0.
         13    1    1    2    0    0  0.12106855824E+03 -0.19288735016E+02  0.28483211818E+03  0.31009514315E+03  0.10566000000E+00 0. -1.
        994    1    1    2    0    0 -0.11103194859E+03  0.24719861379E+02  0.71931277761E+02  0.21776756846E+03  0.17120000000E+03 0.  0.
        998    1    1    2    0    0 -0.10036609646E+02 -0.54311263637E+01  0.11432366003E+04  0.11433372884E+04  0.10000000000E+02 0. -1.
</event>
<event>
 5    1  0.1675361E-008  0.3811805E+03  0.7957747E-01  0.3446034E+00
         13   -1    0    0    0    0  0.00000000000E+00  0.00000000000E+00  0.14999999963E+04  0.15000000000E+04  0.10566000000E+00 0. -1.
        994   -1    0    0    0    0 -0.00000000000E+00 -0.00000000000E+00  0.11368683772E-12  0.17120000000E+03  0.17120000000E+03 0.  0.
         13    1    1    2    0    0  0.12747484220E+02 -0.17737939649E+01  0.21754583337E+02  0.25276822568E+02  0.10566000000E+00 0. -1.
        994    1    1    2    0    0 -0.13905197930E+02 -0.85739753968E+01  0.44275613643E+01  0.17203462118E+03  0.17120000000E+03 0.  0.
        998    1    1    2    0    0  0.11577137105E+01  0.10347769362E+02  0.14738178516E+04  0.14738885563E+04  0.10000000000E+02 0. -1.
</event>
<event>
 5    1  0.1675361E-008  0.3743768E+03  0.7957747E-01  0.3476015E+00
         13   -1    0    0    0    0  0.00000000000E+00  0.00000000000E+00  0.14999999963E+04  0.15000000000E+04  0.10566000000E+00 0.  1.
        994   -1    0    0    0    0 -0.00000000000E+00 -0.00000000000E+00  0.11368683772E-12  0.17120000000E+03  0.17120000000E+03 0.  0.
         13    1    1    2    0    0 -0.41138128983E+02  0.16168218034E+02  0.13898066398E+03  0.14584029984E+03  0.10566000000E+00 0.  1.
        994    1    1    2    0    0  0.14839215972E+02 -0.27739779398E+02  0.10377776189E+02  0.17437556001E+03  0.17120000000E+03 0.  0.
        998    1    1    2    0    0  0.26298913011E+02  0.11571561364E+02  0.13506415561E+04  0.13509841402E+04  0.10000000000E+02 0.  1.
</event>
<event>
 5    1  0.1675361E-008  0.3773042E+03  0.7957747E-01  0.3462981E+00
         13   -1    0    0    0    0  0.00000000000E+00  0.00000000000E+00  0.14999999963E+04  0.15000000000E+04  0.10566000000E+00 0. -1.
        994   -1    0    0    0    0 -0.00000000000E+00 -0.00000000000E+00  0.11368683772E-12  0.17120000000E+03  0.17120000000E+03 0.  0.
         13    1    1    2    0    0  0.55724001620E+01  0.15747943702E+02  0.22742655408E+02  0.28218591628E+02  0.10566000000E+00 0. -1.
        994    1    1    2    0    0 -0.48144416215E+01 -0.16161519374E+02  0.64599543618E+01  0.17214977365E+03  0.17120000000E+03 0.  0.
        998    1    1    2    0    0 -0.75795854055E+00  0.41357567195E+00  0.14707973865E+04  0.14708316347E+04  0.10000000000E+02 0.  0.
</event>
<event>
 5    1  0.1675361E-008  0.3851525E+03  0.7957747E-01  0.3429026E+00
         13   -1    0    0    0    0  0.00000000000E+00  0.00000000000E+00  0.14999999963E+04  0.15000000000E+04  0.10566000000E+00 0. -1.
        994   -1    0    0    0    0 -0.00000000000E+00 -0.00000000000E+00  0.11368683772E-12  0.17120000000E+03  0.17120000000E+03 0.  0.
         13    1    1    2    0    0  0.21778475277E+02 -0.11094957269E+02  0.14635463480E+03  0.14838157013E+03  0.10566000000E+00 0. -1.
        994    1    1    2    0    0 -0.45246184493E+02  0.94169307872E+01  0.86069389869E+01  0.17753708118E+03  0.17120000000E+03 0.  0.
        998    1    1    2    0    0  0.23467709216E+02  0.16780264820E+01  0.13450384225E+04  0.13452813487E+04  0.10000000000E+02 0. -1.
</event>
<event>
 5    1  0.1675361E-008  0.3761863E+03  0.7957747E-01  0.3467934E+00
         13   -1    0    0    0    0  0.00000000000E+00  0.00000000000E+00  0.14999999963E+04  0.15000000000E+04  0.10566000000E+00 0. -1.
        994   -1    0    0    0    0 -0.00000000000E+00 -0.00000000000E+00  0.11368683772E-12  0.17120000000E+03  0.17120000000E+03 0.  0.
         13    1    1    2    0    0 -0.52490763795E+00 -0.32001481666E+02  0.75681670035E+02  0.82171142746E+02  0.10566000000E+00 0. -1.
        994    1    1    2    0    0 -0.88956417274E+01  0.41398442322E+02  0.12165387344E+02  0.17677782700E+03  0.17120000000E+03 0.  0.
        998    1    1    2    0    0  0.94205493653E+01 -0.93969606559E+01  0.14121529389E+04  0.14122510303E+04  0.10000000000E+02 0. -1.
</event>
<event>
 5    1  0.1675361E-008  0.3785433E+03  0.7957747E-01  0.3457526E+00
         13   -1    0    0    0    0  0.00000000000E+00  0.00000000000E+00  0.14999999963E+04  0.15000000000E+04  0.10566000000E+00 0.  1.
        994   -1    0    0    0    0 -0.00000000000E+00 -0.00000000000E+00  0.11368683772E-12  0.17120000000E+03  0.17120000000E+03 0.  0.
         13    1    1    2    0    0  0.17552173491E+02  0.11545458683E+02  0.45199363777E+02  0.49843455542E+02  0.10566000000E+00 0.  1.
        994    1    1    2    0    0 -0.67053149163E+01  0.64477406537E+01  0.51610189153E+01  0.17153020353E+03  0.17120000000E+03 0.  0.
        998    1    1    2    0    0 -0.10846858575E+02 -0.17993199336E+02  0.14496396136E+04  0.14498263409E+04  0.10000000000E+02 0.  1.
</event>
<event>
 5    1  0.1675361E-008  0.3690225E+03  0.7957747E-01  0.3500395E+00
         13   -1    0    0    0    0  0.00000000000E+00  0.00000000000E+00  0.14999999963E+04  0.15000000000E+04  0.10566000000E+00 0. -1.
        994   -1    0    0    0    0 -0.00000000000E+00 -0.00000000000E+00  0.11368683772E-12  0.17120000000E+03  0.17120000000E+03 0.  0.
         13    1    1    2    0    0  0.26631408697E+02  0.69416213166E+01  0.33523544383E+02  0.43373462253E+02  0.10566000000E+00 0. -1.
        994    1    1    2    0    0 -0.32212352794E+02 -0.82360959657E+01  0.13625815686E+02  0.17493019123E+03  0.17120000000E+03 0.  0.
        998    1    1    2    0    0  0.55809440967E+01  0.12944746491E+01  0.14528506362E+04  0.14528963465E+04  0.10000000000E+02 0. -1.
</event>
<event>
 5    1  0.1675361E-008  0.3830920E+03  0.7957747E-01  0.3437805E+00
         13   -1    0    0    0    0  0.00000000000E+00  0.00000000000E+00  0.14999999963E+04  0.15000000000E+04  0.10566000000E+00 0.  1.
        994   -1    0    0    0    0 -0.00000000000E+00 -0.00000000000E+00  0.11368683772E-12  0.17120000000E+03  0.17120000000E+03 0.  0.
         13    1    1    2    0    0  0.17585145205E+02 -0.17379086498E+01  0.58998171818E+02  0.61587767456E+02  0.10566000000E+00 0.  1.
        994    1    1    2    0    0 -0.18952018691E+02 -0.37102954578E+02  0.83457009584E+01  0.17639415800E+03  0.17120000000E+03 0.  0.
        998    1    1    2    0    0  0.13668734863E+01  0.38840863228E+02  0.14326561235E+04  0.14332180745E+04  0.10000000000E+02 0.  1.
</event>
<event>
 5    1  0.1675361E-008  0.3841766E+03  0.7957747E-01  0.3433172E+00
         13   -1    0    0    0    0  0.00000000000E+00  0.00000000000E+00  0.14999999963E+04  0.15000000000E+04  0.10566000000E+00 0.  1.
        994   -1    0    0    0    0 -0.00000000000E+00 -0.00000000000E+00  0.11368683772E-12  0.17120000000E+03  0.17120000000E+03 0.  0.
         13    1    1    2    0    0  0.28495841470E+01  0.15214033304E+02  0.60977684926E+02  0.62911653627E+02  0.10566000000E+00 0.  1.
        994    1    1    2    0    0 -0.24987869046E+01 -0.18829884266E+01  0.20717603496E+01  0.17124112173E+03  0.17120000000E+03 0.  0.
        998    1    1    2    0    0 -0.35079724240E+00 -0.13331044877E+02  0.14369505510E+04  0.14370472246E+04  0.10000000000E+02 0.  1.
</event>
<event>
 5    1  0.1675361E-008  0.3684172E+03  0.7957747E-01  0.3503197E+00
         13   -1    0    0    0    0  0.00000000000E+00  0.00000000000E+00  0.14999999963E+04  0.15000000000E+04  0.10566000000E+00 0.  1.
        994   -1    0    0    0    0 -0.00000000000E+00 -0.00000000000E+00  0.11368683772E-12  0.17120000000E+03  0.17120000000E+03 0.  0.
         13    1    1    2    0    0 -0.49087119831E+02  0.85021678877E+01  0.11762904675E+03  0.12774363387E+03  0.10566000000E+00 0.  1.
        994    1    1    2    0    0  0.37087301096E+02  0.10732673093E+02  0.15304768163E+02  0.17616564393E+03  0.17120000000E+03 0.  0.
        998    1    1    2    0    0  0.11999818735E+02 -0.19234840981E+02  0.13670661814E+04  0.13672907222E+04  0.10000000000E+02 0.  1.
</event>
<event>
 5    1  0.1675361E-008  0.3833724E+03  0.7957747E-01  0.3436604E+00
         13   -1    0    0    0    0  0.00000000000E+00  0.00000000000E+00  0.14999999963E+04  0.15000000000E+04  0.10566000000E+00 0. -1.
        994   -1    0    0    0    0 -0.00000000000E+00 -0.00000000000E+00  0.11368683772E-12  0.17120000000E+03  0.17120000000E+03 0.  0.
         13    1    1    2    0    0 -0.92346363286E+01 -0.62096694208E+01  0.24406441571E+02  0.26823945582E+02  0.10566000000E+00 0. -1.
        994    1    1    2    0    0  0.90791381582E+01  0.32380416195E+01  0.27476170208E+01  0.17149316331E+03  0.17120000000E+03 0.  0.
        998    1    1    2    0    0  0.15549817040E+00  0.29716278014E+01  0.14728459377E+04  0.14728828911E+04  0.10000000000E+02 0. -1.
</event>
<event>
 5    1  0.1675361E-008  0.3746243E+03  0.7957747E-01  0.3474905E+00
         13   -1    0    0    0    0  0.00000000000E+00  0.00000000000E+00  0.14999999963E+04  0.15000000000E+04  0.10566000000E+00 0.  1.
        994   -1    0    0    0    0 -0.00000000000E+00 -0.00000000000E+00  0.11368683772E-12  0.17120000000E+03  0.17120000000E+03 0.  0.
         13    1    1    2    0    0  0.12406436739E+02 -0.53271981989E+02  0.21661681576E+03  0.22341593446E+03  0.10566000000E+00 0.  1.
        994    1    1    2    0    0 -0.21806423928E+02  0.26729053032E+02  0.10932556703E+02  0.17498263684E+03  0.17120000000E+03 0.  0.
        998    1    1    2    0    0  0.93999871893E+01  0.26542928957E+02  0.12724506238E+04  0.12728014287E+04  0.10000000000E+02 0.  1.
</event>
<event>
 5    1  0.1675361E-008  0.3780394E+03  0.7957747E-01  0.3459740E+00
         13   -1    0    0    0    0  0.00000000000E+00  0.00000000000E+00  0.14999999963E+04  0.15000000000E+04  0.10566000000E+00 0.  1.
        994   -1    0    0    0    0 -0.00000000000E+00 -0.00000000000E+00  0.11368683772E-12  0.17120000000E+03  0.17120000000E+03 0.  0.
         13    1    1    2    0    0  0.91108937525E+01 -0.62163789363E+01  0.94953768678E+01  0.14554212378E+02  0.10566000000E+00 0.  1.
        994    1    1    2    0    0 -0.85876811141E+01  0.72482798972E+01  0.55511637417E+01  0.17165821054E+03  0.17120000000E+03 0.  0.
        998    1    1    2    0    0 -0.52321263842E+00 -0.10319009610E+01  0.14849534557E+04  0.14849875771E+04  0.10000000000E+02 0.  1.
</event>
<event>
 5    1  0.1675361E-008  0.3847383E+03  0.7957747E-01  0.3430783E+00
         13   -1    0    0    0    0  0.00000000000E+00  0.00000000000E+00  0.14999999963E+04  0.15000000000E+04  0.10566000000E+00 0.  1.
        994   -1    0    0    0    0 -0.00000000000E+00 -0.00000000000E+00  0.11368683772E-12  0.17120000000E+03  0.17120000000E+03 0.  0.
         13    1    1    2    0    0 -0.12622790907E+02  0.15466675911E+02  0.10674455582E+03  0.10859541554E+03  0.10566000000E+00 0.  1.
        994    1    1    2    0    0  0.10889693837E+02 -0.17014100624E+02  0.31043732391E+01  0.17241560888E+03  0.17120000000E+03 0.  0.
        998    1    1    2    0    0  0.17330970695E+01  0.15474247127E+01  0.13901510672E+04  0.13901889756E+04  0.10000000000E+02 0.  1.
</event>
<event>
 5    1  0.1675361E-008  0.3832922E+03  0.7957747E-01  0.3436948E+00
         13   -1    0    0    0    0  0.00000000000E+00  0.00000000000E+00  0.14999999963E+04  0.15000000000E+04  0.10566000000E+00 0. -1.
        994   -1    0    0    0    0 -0.00000000000E+00 -0.00000000000E+00  0.11368683772E-12  0.17120000000E+03  0.17120000000E+03 0.  0.
         13    1    1    2    0    0 -0.73189093097E+01 -0.15245909571E+02  0.57864007139E+02  0.60284812999E+02  0.10566000000E+00 0. -1.
        994    1    1    2    0    0  0.44766577475E+01  0.66302010039E+01  0.26920827591E+01  0.17140795588E+03  0.17120000000E+03 0.  0.
        998    1    1    2    0    0  0.28422515623E+01  0.86157085672E+01  0.14394439064E+04  0.14395072311E+04  0.10000000000E+02 0. -1.
</event>
<event>
 5    1  0.1675361E-008  0.3819464E+03  0.7957747E-01  0.3442727E+00
         13   -1    0    0    0    0  0.00000000000E+00  0.00000000000E+00  0.14999999963E+04  0.15000000000E+04  0.10566000000E+00 0. -1.
        994   -1    0    0    0    0 -0.00000000000E+00 -0.00000000000E+00  0.11368683772E-12  0.17120000000E+03  0.17120000000E+03 0.  0.
         13    1    1    2    0    0 -0.25738202874E+02  0.36237687681E+01  0.11064013654E+03  0.11365226687E+03  0.10566000000E+00 0. -1.
        994    1    1    2    0    0  0.57772898937E+01 -0.30538884192E+02  0.63690847222E+01  0.17411492115E+03  0.17120000000E+03 0.  0.
        998    1    1    2    0    0  0.19960912980E+02  0.26915115424E+02  0.13829907750E+04  0.13834328120E+04  0.10000000000E+02 0. -1.
</event>
<event>
 5    1  0.1675361E-008  0.3830853E+03  0.7957747E-01  0.3437833E+00
         13   -1    0    0    0    0  0.00000000000E+00  0.00000000000E+00  0.14999999963E+04  0.15000000000E+04  0.10566000000E+00 0. -1.
        994   -1    0    0    0    0 -0.00000000000E+00 -0.00000000000E+00  0.11368683772E-12  0.17120000000E+03  0.17120000000E+03 0.  0.
         13    1    1    2    0    0 -0.14563132886E+02  0.87064817148E+01  0.57010211353E+02  0.59481619227E+02  0.10566000000E+00 0. -1.
        994    1    1    2    0    0  0.11026237746E+02  0.11187078775E+02  0.34006295432E+01  0.17195270551E+03  0.17120000000E+03 0.  0.
        998    1    1    2    0    0  0.35368951398E+01 -0.19893560490E+02  0.14395891554E+04  0.14397656753E+04  0.10000000000E+02 0. -1.
</event>
<event>
 5    1  0.1675361E-008  0.3833985E+03  0.7957747E-01  0.3436493E+00
         13   -1    0    0    0    0  0.00000000000E+00  0.00000000000E+00  0.14999999963E+04  0.15000000000E+04  0.10566000000E+00 0. -1.
        994   -1    0    0    0    0 -0.00000000000E+00 -0.00000000000E+00  0.11368683772E-12  0.17120000000E+03  0.17120000000E+03 0.  0.
         13    1    1    2    0    0 -0.66574322920E+01  0.13228377733E+02  0.45807951996E+02  0.48142403474E+02  0.10566000000E+00 0. -1.
        994    1    1    2    0    0  0.93306304321E+00 -0.33020354877E+01  0.24662525037E+01  0.17125214290E+03  0.17120000000E+03 0.  0.
        998    1    1    2    0    0  0.57243692488E+01 -0.99263422449E+01  0.14517257918E+04  0.14518054536E+04  0.10000000000E+02 0.  1.
</event>
<event>
 5    1  0.1675361E-008  0.3762327E+03  0.7957747E-01  0.3467728E+00
         13   -1    0    0    0    0  0.00000000000E+00  0.00000000000E+00  0.14999999963E+04  0.15000000000E+04  0.10566000000E+00 0. -1.
        994   -1    0    0    0    0 -0.00000000000E+00 -0.00000000000E+00  0.11368683772E-12  0.17120000000E+03  0.17120000000E+03 0.  0.
         13    1    1    2    0    0 -0.20687254840E+02  0.10218299060E+02  0.40116567906E+02  0.46278789236E+02  0.10566000000E+00 0. -1.
        994    1    1    2    0    0  0.22828375186E+02 -0.15932122835E+02  0.86748684583E+01  0.17366536959E+03  0.17120000000E+03 0.  0.
        998    1    1    2    0    0 -0.21411203462E+01  0.57138237750E+01  0.14512085599E+04  0.14512558412E+04  0.10000000000E+02 0. -1.
</event>
<event>
 5    1  0.1675361E-008  0.3837977E+03  0.7957747E-01  0.3434787E+00
         13   -1    0    0    0    0  0.00000000000E+00  0.00000000000E+00  0.14999999963E+04  0.15000000000E+04  0.10566000000E+00 0.  1.
        994   -1    0    0    0    0 -0.00000000000E+00 -0.00000000000E+00  0.11368683772E-12  0.17120000000E+03  0.17120000000E+03 0.  0.
         13    1    1    2    0    0  0.22458822789E+02 -0.25750289525E+01  0.12696616483E+03  0.12896297015E+03  0.10566000000E+00 0.  1.
        994    1    1    2    0    0  0.13089312189E+00  0.45879478610E+01  0.22978058831E+01  0.17127692872E+03  0.17120000000E+03 0.  0.
        998    1    1    2    0    0 -0.22589715911E+02 -0.20129189085E+01  0.13707360256E+04  0.13709601011E+04  0.10000000000E+02 0.  1.
</event>
<event>
 5    1  0.1675361E-008  0.3823765E+03  0.7957747E-01  0.3440876E+00
         13   -1    0    0    0    0  0.00000000000E+00  0.00000000000E+00  0.14999999963E+04  0.15000000000E+04  0.10566000000E+00 0.  1.
        994   -1    0    0    0    0 -0.00000000000E+00 -0.00000000000E+00  0.11368683772E-12  0.17120000000E+03  0.17120000000E+03 0.  0.
         13    1    1    2    0    0  0.12479394892E+02  0.14171155114E+01  0.26268862458E+02  0.29117139490E+02  0.10566000000E+00 0.  1.
        994    1    1    2    0    0 -0.20500020979E+01 -0.56338306536E+01  0.30575188065E+01  0.17133222399E+03  0.17120000000E+03 0.  0.
        998    1    1    2    0    0 -0.10429392794E+02  0.42167151422E+01  0.14706736150E+04  0.14707506365E+04  0.10000000000E+02 0.  1.
</event>
<event>
 5    1  0.1675361E-008  0.3748401E+03  0.7957747E-01  0.3473938E+00
         13   -1    0    0    0    0  0.00000000000E+00  0.00000000000E+00  0.14999999963E+04  0.15000000000E+04  0.10566000000E+00 0.  1.
        994   -1    0    0    0    0 -0.00000000000E+00 -0.00000000000E+00  0.11368683772E-12  0.17120000000E+03  0.17120000000E+03 0.  0.
         13    1    1    2    0    0  0.15434203432E+02 -0.67977263495E+01  0.19786076540E+02  0.25998532804E+02  0.10566000000E+00 0.  1.
        994    1    1    2    0    0  0.16774410559E+02 -0.25229165937E+02  0.98889614533E+01  0.17414110147E+03  0.17120000000E+03 0.  0.
        998    1    1    2    0    0 -0.32208613991E+02  0.32026892286E+02  0.14703249583E+04  0.14710603657E+04  0.10000000000E+02 0.  1.
</event>
<event>
 5    1  0.1675361E-008  0.3858277E+03  0.7957747E-01  0.3426169E+00
         13   -1    0    0    0    0  0.00000000000E+00  0.00000000000E+00  0.14999999963E+04  0.15000000000E+04  0.10566000000E+00 0.  1.
        994   -1    0    0    0    0 -0.00000000000E+00 -0.00000000000E+00  0.11368683772E-12  0.17120000000E+03  0.17120000000E+03 0.  0.
         13    1    1    2    0    0 -0.98029003928E+01  0.48711376840E+01  0.48751309628E+02  0.49965249853E+02  0.10566000000E+00 0.  1.
        994    1    1    2    0    0  0.85156632434E+01 -0.52484483746E+01  0.15480235362E+01  0.17149897699E+03  0.17120000000E+03 0.  0.
        998    1    1    2    0    0  0.12872371495E+01  0.37731069061E+00  0.14497006631E+04  0.14497357732E+04  0.10000000000E+02 0.  1.
</event>
<event>
 5    1  0.1675361E-008  0.3837151E+03  0.7957747E-01  0.3435140E+00
         13   -1    0    0    0    0  0.00000000000E+00  0.00000000000E+00  0.14999999963E+04  0.15000000000E+04  0.10566000000E+00 0.  1.
        994   -1    0    0    0    0 -0.00000000000E+00 -0.00000000000E+00  0.11368683772E-12  0.17120000000E+03  0.17120000000E+03 0.  0.
         13    1    1    2    0    0  0.14397013796E+02  0.11616781361E+02  0.72265590205E+02  0.74595913475E+02  0.10566000000E+00 0.  1.
        994    1    1    2    0    0 -0.11153652930E+02 -0.15058609764E+02  0.34299743765E+01  0.17225669922E+03  0.17120000000E+03 0.  0.
        998    1    1    2    0    0 -0.32433608668E+01  0.34418284030E+01  0.14243044317E+04  0.14243473873E+04  0.10000000000E+02 0.  1.
</event>
<event>
 5    1  0.1675361E-008  0.3807442E+03  0.7957747E-01  0.3447925E+00
         13   -1    0    0    0    0  0.00000000000E+00  0.00000000000E+00  0.14999999963E+04  0.15000000000E+04  0.10566000000E+00 0. -1.
        994   -1    0    0    0    0 -0.00000000000E+00 -0.00000000000E+00  0.11368683772E-12  0.17120000000E+03  0.17120000000E+03 0.  0.
         13    1    1    2    0    0 -0.95196854271E+01  0.18521732168E+02  0.61216943197E+02  0.64662232188E+02  0.10566000000E+00 0. -1.
        994    1    1    2    0    0  0.29045582697E+01  0.80761365018E+01  0.40036314065E+01  0.17146174356E+03  0.17120000000E+03 0.  0.
        998    1    1    2    0    0  0.66151271575E+01 -0.26597868670E+02  0.14347794217E+04  0.14350760243E+04  0.10000000000E+02 0. -1.
</event>
<event>
 5    1  0.1675361E-008  0.3775909E+03  0.7957747E-01  0.3461716E+00
         13   -1    0    0    0    0  0.00000000000E+00  0.00000000000E+00  0.14999999963E+04  0.15000000000E+04  0.10566000000E+00 0. -1.
        994   -1    0    0    0    0 -0.00000000000E+00 -0.00000000000E+00  0.11368683772E-12  0.17120000000E+03  0.17120000000E+03 0.  0.
         13    1    1    2    0    0  0.45760360819E+01 -0.15077443268E+02  0.15262113435E+01  0.15830662868E+02  0.10566000000E+00 0. -1.
        994    1    1    2    0    0  0.17681910303E+02  0.10779322327E+02  0.16552007258E+02  0.17324044760E+03  0.17120000000E+03 0.  0.
        998    1    1    2    0    0 -0.22257946385E+02  0.42981209416E+01  0.14819217777E+04  0.14821288895E+04  0.10000000000E+02 0. -1.
</event>
<event>
 5    1  0.1675361E-008  0.3787740E+03  0.7957747E-01  0.3456514E+00
         13   -1    0    0    0    0  0.00000000000E+00  0.00000000000E+00  0.14999999963E+04  0.15000000000E+04  0.10566000000E+00 0. -1.
        994   -1    0    0    0    0 -0.00000000000E+00 -0.00000000000E+00  0.11368683772E-12  0.17120000000E+03  0.17120000000E+03 0.  0.
         13    1    1    2    0    0 -0.12517498158E+02 -0.11411963111E+02  0.28092459855E+02  0.32804239466E+02  0.10566000000E+00 0. -1.
        994    1    1    2    0    0  0.10629492466E+02  0.83647617173E+01  0.53676144814E+01  0.17181736418E+03  0.17120000000E+03 0.  0.
        998    1    1    2    0    0  0.18880056915E+01  0.30472013941E+01  0.14665399219E+04  0.14665783964E+04  0.10000000000E+02 0. -1.
</event>
<event>
 5    1  0.1675361E-008  0.3818253E+03  0.7957747E-01  0.3443249E+00
         13   -1    0    0    0    0  0.00000000000E+00  0.00000000000E+00  0.14999999963E+04  0.15000000000E+04  0.10566000000E+00 0.  1.
        994   -1    0    0    0    0 -0.00000000000E+00 -0.00000000000E+00  0.11368683772E-12  0.17120000000E+03  0.17120000000E+03 0.  0.
         13    1    1    2    0    0  0.89307816487E+01 -0.52479529669E+01  0.15490395504E+02  0.18635004376E+02  0.10566000000E+00 0.  1.
        994    1    1    2    0    0 -0.84518125546E+01 -0.59555131284E+01  0.35698965718E+01  0.17154907588E+03  0.17120000000E+03 0.  0.
        998    1    1    2    0    0 -0.47896909412E+00  0.11203466095E+02  0.14809397042E+04  0.14810159197E+04  0.10000000000E+02 0.  1.
</event>
<event>
 5    1  0.1675361E-008  0.3828183E+03  0.7957747E-01  0.3438978E+00
         13   -1    0    0    0    0  0.00000000000E+00  0.00000000000E+00  0.14999999963E+04  0.15000000000E+04  0.10566000000E+00 0.  1.
        994   -1    0    0    0    0 -0.00000000000E+00 -0.00000000000E+00  0.11368683772E-12  0.17120000000E+03  0.17120000000E+03 0.  0.
         13    1    1    2    0    0  0.57020362465E+01 -0.22673326817E+02  0.10594540504E+03  0.10849439146E+03  0.10566000000E+00 0.  1.
        994    1    1    2    0    0  0.50402109309E+00  0.54226244846E+01  0.28154412007E+01  0.17130973587E+03  0.17120000000E+03 0.  0.
        998    1    1    2    0    0 -0.62060573396E+01  0.17250702333E+02  0.13912391500E+04  0.13913958727E+04  0.10000000000E+02 0.  1.
</event>
<event>
 5    1  0.1675361E-008  0.3754464E+03  0.7957747E-01  0.3471229E+00
         13   -1    0    0    0    0  0.00000000000E+00  0.00000000000E+00  0.14999999963E+04  0.15000000000E+04  0.10566000000E+00 0. -1.
        994   -1    0    0    0    0 -0.00000000000E+00 -0.00000000000E+00  0.11368683772E-12  0.17120000000E+03  0.17120000000E+03 0.  0.
         13    1    1    2    0    0 -0.46027937839E+02 -0.18892088803E+02  0.18436406383E+03  0.19095968496E+03  0.10566000000E+00 0. -1.
        994    1    1    2    0    0  0.24801512272E+02  0.29774801723E+02  0.11563456459E+02  0.17591136221E+03  0.17120000000E+03 0.  0.
        998    1    1    2    0    0  0.21226425567E+02 -0.10882712921E+02  0.13040724760E+04  0.13043289528E+04  0.10000000000E+02 0. -1.
</event>
<event>
 5    1  0.1675361E-008  0.3837249E+03  0.7957747E-01  0.3435098E+00
         13   -1    0    0    0    0  0.00000000000E+00  0.00000000000E+00  0.14999999963E+04  0.15000000000E+04  0.10566000000E+00 0.  1.
        994   -1    0    0    0    0 -0.00000000000E+00 -0.00000000000E+00  0.11368683772E-12  0.17120000000E+03  0.17120000000E+03 0.  0.
         13    1    1    2    0    0  0.75484388560E+01 -0.13834321293E+02  0.55820082256E+02  0.58002242386E+02  0.10566000000E+00 0.  1.
        994    1    1    2    0    0  0.90286443782E+01  0.10669249723E+02  0.29098773971E+01  0.17179422777E+03  0.17120000000E+03 0.  0.
        998    1    1    2    0    0 -0.16577083234E+02  0.31650715702E+01  0.14412700366E+04  0.14414035298E+04  0.10000000000E+02 0.  1.
</event>
<event>
 5    1  0.1675361E-008  0.3768219E+03  0.7957747E-01  0.3465114E+00
         13   -1    0    0    0    0  0.00000000000E+00  0.00000000000E+00  0.14999999963E+04  0.15000000000E+04  0.10566000000E+00 0.  1.
        994   -1    0    0    0    0 -0.00000000000E+00 -0.00000000000E+00  0.11368683772E-12  0.17120000000E+03  0.17120000000E+03 0.  0.
         13    1    1    2    0    0  0.17789655128E+02 -0.47926528950E+02  0.81225806951E+02  0.95974303257E+02  0.10566000000E+00 0.  1.
        994    1    1    2    0    0 -0.30904415514E+02  0.38681229762E+02  0.23424990149E+02  0.17974840917E+03  0.17120000000E+03 0.  0.
        998    1    1    2    0    0  0.13114760386E+02  0.92452991875E+01  0.13953491992E+04  0.13954772876E+04  0.10000000000E+02 0.  0.
</event>
<event>
 5    1  0.1675361E-008  0.3815721E+03  0.7957747E-01  0.3444342E+00
         13   -1    0    0    0    0  0.00000000000E+00  0.00000000000E+00  0.14999999963E+04  0.15000000000E+04  0.10566000000E+00 0. -1.
        994   -1    0    0    0    0 -0.00000000000E+00 -0.00000000000E+00  0.11368683772E-12  0.17120000000E+03  0.17120000000E+03 0.  0.
         13    1    1    2    0    0 -0.58476717967E+00 -0.15471550667E+02  0.34591612506E+02  0.37898570587E+02  0.10566000000E+00 0. -1.
        994    1    1    2    0    0 -0.25743654687E+01  0.10893696770E+02  0.37584635324E+01  0.17160671908E+03  0.17120000000E+03 0.  0.
        998    1    1    2    0    0  0.31591326483E+01  0.45778538970E+01  0.14616499202E+04  0.14616947103E+04  0.10000000000E+02 0. -1.
</event>
<event>
 5    1  0.1675361E-008  0.3857540E+03  0.7957747E-01  0.3426481E+00
         13   -1    0    0    0    0  0.00000000000E+00  0.00000000000E+00  0.14999999963E+04  0.15000000000E+04  0.10566000000E+00 0.  1.
        994   -1    0    0    0    0 -0.00000000000E+00 -0.00000000000E+00  0.11368683772E-12  0.17120000000E+03  0.17120000000E+03 0.  0.
         13    1    1    2    0    0  0.44626876868E+01 -0.10350954273E+02  0.49414929932E+02  0.50684359520E+02  0.10566000000E+00 0.  1.
        994    1    1    2    0    0  0.15358831275E+00  0.13756244589E+02  0.18774059017E+01  0.17176211022E+03  0.17120000000E+03 0.  0.
        998    1    1    2    0    0 -0.46162759995E+01 -0.34052903160E+01  0.14487076604E+04  0.14487535303E+04  0.10000000000E+02 0.  1.
</event>
<event>
 5    1  0.1675361E-008  0.3797399E+03  0.7957747E-01  0.3452292E+00
         13   -1    0    0    0    0  0.00000000000E+00  0.00000000000E+00  0.14999999963E+04  0.15000000000E+04  0.10566000000E+00 0.  1.
        994   -1    0    0    0    0 -0.00000000000E+00 -0.00000000000E+00  0.11368683772E-12  0.17120000000E+03  0.17120000000E+03 0.  0.
         13    1    1    2    0    0  0.42462537563E+02 -0.10443231086E+02  0.25634281802E+03  0.26004572614E+03  0.10566000000E+00 0.  1.
        994    1    1    2    0    0 -0.82858913697E+01  0.28527854184E+01  0.45214555093E+01  0.17148375416E+03  0.17120000000E+03 0.  0.
        998    1    1    2    0    0 -0.34176646194E+02  0.75904456675E+01  0.12391357228E+04  0.12396705197E+04  0.10000000000E+02 0.  1.
</event>
<event>
 5    1  0.1675361E-008  0.3756900E+03  0.7957747E-01  0.3470143E+00
         13   -1    0    0    0    0  0.00000000000E+00  0.00000000000E+00  0.14999999963E+04  0.15000000000E+04  0.10566000000E+00 0. -1.
        994   -1    0    0    0    0 -0.00000000000E+00 -0.00000000000E+00  0.11368683772E-12  0.17120000000E+03  0.17120000000E+03 0.  0.
         13    1    1    2    0    0  0.14321911695E+02  0.46629784922E+02  0.19740556872E+03  0.20334311820E+03  0.10566000000E+00 0. -1.
        994    1    1    2    0    0  0.10033050705E+02 -0.22821767728E+02  0.84353671069E+01  0.17321111571E+03  0.17120000000E+03 0.  0.
        998    1    1    2    0    0 -0.24354962400E+02 -0.23808017194E+02  0.12941590605E+04  0.12946457661E+04  0.10000000000E+02 0. -1.
</event>
<event>
 5    1  0.1675361E-008  0.3700961E+03  0.7957747E-01  0.3495449E+00
         13   -1    0    0    0    0  0.00000000000E+00  0.00000000000E+00  0.14999999963E+04  0.15000000000E+04  0.10566000000E+00 0. -1.
        994   -1    0    0    0    0 -0.00000000000E+00 -0.00000000000E+00  0.11368683772E-12  0.17120000000E+03  0.17120000000E+03 0.  0.
         13    1    1    2    0    0  0.30024147755E+02  0.22541995007E+02  0.73349196309E+02  0.82399676884E+02  0.10566000000E+00 0. -1.
        994    1    1    2    0    0  0.21051726403E+02  0.38370042127E+02  0.17718317792E+02  0.17759170618E+03  0.17120000000E+03 0.  0.
        998    1    1    2    0    0 -0.51075874158E+02 -0.60912037134E+02  0.14089324822E+04  0.14112086169E+04  0.10000000000E+02 0. -1.
</event>
<event>
 5    1  0.1675361E-008  0.3825698E+03  0.7957747E-01  0.3440045E+00
         13   -1    0    0    0    0  0.00000000000E+00  0.00000000000E+00  0.14999999963E+04  0.15000000000E+04  0.10566000000E+00 0. -1.
        994   -1    0    0    0    0 -0.00000000000E+00 -0.00000000000E+00  0.11368683772E-12  0.17120000000E+03  0.17120000000E+03 0.  0.
         13    1    1    2    0    0 -0.32771962330E+02 -0.22989165130E+01  0.16904848182E+03  0.17221116950E+03  0.10566000000E+00 0. -1.
        994    1    1    2    0    0  0.34028486747E+02 -0.47563502274E+01  0.67646805030E+01  0.17474484736E+03  0.17120000000E+03 0.  0.
        998    1    1    2    0    0 -0.12565244173E+01  0.70552667404E+01  0.13241868340E+04  0.13242439831E+04  0.10000000000E+02 0. -1.
</event>
<event>
 5    1  0.1675361E-008  0.3786734E+03  0.7957747E-01  0.3456955E+00
         13   -1    0    0    0    0  0.00000000000E+00  0.00000000000E+00  0.14999999963E+04  0.15000000000E+04  0.10566000000E+00 0. -1.
        994   -1    0    0    0    0 -0.00000000000E+00 -0.00000000000E+00  0.11368683772E-12  0.17120000000E+03  0.17120000000E+03 0.  0.
         13    1    1    2    0    0 -0.12450447980E+02 -0.28087765073E+02  0.97039603119E+02  0.10178718947E+03  0.10566000000E+00 0. -1.
        994    1    1    2    0    0  0.20451340052E+02  0.10406878889E+02  0.65743100880E+01  0.17285607305E+03  0.17120000000E+03 0.  0.
        998    1    1    2    0    0 -0.80008920712E+01  0.17680886184E+02  0.13963860831E+04  0.13965567375E+04  0.10000000000E+02 0. -1.
</event>
<event>
 5    1  0.1675361E-008  0.3820901E+03  0.7957747E-01  0.3442108E+00
         13   -1    0    0    0    0  0.00000000000E+00  0.00000000000E+00  0.14999999963E+04  0.15000000000E+04  0.10566000000E+00 0. -1.
        994   -1    0    0    0    0 -0.00000000000E+00 -0.00000000000E+00  0.11368683772E-12  0.17120000000E+03  0.17120000000E+03 0.  0.
         13    1    1    2    0    0 -0.96593554743E+01  0.14724055046E+02  0.52388383300E+02  0.55268931725E+02  0.10566000000E+00 0. -1.
        994    1    1    2    0    0 -0.54669455916E+00  0.27351718787E+01  0.31076343804E+01  0.17125091951E+03  0.17120000000E+03 0.  0.
        998    1    1    2    0    0  0.10206050033E+02 -0.17459226925E+02  0.14445039786E+04  0.14446801488E+04  0.10000000000E+02 0. -1.
</event>
<event>
 5    1  0.1675361E-008  0.3829403E+03  0.7957747E-01  0.3438455E+00
         13   -1    0    0    0    0  0.00000000000E+00  0.00000000000E+00  0.14999999963E+04  0.15000000000E+04  0.10566000000E+00 0. -1.
        994   -1    0    0    0    0 -0.00000000000E+00 -0.00000000000E+00  0.11368683772E-12  0.17120000000E+03  0.17120000000E+03 0.  0.
         13    1    1    2    0    0 -0.14524860843E+02  0.21061053520E+02  0.13541835291E+03  0.13781393626E+03  0.10566000000E+00 0. -1.
        994    1    1    2    0    0 -0.38747674506E+01 -0.51402754282E+01  0.27933859307E+01  0.17134374590E+03  0.17120000000E+03 0.  0.
        998    1    1    2    0    0  0.18399628294E+02 -0.15920778092E+02  0.13617882574E+04  0.13620423178E+04  0.10000000000E+02 0. -1.
</event>
<event>
 5    1  0.1675361E-008  0.3858251E+03  0.7957747E-01  0.3426181E+00
         13   -1    0    0    0    0  0.00000000000E+00  0.00000000000E+00  0.14999999963E+04  0.15000000000E+04  0.10566000000E+00 0.  1.
        994   -1    0    0    0    0 -0.00000000000E+00 -0.00000000000E+00  0.11368683772E-12  0.17120000000E+03  0.17120000000E+03 0.  0.
         13    1    1    2    0    0  0.14546827943E+02 -0.22049183394E+01  0.86793957703E+02  0.88032233448E+02  0.10566000000E+00 0.  1.
        994    1    1    2    0    0 -0.12772627691E+02  0.33241985391E+01  0.17925925835E+01  0.17171733664E+03  0.17120000000E+03 0.  0.
        998    1    1    2    0    0 -0.17742002522E+01 -0.11192801998E+01  0.14114134460E+04  0.14114504299E+04  0.10000000000E+02 0.  1.
</event>
<event>
 5    1  0.1675361E-008  0.3837036E+03  0.7957747E-01  0.3435189E+00
         13   -1    0    0    0    0  0.00000000000E+00  0.00000000000E+00  0.14999999963E+04  0.15000000000E+04  0.10566000000E+00 0. -1.
        994   -1    0    0    0    0 -0.00000000000E+00 -0.00000000000E+00  0.11368683772E-12  0.17120000000E+03  0.17120000000E+03 0.  0.
         13    1    1    2    0    0  0.12825949333E+02 -0.15208811037E+02  0.91254116519E+02  0.93397740096E+02  0.10566000000E+00 0. -1.
        994    1    1    2    0    0 -0.20334919524E+01  0.38500250156E+01  0.23377585277E+01  0.17127131370E+03  0.17120000000E+03 0.  0.
        998    1    1    2    0    0 -0.10792457380E+02  0.11358786022E+02  0.14064081212E+04  0.14065309462E+04  0.10000000000E+02 0. -1.
</event>
<event>
 5    1  0.1675361E-008  0.3850939E+03  0.7957747E-01  0.3429274E+00
         13   -1    0    0    0    0  0.00000000000E+00  0.00000000000E+00  0.14999999963E+04  0.15000000000E+04  0.10566000000E+00 0. -1.
        994   -1    0    0    0    0 -0.00000000000E+00 -0.00000000000E+00  0.11368683772E-12  0.17120000000E+03  0.17120000000E+03 0.  0.
         13    1    1    2    0    0  0.15200093092E+02  0.59517444490E+01  0.83985619960E+02  0.85557358632E+02  0.10566000000E+00 0. -1.
        994    1    1    2    0    0 -0.15775588649E+02  0.92409105333E+01  0.26832587733E+01  0.17219437709E+03  0.17120000000E+03 0.  0.
        998    1    1    2    0    0  0.57549555714E+00 -0.15192654982E+02  0.14133311175E+04  0.14134482643E+04  0.10000000000E+02 0. -1.
</event>
<event>
 5    1  0.1675361E-008  0.3745831E+03  0.7957747E-01  0.3475089E+00
         13   -1    0    0    0    0  0.00000000000E+00  0.00000000000E+00  0.14999999963E+04  0.15000000000E+04  0.10566000000E+00 0.  1.
        994   -1    0    0    0    0 -0.00000000000E+00 -0.00000000000E+00  0.11368683772E-12  0.17120000000E+03  0.17120000000E+03 0.  0.
         13    1    1    2    0    0 -0.58357876273E+02 -0.24565653415E+01  0.31961819365E+03  0.32491149151E+03  0.10566000000E+00 0.  1.
        994    1    1    2    0    0  0.10517389177E+01 -0.67586937519E+01  0.70522617147E+01  0.17148166226E+03  0.17120000000E+03 0.  0.
        998    1    1    2    0    0  0.57306137355E+02  0.92152590935E+01  0.11733295409E+04  0.11748068462E+04  0.10000000000E+02 0.  1.
</event>
<event>
 5    1  0.1675361E-008  0.3847215E+03  0.7957747E-01  0.3430854E+00
         13   -1    0    0    0    0  0.00000000000E+00  0.00000000000E+00  0.14999999963E+04  0.15000000000E+04  0.10566000000E+00 0. -1.
        994   -1    0    0    0    0 -0.00000000000E+00 -0.00000000000E+00  0.11368683772E-12  0.17120000000E+03  0.17120000000E+03 0.  0.
         13    1    1    2    0    0 -0.39395028521E+01  0.13452782453E+02  0.60059981493E+02  0.61674221352E+02  0.10566000000E+00 0. -1.
        994    1    1    2    0    0 -0.58527056542E+01  0.27287615515E+01  0.19057224574E+01  0.17133234394E+03  0.17120000000E+03 0.  0.
        998    1    1    2    0    0  0.97922085063E+01 -0.16181544005E+02  0.14380342923E+04  0.14381934347E+04  0.10000000000E+02 0. -1.
</event>
<event>
 5    1  0.1675361E-008  0.3740364E+03  0.7957747E-01  0.3477544E+00
         13   -1    0    0    0    0  0.00000000000E+00  0.00000000000E+00  0.14999999963E+04  0.15000000000E+04  0.10566000000E+00 0. -1.
        994   -1    0    0    0    0 -0.00000000000E+00 -0.00000000000E+00  0.11368683772E-12  0.17120000000E+03  0.17120000000E+03 0.  0.
         13    1    1    2    0    0 -0.13041824403E+02 -0.17839599173E+02  0.31867989880E+02  0.38780412910E+02  0.10566000000E+00 0. -1.
        994    1    1    2    0    0 -0.93637210074E+01  0.14023859922E+02  0.81447085091E+01  0.17222114909E+03  0.17120000000E+03 0.  0.
        998    1    1    2    0    0  0.22405545410E+02  0.38157392509E+01  0.14599872979E+04  0.14601984380E+04  0.10000000000E+02 0. -1.
</event>
<event>
 5    1  0.1675361E-008  0.3809068E+03  0.7957747E-01  0.3447220E+00
         13   -1    0    0    0    0  0.00000000000E+00  0.00000000000E+00  0.14999999963E+04  0.15000000000E+04  0.10566000000E+00 0.  1.
        994   -1    0    0    0    0 -0.00000000000E+00 -0.00000000000E+00  0.11368683772E-12  0.17120000000E+03  0.17120000000E+03 0.  0.
         13    1    1    2    0    0 -0.31253189813E+02 -0.70129901613E+01  0.16155618202E+03  0.16470080454E+03  0.10566000000E+00 0.  1.
        994    1    1    2    0    0 -0.57768023789E+01  0.13819349544E+02  0.44241900974E+01  0.17191090520E+03  0.17120000000E+03 0.  0.
        998    1    1    2    0    0  0.37029992192E+02 -0.68063593829E+01  0.13340196242E+04  0.13345882903E+04  0.10000000000E+02 0.  1.
</event>
<event>
 5    1  0.1675361E-008  0.3848786E+03  0.7957747E-01  0.3430187E+00
         13   -1    0    0    0    0  0.00000000000E+00  0.00000000000E+00  0.14999999963E+04  0.15000000000E+04  0.10566000000E+00 0.  1.
        994   -1    0    0    0    0 -0.00000000000E+00 -0.00000000000E+00  0.11368683772E-12  0.17120000000E+03  0.17120000000E+03 0.  0.
         13    1    1    2    0    0  0.86112963772E+01 -0.62216239884E+01  0.32704618266E+02  0.34387006999E+02  0.10566000000E+00 0.  1.
        994    1    1    2    0    0 -0.76196045477E+01  0.67341444642E+01  0.20306960729E+01  0.17151376272E+03  0.17120000000E+03 0.  0.
        998    1    1    2    0    0 -0.99169182947E+00 -0.51252047585E+00  0.14652646819E+04  0.14652992303E+04  0.10000000000E+02 0.  0.
</event>
<event>
 5    1  0.1675361E-008  0.3752463E+03  0.7957747E-01  0.3472122E+00
         13   -1    0    0    0    0  0.00000000000E+00  0.00000000000E+00  0.14999999963E+04  0.15000000000E+04  0.10566000000E+00 0. -1.
        994   -1    0    0    0    0 -0.00000000000E+00 -0.00000000000E+00  0.11368683772E-12  0.17120000000E+03  0.17120000000E+03 0.  0.
         13    1    1    2    0    0 -0.10045371433E+02  0.24596936421E+02  0.52685209779E+02  0.59005603649E+02  0.10566000000E+00 0. -1.
        994    1    1    2    0    0  0.59782657174E+01 -0.76944900571E+01  0.68748302330E+01  0.17161482491E+03  0.17120000000E+03 0.  0.
        998    1    1    2    0    0  0.40671057158E+01 -0.16902446364E+02  0.14404399563E+04  0.14405795714E+04  0.10000000000E+02 0. -1.
</event>
<event>
 5    1  0.1675361E-008  0.3845466E+03  0.7957747E-01  0.3431598E+00
         13   -1    0    0    0    0  0.00000000000E+00  0.00000000000E+00  0.14999999963E+04  0.15000000000E+04  0.10566000000E+00 0. -1.
        994   -1    0    0    0    0 -0.00000000000E+00 -0.00000000000E+00  0.11368683772E-12  0.17120000000E+03  0.17120000000E+03 0.  0.
         13    1    1    2    0    0  0.10414311595E+02 -0.21497771124E+02  0.14304852386E+03  0.14502931908E+03  0.10566000000E+00 0. -1.
        994    1    1    2    0    0  0.23308831309E+01  0.26678217956E+02  0.42209644356E+01  0.17333325379E+03  0.17120000000E+03 0.  0.
        998    1    1    2    0    0 -0.12745194726E+02 -0.51804468318E+01  0.13527305080E+04  0.13528374271E+04  0.10000000000E+02 0. -1.
</event>
<event>
 5    1  0.1675361E-008  0.3779895E+03  0.7957747E-01  0.3459960E+00
         13   -1    0    0    0    0  0.00000000000E+00  0.00000000000E+00  0.14999999963E+04  0.15000000000E+04  0.10566000000E+00 0.  1.
        994   -1    0    0    0    0 -0.00000000000E+00 -0.00000000000E+00  0.11368683772E-12  0.17120000000E+03  0.17120000000E+03 0.  0.
         13    1    1    2    0    0  0.15305432643E+02  0.16841027825E+02  0.45702877540E+02  0.51055270698E+02  0.10566000000E+00 0.  1.
        994    1    1    2    0    0 -0.26810462543E+02 -0.17904754656E+02  0.86572535292E+01  0.17442410722E+03  0.17120000000E+03 0.  0.
        998    1    1    2    0    0  0.11505029900E+02  0.10637268304E+01  0.14456398652E+04  0.14457206221E+04  0.10000000000E+02 0.  1.
</event>
<event>
 5    1  0.1675361E-008  0.3795479E+03  0.7957747E-01  0.3453129E+00
         13   -1    0    0    0    0  0.00000000000E+00  0.00000000000E+00  0.14999999963E+04  0.15000000000E+04  0.10566000000E+00 0. -1.
        994   -1    0    0    0    0 -0.00000000000E+00 -0.00000000000E+00  0.11368683772E-12  0.17120000000E+03  0.17120000000E+03 0.  0.
         13    1    1    2    0    0  0.11233394142E+02 -0.38030786967E+02  0.17439100214E+03  0.17884284356E+03  0.10566000000E+00 0. -1.
        994    1    1    2    0    0 -0.92415332984E+01  0.25207689956E+02  0.67785670408E+01  0.17342497670E+03  0.17120000000E+03 0.  0.
        998    1    1    2    0    0 -0.19918608439E+01  0.12823097011E+02  0.13188304271E+04  0.13189321797E+04  0.10000000000E+02 0. -1.
</event>
<event>
 5    1  0.1675361E-008  0.3799765E+03  0.7957747E-01  0.3451261E+00
         13   -1    0    0    0    0  0.00000000000E+00  0.00000000000E+00  0.14999999963E+04  0.15000000000E+04  0.10566000000E+00 0. -1.
        994   -1    0    0    0    0 -0.00000000000E+00 -0.00000000000E+00  0.11368683772E-12  0.17120000000E+03  0.17120000000E+03 0.  0.
         13    1    1    2    0    0 -0.96771339732E+01  0.69800026024E+01  0.15357541400E+02  0.19448203006E+02  0.10566000000E+00 0. -1.
        994    1    1    2    0    0  0.11072950730E+02 -0.10011309762E+01  0.45583581308E+01  0.17162118497E+03  0.17120000000E+03 0.  0.
        998    1    1    2    0    0 -0.13958167572E+01 -0.59788716262E+01  0.14800840967E+04  0.14801306120E+04  0.10000000000E+02 0. -1.
</event>
<event>
 5    1  0.1675361E-008  0.3838902E+03  0.7957747E-01  0.3434393E+00
         13   -1    0    0    0    0  0.00000000000E+00  0.00000000000E+00  0.14999999963E+04  0.15000000000E+04  0.10566000000E+00 0. -1.
        994   -1    0    0    0    0 -0.00000000000E+00 -0.00000000000E+00  0.11368683772E-12  0.17120000000E+03  0.17120000000E+03 0.  0.
         13    1    1    2    0    0 -0.10418186736E+02 -0.11406616580E+02  0.56431688204E+02  0.58508085888E+02  0.10566000000E+00 0. -1.
        994    1    1    2    0    0  0.29374449796E+01  0.56471202161E+00  0.22116825822E+01  0.17124041294E+03  0.17120000000E+03 0.  0.
        998    1    1    2    0    0  0.74807417569E+01  0.10841904558E+02  0.14413566255E+04  0.14414515012E+04  0.10000000000E+02 0. -1.
</event>
<event>
 5    1  0.1675361E-008  0.3816450E+03  0.7957747E-01  0.3444027E+00
         13   -1    0    0    0    0  0.00000000000E+00  0.00000000000E+00  0.14999999963E+04  0.15000000000E+04  0.10566000000E+00 0.  1.
        994   -1    0    0    0    0 -0.00000000000E+00 -0.00000000000E+00  0.11368683772E-12  0.17120000000E+03  0.17120000000E+03 0.  0.
         13    1    1    2    0    0  0.11162614914E+02 -0.10755752388E+02  0.39028660594E+02  0.41994495984E+02  0.10566000000E+00 0.  1.
        994    1    1    2    0    0  0.98959883267E+01 -0.15427416541E+02  0.44227869972E+01  0.17223512072E+03  0.17120000000E+03 0.  0.
        998    1    1    2    0    0 -0.21058603241E+02  0.26183168929E+02  0.14565485487E+04  0.14569703833E+04  0.10000000000E+02 0.  1.
</event>
<event>
 5    1  0.1675361E-008  0.3837219E+03  0.7957747E-01  0.3435111E+00
         13   -1    0    0    0    0  0.00000000000E+00  0.00000000000E+00  0.14999999963E+04  0.15000000000E+04  0.10566000000E+00 0. -1.
        994   -1    0    0    0    0 -0.00000000000E+00 -0.00000000000E+00  0.11368683772E-12  0.17120000000E+03  0.17120000000E+03 0.  0.
         13    1    1    2    0    0 -0.97985657027E+01  0.64992828436E+01  0.29444072707E+02  0.31705159657E+02  0.10566000000E+00 0. -1.
        994    1    1    2    0    0  0.10297638415E+02 -0.51376087163E+01  0.27035120922E+01  0.17160764947E+03  0.17120000000E+03 0.  0.
        998    1    1    2    0    0 -0.49907271216E+00 -0.13616741274E+01  0.14678524115E+04  0.14678871909E+04  0.10000000000E+02 0. -1.
</event>
<event>
 5    1  0.1675361E-008  0.3812637E+03  0.7957747E-01  0.3445674E+00
         13   -1    0    0    0    0  0.00000000000E+00  0.00000000000E+00  0.14999999963E+04  0.15000000000E+04  0.10566000000E+00 0.  1.
        994   -1    0    0    0    0 -0.00000000000E+00 -0.00000000000E+00  0.11368683772E-12  0.17120000000E+03  0.17120000000E+03 0.  0.
         13    1    1    2    0    0  0.57300688875E+02 -0.73385477560E+02  0.21712316596E+03  0.23624410601E+03  0.10566000000E+00 0.  1.
        994    1    1    2    0    0 -0.80448917067E+02  0.49926736930E+02  0.50436745475E+02  0.20203468171E+03  0.17120000000E+03 0.  0.
        998    1    1    2    0    0  0.23148228192E+02  0.23458740630E+02  0.12324400848E+04  0.12329212123E+04  0.10000000000E+02 0.  1.
</event>
<event>
 5    1  0.1675361E-008  0.3843554E+03  0.7957747E-01  0.3432411E+00
         13   -1    0    0    0    0  0.00000000000E+00  0.00000000000E+00  0.14999999963E+04  0.15000000000E+04  0.10566000000E+00 0. -1.
        994   -1    0    0    0    0 -0.00000000000E+00 -0.00000000000E+00  0.11368683772E-12  0.17120000000E+03  0.17120000000E+03 0.  0.
         13    1    1    2    0    0 -0.14534946314E+02 -0.12622296178E+02  0.10121643600E+03  0.10303089394E+03  0.10566000000E+00 0. -1.
        994    1    1    2    0    0  0.15044029502E+01  0.31062093985E+01  0.19897864392E+01  0.17124634599E+03  0.17120000000E+03 0.  0.
        998    1    1    2    0    0  0.13030543364E+02  0.95160867791E+01  0.13967937738E+04  0.13969227601E+04  0.10000000000E+02 0. -1.
</event>
<event>
 5    1  0.1675361E-008  0.3788809E+03  0.7957747E-01  0.3456046E+00
         13   -1    0    0    0    0  0.00000000000E+00  0.00000000000E+00  0.14999999963E+04  0.15000000000E+04  0.10566000000E+00 0. -1.
        994   -1    0    0    0    0 -0.00000000000E+00 -0.00000000000E+00  0.11368683772E-12  0.17120000000E+03  0.17120000000E+03 0.  0.
         13    1    1    2    0    0  0.64987814311E+01 -0.94083262407E+01  0.11612648120E+02  0.16297715273E+02  0.10566000000E+00 0. -1.
        994    1    1    2    0    0 -0.13249901418E+02  0.10744222089E+02  0.56761421396E+01  0.17214138603E+03  0.17120000000E+03 0.  0.
        998    1    1    2    0    0  0.67511199867E+01 -0.13358958485E+01  0.14827112060E+04  0.14827608987E+04  0.10000000000E+02 0. -1.
</event>
<event>
 5    1  0.1675361E-008  0.3757497E+03  0.7957747E-01  0.3469877E+00
         13   -1    0    0    0    0  0.00000000000E+00  0.00000000000E+00  0.14999999963E+04  0.15000000000E+04  0.10566000000E+00 0.  1.
        994   -1    0    0    0    0 -0.00000000000E+00 -0.00000000000E+00  0.11368683772E-12  0.17120000000E+03  0.17120000000E+03 0.  0.
         13    1    1    2    0    0  0.83856798636E+02  0.20787098714E+03  0.99458737763E+03  0.10195324286E+04  0.10566000000E+00 0.  1.
        994    1    1    2    0    0 -0.98217597954E+02 -0.19815351107E+03  0.19579573880E+03  0.34140433774E+03  0.17120000000E+03 0.  0.
        998    1    1    2    0    0  0.14360799318E+02 -0.97174760705E+01  0.30961687985E+03  0.31026323370E+03  0.10000000000E+02 0.  1.
</event>
<event>
 5    1  0.1675361E-008  0.3827735E+03  0.7957747E-01  0.3439170E+00
         13   -1    0    0    0    0  0.00000000000E+00  0.00000000000E+00  0.14999999963E+04  0.15000000000E+04  0.10566000000E+00 0.  1.
        994   -1    0    0    0    0 -0.00000000000E+00 -0.00000000000E+00  0.11368683772E-12  0.17120000000E+03  0.17120000000E+03 0.  0.
         13    1    1    2    0    0  0.30906791803E+01 -0.18814674126E+02  0.66998846841E+02  0.69659176727E+02  0.10566000000E+00 0.  1.
        994    1    1    2    0    0 -0.29855492835E+01  0.75177214880E+01  0.29563939824E+01  0.17141648085E+03  0.17120000000E+03 0.  0.
        998    1    1    2    0    0 -0.10512989682E+00  0.11296952638E+02  0.14300447555E+04  0.14301243424E+04  0.10000000000E+02 0.  1.
</event>
<event>
 5    1  0.1675361E-008  0.3803707E+03  0.7957747E-01  0.3449546E+00
         13   -1    0    0    0    0  0.00000000000E+00  0.00000000000E+00  0.14999999963E+04  0.15000000000E+04  0.10566000000E+00 0.  1.
        994   -1    0    0    0    0 -0.00000000000E+00 -0.00000000000E+00  0.11368683772E-12  0.17120000000E+03  0.17120000000E+03 0.  0.
         13    1    1    2    0    0 -0.73076214949E+01  0.83412325000E+01  0.14005342484E+02  0.17864441600E+02  0.10566000000E+00 0.  1.
        994    1    1    2    0    0  0.48889291787E+01 -0.16772088464E+01  0.40353243933E+01  0.17132553371E+03  0.17120000000E+03 0.  0.
        998    1    1    2    0    0  0.24186923162E+01 -0.66640236535E+01  0.14819593294E+04  0.14820100247E+04  0.10000000000E+02 0.  1.
</event>
<event>
 5    1  0.1675361E-008  0.3779765E+03  0.7957747E-01  0.3460017E+00
         13   -1    0    0    0    0  0.00000000000E+00  0.00000000000E+00  0.14999999963E+04  0.15000000000E+04  0.10566000000E+00 0. -1.
        994   -1    0    0    0    0 -0.00000000000E+00 -0.00000000000E+00  0.11368683772E-12  0.17120000000E+03  0.17120000000E+03 0.  0.
         13    1    1    2    0    0  0.32775767102E+02 -0.12767836046E+03  0.60498036317E+03  0.61917466487E+03  0.10566000000E+00 0. -1.
        994    1    1    2    0    0 -0.53261621226E+02  0.15531048293E+03  0.10201881784E+03  0.25821585078E+03  0.17120000000E+03 0.  0.
        998    1    1    2    0    0  0.20485854124E+02 -0.27632122469E+02  0.79300081527E+03  0.79380948434E+03  0.10000000000E+02 0. -1.
</event>
<event>
 5    1  0.1675361E-008  0.3826653E+03  0.7957747E-01  0.3439635E+00
         13   -1    0    0    0    0  0.00000000000E+00  0.00000000000E+00  0.14999999963E+04  0.15000000000E+04  0.10566000000E+00 0. -1.
        994   -1    0    0    0    0 -0.00000000000E+00 -0.00000000000E+00  0.11368683772E-12  0.17120000000E+03  0.17120000000E+03 0.  0.
         13    1    1    2    0    0 -0.50963164053E+01  0.12666362452E+02  0.34331989439E+02  0.36947338762E+02  0.10566000000E+00 0. -1.
        994    1    1    2    0    0 -0.84577842940E+00  0.63108220560E+01  0.29280744741E+01  0.17134338457E+03  0.17120000000E+03 0.  0.
        998    1    1    2    0    0  0.59420948347E+01 -0.18977184508E+02  0.14627399324E+04  0.14629092767E+04  0.10000000000E+02 0. -1.
</event>
<event>
 5    1  0.1675361E-008  0.3843874E+03  0.7957747E-01  0.3432274E+00
         13   -1    0    0    0    0  0.00000000000E+00  0.00000000000E+00  0.14999999963E+04  0.15000000000E+04  0.10566000000E+00 0.  1.
        994   -1    0    0    0    0 -0.00000000000E+00 -0.00000000000E+00  0.11368683772E-12  0.17120000000E+03  0.17120000000E+03 0.  0.
         13    1    1    2    0    0 -0.10504380242E+02  0.67433818980E+01  0.42207320656E+02  0.44014591724E+02  0.10566000000E+00 0.  1.
        994    1    1    2    0    0 -0.85343634722E+01 -0.72999438119E+01  0.23502989657E+01  0.17158405650E+03  0.17120000000E+03 0.  0.
        998    1    1    2    0    0  0.19038743714E+02  0.55656191385E+00  0.14554423767E+04  0.14556013518E+04  0.10000000000E+02 0.  1.
</event>
<event>
 5    1  0.1675361E-008  0.3840979E+03  0.7957747E-01  0.3433507E+00
         13   -1    0    0    0    0  0.00000000000E+00  0.00000000000E+00  0.14999999963E+04  0.15000000000E+04  0.10566000000E+00 0. -1.
        994   -1    0    0    0    0 -0.00000000000E+00 -0.00000000000E+00  0.11368683772E-12  0.17120000000E+03  0.17120000000E+03 0.  0.
         13    1    1    2    0    0 -0.87550985151E+01  0.93608179358E+01  0.38082040674E+02  0.40181210141E+02  0.10566000000E+00 0. -1.
        994    1    1    2    0    0  0.10384302320E+02 -0.97115406008E+01  0.27456940065E+01  0.17181131101E+03  0.17120000000E+03 0.  0.
        998    1    1    2    0    0 -0.16292038053E+01  0.35072266494E+00  0.14591722616E+04  0.14592074788E+04  0.10000000000E+02 0. -1.
</event>
<event>
 5    1  0.1675361E-008  0.3844537E+03  0.7957747E-01  0.3431992E+00
         13   -1    0    0    0    0  0.00000000000E+00  0.00000000000E+00  0.14999999963E+04  0.15000000000E+04  0.10566000000E+00 0.  1.
        994   -1    0    0    0    0 -0.00000000000E+00 -0.00000000000E+00  0.11368683772E-12  0.17120000000E+03  0.17120000000E+03 0.  0.
         13    1    1    2    0    0 -0.11842276711E+02 -0.42161497129E+01  0.42145488045E+02  0.43980322448E+02  0.10566000000E+00 0.  1.
        994    1    1    2    0    0  0.22363536094E+01  0.49627418508E+01  0.19992368876E+01  0.17129818164E+03  0.17120000000E+03 0.  0.
        998    1    1    2    0    0  0.96059231012E+01 -0.74659213793E+00  0.14558552713E+04  0.14559214959E+04  0.10000000000E+02 0.  1.
</event>
<event>
 5    1  0.1675361E-008  0.3765397E+03  0.7957747E-01  0.3466365E+00
         13   -1    0    0    0    0  0.00000000000E+00  0.00000000000E+00  0.14999999963E+04  0.15000000000E+04  0.10566000000E+00 0. -1.
        994   -1    0    0    0    0 -0.00000000000E+00 -0.00000000000E+00  0.11368683772E-12  0.17120000000E+03  0.17120000000E+03 0.  0.
         13    1    1    2    0    0 -0.76784889669E+02  0.29344776284E+02  0.38197960413E+03  0.39072428170E+03  0.10566000000E+00 0. -1.
        994    1    1    2    0    0  0.84792846315E+02 -0.38811818303E+02  0.35887973384E+02  0.19822605949E+03  0.17120000000E+03 0.  0.
        998    1    1    2    0    0 -0.80079566454E+01  0.94670420196E+01  0.10821324188E+04  0.10822496588E+04  0.10000000000E+02 0. -1.
</event>
<event>
 5    1  0.1675361E-008  0.3800091E+03  0.7957747E-01  0.3451119E+00
         13   -1    0    0    0    0  0.00000000000E+00  0.00000000000E+00  0.14999999963E+04  0.15000000000E+04  0.10566000000E+00 0.  1.
        994   -1    0    0    0    0 -0.00000000000E+00 -0.00000000000E+00  0.11368683772E-12  0.17120000000E+03  0.17120000000E+03 0.  0.
         13    1    1    2    0    0 -0.10578932567E+02 -0.60617772748E+01  0.16475844827E+02  0.20496916471E+02  0.10566000000E+00 0.  1.
        994    1    1    2    0    0 -0.31705832958E-01  0.64393466847E+01  0.42671654349E+01  0.17137419552E+03  0.17120000000E+03 0.  0.
        998    1    1    2    0    0  0.10610638400E+02 -0.37756940988E+00  0.14792569860E+04  0.14793288880E+04  0.10000000000E+02 0.  1.
</event>
<event>
 5    1  0.1675361E-008  0.3757110E+03  0.7957747E-01  0.3470049E+00
         13   -1    0    0    0    0  0.00000000000E+00  0.00000000000E+00  0.14999999963E+04  0.15000000000E+04  0.10566000000E+00 0. -1.
        994   -1    0    0    0    0 -0.00000000000E+00 -0.00000000000E+00  0.11368683772E-12  0.17120000000E+03  0.17120000000E+03 0.  0.
         13    1    1    2    0    0 -0.25072703697E+00 -0.12080821570E+02  0.87620684148E+01  0.14926289585E+02  0.10566000000E+00 0. -1.
        994    1    1    2    0    0 -0.50775202328E+01  0.60946949409E+01  0.65274638436E+01  0.17150794239E+03  0.17120000000E+03 0.  0.
        998    1    1    2    0    0  0.53282472697E+01  0.59861266286E+01  0.14847104640E+04  0.14847657680E+04  0.10000000000E+02 0. -1.
</event>
<event>
 5    1  0.1675361E-008  0.3744730E+03  0.7957747E-01  0.3475583E+00
         13   -1    0    0    0    0  0.00000000000E+00  0.00000000000E+00  0.14999999963E+04  0.15000000000E+04  0.10566000000E+00 0.  1.
        994   -1    0    0    0    0 -0.00000000000E+00 -0.00000000000E+00  0.11368683772E-12  0.17120000000E+03  0.17120000000E+03 0.  0.
         13    1    1    2    0    0  0.58170402778E+01  0.12229143658E+02  0.10306627218E+02  0.17018450013E+02  0.10566000000E+00 0.  1.
        994    1    1    2    0    0 -0.73955347424E+01  0.37632657925E+01  0.71841113401E+01  0.17155147204E+03  0.17120000000E+03 0.  0.
        998    1    1    2    0    0  0.15784944646E+01 -0.15992409450E+02  0.14825092577E+04  0.14826300779E+04  0.10000000000E+02 0.  1.
</event>
<event>
 5    1  0.1675361E-008  0.3721773E+03  0.7957747E-01  0.3485944E+00
         13   -1    0    0    0    0  0.00000000000E+00  0.00000000000E+00  0.14999999963E+04  0.15000000000E+04  0.10566000000E+00 0. -1.
        994   -1    0    0    0    0 -0.00000000000E+00 -0.00000000000E+00  0.11368683772E-12  0.17120000000E+03  0.17120000000E+03 0.  0.
         13    1    1    2    0    0 -0.11474101970E+02 -0.20788140217E+02  0.32100565074E+02  0.39928175914E+02  0.10566000000E+00 0. -1.
        994    1    1    2    0    0 -0.72088590957E+01  0.11777462840E+02  0.87900562352E+01  0.17198075872E+03  0.17120000000E+03 0.  0.
        998    1    1    2    0    0  0.18682961065E+02  0.90106773769E+01  0.14591093750E+04  0.14592910654E+04  0.10000000000E+02 0. -1.
</event>
<event>
 5    1  0.1675361E-008  0.3771203E+03  0.7957747E-01  0.3463794E+00
         13   -1    0    0    0    0  0.00000000000E+00  0.00000000000E+00  0.14999999963E+04  0.15000000000E+04  0.10566000000E+00 0.  1.
        994   -1    0    0    0    0 -0.00000000000E+00 -0.00000000000E+00  0.11368683772E-12  0.17120000000E+03  0.17120000000E+03 0.  0.
         13    1    1    2    0    0  0.84387806315E+01 -0.18095665110E+02  0.32899094890E+02  0.38484122998E+02  0.10566000000E+00 0.  1.
        994    1    1    2    0    0 -0.80212135826E+01  0.16595702840E+02  0.67414318509E+01  0.17232133972E+03  0.17120000000E+03 0.  0.
        998    1    1    2    0    0 -0.41756704891E+00  0.14999622695E+01  0.14603594695E+04  0.14603945373E+04  0.10000000000E+02 0.  1.
</event>
<event>
 5    1  0.1675361E-008  0.3839438E+03  0.7957747E-01  0.3434164E+00
         13   -1    0    0    0    0  0.00000000000E+00  0.00000000000E+00  0.14999999963E+04  0.15000000000E+04  0.10566000000E+00 0. -1.
        994   -1    0    0    0    0 -0.00000000000E+00 -0.00000000000E+00  0.11368683772E-12  0.17120000000E+03  0.17120000000E+03 0.  0.
         13    1    1    2    0    0  0.31432067132E+01  0.21914377184E+02  0.11513728048E+03  0.11724642509E+03  0.10566000000E+00 0. -1.
        994    1    1    2    0    0  0.72552715408E+01 -0.12762092020E+02  0.28669147362E+01  0.17185217240E+03  0.17120000000E+03 0.  0.
        998    1    1    2    0    0 -0.10398478254E+02 -0.91522851641E+01  0.13819958011E+04  0.13821014025E+04  0.10000000000E+02 0. -1.
</event>
<event>
 5    1  0.1675361E-008  0.3843745E+03  0.7957747E-01  0.3432329E+00
         13   -1    0    0    0    0  0.00000000000E+00  0.00000000000E+00  0.14999999963E+04  0.15000000000E+04  0.10566000000E+00 0. -1.
        994   -1    0    0    0    0 -0.00000000000E+00 -0.00000000000E+00  0.11368683772E-12  0.17120000000E+03  0.17120000000E+03 0.  0.
         13    1    1    2    0    0 -0.86977097753E+01  0.94517455213E+01  0.43421637466E+02  0.45281733768E+02  0.10566000000E+00 0. -1.
        994    1    1    2    0    0 -0.58280495920E+01 -0.87257041266E+01  0.23039323626E+01  0.17153673711E+03  0.17120000000E+03 0.  0.
        998    1    1    2    0    0  0.14525759367E+02 -0.72604139474E+00  0.14542744264E+04  0.14543815291E+04  0.10000000000E+02 0. -1.
</event>
<event>
 5    1  0.1675361E-008  0.3855682E+03  0.7957747E-01  0.3427266E+00
         13   -1    0    0    0    0  0.00000000000E+00  0.00000000000E+00  0.14999999963E+04  0.15000000000E+04  0.10566000000E+00 0.  1.
        994   -1    0    0    0    0 -0.00000000000E+00 -0.00000000000E+00  0.11368683772E-12  0.17120000000E+03  0.17120000000E+03 0.  0.
         13    1    1    2    0    0 -0.60979195906E+01  0.91070552395E+01  0.44860445077E+02  0.46180014888E+02  0.10566000000E+00 0.  1.
        994    1    1    2    0    0 -0.30380037498E+01 -0.10525659249E+02  0.17423857774E+01  0.17155901281E+03  0.17120000000E+03 0.  0.
        998    1    1    2    0    0  0.91359233404E+01  0.14186040093E+01  0.14533971654E+04  0.14534609723E+04  0.10000000000E+02 0.  1.
</event>
<event>
 5    1  0.1675361E-008  0.3779787E+03  0.7957747E-01  0.3460007E+00
         13   -1    0    0    0    0  0.00000000000E+00  0.00000000000E+00  0.14999999963E+04  0.15000000000E+04  0.10566000000E+00 0.  1.
        994   -1    0    0    0    0 -0.00000000000E+00 -0.00000000000E+00  0.11368683772E-12  0.17120000000E+03  0.17120000000E+03 0.  0.
         13    1    1    2    0    0  0.28696498004E+02  0.10771236711E+02  0.23919175840E+02  0.38879900655E+02  0.10566000000E+00 0.  1.
        994    1    1    2    0    0 -0.33515794215E+02 -0.10623819150E+02  0.19680668401E+02  0.17587763560E+03  0.17120000000E+03 0.  0.
        998    1    1    2    0    0  0.48192962105E+01 -0.14741756148E+00  0.14564001520E+04  0.14564424637E+04  0.10000000000E+02 0.  1.
</event>
<event>
 5    1  0.1675361E-008  0.3802889E+03  0.7957747E-01  0.3449902E+00
         13   -1    0    0    0    0  0.00000000000E+00  0.00000000000E+00  0.14999999963E+04  0.15000000000E+04  0.10566000000E+00 0.  1.
        994   -1    0    0    0    0 -0.00000000000E+00 -0.00000000000E+00  0.11368683772E-12  0.17120000000E+03  0.17120000000E+03 0.  0.
         13    1    1    2    0    0 -0.10744524347E+02  0.28697724329E-01  0.12502159431E+02  0.16485168530E+02  0.10566000000E+00 0.  1.
        994    1    1    2    0    0  0.15656304343E+02  0.28323755070E+01  0.48332715249E+01  0.17200564738E+03  0.17120000000E+03 0.  0.
        998    1    1    2    0    0 -0.49117799968E+01 -0.28610732314E+01  0.14826645653E+04  0.14827091841E+04  0.10000000000E+02 0.  1.
</event>
<event>
 5    1  0.1675361E-008  0.3592361E+03  0.7957747E-01  0.3546871E+00
         13   -1    0    0    0    0  0.00000000000E+00  0.00000000000E+00  0.14999999963E+04  0.15000000000E+04  0.10566000000E+00 0.  1.
        994   -1    0    0    0    0 -0.00000000000E+00 -0.00000000000E+00  0.11368683772E-12  0.17120000000E+03  0.17120000000E+03 0.  0.
         13    1    1    2    0    0  0.18459579060E+03  0.91038276975E+02  0.12309128876E+04  0.12480024526E+04  0.10566000000E+00 0.  1.
        994    1    1    2    0    0 -0.21733096748E+03 -0.71889881991E+02  0.24919480595E+03  0.37922077458E+03  0.17120000000E+03 0.  0.
        998    1    1    2    0    0  0.32735176883E+02 -0.19148394984E+02  0.19892302720E+02  0.43976772772E+02  0.10000000000E+02 0. -1.
</event>
<event>
 5    1  0.1675361E-008  0.2880445E+03  0.7957747E-01  0.3985249E+00
         13   -1    0    0    0    0  0.00000000000E+00  0.00000000000E+00  0.14999999963E+04  0.15000000000E+04  0.10566000000E+00 0. -1.
        994   -1    0    0    0    0 -0.00000000000E+00 -0.00000000000E+00  0.11368683772E-12  0.17120000000E+03  0.17120000000E+03 0.  0.
         13    1    1    2    0    0  0.11821074787E+03 -0.11841685730E+03  0.58268812811E+03  0.60623576174E+03  0.10566000000E+00 0. -1.
        994    1    1    2    0    0 -0.11470154606E+03  0.12256519680E+03  0.12099561040E+03  0.26856665815E+03  0.17120000000E+03 0.  0.
        998    1    1    2    0    0 -0.35092018091E+01 -0.41483395045E+01  0.79631625777E+03  0.79639758011E+03  0.10000000000E+02 0.  0.
</event>
<event>
 5    1  0.1675361E-008  0.2480322E+03  0.7957747E-01  0.4354894E+00
         13   -1    0    0    0    0  0.00000000000E+00  0.00000000000E+00  0.14999999963E+04  0.15000000000E+04  0.10566000000E+00 0. -1.
        994   -1    0    0    0    0 -0.00000000000E+00 -0.00000000000E+00  0.11368683772E-12  0.17120000000E+03  0.17120000000E+03 0.  0.
         13    1    1    2    0    0 -0.13098344311E+03 -0.50672141098E+02  0.56276366965E+03  0.58002352305E+03  0.10566000000E+00 0. -1.
        994    1    1    2    0    0 -0.20503811364E+02 -0.25916498666E+02  0.41217878662E+02  0.17916591390E+03  0.17120000000E+03 0.  0.
        998    1    1    2    0    0  0.15148725447E+03  0.76588639764E+02  0.89601844797E+03  0.91201056305E+03  0.10000000000E+02 0. -1.
</event>
<event>
 5    1  0.1675361E-008  0.3792907E+03  0.7957747E-01  0.3454253E+00
         13   -1    0    0    0    0  0.00000000000E+00  0.00000000000E+00  0.14999999963E+04  0.15000000000E+04  0.10566000000E+00 0.  1.
        994   -1    0    0    0    0 -0.00000000000E+00 -0.00000000000E+00  0.11368683772E-12  0.17120000000E+03  0.17120000000E+03 0.  0.
         13    1    1    2    0    0  0.30418528049E+01  0.37559042314E+02  0.13723832950E+03  0.14231761934E+03  0.10566000000E+00 0.  1.
        994    1    1    2    0    0 -0.88318126154E+01 -0.44659775235E+02  0.11467605774E+02  0.17752025918E+03  0.17120000000E+03 0.  0.
        998    1    1    2    0    0  0.57899598104E+01  0.71007329209E+01  0.13512940610E+04  0.13513621215E+04  0.10000000000E+02 0.  1.
</event>
<event>
 5    1  0.1675361E-008  0.3847459E+03  0.7957747E-01  0.3430751E+00
         13   -1    0    0    0    0  0.00000000000E+00  0.00000000000E+00  0.14999999963E+04  0.15000000000E+04  0.10566000000E+00 0. -1.
        994   -1    0    0    0    0 -0.00000000000E+00 -0.00000000000E+00  0.11368683772E-12  0.17120000000E+03  0.17120000000E+03 0.  0.
         13    1    1    2    0    0  0.90078991444E+01 -0.13528219870E+02  0.73548970694E+02  0.75323417567E+02  0.10566000000E+00 0. -1.
        994    1    1    2    0    0 -0.79296098049E+01  0.11307261272E+02  0.23843868254E+01  0.17177269332E+03  0.17120000000E+03 0.  0.
        998    1    1    2    0    0 -0.10782893395E+01  0.22209585976E+01  0.14240666388E+04  0.14241038891E+04  0.10000000000E+02 0. -1.
</event>
<event>
 5    1  0.1740879E-008  0.3853973E+03  0.7957747E-01  0.3427989E+00
         13   -1    0    0    0    0  0.00000000000E+00  0.00000000000E+00  0.14999999963E+04  0.15000000000E+04  0.10566000000E+00 0.  1.
        994   -1    0    0    0    0 -0.00000000000E+00 -0.00000000000E+00  0.11368683772E-12  0.17120000000E+03  0.17120000000E+03 0.  0.
         13    1    1    2    0    0  0.10713105368E+02 -0.28863495017E+00  0.39246024143E+02  0.40683110892E+02  0.10566000000E+00 0.  1.
        994    1    1    2    0    0 -0.11449471560E+02  0.25040208561E+01  0.18842692844E+01  0.17161104565E+03  0.17120000000E+03 0.  0.
        998    1    1    2    0    0  0.73636619214E+00 -0.22153859060E+01  0.14588697029E+04  0.14589058435E+04  0.10000000000E+02 0.  1.
</event>
<event>
 5    1  0.1675361E-008  0.3801882E+03  0.7957747E-01  0.3450340E+00
         13   -1    0    0    0    0  0.00000000000E+00  0.00000000000E+00  0.14999999963E+04  0.15000000000E+04  0.10566000000E+00 0.  1.
        994   -1    0    0    0    0 -0.00000000000E+00 -0.00000000000E+00  0.11368683772E-12  0.17120000000E+03  0.17120000000E+03 0.  0.
         13    1    1    2    0    0 -0.80713078339E+01  0.22014742328E+02  0.69525496225E+02  0.73373024193E+02  0.10566000000E+00 0.  1.
        994    1    1    2    0    0  0.11676409516E+02 -0.12848016837E+01  0.44993193345E+01  0.17166150742E+03  0.17120000000E+03 0.  0.
        998    1    1    2    0    0 -0.36051016825E+01 -0.20729940644E+02  0.14259751807E+04  0.14261654684E+04  0.10000000000E+02 0.  1.
</event>
<event>
 5    1  0.1675361E-008  0.3862055E+03  0.7957747E-01  0.3424576E+00
         13   -1    0    0    0    0  0.00000000000E+00  0.00000000000E+00  0.14999999963E+04  0.15000000000E+04  0.10566000000E+00 0. -1.
        994   -1    0    0    0    0 -0.00000000000E+00 -0.00000000000E+00  0.11368683772E-12  0.17120000000E+03  0.17120000000E+03 0.  0.
         13    1    1    2    0    0  0.46685024450E+01 -0.98014819471E+01  0.63011337353E+02  0.63939844874E+02  0.10566000000E+00 0. -1.
        994    1    1    2    0    0  0.46035995576E+00 -0.34708435138E+01  0.10729795976E+01  0.17123916016E+03  0.17120000000E+03 0.  0.
        998    1    1    2    0    0 -0.51288624008E+01  0.13272325461E+02  0.14359156793E+04  0.14360209950E+04  0.10000000000E+02 0. -1.
</event>
<event>
 5    1  0.1675361E-008  0.3806724E+03  0.7957747E-01  0.3448236E+00
         13   -1    0    0    0    0  0.00000000000E+00  0.00000000000E+00  0.14999999963E+04  0.15000000000E+04  0.10566000000E+00 0. -1.
        994   -1    0    0    0    0 -0.00000000000E+00 -0.00000000000E+00  0.11368683772E-12  0.17120000000E+03  0.17120000000E+03 0.  0.
         13    1    1    2    0    0  0.19472913322E+02 -0.19038023738E+02  0.88868243158E+02  0.92947385693E+02  0.10566000000E+00 0. -1.
        994    1    1    2    0    0 -0.30385824182E+02  0.16335043150E+02  0.77740068201E+01  0.17481420745E+03  0.17120000000E+03 0.  0.
        998    1    1    2    0    0  0.10912910860E+02  0.27029805878E+01  0.14033577463E+04  0.14034384069E+04  0.10000000000E+02 0. -1.
</event>
<event>
 5    1  0.1675361E-008  0.3811468E+03  0.7957747E-01  0.3446180E+00
         13   -1    0    0    0    0  0.00000000000E+00  0.00000000000E+00  0.14999999963E+04  0.15000000000E+04  0.10566000000E+00 0.  1.
        994   -1    0    0    0    0 -0.00000000000E+00 -0.00000000000E+00  0.11368683772E-12  0.17120000000E+03  0.17120000000E+03 0.  0.
         13    1    1    2    0    0  0.47060543591E+02 -0.65400644145E+02  0.17637153576E+03  0.19390427743E+03  0.10566000000E+00 0.  1.
        994    1    1    2    0    0 -0.42978167564E+02  0.48208191218E+02  0.32298043597E+02  0.18580569477E+03  0.17120000000E+03 0.  0.
        998    1    1    2    0    0 -0.40823760267E+01  0.17192452926E+02  0.12913304169E+04  0.12914900278E+04  0.10000000000E+02 0.  1.
</event>
<event>
 5    1  0.1675361E-008  0.3756270E+03  0.7957747E-01  0.3470423E+00
         13   -1    0    0    0    0  0.00000000000E+00  0.00000000000E+00  0.14999999963E+04  0.15000000000E+04  0.10566000000E+00 0.  1.
        994   -1    0    0    0    0 -0.00000000000E+00 -0.00000000000E+00  0.11368683772E-12  0.17120000000E+03  0.17120000000E+03 0.  0.
         13    1    1    2    0    0  0.40053077604E+02  0.81172457709E+01  0.13323473773E+03  0.13936156287E+03  0.10566000000E+00 0.  1.
        994    1    1    2    0    0 -0.18799840007E+02  0.13403783193E+01  0.75629715469E+01  0.17240031652E+03  0.17120000000E+03 0.  0.
        998    1    1    2    0    0 -0.21253237597E+02 -0.94576240902E+01  0.13592022870E+04  0.13594381206E+04  0.10000000000E+02 0.  1.
</event>
<event>
 5    1  0.1675361E-008  0.3744001E+03  0.7957747E-01  0.3475910E+00
         13   -1    0    0    0    0  0.00000000000E+00  0.00000000000E+00  0.14999999963E+04  0.15000000000E+04  0.10566000000E+00 0. -1.
        994   -1    0    0    0    0 -0.00000000000E+00 -0.00000000000E+00  0.11368683772E-12  0.17120000000E+03  0.17120000000E+03 0.  0.
         13    1    1    2    0    0  0.31005878067E+02  0.27747747989E+02  0.11625556247E+03  0.12347740264E+03  0.10566000000E+00 0. -1.
        994    1    1    2    0    0 -0.20272711095E+02 -0.29933398745E+02  0.11451851537E+02  0.17534986763E+03  0.17120000000E+03 0.  0.
        998    1    1    2    0    0 -0.10733166972E+02  0.21856507561E+01  0.13722925823E+04  0.13723727297E+04  0.10000000000E+02 0. -1.
</event>
<event>
 5    1  0.1675361E-008  0.3780696E+03  0.7957747E-01  0.3459607E+00
         13   -1    0    0    0    0  0.00000000000E+00  0.00000000000E+00  0.14999999963E+04  0.15000000000E+04  0.10566000000E+00 0.  1.
        994   -1    0    0    0    0 -0.00000000000E+00 -0.00000000000E+00  0.11368683772E-12  0.17120000000E+03  0.17120000000E+03 0.  0.
         13    1    1    2    0    0  0.10103958357E+03 -0.27277525105E+02  0.27668623485E+03  0.29581809367E+03  0.10566000000E+00 0.  1.
        994    1    1    2    0    0 -0.10517440120E+03  0.32125817647E+02  0.60183858661E+02  0.21219156362E+03  0.17120000000E+03 0.  0.
        998    1    1    2    0    0  0.41348176305E+01 -0.48482925420E+01  0.11631299028E+04  0.11631903427E+04  0.10000000000E+02 0.  1.
</event>
<event>
 5    1  0.1675361E-008  0.3846433E+03  0.7957747E-01  0.3431186E+00
         13   -1    0    0    0    0  0.00000000000E+00  0.00000000000E+00  0.14999999963E+04  0.15000000000E+04  0.10566000000E+00 0. -1.
        994   -1    0    0    0    0 -0.00000000000E+00 -0.00000000000E+00  0.11368683772E-12  0.17120000000E+03  0.17120000000E+03 0.  0.
         13    1    1    2    0    0 -0.10296651415E+02  0.11331839069E+02  0.70447686001E+02  0.72092435345E+02  0.10566000000E+00 0. -1.
        994    1    1    2    0    0 -0.85375730066E+01 -0.33692625608E+01  0.20847522770E+01  0.17145853223E+03  0.17120000000E+03 0.  0.
        998    1    1    2    0    0  0.18834224422E+02 -0.79625765080E+01  0.14274675580E+04  0.14276490324E+04  0.10000000000E+02 0. -1.
</event>
<event>
 5    1  0.1675361E-008  0.3859865E+03  0.7957747E-01  0.3425499E+00
         13   -1    0    0    0    0  0.00000000000E+00  0.00000000000E+00  0.14999999963E+04  0.15000000000E+04  0.10566000000E+00 0. -1.
        994   -1    0    0    0    0 -0.00000000000E+00 -0.00000000000E+00  0.11368683772E-12  0.17120000000E+03  0.17120000000E+03 0.  0.
         13    1    1    2    0    0  0.96831976187E+01 -0.25994564466E+01  0.44732222421E+02  0.45842168106E+02  0.10566000000E+00 0. -1.
        994    1    1    2    0    0 -0.70678368768E+01 -0.28142182091E+01  0.13308710318E+01  0.17137410936E+03  0.17120000000E+03 0.  0.
        998    1    1    2    0    0 -0.26153607420E+01  0.54136746557E+01  0.14539369028E+04  0.14539837225E+04  0.10000000000E+02 0. -1.
</event>
<event>
 5    1  0.1675361E-008  0.3788720E+03  0.7957747E-01  0.3456085E+00
         13   -1    0    0    0    0  0.00000000000E+00  0.00000000000E+00  0.14999999963E+04  0.15000000000E+04  0.10566000000E+00 0. -1.
        994   -1    0    0    0    0 -0.00000000000E+00 -0.00000000000E+00  0.11368683772E-12  0.17120000000E+03  0.17120000000E+03 0.  0.
         13    1    1    2    0    0 -0.17952204768E+02  0.13970706231E+02  0.48519759987E+02  0.53587690395E+02  0.10566000000E+00 0. -1.
        994    1    1    2    0    0  0.24660320621E+02 -0.35006015317E+02  0.10880700525E+02  0.17680888599E+03  0.17120000000E+03 0.  0.
        998    1    1    2    0    0 -0.67081158527E+01  0.21035309086E+02  0.14405995358E+04  0.14408034236E+04  0.10000000000E+02 0. -1.
</event>
<event>
 5    1  0.1675361E-008  0.3859132E+03  0.7957747E-01  0.3425809E+00
         13   -1    0    0    0    0  0.00000000000E+00  0.00000000000E+00  0.14999999963E+04  0.15000000000E+04  0.10566000000E+00 0. -1.
        994   -1    0    0    0    0 -0.00000000000E+00 -0.00000000000E+00  0.11368683772E-12  0.17120000000E+03  0.17120000000E+03 0.  0.
         13    1    1    2    0    0 -0.11868698749E+02  0.18780992910E+01  0.62995795355E+02  0.64131697805E+02  0.10566000000E+00 0. -1.
        994    1    1    2    0    0  0.62835821514E+01  0.28583797450E+01  0.13337114418E+01  0.17134430987E+03  0.17120000000E+03 0.  0.
        998    1    1    2    0    0  0.55851165976E+01 -0.47364790360E+01  0.14356704895E+04  0.14357239923E+04  0.10000000000E+02 0. -1.
</event>
<event>
 5    1  0.1675361E-008  0.3852159E+03  0.7957747E-01  0.3428757E+00
         13   -1    0    0    0    0  0.00000000000E+00  0.00000000000E+00  0.14999999963E+04  0.15000000000E+04  0.10566000000E+00 0. -1.
        994   -1    0    0    0    0 -0.00000000000E+00 -0.00000000000E+00  0.11368683772E-12  0.17120000000E+03  0.17120000000E+03 0.  0.
         13    1    1    2    0    0 -0.12132764265E+02  0.43948128612E+01  0.54596967006E+02  0.56101321902E+02  0.10566000000E+00 0. -1.
        994    1    1    2    0    0  0.10667982257E+02  0.26396216313E+01  0.19199793351E+01  0.17156310725E+03  0.17120000000E+03 0.  0.
        998    1    1    2    0    0  0.14647820088E+01 -0.70344344924E+01  0.14434830499E+04  0.14435355709E+04  0.10000000000E+02 0. -1.
</event>
<event>
 5    1  0.1675361E-008  0.3844193E+03  0.7957747E-01  0.3432139E+00
         13   -1    0    0    0    0  0.00000000000E+00  0.00000000000E+00  0.14999999963E+04  0.15000000000E+04  0.10566000000E+00 0.  1.
        994   -1    0    0    0    0 -0.00000000000E+00 -0.00000000000E+00  0.11368683772E-12  0.17120000000E+03  0.17120000000E+03 0.  0.
         13    1    1    2    0    0 -0.19525954316E+02 -0.95388695339E+01  0.12602699696E+03  0.12788693464E+03  0.10566000000E+00 0.  1.
        994    1    1    2    0    0  0.85547771286E+01  0.60023601578E+01  0.22786169881E+01  0.17153380027E+03  0.17120000000E+03 0.  0.
        998    1    1    2    0    0  0.10971177187E+02  0.35365093761E+01  0.13716943823E+04  0.13717792651E+04  0.10000000000E+02 0.  1.
</event>
<event>
 5    1  0.1675361E-008  0.3816496E+03  0.7957747E-01  0.3444007E+00
         13   -1    0    0    0    0  0.00000000000E+00  0.00000000000E+00  0.14999999963E+04  0.15000000000E+04  0.10566000000E+00 0.  1.
        994   -1    0    0    0    0 -0.00000000000E+00 -0.00000000000E+00  0.11368683772E-12  0.17120000000E+03  0.17120000000E+03 0.  0.
         13    1    1    2    0    0  0.18593247629E+02 -0.13033659558E+02  0.72766686620E+02  0.76227206328E+02  0.10566000000E+00 0.  1.
        994    1    1    2    0    0 -0.21979812845E+02  0.13717837772E+02  0.55378671895E+01  0.17323798434E+03  0.17120000000E+03 0.  0.
        998    1    1    2    0    0  0.33865652161E+01 -0.68417821321E+00  0.14216954425E+04  0.14217348093E+04  0.10000000000E+02 0.  1.
</event>
<event>
 5    1  0.1675361E-008  0.3782103E+03  0.7957747E-01  0.3458988E+00
         13   -1    0    0    0    0  0.00000000000E+00  0.00000000000E+00  0.14999999963E+04  0.15000000000E+04  0.10566000000E+00 0.  1.
        994   -1    0    0    0    0 -0.00000000000E+00 -0.00000000000E+00  0.11368683772E-12  0.17120000000E+03  0.17120000000E+03 0.  0.
         13    1    1    2    0    0 -0.22033219002E+01 -0.12201649783E+02  0.12967329928E+02  0.17941507582E+02  0.10566000000E+00 0.  1.
        994    1    1    2    0    0  0.33999970820E+01  0.10770353870E+02  0.54683619386E+01  0.17165926565E+03  0.17120000000E+03 0.  0.
        998    1    1    2    0    0 -0.11966751818E+01  0.14312959130E+01  0.14815643044E+04  0.14815992268E+04  0.10000000000E+02 0.  1.
</event>
<event>
 5    1  0.1675361E-008  0.3808152E+03  0.7957747E-01  0.3447617E+00
         13   -1    0    0    0    0  0.00000000000E+00  0.00000000000E+00  0.14999999963E+04  0.15000000000E+04  0.10566000000E+00 0. -1.
        994   -1    0    0    0    0 -0.00000000000E+00 -0.00000000000E+00  0.11368683772E-12  0.17120000000E+03  0.17120000000E+03 0.  0.
         13    1    1    2    0    0  0.15548088328E+01  0.27513171892E+02  0.11822724058E+03  0.12139639054E+03  0.10566000000E+00 0. -1.
        994    1    1    2    0    0 -0.56859676315E+02  0.95163773349E+01  0.14883330163E+02  0.18125820739E+03  0.17120000000E+03 0.  0.
        998    1    1    2    0    0  0.55304867482E+02 -0.37029549227E+02  0.13668894255E+04  0.13685454021E+04  0.10000000000E+02 0. -1.
</event>
<event>
 5    1  0.1675361E-008  0.3827068E+03  0.7957747E-01  0.3439456E+00
         13   -1    0    0    0    0  0.00000000000E+00  0.00000000000E+00  0.14999999963E+04  0.15000000000E+04  0.10566000000E+00 0.  1.
        994   -1    0    0    0    0 -0.00000000000E+00 -0.00000000000E+00  0.11368683772E-12  0.17120000000E+03  0.17120000000E+03 0.  0.
         13    1    1    2    0    0 -0.11763560481E+02 -0.58107818015E+01  0.30286264790E+02  0.33006295450E+02  0.10566000000E+00 0.  1.
        994    1    1    2    0    0  0.85873397302E+00  0.14058273674E+02  0.34305013638E+01  0.17181263290E+03  0.17120000000E+03 0.  0.
        998    1    1    2    0    0  0.10904826508E+02 -0.82474918726E+01  0.14662832301E+04  0.14663810717E+04  0.10000000000E+02 0.  1.
</event>
<event>
 5    1  0.1675361E-008  0.3801848E+03  0.7957747E-01  0.3450354E+00
         13   -1    0    0    0    0  0.00000000000E+00  0.00000000000E+00  0.14999999963E+04  0.15000000000E+04  0.10566000000E+00 0. -1.
        994   -1    0    0    0    0 -0.00000000000E+00 -0.00000000000E+00  0.11368683772E-12  0.17120000000E+03  0.17120000000E+03 0.  0.
         13    1    1    2    0    0  0.21305874761E+01 -0.25126703308E+02  0.84606587119E+02  0.88284632695E+02  0.10566000000E+00 0. -1.
        994    1    1    2    0    0  0.10546508251E+02 -0.20285560811E+01  0.44253075060E+01  0.17159361067E+03  0.17120000000E+03 0.  0.
        998    1    1    2    0    0 -0.12677095727E+02  0.27155259389E+02  0.14109681017E+04  0.14113217566E+04  0.10000000000E+02 0. -1.
</event>
<event>
 5    1  0.1675361E-008  0.3737311E+03  0.7957747E-01  0.3478917E+00
         13   -1    0    0    0    0  0.00000000000E+00  0.00000000000E+00  0.14999999963E+04  0.15000000000E+04  0.10566000000E+00 0.  1.
        994   -1    0    0    0    0 -0.00000000000E+00 -0.00000000000E+00  0.11368683772E-12  0.17120000000E+03  0.17120000000E+03 0.  0.
         13    1    1    2    0    0  0.13111970090E+02 -0.16297879871E+02  0.28780711908E+02  0.35579280346E+02  0.10566000000E+00 0.  1.
        994    1    1    2    0    0  0.11526842258E+02 -0.81695082205E+01  0.80134727013E+01  0.17196878991E+03  0.17120000000E+03 0.  0.
        998    1    1    2    0    0 -0.24638812348E+02  0.24467388091E+02  0.14632058117E+04  0.14636519297E+04  0.10000000000E+02 0.  1.
</event>
<event>
 5    1  0.1675361E-008  0.3805324E+03  0.7957747E-01  0.3448844E+00
         13   -1    0    0    0    0  0.00000000000E+00  0.00000000000E+00  0.14999999963E+04  0.15000000000E+04  0.10566000000E+00 0.  1.
        994   -1    0    0    0    0 -0.00000000000E+00 -0.00000000000E+00  0.11368683772E-12  0.17120000000E+03  0.17120000000E+03 0.  0.
         13    1    1    2    0    0 -0.29429318483E+02 -0.39906414190E+01  0.12069219631E+03  0.12429250750E+03  0.10566000000E+00 0.  1.
        994    1    1    2    0    0  0.58937355302E+01  0.38702364971E+01  0.40305675480E+01  0.17139253287E+03  0.17120000000E+03 0.  0.
        998    1    1    2    0    0  0.23535582953E+02  0.12040492185E+00  0.13752772324E+04  0.13755149596E+04  0.10000000000E+02 0.  1.
</event>
<event>
 5    1  0.1675361E-008  0.3803044E+03  0.7957747E-01  0.3449834E+00
         13   -1    0    0    0    0  0.00000000000E+00  0.00000000000E+00  0.14999999963E+04  0.15000000000E+04  0.10566000000E+00 0. -1.
        994   -1    0    0    0    0 -0.00000000000E+00 -0.00000000000E+00  0.11368683772E-12  0.17120000000E+03  0.17120000000E+03 0.  0.
         13    1    1    2    0    0  0.27012040524E+02  0.54256728673E+01  0.10960629355E+03  0.11301610066E+03  0.10566000000E+00 0. -1.
        994    1    1    2    0    0  0.98408670828E+01  0.50293030691E+01  0.43875749436E+01  0.17161243361E+03  0.17120000000E+03 0.  0.
        998    1    1    2    0    0 -0.36852907607E+02 -0.10454975936E+02  0.13860061278E+04  0.13865714657E+04  0.10000000000E+02 0. -1.
</event>
<event>
 5    1  0.1675361E-008  0.3768213E+03  0.7957747E-01  0.3465117E+00
         13   -1    0    0    0    0  0.00000000000E+00  0.00000000000E+00  0.14999999963E+04  0.15000000000E+04  0.10566000000E+00 0. -1.
        994   -1    0    0    0    0 -0.00000000000E+00 -0.00000000000E+00  0.11368683772E-12  0.17120000000E+03  0.17120000000E+03 0.  0.
         13    1    1    2    0    0 -0.44109758140E+02  0.52603938981E+01  0.18568570630E+03  0.19092547026E+03  0.10566000000E+00 0. -1.
        994    1    1    2    0    0  0.10262467562E+02 -0.11033134054E+02  0.65138724356E+01  0.17198522850E+03  0.17120000000E+03 0.  0.
        998    1    1    2    0    0  0.33847290578E+02  0.57727401557E+01  0.13078004175E+04  0.13082893012E+04  0.10000000000E+02 0. -1.
</event>
<event>
 5    1  0.1675361E-008  0.3796439E+03  0.7957747E-01  0.3452710E+00
         13   -1    0    0    0    0  0.00000000000E+00  0.00000000000E+00  0.14999999963E+04  0.15000000000E+04  0.10566000000E+00 0.  1.
        994   -1    0    0    0    0 -0.00000000000E+00 -0.00000000000E+00  0.11368683772E-12  0.17120000000E+03  0.17120000000E+03 0.  0.
         13    1    1    2    0    0  0.11538746553E+02  0.92472115571E+01  0.24116342638E+02  0.28288915495E+02  0.10566000000E+00 0.  1.
        994    1    1    2    0    0  0.10863227001E+02 -0.16894908197E+02  0.56644336708E+01  0.17246731120E+03  0.17120000000E+03 0.  0.
        998    1    1    2    0    0 -0.22401973553E+02  0.76476966398E+01  0.14702192200E+04  0.14704437733E+04  0.10000000000E+02 0.  1.
</event>
<event>
 5    1  0.1675361E-008  0.3789386E+03  0.7957747E-01  0.3455793E+00
         13   -1    0    0    0    0  0.00000000000E+00  0.00000000000E+00  0.14999999963E+04  0.15000000000E+04  0.10566000000E+00 0.  1.
        994   -1    0    0    0    0 -0.00000000000E+00 -0.00000000000E+00  0.11368683772E-12  0.17120000000E+03  0.17120000000E+03 0.  0.
         13    1    1    2    0    0 -0.80222198220E+01  0.19683819324E+02  0.45043176826E+02  0.49806703331E+02  0.10566000000E+00 0.  1.
        994    1    1    2    0    0  0.94835086678E+01 -0.21772063466E+02  0.65641183148E+01  0.17296383244E+03  0.17120000000E+03 0.  0.
        998    1    1    2    0    0 -0.14612888458E+01  0.20882441414E+01  0.14483927011E+04  0.14484294642E+04  0.10000000000E+02 0.  1.
</event>
<event>
 5    1  0.1675361E-008  0.3800628E+03  0.7957747E-01  0.3450885E+00
         13   -1    0    0    0    0  0.00000000000E+00  0.00000000000E+00  0.14999999963E+04  0.15000000000E+04  0.10566000000E+00 0.  1.
        994   -1    0    0    0    0 -0.00000000000E+00 -0.00000000000E+00  0.11368683772E-12  0.17120000000E+03  0.17120000000E+03 0.  0.
         13    1    1    2    0    0 -0.27333559033E+02  0.57564589861E+01  0.89409180923E+02  0.93671089814E+02  0.10566000000E+00 0.  1.
        994    1    1    2    0    0  0.30117833917E+02  0.12083715453E+02  0.76291629402E+01  0.17441543575E+03  0.17120000000E+03 0.  0.
        998    1    1    2    0    0 -0.27842748836E+01 -0.17840174439E+02  0.14029616524E+04  0.14031134744E+04  0.10000000000E+02 0.  1.
</event>
<event>
 5    1  0.1675361E-008  0.3833580E+03  0.7957747E-01  0.3436666E+00
         13   -1    0    0    0    0  0.00000000000E+00  0.00000000000E+00  0.14999999963E+04  0.15000000000E+04  0.10566000000E+00 0. -1.
        994   -1    0    0    0    0 -0.00000000000E+00 -0.00000000000E+00  0.11368683772E-12  0.17120000000E+03  0.17120000000E+03 0.  0.
         13    1    1    2    0    0  0.18726977559E+02 -0.42551654542E+01  0.73142795156E+02  0.75621992626E+02  0.10566000000E+00 0. -1.
        994    1    1    2    0    0 -0.16534097010E+02 -0.11932573760E+00  0.33519885777E+01  0.17202926039E+03  0.17120000000E+03 0.  0.
        998    1    1    2    0    0 -0.21928805492E+01  0.43744911918E+01  0.14235052125E+04  0.14235487470E+04  0.10000000000E+02 0. -1.
</event>
<event>
 5    1  0.1675361E-008  0.3688982E+03  0.7957747E-01  0.3500970E+00
         13   -1    0    0    0    0  0.00000000000E+00  0.00000000000E+00  0.14999999963E+04  0.15000000000E+04  0.10566000000E+00 0.  1.
        994   -1    0    0    0    0 -0.00000000000E+00 -0.00000000000E+00  0.11368683772E-12  0.17120000000E+03  0.17120000000E+03 0.  0.
         13    1    1    2    0    0  0.81891318386E+02 -0.13536636357E+01  0.29708781405E+03  0.30817073329E+03  0.10566000000E+00 0.  1.
        994    1    1    2    0    0 -0.59788930336E+02  0.25272501805E+01  0.22934783546E+02  0.18280193511E+03  0.17120000000E+03 0.  0.
        998    1    1    2    0    0 -0.22102388050E+02 -0.11735865448E+01  0.11799773987E+04  0.11802273316E+04  0.10000000000E+02 0.  1.
</event>
<event>
 5    1  0.1675361E-008  0.3766953E+03  0.7957747E-01  0.3465675E+00
         13   -1    0    0    0    0  0.00000000000E+00  0.00000000000E+00  0.14999999963E+04  0.15000000000E+04  0.10566000000E+00 0. -1.
        994   -1    0    0    0    0 -0.00000000000E+00 -0.00000000000E+00  0.11368683772E-12  0.17120000000E+03  0.17120000000E+03 0.  0.
         13    1    1    2    0    0  0.16663781609E+02  0.10342466283E+01  0.20661944005E+02  0.26564607614E+02  0.10566000000E+00 0. -1.
        994    1    1    2    0    0 -0.27677633830E+02 -0.59386750647E+00  0.84054103788E+01  0.17362746043E+03  0.17120000000E+03 0.  0.
        998    1    1    2    0    0  0.11013852221E+02 -0.44037912179E+00  0.14709326419E+04  0.14710079320E+04  0.10000000000E+02 0. -1.
</event>
<event>
 5    1  0.1675361E-008  0.3817917E+03  0.7957747E-01  0.3443394E+00
         13   -1    0    0    0    0  0.00000000000E+00  0.00000000000E+00  0.14999999963E+04  0.15000000000E+04  0.10566000000E+00 0. -1.
        994   -1    0    0    0    0 -0.00000000000E+00 -0.00000000000E+00  0.11368683772E-12  0.17120000000E+03  0.17120000000E+03 0.  0.
         13    1    1    2    0    0 -0.22417267532E+02  0.11012948324E+02  0.91684956034E+02  0.95026108209E+02  0.10566000000E+00 0. -1.
        994    1    1    2    0    0  0.20355407997E+02 -0.10318455467E+02  0.49641573953E+01  0.17278569390E+03  0.17120000000E+03 0.  0.
        998    1    1    2    0    0  0.20618595344E+01 -0.69449285730E+00  0.14033508828E+04  0.14033881979E+04  0.10000000000E+02 0. -1.
</event>
<event>
 5    1  0.1675361E-008  0.3766908E+03  0.7957747E-01  0.3465695E+00
         13   -1    0    0    0    0  0.00000000000E+00  0.00000000000E+00  0.14999999963E+04  0.15000000000E+04  0.10566000000E+00 0. -1.
        994   -1    0    0    0    0 -0.00000000000E+00 -0.00000000000E+00  0.11368683772E-12  0.17120000000E+03  0.17120000000E+03 0.  0.
         13    1    1    2    0    0 -0.13702768392E+02  0.29146271215E+02  0.86359178542E+02  0.92169354288E+02  0.10566000000E+00 0. -1.
        994    1    1    2    0    0  0.37083673172E+01 -0.22614562678E+02  0.75900884366E+01  0.17289366638E+03  0.17120000000E+03 0.  0.
        998    1    1    2    0    0  0.99944010747E+01 -0.65317085366E+01  0.14060507293E+04  0.14061369793E+04  0.10000000000E+02 0. -1.
</event>
<event>
 5    1  0.1675361E-008  0.3808943E+03  0.7957747E-01  0.3447274E+00
         13   -1    0    0    0    0  0.00000000000E+00  0.00000000000E+00  0.14999999963E+04  0.15000000000E+04  0.10566000000E+00 0. -1.
        994   -1    0    0    0    0 -0.00000000000E+00 -0.00000000000E+00  0.11368683772E-12  0.17120000000E+03  0.17120000000E+03 0.  0.
         13    1    1    2    0    0  0.60670232082E+01 -0.99778547044E+01  0.16842159837E+02  0.20494776582E+02  0.10566000000E+00 0. -1.
        994    1    1    2    0    0 -0.84227208452E+01  0.81063679404E+01  0.41380108642E+01  0.17164853207E+03  0.17120000000E+03 0.  0.
        998    1    1    2    0    0  0.23556976370E+01  0.18714867640E+01  0.14790198256E+04  0.14790566913E+04  0.10000000000E+02 0. -1.
</event>
<event>
 5    1  0.1675361E-008  0.3788285E+03  0.7957747E-01  0.3456275E+00
         13   -1    0    0    0    0  0.00000000000E+00  0.00000000000E+00  0.14999999963E+04  0.15000000000E+04  0.10566000000E+00 0.  1.
        994   -1    0    0    0    0 -0.00000000000E+00 -0.00000000000E+00  0.11368683772E-12  0.17120000000E+03  0.17120000000E+03 0.  0.
         13    1    1    2    0    0  0.90232660982E+01  0.63350465442E+01  0.10657746677E+02  0.15334629896E+02  0.10566000000E+00 0.  1.
        994    1    1    2    0    0 -0.94176566048E+01 -0.76710796543E+01  0.52209669207E+01  0.17170974409E+03  0.17120000000E+03 0.  0.
        998    1    1    2    0    0  0.39439050662E+00  0.13360331100E+01  0.14841212827E+04  0.14841556260E+04  0.10000000000E+02 0.  1.
</event>
<event>
 5    1  0.1675361E-008  0.3757692E+03  0.7957747E-01  0.3469790E+00
         13   -1    0    0    0    0  0.00000000000E+00  0.00000000000E+00  0.14999999963E+04  0.15000000000E+04  0.10566000000E+00 0. -1.
        994   -1    0    0    0    0 -0.00000000000E+00 -0.00000000000E+00  0.11368683772E-12  0.17120000000E+03  0.17120000000E+03 0.  0.
         13    1    1    2    0    0  0.21204982758E+02 -0.27049563293E+02  0.10804512837E+03  0.11338029412E+03  0.10566000000E+00 0. -1.
        994    1    1    2    0    0  0.73137095156E+01 -0.13130954539E+02  0.70505739190E+01  0.17200308982E+03  0.17120000000E+03 0.  0.
        998    1    1    2    0    0 -0.28518692273E+02  0.40180517831E+02  0.13849042940E+04  0.13858166161E+04  0.10000000000E+02 0. -1.
</event>
<event>
 5    1  0.1910102E-008  0.3849073E+03  0.7957747E-01  0.3430065E+00
         13   -1    0    0    0    0  0.00000000000E+00  0.00000000000E+00  0.14999999963E+04  0.15000000000E+04  0.10566000000E+00 0.  1.
        994   -1    0    0    0    0 -0.00000000000E+00 -0.00000000000E+00  0.11368683772E-12  0.17120000000E+03  0.17120000000E+03 0.  0.
         13    1    1    2    0    0  0.12125515329E+02 -0.19377781131E+01  0.43321340075E+02  0.45028133160E+02  0.10566000000E+00 0.  1.
        994    1    1    2    0    0 -0.14882082843E+02  0.18469233563E+01  0.24163145863E+01  0.17187252861E+03  0.17120000000E+03 0.  0.
        998    1    1    2    0    0  0.27565675146E+01  0.90854756762E-01  0.14542623416E+04  0.14542993382E+04  0.10000000000E+02 0.  1.
</event>
<event>
 5    1  0.1675361E-008  0.3840421E+03  0.7957747E-01  0.3433745E+00
         13   -1    0    0    0    0  0.00000000000E+00  0.00000000000E+00  0.14999999963E+04  0.15000000000E+04  0.10566000000E+00 0.  1.
        994   -1    0    0    0    0 -0.00000000000E+00 -0.00000000000E+00  0.11368683772E-12  0.17120000000E+03  0.17120000000E+03 0.  0.
         13    1    1    2    0    0  0.21610536685E+02  0.13679405038E+02  0.14805066325E+03  0.15024364037E+03  0.10566000000E+00 0.  1.
        994    1    1    2    0    0 -0.19596128709E+02 -0.78392587174E+01  0.35773916085E+01  0.17253318512E+03  0.17120000000E+03 0.  0.
        998    1    1    2    0    0 -0.20144079763E+01 -0.58401463210E+01  0.13483719414E+04  0.13484231745E+04  0.10000000000E+02 0.  1.
</event>
<event>
 5    1  0.2521243E-008  0.3865058E+03  0.7957747E-01  0.3423311E+00
         13   -1    0    0    0    0  0.00000000000E+00  0.00000000000E+00  0.14999999963E+04  0.15000000000E+04  0.10566000000E+00 0.  1.
        994   -1    0    0    0    0 -0.00000000000E+00 -0.00000000000E+00  0.11368683772E-12  0.17120000000E+03  0.17120000000E+03 0.  0.
         13    1    1    2    0    0 -0.10101800144E+02 -0.95541260753E+00  0.61186209659E+02  0.62021952532E+02  0.10566000000E+00 0.  1.
        994    1    1    2    0    0  0.35991927829E+01 -0.13258257170E+01  0.93252577411E+00  0.17124550098E+03  0.17120000000E+03 0.  0.
        998    1    1    2    0    0  0.65026073615E+01  0.22812383245E+01  0.14378812608E+04  0.14379325465E+04  0.10000000000E+02 0.  1.
</event>
<event>
 5    1  0.1675361E-008  0.3791119E+03  0.7957747E-01  0.3455034E+00
         13   -1    0    0    0    0  0.00000000000E+00  0.00000000000E+00  0.14999999963E+04  0.15000000000E+04  0.10566000000E+00 0. -1.
        994   -1    0    0    0    0 -0.00000000000E+00 -0.00000000000E+00  0.11368683772E-12  0.17120000000E+03  0.17120000000E+03 0.  0.
         13    1    1    2    0    0  0.31626670573E+02 -0.37179889114E+01  0.10456561008E+03  0.10930712561E+03  0.10566000000E+00 0. -1.
        994    1    1    2    0    0 -0.26593085465E+02  0.11001046835E+02  0.73638782219E+01  0.17375811327E+03  0.17120000000E+03 0.  0.
        998    1    1    2    0    0 -0.50335851082E+01 -0.72830579237E+01  0.13880705080E+04  0.13881347611E+04  0.10000000000E+02 0. -1.
</event>
<event>
 5    1  0.2074485E-008  0.3857998E+03  0.7957747E-01  0.3426287E+00
         13   -1    0    0    0    0  0.00000000000E+00  0.00000000000E+00  0.14999999963E+04  0.15000000000E+04  0.10566000000E+00 0.  1.
        994   -1    0    0    0    0 -0.00000000000E+00 -0.00000000000E+00  0.11368683772E-12  0.17120000000E+03  0.17120000000E+03 0.  0.
         13    1    1    2    0    0 -0.10698059112E+02 -0.15374429183E+01  0.49972678458E+02  0.51128191400E+02  0.10566000000E+00 0.  1.
        994    1    1    2    0    0 -0.46863348363E+00  0.45575000537E+01  0.13024494218E+01  0.17126624536E+03  0.17120000000E+03 0.  0.
        998    1    1    2    0    0  0.11166692596E+02 -0.30200571354E+01  0.14487248684E+04  0.14488055632E+04  0.10000000000E+02 0.  1.
</event>
<event>
 5    1  0.1808657E-008  0.3860996E+03  0.7957747E-01  0.3425022E+00
         13   -1    0    0    0    0  0.00000000000E+00  0.00000000000E+00  0.14999999963E+04  0.15000000000E+04  0.10566000000E+00 0. -1.
        994   -1    0    0    0    0 -0.00000000000E+00 -0.00000000000E+00  0.11368683772E-12  0.17120000000E+03  0.17120000000E+03 0.  0.
         13    1    1    2    0    0 -0.28606657194E+01  0.11266904721E+02  0.67249583794E+02  0.68246935717E+02  0.10566000000E+00 0. -1.
        994    1    1    2    0    0 -0.33070519338E+01 -0.56996903981E+00  0.11220826748E+01  0.17123656305E+03  0.17120000000E+03 0.  0.
        998    1    1    2    0    0  0.61677176532E+01 -0.10696935681E+02  0.14316283298E+04  0.14317165012E+04  0.10000000000E+02 0. -1.
</event>
<event>
 5    1  0.1675361E-008  0.2821431E+03  0.7957747E-01  0.4032370E+00
         13   -1    0    0    0    0  0.00000000000E+00  0.00000000000E+00  0.14999999963E+04  0.15000000000E+04  0.10566000000E+00 0. -1.
        994   -1    0    0    0    0 -0.00000000000E+00 -0.00000000000E+00  0.11368683772E-12  0.17120000000E+03  0.17120000000E+03 0.  0.
         13    1    1    2    0    0  0.15425215214E+03  0.12379370915E+02  0.62164325643E+03  0.64061480211E+03  0.10566000000E+00 0. -1.
        994    1    1    2    0    0 -0.10775305890E+03  0.25772231189E+02  0.63685901067E+02  0.21363582003E+03  0.17120000000E+03 0.  0.
        998    1    1    2    0    0 -0.46499093236E+02 -0.38151602104E+02  0.81467083879E+03  0.81694937786E+03  0.10000000000E+02 0. -1.
</event>
<event>
 5    1  0.1693565E-008  0.3849465E+03  0.7957747E-01  0.3429899E+00
         13   -1    0    0    0    0  0.00000000000E+00  0.00000000000E+00  0.14999999963E+04  0.15000000000E+04  0.10566000000E+00 0.  1.
        994   -1    0    0    0    0 -0.00000000000E+00 -0.00000000000E+00  0.11368683772E-12  0.17120000000E+03  0.17120000000E+03 0.  0.
         13    1    1    2    0    0  0.86874857953E+01 -0.87686324405E+01  0.44598985930E+02  0.46275717545E+02  0.10566000000E+00 0.  1.
        994    1    1    2    0    0 -0.10375200143E+02  0.89753811951E+01  0.22759872547E+01  0.17176385639E+03  0.17120000000E+03 0.  0.
        998    1    1    2    0    0  0.16877143476E+01 -0.20674875461E+00  0.14531250231E+04  0.14531604261E+04  0.10000000000E+02 0.  1.
</event>
<event>
 5    1  0.1675361E-008  0.3783922E+03  0.7957747E-01  0.3458189E+00
         13   -1    0    0    0    0  0.00000000000E+00  0.00000000000E+00  0.14999999963E+04  0.15000000000E+04  0.10566000000E+00 0. -1.
        994   -1    0    0    0    0 -0.00000000000E+00 -0.00000000000E+00  0.11368683772E-12  0.17120000000E+03  0.17120000000E+03 0.  0.
         13    1    1    2    0    0 -0.92859977282E+02 -0.80878277801E+02  0.43824673070E+03  0.45521915528E+03  0.10566000000E+00 0. -1.
        994    1    1    2    0    0  0.80721336917E+02  0.41501343777E+02  0.45758828236E+02  0.19910199931E+03  0.17120000000E+03 0.  0.
        998    1    1    2    0    0  0.12138640364E+02  0.39376934024E+02  0.10159944373E+04  0.10168788454E+04  0.10000000000E+02 0.  1.
</event>
<event>
 5    1  0.1675361E-008  0.4045554E+03  0.7957747E-01  0.3350746E+00
         13   -1    0    0    0    0  0.00000000000E+00  0.00000000000E+00  0.14999999963E+04  0.15000000000E+04  0.10566000000E+00 0. -1.
        994   -1    0    0    0    0 -0.00000000000E+00 -0.00000000000E+00  0.11368683772E-12  0.17120000000E+03  0.17120000000E+03 0.  0.
         13    1    1    2    0    0  0.33188926649E+02 -0.77199138865E+02  0.10426533095E+03  0.13391221862E+03  0.10566000000E+00 0. -1.
        994    1    1    2    0    0 -0.30243399900E+02  0.61526488030E+02  0.49531227312E+02  0.19095275449E+03  0.17120000000E+03 0.  0.
        998    1    1    2    0    0 -0.29455267484E+01  0.15672650835E+02  0.13462034380E+04  0.13463350269E+04  0.10000000000E+02 0. -1.
</event>
<event>
 5    1  0.1675361E-008  0.3832706E+03  0.7957747E-01  0.3437040E+00
         13   -1    0    0    0    0  0.00000000000E+00  0.00000000000E+00  0.14999999963E+04  0.15000000000E+04  0.10566000000E+00 0. -1.
        994   -1    0    0    0    0 -0.00000000000E+00 -0.00000000000E+00  0.11368683772E-12  0.17120000000E+03  0.17120000000E+03 0.  0.
         13    1    1    2    0    0  0.20323512521E+02  0.12619230510E+02  0.12868880320E+03  0.13089350394E+03  0.10566000000E+00 0. -1.
        994    1    1    2    0    0 -0.18523921866E+00  0.27520743609E+01  0.25163569702E+01  0.17124070859E+03  0.17120000000E+03 0.  0.
        998    1    1    2    0    0 -0.20138273302E+02 -0.15371304871E+02  0.13687948361E+04  0.13690657875E+04  0.10000000000E+02 0. -1.
</event>
<event>
 5    1  0.1675361E-008  0.3858658E+03  0.7957747E-01  0.3426009E+00
         13   -1    0    0    0    0  0.00000000000E+00  0.00000000000E+00  0.14999999963E+04  0.15000000000E+04  0.10566000000E+00 0.  1.
        994   -1    0    0    0    0 -0.00000000000E+00 -0.00000000000E+00  0.11368683772E-12  0.17120000000E+03  0.17120000000E+03 0.  0.
         13    1    1    2    0    0 -0.12513953929E+02 -0.36550739473E+01  0.68684842253E+02  0.69911210316E+02  0.10566000000E+00 0.  1.
        994    1    1    2    0    0  0.11226523137E+02  0.11470719004E+02  0.20461954877E+01  0.17196290045E+03  0.17120000000E+03 0.  0.
        998    1    1    2    0    0  0.12874307920E+01 -0.78156450571E+01  0.14292689585E+04  0.14293258892E+04  0.10000000000E+02 0.  1.
</event>
<event>
 5    1  0.1675361E-008  0.3816958E+03  0.7957747E-01  0.3443808E+00
         13   -1    0    0    0    0  0.00000000000E+00  0.00000000000E+00  0.14999999963E+04  0.15000000000E+04  0.10566000000E+00 0. -1.
        994   -1    0    0    0    0 -0.00000000000E+00 -0.00000000000E+00  0.11368683772E-12  0.17120000000E+03  0.17120000000E+03 0.  0.
         13    1    1    2    0    0 -0.12368501430E+02 -0.13337890425E+02  0.47953738016E+02  0.51287925502E+02  0.10566000000E+00 0. -1.
        994    1    1    2    0    0  0.13524790901E+02  0.13125924819E+02  0.44612573218E+01  0.17229205637E+03  0.17120000000E+03 0.  0.
        998    1    1    2    0    0 -0.11562894710E+01  0.21196560577E+00  0.14475850009E+04  0.14476200181E+04  0.10000000000E+02 0. -1.
</event>
<event>
 5    1  0.1675361E-008  0.3848717E+03  0.7957747E-01  0.3430217E+00
         13   -1    0    0    0    0  0.00000000000E+00  0.00000000000E+00  0.14999999963E+04  0.15000000000E+04  0.10566000000E+00 0. -1.
        994   -1    0    0    0    0 -0.00000000000E+00 -0.00000000000E+00  0.11368683772E-12  0.17120000000E+03  0.17120000000E+03 0.  0.
         13    1    1    2    0    0 -0.16406232136E+02 -0.93786778562E+01  0.10423922270E+03  0.10593842912E+03  0.10566000000E+00 0. -1.
        994    1    1    2    0    0  0.14132678838E+02  0.23462273860E+01  0.23693872473E+01  0.17181470074E+03  0.17120000000E+03 0.  0.
        998    1    1    2    0    0  0.22735532986E+01  0.70324504703E+01  0.13933913863E+04  0.13934468701E+04  0.10000000000E+02 0. -1.
</event>
<event>
 5    1  0.1675361E-008  0.3698816E+03  0.7957747E-01  0.3496435E+00
         13   -1    0    0    0    0  0.00000000000E+00  0.00000000000E+00  0.14999999963E+04  0.15000000000E+04  0.10566000000E+00 0. -1.
        994   -1    0    0    0    0 -0.00000000000E+00 -0.00000000000E+00  0.11368683772E-12  0.17120000000E+03  0.17120000000E+03 0.  0.
         13    1    1    2    0    0 -0.24341843038E+02  0.53396336452E+02  0.22545687107E+03  0.23296889480E+03  0.10566000000E+00 0. -1.
        994    1    1    2    0    0  0.20468662690E+02  0.12636440539E+02  0.11335102447E+02  0.17325290857E+03  0.17120000000E+03 0.  0.
        998    1    1    2    0    0  0.38731803480E+01 -0.66032776991E+02  0.12632080228E+04  0.12649781966E+04  0.10000000000E+02 0. -1.
</event>
<event>
 5    1  0.1675361E-008  0.3703677E+03  0.7957747E-01  0.3494202E+00
         13   -1    0    0    0    0  0.00000000000E+00  0.00000000000E+00  0.14999999963E+04  0.15000000000E+04  0.10566000000E+00 0.  1.
        994   -1    0    0    0    0 -0.00000000000E+00 -0.00000000000E+00  0.11368683772E-12  0.17120000000E+03  0.17120000000E+03 0.  0.
         13    1    1    2    0    0  0.56676443322E+01  0.13868017350E+02  0.82196804554E+01  0.17088546115E+02  0.10566000000E+00 0.  1.
        994    1    1    2    0    0 -0.54191398360E+01 -0.12605388997E+02  0.97273541289E+01  0.17202419692E+03  0.17120000000E+03 0.  0.
        998    1    1    2    0    0 -0.24850449620E+00 -0.12626283528E+01  0.14820529617E+04  0.14820872570E+04  0.10000000000E+02 0.  1.
</event>
<event>
 5    1  0.1675361E-008  0.3817281E+03  0.7957747E-01  0.3443668E+00
         13   -1    0    0    0    0  0.00000000000E+00  0.00000000000E+00  0.14999999963E+04  0.15000000000E+04  0.10566000000E+00 0. -1.
        994   -1    0    0    0    0 -0.00000000000E+00 -0.00000000000E+00  0.11368683772E-12  0.17120000000E+03  0.17120000000E+03 0.  0.
         13    1    1    2    0    0  0.92302755851E+01  0.77129305068E+01  0.20594672818E+02  0.23850345844E+02  0.10566000000E+00 0. -1.
        994    1    1    2    0    0 -0.94768500215E+01 -0.89403296041E+01  0.38277686952E+01  0.17173768367E+03  0.17120000000E+03 0.  0.
        998    1    1    2    0    0  0.24657443639E+00  0.12273990973E+01  0.14755775548E+04  0.14756119705E+04  0.10000000000E+02 0. -1.
</event>
<event>
 5    1  0.1675361E-008  0.3790046E+03  0.7957747E-01  0.3455504E+00
         13   -1    0    0    0    0  0.00000000000E+00  0.00000000000E+00  0.14999999963E+04  0.15000000000E+04  0.10566000000E+00 0. -1.
        994   -1    0    0    0    0 -0.00000000000E+00 -0.00000000000E+00  0.11368683772E-12  0.17120000000E+03  0.17120000000E+03 0.  0.
         13    1    1    2    0    0 -0.21036773826E+02  0.30672458355E+02  0.18363363098E+03  0.18736239523E+03  0.10566000000E+00 0. -1.
        994    1    1    2    0    0 -0.12343016265E+02  0.32254354049E+01  0.51825319450E+01  0.17175288097E+03  0.17120000000E+03 0.  0.
        998    1    1    2    0    0  0.33379790091E+02 -0.33897893759E+02  0.13111838334E+04  0.13120847238E+04  0.10000000000E+02 0. -1.
</event>
<event>
 5    1  0.1675361E-008  0.3835397E+03  0.7957747E-01  0.3435889E+00
         13   -1    0    0    0    0  0.00000000000E+00  0.00000000000E+00  0.14999999963E+04  0.15000000000E+04  0.10566000000E+00 0.  1.
        994   -1    0    0    0    0 -0.00000000000E+00 -0.00000000000E+00  0.11368683772E-12  0.17120000000E+03  0.17120000000E+03 0.  0.
         13    1    1    2    0    0 -0.55939861320E+01  0.19137710410E+02  0.87800274513E+02  0.90035792934E+02  0.10566000000E+00 0.  1.
        994    1    1    2    0    0  0.20376839325E+02  0.20232727147E+00  0.37302172383E+01  0.17244886499E+03  0.17120000000E+03 0.  0.
        998    1    1    2    0    0 -0.14782853193E+02 -0.19340037681E+02  0.14084695045E+04  0.14087153421E+04  0.10000000000E+02 0.  1.
</event>
<event>
 5    1  0.1675361E-008  0.3818929E+03  0.7957747E-01  0.3442958E+00
         13   -1    0    0    0    0  0.00000000000E+00  0.00000000000E+00  0.14999999963E+04  0.15000000000E+04  0.10566000000E+00 0.  1.
        994   -1    0    0    0    0 -0.00000000000E+00 -0.00000000000E+00  0.11368683772E-12  0.17120000000E+03  0.17120000000E+03 0.  0.
         13    1    1    2    0    0 -0.19694665827E+02 -0.13540483316E+02  0.81491914637E+02  0.84924483312E+02  0.10566000000E+00 0.  1.
        994    1    1    2    0    0  0.19998264504E+02  0.26541538696E+02  0.68582808315E+01  0.17453039814E+03  0.17120000000E+03 0.  0.
        998    1    1    2    0    0 -0.30359867712E+00 -0.13001055380E+02  0.14116498008E+04  0.14117451185E+04  0.10000000000E+02 0.  1.
</event>
<event>
 5    1  0.1675361E-008  0.3805762E+03  0.7957747E-01  0.3448653E+00
         13   -1    0    0    0    0  0.00000000000E+00  0.00000000000E+00  0.14999999963E+04  0.15000000000E+04  0.10566000000E+00 0. -1.
        994   -1    0    0    0    0 -0.00000000000E+00 -0.00000000000E+00  0.11368683772E-12  0.17120000000E+03  0.17120000000E+03 0.  0.
         13    1    1    2    0    0  0.14485717726E+02  0.15152092789E+02  0.53762542833E+02  0.57704801446E+02  0.10566000000E+00 0. -1.
        994    1    1    2    0    0 -0.14378983858E+02 -0.17876598990E+02  0.56006491241E+01  0.17282110762E+03  0.17120000000E+03 0.  0.
        998    1    1    2    0    0 -0.10673386857E+00  0.27245062015E+01  0.14406368043E+04  0.14406740909E+04  0.10000000000E+02 0. -1.
</event>
<event>
 5    1  0.1675361E-008  0.3814176E+03  0.7957747E-01  0.3445009E+00
         13   -1    0    0    0    0  0.00000000000E+00  0.00000000000E+00  0.14999999963E+04  0.15000000000E+04  0.10566000000E+00 0.  1.
        994   -1    0    0    0    0 -0.00000000000E+00 -0.00000000000E+00  0.11368683772E-12  0.17120000000E+03  0.17120000000E+03 0.  0.
         13    1    1    2    0    0 -0.14174521197E+02 -0.18094058325E+02  0.77237254084E+02  0.80584840884E+02  0.10566000000E+00 0.  1.
        994    1    1    2    0    0  0.12518606510E+02  0.47725876680E+01  0.40167208781E+01  0.17177039078E+03  0.17120000000E+03 0.  0.
        998    1    1    2    0    0  0.16559146869E+01  0.13321470657E+02  0.14187460213E+04  0.14188447683E+04  0.10000000000E+02 0.  1.
</event>
<event>
 5    1  0.1675361E-008  0.3835675E+03  0.7957747E-01  0.3435770E+00
         13   -1    0    0    0    0  0.00000000000E+00  0.00000000000E+00  0.14999999963E+04  0.15000000000E+04  0.10566000000E+00 0.  1.
        994   -1    0    0    0    0 -0.00000000000E+00 -0.00000000000E+00  0.11368683772E-12  0.17120000000E+03  0.17120000000E+03 0.  0.
         13    1    1    2    0    0 -0.12872344525E+02  0.57910755718E+01  0.41251895237E+02  0.43600043974E+02  0.10566000000E+00 0.  1.
        994    1    1    2    0    0  0.12756049253E+02 -0.30105018597E+01  0.29107806910E+01  0.17172563163E+03  0.17120000000E+03 0.  0.
        998    1    1    2    0    0  0.11629527154E+00 -0.27805737121E+01  0.14558373204E+04  0.14558743244E+04  0.10000000000E+02 0.  1.
</event>
<event>
 5    1  0.1675361E-008  0.3704497E+03  0.7957747E-01  0.3493827E+00
         13   -1    0    0    0    0  0.00000000000E+00  0.00000000000E+00  0.14999999963E+04  0.15000000000E+04  0.10566000000E+00 0.  1.
        994   -1    0    0    0    0 -0.00000000000E+00 -0.00000000000E+00  0.11368683772E-12  0.17120000000E+03  0.17120000000E+03 0.  0.
         13    1    1    2    0    0  0.16652602837E+02  0.21202984003E+00  0.12206528289E+02  0.20648598858E+02  0.10566000000E+00 0.  1.
        994    1    1    2    0    0  0.21583816928E+02 -0.21262968595E+02  0.12209903352E+02  0.17428854445E+03  0.17120000000E+03 0.  0.
        998    1    1    2    0    0 -0.38236419765E+02  0.21050938755E+02  0.14755835646E+04  0.14762628567E+04  0.10000000000E+02 0.  1.
</event>
<event>
 5    1  0.1675361E-008  0.3689448E+03  0.7957747E-01  0.3500755E+00
         13   -1    0    0    0    0  0.00000000000E+00  0.00000000000E+00  0.14999999963E+04  0.15000000000E+04  0.10566000000E+00 0.  1.
        994   -1    0    0    0    0 -0.00000000000E+00 -0.00000000000E+00  0.11368683772E-12  0.17120000000E+03  0.17120000000E+03 0.  0.
         13    1    1    2    0    0  0.10658743905E+03  0.90014431276E+02  0.61234523370E+03  0.62803676357E+03  0.10566000000E+00 0.  1.
        994    1    1    2    0    0 -0.92405355738E+02 -0.84617201682E+02  0.67247125379E+02  0.22255434496E+03  0.17120000000E+03 0.  0.
        998    1    1    2    0    0 -0.14182083313E+02 -0.53972295931E+01  0.82040763720E+03  0.82060889147E+03  0.10000000000E+02 0.  1.
</event>
<event>
 5    1  0.1675361E-008  0.3762119E+03  0.7957747E-01  0.3467821E+00
         13   -1    0    0    0    0  0.00000000000E+00  0.00000000000E+00  0.14999999963E+04  0.15000000000E+04  0.10566000000E+00 0.  1.
        994   -1    0    0    0    0 -0.00000000000E+00 -0.00000000000E+00  0.11368683772E-12  0.17120000000E+03  0.17120000000E+03 0.  0.
         13    1    1    2    0    0 -0.42792964072E+01  0.16366697477E+02  0.21355863886E+02  0.27244545332E+02  0.10566000000E+00 0.  1.
        994    1    1    2    0    0 -0.14674895357E+02 -0.98629421803E+01  0.71168006024E+01  0.17225771110E+03  0.17120000000E+03 0.  0.
        998    1    1    2    0    0  0.18954191764E+02 -0.65037552965E+01  0.14715273318E+04  0.14716977436E+04  0.10000000000E+02 0.  1.
</event>
<event>
 5    1  0.1675361E-008  0.3839772E+03  0.7957747E-01  0.3434022E+00
         13   -1    0    0    0    0  0.00000000000E+00  0.00000000000E+00  0.14999999963E+04  0.15000000000E+04  0.10566000000E+00 0. -1.
        994   -1    0    0    0    0 -0.00000000000E+00 -0.00000000000E+00  0.11368683772E-12  0.17120000000E+03  0.17120000000E+03 0.  0.
         13    1    1    2    0    0 -0.68057101282E+00 -0.12452804519E+02  0.34762873382E+02  0.36932425416E+02  0.10566000000E+00 0. -1.
        994    1    1    2    0    0  0.23056776852E+01  0.15419668115E+02  0.29412843907E+01  0.17193363100E+03  0.17120000000E+03 0.  0.
        998    1    1    2    0    0 -0.16251066723E+01 -0.29668635953E+01  0.14622958385E+04  0.14623339436E+04  0.10000000000E+02 0. -1.
</event>
<event>
 5    1  0.1675361E-008  0.3857847E+03  0.7957747E-01  0.3426351E+00
         13   -1    0    0    0    0  0.00000000000E+00  0.00000000000E+00  0.14999999963E+04  0.15000000000E+04  0.10566000000E+00 0.  1.
        994   -1    0    0    0    0 -0.00000000000E+00 -0.00000000000E+00  0.11368683772E-12  0.17120000000E+03  0.17120000000E+03 0.  0.
         13    1    1    2    0    0  0.12566561414E+02 -0.31677456445E+01  0.70453502981E+02  0.71635607937E+02  0.10566000000E+00 0.  1.
        994    1    1    2    0    0 -0.54364768180E+01 -0.35566815905E+01  0.13795112126E+01  0.17132877258E+03  0.17120000000E+03 0.  0.
        998    1    1    2    0    0 -0.71300845956E+01  0.67244272350E+01  0.14281669821E+04  0.14282356195E+04  0.10000000000E+02 0.  1.
</event>
<event>
 5    1  0.1675361E-008  0.3734384E+03  0.7957747E-01  0.3480236E+00
         13   -1    0    0    0    0  0.00000000000E+00  0.00000000000E+00  0.14999999963E+04  0.15000000000E+04  0.10566000000E+00 0. -1.
        994   -1    0    0    0    0 -0.00000000000E+00 -0.00000000000E+00  0.11368683772E-12  0.17120000000E+03  0.17120000000E+03 0.  0.
         13    1    1    2    0    0 -0.29753436511E+02 -0.13966620858E+02  0.82472766822E+02  0.88781202480E+02  0.10566000000E+00 0. -1.
        994    1    1    2    0    0 -0.19006683214E+02 -0.18865734355E+02  0.99374391179E+01  0.17356659424E+03  0.17120000000E+03 0.  0.
        998    1    1    2    0    0  0.48760119725E+02  0.32832355213E+02  0.14075897903E+04  0.14088522033E+04  0.10000000000E+02 0. -1.
</event>
<event>
 5    1  0.1675361E-008  0.3817171E+03  0.7957747E-01  0.3443716E+00
         13   -1    0    0    0    0  0.00000000000E+00  0.00000000000E+00  0.14999999963E+04  0.15000000000E+04  0.10566000000E+00 0.  1.
        994   -1    0    0    0    0 -0.00000000000E+00 -0.00000000000E+00  0.11368683772E-12  0.17120000000E+03  0.17120000000E+03 0.  0.
         13    1    1    2    0    0 -0.10191251500E+02 -0.63621905331E+01  0.21351046151E+02  0.24499334915E+02  0.10566000000E+00 0.  1.
        994    1    1    2    0    0 -0.14495647146E+01  0.79743560719E+00  0.32779610775E+01  0.17123937097E+03  0.17120000000E+03 0.  0.
        998    1    1    2    0    0  0.11640816215E+02  0.55647549259E+01  0.14753709891E+04  0.14754612941E+04  0.10000000000E+02 0.  1.
</event>
<event>
 5    1  0.1675361E-008  0.3401736E+03  0.7957747E-01  0.3645303E+00
         13   -1    0    0    0    0  0.00000000000E+00  0.00000000000E+00  0.14999999963E+04  0.15000000000E+04  0.10566000000E+00 0.  1.
        994   -1    0    0    0    0 -0.00000000000E+00 -0.00000000000E+00  0.11368683772E-12  0.17120000000E+03  0.17120000000E+03 0.  0.
         13    1    1    2    0    0 -0.19177032711E+03 -0.94494840566E+02  0.10914186071E+04  0.11121599346E+04  0.10566000000E+00 0.  1.
        994    1    1    2    0    0  0.12072175269E+03  0.57201550928E+02  0.98246719596E+02  0.23834348515E+03  0.17120000000E+03 0.  0.
        998    1    1    2    0    0  0.71048574427E+02  0.37293289638E+02  0.31033466963E+03  0.32069658021E+03  0.10000000000E+02 0.  1.
</event>
<event>
 5    1  0.1675361E-008  0.3851749E+03  0.7957747E-01  0.3428931E+00
         13   -1    0    0    0    0  0.00000000000E+00  0.00000000000E+00  0.14999999963E+04  0.15000000000E+04  0.10566000000E+00 0.  1.
        994   -1    0    0    0    0 -0.00000000000E+00 -0.00000000000E+00  0.11368683772E-12  0.17120000000E+03  0.17120000000E+03 0.  0.
         13    1    1    2    0    0  0.10736319986E+00 -0.11120526487E+02  0.40958948820E+02  0.42442010894E+02  0.10566000000E+00 0.  1.
        994    1    1    2    0    0  0.12580947999E+01  0.30905793893E+01  0.15799283091E+01  0.17123980453E+03  0.17120000000E+03 0.  0.
        998    1    1    2    0    0 -0.13654579998E+01  0.80299470980E+01  0.14574611191E+04  0.14575181846E+04  0.10000000000E+02 0.  1.
</event>
<event>
 5    1  0.1675361E-008  0.3802578E+03  0.7957747E-01  0.3450037E+00
         13   -1    0    0    0    0  0.00000000000E+00  0.00000000000E+00  0.14999999963E+04  0.15000000000E+04  0.10566000000E+00 0. -1.
        994   -1    0    0    0    0 -0.00000000000E+00 -0.00000000000E+00  0.11368683772E-12  0.17120000000E+03  0.17120000000E+03 0.  0.
         13    1    1    2    0    0  0.12698948368E+02  0.25894500400E+01  0.19972829737E+02  0.23809528196E+02  0.10566000000E+00 0. -1.
        994    1    1    2    0    0  0.33817039948E+01 -0.13448787565E+00  0.40413377601E+01  0.17128113270E+03  0.17120000000E+03 0.  0.
        998    1    1    2    0    0 -0.16080652363E+02 -0.24549621644E+01  0.14759858288E+04  0.14761093391E+04  0.10000000000E+02 0.  1.
</event>
<event>
 5    1  0.1675361E-008  0.3814568E+03  0.7957747E-01  0.3444840E+00
         13   -1    0    0    0    0  0.00000000000E+00  0.00000000000E+00  0.14999999963E+04  0.15000000000E+04  0.10566000000E+00 0.  1.
        994   -1    0    0    0    0 -0.00000000000E+00 -0.00000000000E+00  0.11368683772E-12  0.17120000000E+03  0.17120000000E+03 0.  0.
         13    1    1    2    0    0 -0.88303391824E+01 -0.16738965151E+02  0.53754995441E+02  0.56989284461E+02  0.10566000000E+00 0.  1.
        994    1    1    2    0    0 -0.29347354446E+00  0.25060435335E+01  0.34207423060E+01  0.17125276015E+03  0.17120000000E+03 0.  0.
        998    1    1    2    0    0  0.91238127269E+01  0.14232921617E+02  0.14428242585E+04  0.14429579554E+04  0.10000000000E+02 0.  1.
</event>
<event>
 5    1  0.1675361E-008  0.3842873E+03  0.7957747E-01  0.3432701E+00
         13   -1    0    0    0    0  0.00000000000E+00  0.00000000000E+00  0.14999999963E+04  0.15000000000E+04  0.10566000000E+00 0.  1.
        994   -1    0    0    0    0 -0.00000000000E+00 -0.00000000000E+00  0.11368683772E-12  0.17120000000E+03  0.17120000000E+03 0.  0.
         13    1    1    2    0    0  0.12299497874E+02 -0.59375546513E+01  0.47586994559E+02  0.49508235864E+02  0.10566000000E+00 0.  1.
        994    1    1    2    0    0 -0.66500158505E+01 -0.21824700947E+01  0.21458915757E+01  0.17135644352E+03  0.17120000000E+03 0.  0.
        998    1    1    2    0    0 -0.56494820233E+01  0.81200247460E+01  0.14502671101E+04  0.14503353206E+04  0.10000000000E+02 0.  1.
</event>
<event>
 5    1  0.1675361E-008  0.3862549E+03  0.7957747E-01  0.3424368E+00
         13   -1    0    0    0    0  0.00000000000E+00  0.00000000000E+00  0.14999999963E+04  0.15000000000E+04  0.10566000000E+00 0.  1.
        994   -1    0    0    0    0 -0.00000000000E+00 -0.00000000000E+00  0.11368683772E-12  0.17120000000E+03  0.17120000000E+03 0.  0.
         13    1    1    2    0    0  0.10231756528E+02 -0.46990174003E+01  0.61716215705E+02  0.62734934854E+02  0.10566000000E+00 0.  1.
        994    1    1    2    0    0 -0.15562950081E+02 -0.46951839749E+01  0.18743765337E+01  0.17198024147E+03  0.17120000000E+03 0.  0.
        998    1    1    2    0    0  0.53311935528E+01  0.93942013752E+01  0.14364094040E+04  0.14364848237E+04  0.10000000000E+02 0.  1.
</event>
<event>
 5    1  0.1675361E-008  0.3705708E+03  0.7957747E-01  0.3493272E+00
         13   -1    0    0    0    0  0.00000000000E+00  0.00000000000E+00  0.14999999963E+04  0.15000000000E+04  0.10566000000E+00 0.  1.
        994   -1    0    0    0    0 -0.00000000000E+00 -0.00000000000E+00  0.11368683772E-12  0.17120000000E+03  0.17120000000E+03 0.  0.
         13    1    1    2    0    0  0.30577502545E+02 -0.66946403888E+01  0.50309791724E+02  0.59252748284E+02  0.10566000000E+00 0.  1.
        994    1    1    2    0    0 -0.26389064644E+02  0.35621510565E+01  0.11421812020E+02  0.17363458596E+03  0.17120000000E+03 0.  0.
        998    1    1    2    0    0 -0.41884379007E+01  0.31324893323E+01  0.14382683925E+04  0.14383126658E+04  0.10000000000E+02 0.  1.
</event>
<event>
 5    1  0.1675361E-008  0.3839825E+03  0.7957747E-01  0.3433999E+00
         13   -1    0    0    0    0  0.00000000000E+00  0.00000000000E+00  0.14999999963E+04  0.15000000000E+04  0.10566000000E+00 0. -1.
        994   -1    0    0    0    0 -0.00000000000E+00 -0.00000000000E+00  0.11368683772E-12  0.17120000000E+03  0.17120000000E+03 0.  0.
         13    1    1    2    0    0  0.56173412556E+01 -0.19815804658E+02  0.10827962320E+03  0.11022118036E+03  0.10566000000E+00 0. -1.
        994    1    1    2    0    0  0.10978461467E+02  0.38371219345E+01  0.25825446824E+01  0.17161398445E+03  0.17120000000E+03 0.  0.
        998    1    1    2    0    0 -0.16595802722E+02  0.15978682724E+02  0.13891378284E+04  0.13893648352E+04  0.10000000000E+02 0. -1.
</event>
<event>
 5    1  0.1675361E-008  0.3858417E+03  0.7957747E-01  0.3426110E+00
         13   -1    0    0    0    0  0.00000000000E+00  0.00000000000E+00  0.14999999963E+04  0.15000000000E+04  0.10566000000E+00 0. -1.
        994   -1    0    0    0    0 -0.00000000000E+00 -0.00000000000E+00  0.11368683772E-12  0.17120000000E+03  0.17120000000E+03 0.  0.
         13    1    1    2    0    0  0.14143411640E+02  0.13683031690E+00  0.78470175965E+02  0.79734775947E+02  0.10566000000E+00 0. -1.
        994    1    1    2    0    0 -0.16804566842E+02  0.60282272770E+01  0.22588928913E+01  0.17214318339E+03  0.17120000000E+03 0.  0.
        998    1    1    2    0    0  0.26611552027E+01 -0.61650575939E+01  0.14192709274E+04  0.14193220407E+04  0.10000000000E+02 0. -1.
</event>
<event>
 5    1  0.1675361E-008  0.3828532E+03  0.7957747E-01  0.3438828E+00
         13   -1    0    0    0    0  0.00000000000E+00  0.00000000000E+00  0.14999999963E+04  0.15000000000E+04  0.10566000000E+00 0. -1.
        994   -1    0    0    0    0 -0.00000000000E+00 -0.00000000000E+00  0.11368683772E-12  0.17120000000E+03  0.17120000000E+03 0.  0.
         13    1    1    2    0    0 -0.37757609595E+01  0.18246162467E+02  0.60790666547E+02  0.63582191837E+02  0.10566000000E+00 0. -1.
        994    1    1    2    0    0  0.54188324169E+01 -0.20332746041E+02  0.41674898074E+01  0.17253866893E+03  0.17120000000E+03 0.  0.
        998    1    1    2    0    0 -0.16430714574E+01  0.20865835739E+01  0.14350418399E+04  0.14350791392E+04  0.10000000000E+02 0. -1.
</event>
<event>
 5    1  0.1675361E-008  0.3819746E+03  0.7957747E-01  0.3442606E+00
         13   -1    0    0    0    0  0.00000000000E+00  0.00000000000E+00  0.14999999963E+04  0.15000000000E+04  0.10566000000E+00 0.  1.
        994   -1    0    0    0    0 -0.00000000000E+00 -0.00000000000E+00  0.11368683772E-12  0.17120000000E+03  0.17120000000E+03 0.  0.
         13    1    1    2    0    0 -0.17215689108E+02 -0.71637382164E+01  0.57488307109E+02  0.60436873802E+02  0.10566000000E+00 0.  1.
        994    1    1    2    0    0  0.48526152504E+01 -0.12757963439E+02  0.37587425089E+01  0.17178440456E+03  0.17120000000E+03 0.  0.
        998    1    1    2    0    0  0.12363073858E+02  0.19921701655E+02  0.14387529467E+04  0.14389787216E+04  0.10000000000E+02 0.  1.
</event>
<event>
 5    1  0.1675361E-008  0.3843725E+03  0.7957747E-01  0.3432338E+00
         13   -1    0    0    0    0  0.00000000000E+00  0.00000000000E+00  0.14999999963E+04  0.15000000000E+04  0.10566000000E+00 0.  1.
        994   -1    0    0    0    0 -0.00000000000E+00 -0.00000000000E+00  0.11368683772E-12  0.17120000000E+03  0.17120000000E+03 0.  0.
         13    1    1    2    0    0  0.21247512124E+02  0.35893772344E+01  0.11462427929E+03  0.11663222954E+03  0.10566000000E+00 0.  1.
        994    1    1    2    0    0 -0.17907678752E+02 -0.54726981137E+01  0.30983108316E+01  0.17224887493E+03  0.17120000000E+03 0.  0.
        998    1    1    2    0    0 -0.33398333720E+01  0.18833208794E+01  0.13822774062E+04  0.13823188955E+04  0.10000000000E+02 0.  1.
</event>
<event>
 5    1  0.1675361E-008  0.3813181E+03  0.7957747E-01  0.3445439E+00
         13   -1    0    0    0    0  0.00000000000E+00  0.00000000000E+00  0.14999999963E+04  0.15000000000E+04  0.10566000000E+00 0.  1.
        994   -1    0    0    0    0 -0.00000000000E+00 -0.00000000000E+00  0.11368683772E-12  0.17120000000E+03  0.17120000000E+03 0.  0.
         13    1    1    2    0    0  0.19715473410E+02 -0.96216842687E+01  0.75629901857E+02  0.78747507382E+02  0.10566000000E+00 0.  1.
        994    1    1    2    0    0  0.57888591571E+01 -0.45850003408E+01  0.36507883967E+01  0.17139807868E+03  0.17120000000E+03 0.  0.
        998    1    1    2    0    0 -0.25504332567E+02  0.14206684610E+02  0.14207193060E+04  0.14210544139E+04  0.10000000000E+02 0.  1.
</event>
<event>
 5    1  0.1675361E-008  0.3781952E+03  0.7957747E-01  0.3459055E+00
         13   -1    0    0    0    0  0.00000000000E+00  0.00000000000E+00  0.14999999963E+04  0.15000000000E+04  0.10566000000E+00 0.  1.
        994   -1    0    0    0    0 -0.00000000000E+00 -0.00000000000E+00  0.11368683772E-12  0.17120000000E+03  0.17120000000E+03 0.  0.
         13    1    1    2    0    0  0.97435028141E+01  0.26253873874E+01  0.78231461632E+01  0.12768762115E+02  0.10566000000E+00 0.  1.
        994    1    1    2    0    0 -0.45975274140E+01 -0.58255066011E+01  0.52322163550E+01  0.17144063075E+03  0.17120000000E+03 0.  0.
        998    1    1    2    0    0 -0.51459754000E+01  0.32001192137E+01  0.14869446338E+04  0.14869906071E+04  0.10000000000E+02 0.  1.
</event>
<event>
 5    1  0.1675361E-008  0.4204718E+03  0.7957747E-01  0.3291886E+00
         13   -1    0    0    0    0  0.00000000000E+00  0.00000000000E+00  0.14999999963E+04  0.15000000000E+04  0.10566000000E+00 0.  1.
        994   -1    0    0    0    0 -0.00000000000E+00 -0.00000000000E+00  0.11368683772E-12  0.17120000000E+03  0.17120000000E+03 0.  0.
         13    1    1    2    0    0  0.23269066789E+01  0.50184332916E+02  0.16982201580E+02  0.53031010734E+02  0.10566000000E+00 0.  1.
        994    1    1    2    0    0 -0.73685405579E+02 -0.12586332710E+02  0.64955059519E+02  0.19777905481E+03  0.17120000000E+03 0.  0.
        998    1    1    2    0    0  0.71358498900E+02 -0.37598000206E+02  0.14180627352E+04  0.14203899345E+04  0.10000000000E+02 0.  1.
</event>
<event>
 5    1  0.1675361E-008  0.3729373E+03  0.7957747E-01  0.3482499E+00
         13   -1    0    0    0    0  0.00000000000E+00  0.00000000000E+00  0.14999999963E+04  0.15000000000E+04  0.10566000000E+00 0. -1.
        994   -1    0    0    0    0 -0.00000000000E+00 -0.00000000000E+00  0.11368683772E-12  0.17120000000E+03  0.17120000000E+03 0.  0.
         13    1    1    2    0    0 -0.52908399147E+02  0.84153779916E+01  0.10893482957E+03  0.12139573940E+03  0.10566000000E+00 0. -1.
        994    1    1    2    0    0  0.40510625364E+02  0.10085606482E+02  0.18682123159E+02  0.17720409688E+03  0.17120000000E+03 0.  0.
        998    1    1    2    0    0  0.12397773783E+02 -0.18500984474E+02  0.13723830435E+04  0.13726001637E+04  0.10000000000E+02 0. -1.
</event>
<event>
 5    1  0.1675361E-008  0.3798079E+03  0.7957747E-01  0.3451996E+00
         13   -1    0    0    0    0  0.00000000000E+00  0.00000000000E+00  0.14999999963E+04  0.15000000000E+04  0.10566000000E+00 0.  1.
        994   -1    0    0    0    0 -0.00000000000E+00 -0.00000000000E+00  0.11368683772E-12  0.17120000000E+03  0.17120000000E+03 0.  0.
         13    1    1    2    0    0 -0.23618622963E+02  0.11708096731E+01  0.63493683892E+02  0.67754477374E+02  0.10566000000E+00 0.  1.
        994    1    1    2    0    0  0.19431359950E+02  0.59277040311E+01  0.56119270051E+01  0.17249246114E+03  0.17120000000E+03 0.  0.
        998    1    1    2    0    0  0.41872630127E+01 -0.70985137042E+01  0.14308943854E+04  0.14309530615E+04  0.10000000000E+02 0.  1.
</event>
<event>
 5    1  0.1675361E-008  0.3743632E+03  0.7957747E-01  0.3476076E+00
         13   -1    0    0    0    0  0.00000000000E+00  0.00000000000E+00  0.14999999963E+04  0.15000000000E+04  0.10566000000E+00 0.  1.
        994   -1    0    0    0    0 -0.00000000000E+00 -0.00000000000E+00  0.11368683772E-12  0.17120000000E+03  0.17120000000E+03 0.  0.
         13    1    1    2    0    0 -0.26537744808E+02  0.87129269060E+02  0.25225159546E+03  0.26819142417E+03  0.10566000000E+00 0.  1.
        994    1    1    2    0    0  0.23388511647E+02 -0.90353021914E+02  0.44874429163E+02  0.20008459571E+03  0.17120000000E+03 0.  0.
        998    1    1    2    0    0  0.31492331609E+01  0.32237528547E+01  0.12028739717E+04  0.12029239801E+04  0.10000000000E+02 0.  1.
</event>
<event>
 5    1  0.1675361E-008  0.3812491E+03  0.7957747E-01  0.3445738E+00
         13   -1    0    0    0    0  0.00000000000E+00  0.00000000000E+00  0.14999999963E+04  0.15000000000E+04  0.10566000000E+00 0.  1.
        994   -1    0    0    0    0 -0.00000000000E+00 -0.00000000000E+00  0.11368683772E-12  0.17120000000E+03  0.17120000000E+03 0.  0.
         13    1    1    2    0    0 -0.51281201915E+01  0.87087421074E+01  0.12799634979E+02  0.16308943112E+02  0.10566000000E+00 0.  1.
        994    1    1    2    0    0  0.24695365781E+01 -0.16967277929E+02  0.44832734045E+01  0.17211486534E+03  0.17120000000E+03 0.  0.
        998    1    1    2    0    0  0.26585836135E+01  0.82585358213E+01  0.14827170879E+04  0.14827761915E+04  0.10000000000E+02 0.  1.
</event>
<event>
 5    1  0.1675361E-008  0.3855571E+03  0.7957747E-01  0.3427313E+00
         13   -1    0    0    0    0  0.00000000000E+00  0.00000000000E+00  0.14999999963E+04  0.15000000000E+04  0.10566000000E+00 0.  1.
        994   -1    0    0    0    0 -0.00000000000E+00 -0.00000000000E+00  0.11368683772E-12  0.17120000000E+03  0.17120000000E+03 0.  0.
         13    1    1    2    0    0  0.25127896832E+01 -0.48865620694E+02  0.52638954140E+02  0.71868168578E+02  0.10566000000E+00 0.  1.
        994    1    1    2    0    0 -0.47099714066E+01  0.49675911535E+02  0.28681926048E+02  0.18061553892E+03  0.17120000000E+03 0.  0.
        998    1    1    2    0    0  0.21971817234E+01 -0.81029084088E+00  0.14186791161E+04  0.14187162925E+04  0.10000000000E+02 0.  1.
</event>
<event>
 5    1  0.1675361E-008  0.3814681E+03  0.7957747E-01  0.3444791E+00
         13   -1    0    0    0    0  0.00000000000E+00  0.00000000000E+00  0.14999999963E+04  0.15000000000E+04  0.10566000000E+00 0. -1.
        994   -1    0    0    0    0 -0.00000000000E+00 -0.00000000000E+00  0.11368683772E-12  0.17120000000E+03  0.17120000000E+03 0.  0.
         13    1    1    2    0    0 -0.28311508877E+02 -0.14130709963E+02  0.13718336754E+03  0.14078531881E+03  0.10566000000E+00 0. -1.
        994    1    1    2    0    0  0.23868248154E+02  0.16547014812E+02  0.62050728994E+01  0.17375684130E+03  0.17120000000E+03 0.  0.
        998    1    1    2    0    0  0.44432607227E+01 -0.24163048485E+01  0.13566115558E+04  0.13566578399E+04  0.10000000000E+02 0. -1.
</event>
<event>
 5    1  0.1675361E-008  0.3793091E+03  0.7957747E-01  0.3454172E+00
         13   -1    0    0    0    0  0.00000000000E+00  0.00000000000E+00  0.14999999963E+04  0.15000000000E+04  0.10566000000E+00 0.  1.
        994   -1    0    0    0    0 -0.00000000000E+00 -0.00000000000E+00  0.11368683772E-12  0.17120000000E+03  0.17120000000E+03 0.  0.
         13    1    1    2    0    0  0.96724710071E+01  0.20892307286E+02  0.46769109994E+02  0.52128744592E+02  0.10566000000E+00 0.  1.
        994    1    1    2    0    0 -0.71944128370E+02 -0.46629497052E+02  0.29517459171E+02  0.19372916146E+03  0.17120000000E+03 0.  0.
        998    1    1    2    0    0  0.62271657363E+02  0.25737189765E+02  0.14237134271E+04  0.14253420940E+04  0.10000000000E+02 0.  1.
</event>
<event>
 5    1  0.1675361E-008  0.3858182E+03  0.7957747E-01  0.3426210E+00
         13   -1    0    0    0    0  0.00000000000E+00  0.00000000000E+00  0.14999999963E+04  0.15000000000E+04  0.10566000000E+00 0.  1.
        994   -1    0    0    0    0 -0.00000000000E+00 -0.00000000000E+00  0.11368683772E-12  0.17120000000E+03  0.17120000000E+03 0.  0.
         13    1    1    2    0    0 -0.83035152038E+01 -0.93726551955E+01  0.69666210972E+02  0.70782675460E+02  0.10566000000E+00 0.  1.
        994    1    1    2    0    0 -0.61336523680E+01  0.34377394782E+01  0.13866450681E+01  0.17134994172E+03  0.17120000000E+03 0.  0.
        998    1    1    2    0    0  0.14437167572E+02  0.59349157173E+01  0.14289471402E+04  0.14290673828E+04  0.10000000000E+02 0.  1.
</event>
<event>
 5    1  0.1675361E-008  0.3854171E+03  0.7957747E-01  0.3427905E+00
         13   -1    0    0    0    0  0.00000000000E+00  0.00000000000E+00  0.14999999963E+04  0.15000000000E+04  0.10566000000E+00 0. -1.
        994   -1    0    0    0    0 -0.00000000000E+00 -0.00000000000E+00  0.11368683772E-12  0.17120000000E+03  0.17120000000E+03 0.  0.
         13    1    1    2    0    0  0.89540404255E+01  0.50864185754E+01  0.37783029996E+02  0.39161396982E+02  0.10566000000E+00 0. -1.
        994    1    1    2    0    0 -0.28335660529E+01 -0.41371545300E+01  0.15057645119E+01  0.17128004108E+03  0.17120000000E+03 0.  0.
        998    1    1    2    0    0 -0.61204743726E+01 -0.94926404544E+00  0.14607112018E+04  0.14607585619E+04  0.10000000000E+02 0. -1.
</event>
<event>
 5    1  0.1675361E-008  0.3783507E+03  0.7957747E-01  0.3458372E+00
         13   -1    0    0    0    0  0.00000000000E+00  0.00000000000E+00  0.14999999963E+04  0.15000000000E+04  0.10566000000E+00 0. -1.
        994   -1    0    0    0    0 -0.00000000000E+00 -0.00000000000E+00  0.11368683772E-12  0.17120000000E+03  0.17120000000E+03 0.  0.
         13    1    1    2    0    0 -0.13718264589E+02  0.55481810624E+02  0.25451845714E+03  0.26085643232E+03  0.10566000000E+00 0. -1.
        994    1    1    2    0    0  0.28607988033E+02 -0.61177773918E+02  0.20455403634E+02  0.18517289364E+03  0.17120000000E+03 0.  0.
        998    1    1    2    0    0 -0.14889723445E+02  0.56959632935E+01  0.12250261355E+04  0.12251706740E+04  0.10000000000E+02 0. -1.
</event>
<event>
 5    1  0.1675361E-008  0.3697312E+03  0.7957747E-01  0.3497127E+00
         13   -1    0    0    0    0  0.00000000000E+00  0.00000000000E+00  0.14999999963E+04  0.15000000000E+04  0.10566000000E+00 0.  1.
        994   -1    0    0    0    0 -0.00000000000E+00 -0.00000000000E+00  0.11368683772E-12  0.17120000000E+03  0.17120000000E+03 0.  0.
         13    1    1    2    0    0 -0.41895341014E+02  0.29211327430E+02  0.12280728046E+03  0.13300436289E+03  0.10566000000E+00 0.  1.
        994    1    1    2    0    0  0.50595000441E+02 -0.24029980520E+02  0.20347010828E+02  0.18127530136E+03  0.17120000000E+03 0.  0.
        998    1    1    2    0    0 -0.86996594266E+01 -0.51813469108E+01  0.13568457050E+04  0.13569203358E+04  0.10000000000E+02 0.  1.
</event>
<event>
 5    1  0.1675361E-008  0.3757651E+03  0.7957747E-01  0.3469808E+00
         13   -1    0    0    0    0  0.00000000000E+00  0.00000000000E+00  0.14999999963E+04  0.15000000000E+04  0.10566000000E+00 0. -1.
        994   -1    0    0    0    0 -0.00000000000E+00 -0.00000000000E+00  0.11368683772E-12  0.17120000000E+03  0.17120000000E+03 0.  0.
         13    1    1    2    0    0  0.12193810060E+02  0.10469073503E+03  0.63365174870E+03  0.64235767980E+03  0.10566000000E+00 0. -1.
        994    1    1    2    0    0  0.20001849034E+01 -0.89735563133E+02  0.34110534302E+02  0.19628917591E+03  0.17120000000E+03 0.  0.
        998    1    1    2    0    0 -0.14193994963E+02 -0.14955171896E+02  0.83223771328E+03  0.83255314429E+03  0.10000000000E+02 0. -1.
</event>
<event>
 5    1  0.1675361E-008  0.3856082E+03  0.7957747E-01  0.3427097E+00
         13   -1    0    0    0    0  0.00000000000E+00  0.00000000000E+00  0.14999999963E+04  0.15000000000E+04  0.10566000000E+00 0.  1.
        994   -1    0    0    0    0 -0.00000000000E+00 -0.00000000000E+00  0.11368683772E-12  0.17120000000E+03  0.17120000000E+03 0.  0.
         13    1    1    2    0    0  0.36918301112E+01 -0.10413859349E+02  0.45580616839E+02  0.46900766215E+02  0.10566000000E+00 0.  1.
        994    1    1    2    0    0 -0.58952860244E+01  0.82432700681E+01  0.16656399858E+01  0.17150778482E+03  0.17120000000E+03 0.  0.
        998    1    1    2    0    0  0.22034559132E+01  0.21705892814E+01  0.14527537395E+04  0.14527914490E+04  0.10000000000E+02 0.  1.
</event>
<event>
 5    1  0.1675361E-008  0.3798102E+03  0.7957747E-01  0.3451985E+00
         13   -1    0    0    0    0  0.00000000000E+00  0.00000000000E+00  0.14999999963E+04  0.15000000000E+04  0.10566000000E+00 0. -1.
        994   -1    0    0    0    0 -0.00000000000E+00 -0.00000000000E+00  0.11368683772E-12  0.17120000000E+03  0.17120000000E+03 0.  0.
         13    1    1    2    0    0 -0.35251601955E+01  0.13849794476E+02  0.21861116128E+02  0.26118252695E+02  0.10566000000E+00 0. -1.
        994    1    1    2    0    0  0.46802231352E+01 -0.18211954428E+02  0.54125799674E+01  0.17231458381E+03  0.17120000000E+03 0.  0.
        998    1    1    2    0    0 -0.11550629398E+01  0.43621599520E+01  0.14727263002E+04  0.14727671635E+04  0.10000000000E+02 0. -1.
</event>
<event>
 5    1  0.1675361E-008  0.3731161E+03  0.7957747E-01  0.3481691E+00
         13   -1    0    0    0    0  0.00000000000E+00  0.00000000000E+00  0.14999999963E+04  0.15000000000E+04  0.10566000000E+00 0. -1.
        994   -1    0    0    0    0 -0.00000000000E+00 -0.00000000000E+00  0.11368683772E-12  0.17120000000E+03  0.17120000000E+03 0.  0.
         13    1    1    2    0    0  0.12470248984E+02 -0.11429822373E+02  0.15019986864E+02  0.22622093595E+02  0.10566000000E+00 0. -1.
        994    1    1    2    0    0 -0.16240585884E+02  0.14394741535E+02  0.92621601897E+01  0.17281838104E+03  0.17120000000E+03 0.  0.
        998    1    1    2    0    0  0.37703369004E+01 -0.29649191629E+01  0.14757178492E+04  0.14757595254E+04  0.10000000000E+02 0. -1.
</event>
<event>
 5    1  0.1675361E-008  0.3855803E+03  0.7957747E-01  0.3427215E+00
         13   -1    0    0    0    0  0.00000000000E+00  0.00000000000E+00  0.14999999963E+04  0.15000000000E+04  0.10566000000E+00 0. -1.
        994   -1    0    0    0    0 -0.00000000000E+00 -0.00000000000E+00  0.11368683772E-12  0.17120000000E+03  0.17120000000E+03 0.  0.
         13    1    1    2    0    0  0.14229867762E+02 -0.50093278411E+01  0.83129218674E+02  0.84487044352E+02  0.10566000000E+00 0. -1.
        994    1    1    2    0    0 -0.64440252038E+01  0.22997081968E+02  0.32168271487E+01  0.17288776480E+03  0.17120000000E+03 0.  0.
        998    1    1    2    0    0 -0.77858425583E+01 -0.17987754127E+02  0.14136539505E+04  0.14138251909E+04  0.10000000000E+02 0. -1.
</event>
<event>
 5    1  0.1675361E-008  0.3812024E+03  0.7957747E-01  0.3445940E+00
         13   -1    0    0    0    0  0.00000000000E+00  0.00000000000E+00  0.14999999963E+04  0.15000000000E+04  0.10566000000E+00 0. -1.
        994   -1    0    0    0    0 -0.00000000000E+00 -0.00000000000E+00  0.11368683772E-12  0.17120000000E+03  0.17120000000E+03 0.  0.
         13    1    1    2    0    0  0.85803080368E+02 -0.43919564158E+02  0.31678314491E+03  0.33112334376E+03  0.10566000000E+00 0. -1.
        994    1    1    2    0    0 -0.29031254315E+02  0.35275301757E+01  0.20108152292E+02  0.17484002684E+03  0.17120000000E+03 0.  0.
        998    1    1    2    0    0 -0.56771826053E+02  0.40392033983E+02  0.11631086991E+04  0.11652366294E+04  0.10000000000E+02 0. -1.
</event>
<event>
 5    1  0.1675361E-008  0.3802295E+03  0.7957747E-01  0.3450160E+00
         13   -1    0    0    0    0  0.00000000000E+00  0.00000000000E+00  0.14999999963E+04  0.15000000000E+04  0.10566000000E+00 0.  1.
        994   -1    0    0    0    0 -0.00000000000E+00 -0.00000000000E+00  0.11368683772E-12  0.17120000000E+03  0.17120000000E+03 0.  0.
         13    1    1    2    0    0  0.21875098054E+02 -0.96405423851E+00  0.61001610987E+02  0.64812475824E+02  0.10566000000E+00 0.  1.
        994    1    1    2    0    0 -0.25096348689E+01  0.69373603499E+01  0.41991403911E+01  0.17141032062E+03  0.17120000000E+03 0.  0.
        998    1    1    2    0    0 -0.19365463185E+02 -0.59733061114E+01  0.14347992449E+04  0.14349772036E+04  0.10000000000E+02 0.  1.
</event>
<event>
 5    1  0.1675361E-008  0.3814609E+03  0.7957747E-01  0.3444822E+00
         13   -1    0    0    0    0  0.00000000000E+00  0.00000000000E+00  0.14999999963E+04  0.15000000000E+04  0.10566000000E+00 0. -1.
        994   -1    0    0    0    0 -0.00000000000E+00 -0.00000000000E+00  0.11368683772E-12  0.17120000000E+03  0.17120000000E+03 0.  0.
         13    1    1    2    0    0  0.19460276326E+02 -0.61163970372E-01  0.52715847683E+02  0.56193218957E+02  0.10566000000E+00 0. -1.
        994    1    1    2    0    0 -0.20905258372E+02 -0.21867897640E+01  0.48687192594E+01  0.17255421265E+03  0.17120000000E+03 0.  0.
        998    1    1    2    0    0  0.14449820453E+01  0.22479537344E+01  0.14424154293E+04  0.14424525684E+04  0.10000000000E+02 0. -1.
</event>
<event>
 5    1  0.1675361E-008  0.3805185E+03  0.7957747E-01  0.3448904E+00
         13   -1    0    0    0    0  0.00000000000E+00  0.00000000000E+00  0.14999999963E+04  0.15000000000E+04  0.10566000000E+00 0.  1.
        994   -1    0    0    0    0 -0.00000000000E+00 -0.00000000000E+00  0.11368683772E-12  0.17120000000E+03  0.17120000000E+03 0.  0.
         13    1    1    2    0    0 -0.13472838112E+02 -0.88252380687E+01  0.32587065726E+02  0.36350106058E+02  0.10566000000E+00 0.  1.
        994    1    1    2    0    0  0.99498178703E+01 -0.55779675396E+01  0.43059456272E+01  0.17163360325E+03  0.17120000000E+03 0.  0.
        998    1    1    2    0    0  0.35230202413E+01  0.14403205608E+02  0.14631069849E+04  0.14632162907E+04  0.10000000000E+02 0.  1.
</event>
<event>
 5    1  0.1675361E-008  0.3813761E+03  0.7957747E-01  0.3445188E+00
         13   -1    0    0    0    0  0.00000000000E+00  0.00000000000E+00  0.14999999963E+04  0.15000000000E+04  0.10566000000E+00 0. -1.
        994   -1    0    0    0    0 -0.00000000000E+00 -0.00000000000E+00  0.11368683772E-12  0.17120000000E+03  0.17120000000E+03 0.  0.
         13    1    1    2    0    0 -0.17474880504E+02 -0.23474848521E+02  0.14683698388E+03  0.14972491763E+03  0.10566000000E+00 0. -1.
        994    1    1    2    0    0 -0.94416205773E+01 -0.22010264138E+01  0.37529389554E+01  0.17151534412E+03  0.17120000000E+03 0.  0.
        998    1    1    2    0    0  0.26916501081E+02  0.25675874935E+02  0.13494100734E+04  0.13499597383E+04  0.10000000000E+02 0. -1.
</event>
<event>
 5    1  0.1675361E-008  0.3765749E+03  0.7957747E-01  0.3466209E+00
         13   -1    0    0    0    0  0.00000000000E+00  0.00000000000E+00  0.14999999963E+04  0.15000000000E+04  0.10566000000E+00 0.  1.
        994   -1    0    0    0    0 -0.00000000000E+00 -0.00000000000E+00  0.11368683772E-12  0.17120000000E+03  0.17120000000E+03 0.  0.
         13    1    1    2    0    0 -0.16120381276E+02  0.64610491413E+02  0.29764011615E+03  0.30499841344E+03  0.10566000000E+00 0.  1.
        994    1    1    2    0    0  0.68390395176E+01 -0.68785893056E+02  0.22203415585E+02  0.18595887505E+03  0.17120000000E+03 0.  0.
        998    1    1    2    0    0  0.92813417584E+01  0.41754016426E+01  0.11801564645E+04  0.11802427115E+04  0.10000000000E+02 0.  1.
</event>
<event>
 5    1  0.1675361E-008  0.3851088E+03  0.7957747E-01  0.3429211E+00
         13   -1    0    0    0    0  0.00000000000E+00  0.00000000000E+00  0.14999999963E+04  0.15000000000E+04  0.10566000000E+00 0. -1.
        994   -1    0    0    0    0 -0.00000000000E+00 -0.00000000000E+00  0.11368683772E-12  0.17120000000E+03  0.17120000000E+03 0.  0.
         13    1    1    2    0    0  0.41372931367E+01  0.96639644654E+01  0.34562017321E+02  0.36125525726E+02  0.10566000000E+00 0. -1.
        994    1    1    2    0    0 -0.12189712978E+02 -0.49876154319E+01  0.21465873325E+01  0.17171928618E+03  0.17120000000E+03 0.  0.
        998    1    1    2    0    0  0.80524198414E+01 -0.46763490335E+01  0.14632913916E+04  0.14633551881E+04  0.10000000000E+02 0. -1.
</event>
<event>
 5    1  0.1675361E-008  0.3812133E+03  0.7957747E-01  0.3445893E+00
         13   -1    0    0    0    0  0.00000000000E+00  0.00000000000E+00  0.14999999963E+04  0.15000000000E+04  0.10566000000E+00 0.  1.
        994   -1    0    0    0    0 -0.00000000000E+00 -0.00000000000E+00  0.11368683772E-12  0.17120000000E+03  0.17120000000E+03 0.  0.
         13    1    1    2    0    0 -0.20623678591E+02  0.22141653906E+02  0.16017117215E+03  0.16300430825E+03  0.10566000000E+00 0.  1.
        994    1    1    2    0    0 -0.22196032419E+01  0.13976566259E+02  0.41890448546E+01  0.17183497647E+03  0.17120000000E+03 0.  0.
        998    1    1    2    0    0  0.22843281833E+02 -0.36118220165E+02  0.13356397793E+04  0.13363607153E+04  0.10000000000E+02 0.  1.
</event>
<event>
 5    1  0.1675361E-008  0.3857794E+03  0.7957747E-01  0.3426373E+00
         13   -1    0    0    0    0  0.00000000000E+00  0.00000000000E+00  0.14999999963E+04  0.15000000000E+04  0.10566000000E+00 0. -1.
        994   -1    0    0    0    0 -0.00000000000E+00 -0.00000000000E+00  0.11368683772E-12  0.17120000000E+03  0.17120000000E+03 0.  0.
         13    1    1    2    0    0 -0.10499145534E+02 -0.33663715801E+01  0.53517836060E+02  0.54641874557E+02  0.10566000000E+00 0. -1.
        994    1    1    2    0    0 -0.29957722825E+01 -0.69206888146E+01  0.14302396459E+01  0.17137198187E+03  0.17120000000E+03 0.  0.
        998    1    1    2    0    0  0.13494917816E+02  0.10287060395E+02  0.14450519206E+04  0.14451861436E+04  0.10000000000E+02 0. -1.
</event>
<event>
 5    1  0.1675361E-008  0.3828367E+03  0.7957747E-01  0.3438899E+00
         13   -1    0    0    0    0  0.00000000000E+00  0.00000000000E+00  0.14999999963E+04  0.15000000000E+04  0.10566000000E+00 0.  1.
        994   -1    0    0    0    0 -0.00000000000E+00 -0.00000000000E+00  0.11368683772E-12  0.17120000000E+03  0.17120000000E+03 0.  0.
         13    1    1    2    0    0  0.20645681936E+02  0.19405826869E+02  0.12984964279E+03  0.13290512103E+03  0.10566000000E+00 0.  1.
        994    1    1    2    0    0 -0.24967653394E+02 -0.24938169091E+02  0.68432583407E+01  0.17493303341E+03  0.17120000000E+03 0.  0.
        998    1    1    2    0    0  0.43219714573E+01  0.55323422228E+01  0.13633070951E+04  0.13633618456E+04  0.10000000000E+02 0.  1.
</event>
<event>
 5    1  0.1675361E-008  0.3773563E+03  0.7957747E-01  0.3462751E+00
         13   -1    0    0    0    0  0.00000000000E+00  0.00000000000E+00  0.14999999963E+04  0.15000000000E+04  0.10566000000E+00 0.  1.
        994   -1    0    0    0    0 -0.00000000000E+00 -0.00000000000E+00  0.11368683772E-12  0.17120000000E+03  0.17120000000E+03 0.  0.
         13    1    1    2    0    0  0.39191966700E+02  0.55023096929E+02  0.31314000327E+03  0.32034391560E+03  0.10566000000E+00 0.  1.
        994    1    1    2    0    0 -0.45300988850E+02 -0.57650603589E+02  0.23823067753E+02  0.18775715763E+03  0.17120000000E+03 0.  0.
        998    1    1    2    0    0  0.61090221497E+01  0.26275066596E+01  0.11630369253E+04  0.11630989268E+04  0.10000000000E+02 0.  1.
</event>
<event>
 5    1  0.1675361E-008  0.3962558E+03  0.7957747E-01  0.3383294E+00
         13   -1    0    0    0    0  0.00000000000E+00  0.00000000000E+00  0.14999999963E+04  0.15000000000E+04  0.10566000000E+00 0. -1.
        994   -1    0    0    0    0 -0.00000000000E+00 -0.00000000000E+00  0.11368683772E-12  0.17120000000E+03  0.17120000000E+03 0.  0.
         13    1    1    2    0    0 -0.34159116095E+02  0.28323501815E+02  0.29627145312E+02  0.53355832585E+02  0.10566000000E+00 0. -1.
        994    1    1    2    0    0  0.22140706476E+02 -0.11581412267E+02  0.27970791211E+02  0.17526022125E+03  0.17120000000E+03 0.  0.
        998    1    1    2    0    0  0.12018409618E+02 -0.16742089548E+02  0.14424020598E+04  0.14425839462E+04  0.10000000000E+02 0. -1.
</event>
<event>
 5    1  0.1675361E-008  0.3826310E+03  0.7957747E-01  0.3439782E+00
         13   -1    0    0    0    0  0.00000000000E+00  0.00000000000E+00  0.14999999963E+04  0.15000000000E+04  0.10566000000E+00 0.  1.
        994   -1    0    0    0    0 -0.00000000000E+00 -0.00000000000E+00  0.11368683772E-12  0.17120000000E+03  0.17120000000E+03 0.  0.
         13    1    1    2    0    0 -0.24571424436E+02 -0.61489365559E+01  0.10382151690E+03  0.10686665923E+03  0.10566000000E+00 0.  1.
        994    1    1    2    0    0  0.28348294726E+02  0.91097179574E+01  0.57547592049E+01  0.17386537904E+03  0.17120000000E+03 0.  0.
        998    1    1    2    0    0 -0.37768702891E+01 -0.29607814016E+01  0.13904237202E+04  0.13904679617E+04  0.10000000000E+02 0.  1.
</event>
<event>
 5    1  0.1675361E-008  0.3860870E+03  0.7957747E-01  0.3425075E+00
         13   -1    0    0    0    0  0.00000000000E+00  0.00000000000E+00  0.14999999963E+04  0.15000000000E+04  0.10566000000E+00 0.  1.
        994   -1    0    0    0    0 -0.00000000000E+00 -0.00000000000E+00  0.11368683772E-12  0.17120000000E+03  0.17120000000E+03 0.  0.
         13    1    1    2    0    0 -0.13333755983E+02  0.14329962747E+01  0.76637672642E+02  0.77802227210E+02  0.10566000000E+00 0.  1.
        994    1    1    2    0    0  0.18758701272E+02 -0.49762987385E+01  0.23267427506E+01  0.17231223449E+03  0.17120000000E+03 0.  0.
        998    1    1    2    0    0 -0.54249452896E+01  0.35433024638E+01  0.14210355809E+04  0.14210855383E+04  0.10000000000E+02 0.  1.
</event>
<event>
 5    1  0.1675361E-008  0.3858168E+03  0.7957747E-01  0.3426215E+00
         13   -1    0    0    0    0  0.00000000000E+00  0.00000000000E+00  0.14999999963E+04  0.15000000000E+04  0.10566000000E+00 0. -1.
        994   -1    0    0    0    0 -0.00000000000E+00 -0.00000000000E+00  0.11368683772E-12  0.17120000000E+03  0.17120000000E+03 0.  0.
         13    1    1    2    0    0 -0.40704989426E+01  0.10156841572E+02  0.49981001117E+02  0.51164851501E+02  0.10566000000E+00 0. -1.
        994    1    1    2    0    0  0.55368874120E+01 -0.33857007639E+01  0.13633215638E+01  0.17132839443E+03  0.17120000000E+03 0.  0.
        998    1    1    2    0    0 -0.14663884695E+01 -0.67711408082E+01  0.14486556736E+04  0.14487067541E+04  0.10000000000E+02 0. -1.
</event>
<event>
 5    1  0.1675361E-008  0.3861002E+03  0.7957747E-01  0.3425019E+00
         13   -1    0    0    0    0  0.00000000000E+00  0.00000000000E+00  0.14999999963E+04  0.15000000000E+04  0.10566000000E+00 0. -1.
        994   -1    0    0    0    0 -0.00000000000E+00 -0.00000000000E+00  0.11368683772E-12  0.17120000000E+03  0.17120000000E+03 0.  0.
         13    1    1    2    0    0  0.12167071309E+02 -0.73113137032E+00  0.73452255554E+02  0.74456814243E+02  0.10566000000E+00 0. -1.
        994    1    1    2    0    0 -0.14075994032E+01 -0.30054464468E+01  0.11209682850E+01  0.17123583332E+03  0.17120000000E+03 0.  0.
        998    1    1    2    0    0 -0.10759471905E+02  0.37365778171E+01  0.14254267724E+04  0.14255073524E+04  0.10000000000E+02 0. -1.
</event>
<event>
 5    1  0.1675361E-008  0.3820860E+03  0.7957747E-01  0.3442126E+00
         13   -1    0    0    0    0  0.00000000000E+00  0.00000000000E+00  0.14999999963E+04  0.15000000000E+04  0.10566000000E+00 0. -1.
        994   -1    0    0    0    0 -0.00000000000E+00 -0.00000000000E+00  0.11368683772E-12  0.17120000000E+03  0.17120000000E+03 0.  0.
         13    1    1    2    0    0 -0.23102292578E+02  0.93815772281E+01  0.10407658544E+03  0.10702185157E+03  0.10566000000E+00 0. -1.
        994    1    1    2    0    0  0.84332809256E+01 -0.14545444090E+01  0.33270209488E+01  0.17144604106E+03  0.17120000000E+03 0.  0.
        998    1    1    2    0    0  0.14669011652E+02 -0.79270328192E+01  0.13925963899E+04  0.13927321074E+04  0.10000000000E+02 0. -1.
</event>
<event>
 5    1  0.1675361E-008  0.3769850E+03  0.7957747E-01  0.3464392E+00
         13   -1    0    0    0    0  0.00000000000E+00  0.00000000000E+00  0.14999999963E+04  0.15000000000E+04  0.10566000000E+00 0. -1.
        994   -1    0    0    0    0 -0.00000000000E+00 -0.00000000000E+00  0.11368683772E-12  0.17120000000E+03  0.17120000000E+03 0.  0.
         13    1    1    2    0    0 -0.26681367021E+01 -0.30240421903E+02  0.79225307549E+02  0.84842575341E+02  0.10566000000E+00 0. -1.
        994    1    1    2    0    0 -0.83735956794E+01  0.20037982624E+02  0.72570481032E+01  0.17272447018E+03  0.17120000000E+03 0.  0.
        998    1    1    2    0    0  0.11041732381E+02  0.10202439279E+02  0.14135176406E+04  0.14136329545E+04  0.10000000000E+02 0. -1.
</event>
<event>
 5    1  0.1675361E-008  0.3840095E+03  0.7957747E-01  0.3433884E+00
         13   -1    0    0    0    0  0.00000000000E+00  0.00000000000E+00  0.14999999963E+04  0.15000000000E+04  0.10566000000E+00 0.  1.
        994   -1    0    0    0    0 -0.00000000000E+00 -0.00000000000E+00  0.11368683772E-12  0.17120000000E+03  0.17120000000E+03 0.  0.
         13    1    1    2    0    0  0.20395648608E+02  0.18229773316E+01  0.10413823898E+03  0.10613241592E+03  0.10566000000E+00 0.  1.
        994    1    1    2    0    0 -0.40235374038E+01 -0.11675255045E+02  0.26259766711E+01  0.17166489503E+03  0.17120000000E+03 0.  0.
        998    1    1    2    0    0 -0.16372111204E+02  0.98522777129E+01  0.13932357806E+04  0.13934026890E+04  0.10000000000E+02 0.  1.
</event>
<event>
 5    1  0.1675361E-008  0.3746329E+03  0.7957747E-01  0.3474866E+00
         13   -1    0    0    0    0  0.00000000000E+00  0.00000000000E+00  0.14999999963E+04  0.15000000000E+04  0.10566000000E+00 0.  1.
        994   -1    0    0    0    0 -0.00000000000E+00 -0.00000000000E+00  0.11368683772E-12  0.17120000000E+03  0.17120000000E+03 0.  0.
         13    1    1    2    0    0 -0.16497228923E+02 -0.25140739771E+02  0.63388375437E+02  0.70159195142E+02  0.10566000000E+00 0.  1.
        994    1    1    2    0    0  0.11964695438E+02  0.14479827732E+02  0.80690513586E+01  0.17241626645E+03  0.17120000000E+03 0.  0.
        998    1    1    2    0    0  0.45325334851E+01  0.10660912039E+02  0.14285425695E+04  0.14286245384E+04  0.10000000000E+02 0.  1.
</event>
<event>
 5    1  0.1675361E-008  0.3794228E+03  0.7957747E-01  0.3453676E+00
         13   -1    0    0    0    0  0.00000000000E+00  0.00000000000E+00  0.14999999963E+04  0.15000000000E+04  0.10566000000E+00 0.  1.
        994   -1    0    0    0    0 -0.00000000000E+00 -0.00000000000E+00  0.11368683772E-12  0.17120000000E+03  0.17120000000E+03 0.  0.
         13    1    1    2    0    0 -0.22395681628E+02 -0.12373895954E+02  0.55449473601E+02  0.61068282629E+02  0.10566000000E+00 0.  1.
        994    1    1    2    0    0  0.69633793825E+02  0.51328820767E+02  0.29911640196E+02  0.19413309688E+03  0.17120000000E+03 0.  0.
        998    1    1    2    0    0 -0.47238112196E+02 -0.38954924813E+02  0.14146388825E+04  0.14159986205E+04  0.10000000000E+02 0.  1.
</event>
<event>
 5    1  0.1675361E-008  0.3768530E+03  0.7957747E-01  0.3464977E+00
         13   -1    0    0    0    0  0.00000000000E+00  0.00000000000E+00  0.14999999963E+04  0.15000000000E+04  0.10566000000E+00 0.  1.
        994   -1    0    0    0    0 -0.00000000000E+00 -0.00000000000E+00  0.11368683772E-12  0.17120000000E+03  0.17120000000E+03 0.  0.
         13    1    1    2    0    0  0.13115116935E+02  0.13243808463E+02  0.28658445018E+02  0.34186582012E+02  0.10566000000E+00 0.  1.
        994    1    1    2    0    0  0.35859765348E+01 -0.86395871931E+01  0.60258811855E+01  0.17156122213E+03  0.17120000000E+03 0.  0.
        998    1    1    2    0    0 -0.16701093469E+02 -0.46042212699E+01  0.14653156701E+04  0.14654521959E+04  0.10000000000E+02 0.  1.
</event>
<event>
 5    1  0.1675361E-008  0.3776939E+03  0.7957747E-01  0.3461262E+00
         13   -1    0    0    0    0  0.00000000000E+00  0.00000000000E+00  0.14999999963E+04  0.15000000000E+04  0.10566000000E+00 0.  1.
        994   -1    0    0    0    0 -0.00000000000E+00 -0.00000000000E+00  0.11368683772E-12  0.17120000000E+03  0.17120000000E+03 0.  0.
         13    1    1    2    0    0 -0.26752598101E+02  0.26037742863E+02  0.11902622509E+03  0.12474341258E+03  0.10566000000E+00 0.  1.
        994    1    1    2    0    0  0.30612001605E+02 -0.24937455327E+02  0.10571377978E+02  0.17601183299E+03  0.17120000000E+03 0.  0.
        998    1    1    2    0    0 -0.38594035037E+01 -0.11002875357E+01  0.13704023932E+04  0.13704447544E+04  0.10000000000E+02 0.  1.
</event>
<event>
 5    1  0.1675361E-008  0.3692777E+03  0.7957747E-01  0.3499217E+00
         13   -1    0    0    0    0  0.00000000000E+00  0.00000000000E+00  0.14999999963E+04  0.15000000000E+04  0.10566000000E+00 0. -1.
        994   -1    0    0    0    0 -0.00000000000E+00 -0.00000000000E+00  0.11368683772E-12  0.17120000000E+03  0.17120000000E+03 0.  0.
         13    1    1    2    0    0 -0.16056730224E+02 -0.47808263491E+02  0.10934001293E+03  0.12041054038E+03  0.10566000000E+00 0. -1.
        994    1    1    2    0    0  0.18441190628E+02  0.45872856297E+02  0.19130419954E+02  0.17922000286E+03  0.17120000000E+03 0.  0.
        998    1    1    2    0    0 -0.23844604038E+01  0.19354071943E+01  0.13715295634E+04  0.13715694568E+04  0.10000000000E+02 0. -1.
</event>
<event>
 5    1  0.1675361E-008  0.3818210E+03  0.7957747E-01  0.3443268E+00
         13   -1    0    0    0    0  0.00000000000E+00  0.00000000000E+00  0.14999999963E+04  0.15000000000E+04  0.10566000000E+00 0. -1.
        994   -1    0    0    0    0 -0.00000000000E+00 -0.00000000000E+00  0.11368683772E-12  0.17120000000E+03  0.17120000000E+03 0.  0.
         13    1    1    2    0    0 -0.45425440408E+02 -0.49229723953E+02  0.12004741630E+03  0.13747155953E+03  0.10566000000E+00 0. -1.
        994    1    1    2    0    0  0.23262529367E+02  0.51112107080E+02  0.28926485128E+02  0.18248225751E+03  0.17120000000E+03 0.  0.
        998    1    1    2    0    0  0.22162911041E+02 -0.18823831271E+01  0.13510260949E+04  0.13512461830E+04  0.10000000000E+02 0. -1.
</event>
<event>
 5    1  0.1675361E-008  0.3843962E+03  0.7957747E-01  0.3432237E+00
         13   -1    0    0    0    0  0.00000000000E+00  0.00000000000E+00  0.14999999963E+04  0.15000000000E+04  0.10566000000E+00 0.  1.
        994   -1    0    0    0    0 -0.00000000000E+00 -0.00000000000E+00  0.11368683772E-12  0.17120000000E+03  0.17120000000E+03 0.  0.
         13    1    1    2    0    0  0.25689598715E+01 -0.14151936119E+02  0.52745919309E+02  0.54671930810E+02  0.10566000000E+00 0.  1.
        994    1    1    2    0    0 -0.83189280483E+01  0.10160785716E+02  0.24986499000E+01  0.17172108019E+03  0.17120000000E+03 0.  0.
        998    1    1    2    0    0  0.57499681768E+01  0.39911504027E+01  0.14447554271E+04  0.14448069890E+04  0.10000000000E+02 0.  1.
</event>
<event>
 5    1  0.1675361E-008  0.3857805E+03  0.7957747E-01  0.3426369E+00
         13   -1    0    0    0    0  0.00000000000E+00  0.00000000000E+00  0.14999999963E+04  0.15000000000E+04  0.10566000000E+00 0.  1.
        994   -1    0    0    0    0 -0.00000000000E+00 -0.00000000000E+00  0.11368683772E-12  0.17120000000E+03  0.17120000000E+03 0.  0.
         13    1    1    2    0    0  0.29345715235E+01 -0.11306674478E+02  0.54074840273E+02  0.55322256935E+02  0.10566000000E+00 0.  1.
        994    1    1    2    0    0 -0.52372376418E+01  0.10394275821E+02  0.16876466839E+01  0.17160349000E+03  0.17120000000E+03 0.  0.
        998    1    1    2    0    0  0.23026661182E+01  0.91239865764E+00  0.14442375093E+04  0.14442742531E+04  0.10000000000E+02 0.  1.
</event>
<event>
 5    1  0.1675361E-008  0.3841446E+03  0.7957747E-01  0.3433308E+00
         13   -1    0    0    0    0  0.00000000000E+00  0.00000000000E+00  0.14999999963E+04  0.15000000000E+04  0.10566000000E+00 0. -1.
        994   -1    0    0    0    0 -0.00000000000E+00 -0.00000000000E+00  0.11368683772E-12  0.17120000000E+03  0.17120000000E+03 0.  0.
         13    1    1    2    0    0 -0.16866453498E+02 -0.26583426708E+01  0.73477391348E+02  0.75435285130E+02  0.10566000000E+00 0. -1.
        994    1    1    2    0    0  0.34136706166E+01  0.67514802676E+01  0.22441787954E+01  0.17138177258E+03  0.17120000000E+03 0.  0.
        998    1    1    2    0    0  0.13452782881E+02 -0.40931375967E+01  0.14242784261E+04  0.14243829423E+04  0.10000000000E+02 0. -1.
</event>
<event>
 5    1  0.1675361E-008  0.3802615E+03  0.7957747E-01  0.3450021E+00
         13   -1    0    0    0    0  0.00000000000E+00  0.00000000000E+00  0.14999999963E+04  0.15000000000E+04  0.10566000000E+00 0.  1.
        994   -1    0    0    0    0 -0.00000000000E+00 -0.00000000000E+00  0.11368683772E-12  0.17120000000E+03  0.17120000000E+03 0.  0.
         13    1    1    2    0    0 -0.31538564520E+02 -0.47916294854E+01  0.13066238341E+03  0.13450022442E+03  0.10566000000E+00 0.  1.
        994    1    1    2    0    0  0.95376970385E+01  0.25910783646E+02  0.65515821781E+01  0.17353587411E+03  0.17120000000E+03 0.  0.
        998    1    1    2    0    0  0.22000867481E+02 -0.21119154161E+02  0.13627860307E+04  0.13631639015E+04  0.10000000000E+02 0.  1.
</event>
<event>
 5    1  0.1675361E-008  0.3878407E+03  0.7957747E-01  0.3417713E+00
         13   -1    0    0    0    0  0.00000000000E+00  0.00000000000E+00  0.14999999963E+04  0.15000000000E+04  0.10566000000E+00 0. -1.
        994   -1    0    0    0    0 -0.00000000000E+00 -0.00000000000E+00  0.11368683772E-12  0.17120000000E+03  0.17120000000E+03 0.  0.
         13    1    1    2    0    0 -0.22896209444E+02 -0.39530734096E+02  0.44973572810E+02  0.64105762303E+02  0.10566000000E+00 0. -1.
        994    1    1    2    0    0  0.63496589937E+01  0.12017803117E+02  0.21392444665E+02  0.17306594827E+03  0.17120000000E+03 0.  0.
        998    1    1    2    0    0  0.16546550450E+02  0.27512930979E+02  0.14336339788E+04  0.14340282894E+04  0.10000000000E+02 0. -1.
</event>
<event>
 5    1  0.1675361E-008  0.3754622E+03  0.7957747E-01  0.3471158E+00
         13   -1    0    0    0    0  0.00000000000E+00  0.00000000000E+00  0.14999999963E+04  0.15000000000E+04  0.10566000000E+00 0. -1.
        994   -1    0    0    0    0 -0.00000000000E+00 -0.00000000000E+00  0.11368683772E-12  0.17120000000E+03  0.17120000000E+03 0.  0.
         13    1    1    2    0    0 -0.24807949913E+02  0.23118445245E+02  0.82668083064E+02  0.89352784014E+02  0.10566000000E+00 0. -1.
        994    1    1    2    0    0  0.23228312919E+02 -0.24752185720E+02  0.10362106160E+02  0.17484003679E+03  0.17120000000E+03 0.  0.
        998    1    1    2    0    0  0.15796369945E+01  0.16337404749E+01  0.14069698071E+04  0.14070071792E+04  0.10000000000E+02 0. -1.
</event>
<event>
 5    1  0.1675361E-008  0.3823631E+03  0.7957747E-01  0.3440933E+00
         13   -1    0    0    0    0  0.00000000000E+00  0.00000000000E+00  0.14999999963E+04  0.15000000000E+04  0.10566000000E+00 0. -1.
        994   -1    0    0    0    0 -0.00000000000E+00 -0.00000000000E+00  0.11368683772E-12  0.17120000000E+03  0.17120000000E+03 0.  0.
         13    1    1    2    0    0  0.16620029164E+02  0.29997627968E+02  0.17190074858E+03  0.17528822430E+03  0.10566000000E+00 0. -1.
        994    1    1    2    0    0 -0.15467087574E+02 -0.35822658279E+02  0.80116235495E+01  0.17577292100E+03  0.17120000000E+03 0.  0.
        998    1    1    2    0    0 -0.11529415898E+01  0.58250303110E+01  0.13200876242E+04  0.13201388547E+04  0.10000000000E+02 0. -1.
</event>
<event>
 5    1  0.1675361E-008  0.3849813E+03  0.7957747E-01  0.3429751E+00
         13   -1    0    0    0    0  0.00000000000E+00  0.00000000000E+00  0.14999999963E+04  0.15000000000E+04  0.10566000000E+00 0. -1.
        994   -1    0    0    0    0 -0.00000000000E+00 -0.00000000000E+00  0.11368683772E-12  0.17120000000E+03  0.17120000000E+03 0.  0.
         13    1    1    2    0    0  0.24076383908E+01 -0.18843112549E+02  0.10314120382E+03  0.10487601586E+03  0.10566000000E+00 0. -1.
        994    1    1    2    0    0 -0.92004182649E+01  0.19424397438E+02  0.31601881920E+01  0.17257283014E+03  0.17120000000E+03 0.  0.
        998    1    1    2    0    0  0.67927798742E+01 -0.58128488879E+00  0.13936986043E+04  0.13937511540E+04  0.10000000000E+02 0. -1.
</event>
<event>
 5    1  0.1675361E-008  0.3809937E+03  0.7957747E-01  0.3446843E+00
         13   -1    0    0    0    0  0.00000000000E+00  0.00000000000E+00  0.14999999963E+04  0.15000000000E+04  0.10566000000E+00 0.  1.
        994   -1    0    0    0    0 -0.00000000000E+00 -0.00000000000E+00  0.11368683772E-12  0.17120000000E+03  0.17120000000E+03 0.  0.
         13    1    1    2    0    0  0.40492235290E+02  0.27302497723E+02  0.25037138434E+03  0.25508996210E+03  0.10566000000E+00 0.  1.
        994    1    1    2    0    0 -0.50095370679E+02 -0.31787917958E+02  0.15451229898E+02  0.18184663427E+03  0.17120000000E+03 0.  0.
        998    1    1    2    0    0  0.96031353885E+01  0.44854202345E+01  0.12341773820E+04  0.12342634036E+04  0.10000000000E+02 0.  1.
</event>
<event>
 5    1  0.1675361E-008  0.3848944E+03  0.7957747E-01  0.3430120E+00
         13   -1    0    0    0    0  0.00000000000E+00  0.00000000000E+00  0.14999999963E+04  0.15000000000E+04  0.10566000000E+00 0.  1.
        994   -1    0    0    0    0 -0.00000000000E+00 -0.00000000000E+00  0.11368683772E-12  0.17120000000E+03  0.17120000000E+03 0.  0.
         13    1    1    2    0    0 -0.15276336798E+02 -0.20264689483E+01  0.74406903961E+02  0.75985995838E+02  0.10566000000E+00 0.  1.
        994    1    1    2    0    0  0.34707132551E+01 -0.88979660567E+01  0.19827395438E+01  0.17147766883E+03  0.17120000000E+03 0.  0.
        998    1    1    2    0    0  0.11805623543E+02  0.10924435005E+02  0.14236103528E+04  0.14237363353E+04  0.10000000000E+02 0.  1.
</event>
<event>
 5    1  0.1675361E-008  0.3835203E+03  0.7957747E-01  0.3435972E+00
         13   -1    0    0    0    0  0.00000000000E+00  0.00000000000E+00  0.14999999963E+04  0.15000000000E+04  0.10566000000E+00 0. -1.
        994   -1    0    0    0    0 -0.00000000000E+00 -0.00000000000E+00  0.11368683772E-12  0.17120000000E+03  0.17120000000E+03 0.  0.
         13    1    1    2    0    0  0.73124080318E+01 -0.15798205935E+02  0.55909033277E+02  0.58556688670E+02  0.10566000000E+00 0. -1.
        994    1    1    2    0    0 -0.22660876775E+02  0.30421906851E+02  0.71363236468E+01  0.17549750673E+03  0.17120000000E+03 0.  0.
        998    1    1    2    0    0  0.15348468743E+02 -0.14623700916E+02  0.14369546394E+04  0.14371458046E+04  0.10000000000E+02 0. -1.
</event>
<event>
 5    1  0.1934159E-008  0.3850045E+03  0.7957747E-01  0.3429653E+00
         13   -1    0    0    0    0  0.00000000000E+00  0.00000000000E+00  0.14999999963E+04  0.15000000000E+04  0.10566000000E+00 0. -1.
        994   -1    0    0    0    0 -0.00000000000E+00 -0.00000000000E+00  0.11368683772E-12  0.17120000000E+03  0.17120000000E+03 0.  0.
         13    1    1    2    0    0  0.48970257259E+01  0.10975003796E+02  0.43240807253E+02  0.44879952598E+02  0.10566000000E+00 0. -1.
        994    1    1    2    0    0 -0.35942977429E+01 -0.12191856233E+02  0.21593860781E+01  0.17168477883E+03  0.17120000000E+03 0.  0.
        998    1    1    2    0    0 -0.13027279831E+01  0.12168524375E+01  0.14545998029E+04  0.14546352686E+04  0.10000000000E+02 0. -1.
</event>
<event>
 5    1  0.1675361E-008  0.3826805E+03  0.7957747E-01  0.3439570E+00
         13   -1    0    0    0    0  0.00000000000E+00  0.00000000000E+00  0.14999999963E+04  0.15000000000E+04  0.10566000000E+00 0.  1.
        994   -1    0    0    0    0 -0.00000000000E+00 -0.00000000000E+00  0.11368683772E-12  0.17120000000E+03  0.17120000000E+03 0.  0.
         13    1    1    2    0    0 -0.10325392839E+02  0.57710645479E+01  0.24371510190E+02  0.27090599777E+02  0.10566000000E+00 0.  1.
        994    1    1    2    0    0  0.48947353028E+01 -0.70079141425E+00  0.28671636050E+01  0.17129538864E+03  0.17120000000E+03 0.  0.
        998    1    1    2    0    0  0.54306575361E+01 -0.50702731337E+01  0.14727613225E+04  0.14728140116E+04  0.10000000000E+02 0.  1.
</event>
<event>
 5    1  0.1675361E-008  0.3788073E+03  0.7957747E-01  0.3456368E+00
         13   -1    0    0    0    0  0.00000000000E+00  0.00000000000E+00  0.14999999963E+04  0.15000000000E+04  0.10566000000E+00 0.  1.
        994   -1    0    0    0    0 -0.00000000000E+00 -0.00000000000E+00  0.11368683772E-12  0.17120000000E+03  0.17120000000E+03 0.  0.
         13    1    1    2    0    0 -0.49409457075E+01  0.13588796261E+02  0.20116040920E+02  0.24773667364E+02  0.10566000000E+00 0.  1.
        994    1    1    2    0    0  0.18224796549E+02 -0.31238335716E+01  0.58847187768E+01  0.17229617367E+03  0.17120000000E+03 0.  0.
        998    1    1    2    0    0 -0.13283850842E+02 -0.10464962689E+02  0.14739992366E+04  0.14741301590E+04  0.10000000000E+02 0.  1.
</event>
<event>
 5    1  0.1675361E-008  0.3772353E+03  0.7957747E-01  0.3463285E+00
         13   -1    0    0    0    0  0.00000000000E+00  0.00000000000E+00  0.14999999963E+04  0.15000000000E+04  0.10566000000E+00 0.  1.
        994   -1    0    0    0    0 -0.00000000000E+00 -0.00000000000E+00  0.11368683772E-12  0.17120000000E+03  0.17120000000E+03 0.  0.
         13    1    1    2    0    0 -0.43029617237E+02  0.18433868827E+02  0.22232049938E+03  0.22719544689E+03  0.10566000000E+00 0.  1.
        994    1    1    2    0    0  0.12626201363E+02  0.60673131147E+01  0.61975983577E+01  0.17188392442E+03  0.17120000000E+03 0.  0.
        998    1    1    2    0    0  0.30403415874E+02 -0.24501181941E+02  0.12714818985E+04  0.12721206287E+04  0.10000000000E+02 0.  1.
</event>
<event>
 5    1  0.1675361E-008  0.3848085E+03  0.7957747E-01  0.3430485E+00
         13   -1    0    0    0    0  0.00000000000E+00  0.00000000000E+00  0.14999999963E+04  0.15000000000E+04  0.10566000000E+00 0.  1.
        994   -1    0    0    0    0 -0.00000000000E+00 -0.00000000000E+00  0.11368683772E-12  0.17120000000E+03  0.17120000000E+03 0.  0.
         13    1    1    2    0    0 -0.11759970517E+03 -0.61949642569E+02  0.77518374184E+03  0.78649684910E+03  0.10566000000E+00 0.  1.
        994    1    1    2    0    0  0.16064300923E+03  0.72870099745E+02  0.11188041452E+03  0.27007942351E+03  0.17120000000E+03 0.  0.
        998    1    1    2    0    0 -0.43043304059E+02 -0.10920457176E+02  0.61293583992E+03  0.61462372738E+03  0.10000000000E+02 0.  1.
</event>
<event>
 5    1  0.1675361E-008  0.3694375E+03  0.7957747E-01  0.3498480E+00
         13   -1    0    0    0    0  0.00000000000E+00  0.00000000000E+00  0.14999999963E+04  0.15000000000E+04  0.10566000000E+00 0.  1.
        994   -1    0    0    0    0 -0.00000000000E+00 -0.00000000000E+00  0.11368683772E-12  0.17120000000E+03  0.17120000000E+03 0.  0.
         13    1    1    2    0    0 -0.11892166947E+02 -0.52584599290E+00  0.17054607747E+01  0.12025801810E+02  0.10566000000E+00 0.  1.
        994    1    1    2    0    0  0.10230130551E+02  0.10769859196E+02  0.11411888304E+02  0.17222170779E+03  0.17120000000E+03 0.  0.
        998    1    1    2    0    0  0.16620363955E+01 -0.10244013203E+02  0.14868826472E+04  0.14869524904E+04  0.10000000000E+02 0.  1.
</event>
<event>
 5    1  0.1890451E-008  0.3859965E+03  0.7957747E-01  0.3425457E+00
         13   -1    0    0    0    0  0.00000000000E+00  0.00000000000E+00  0.14999999963E+04  0.15000000000E+04  0.10566000000E+00 0.  1.
        994   -1    0    0    0    0 -0.00000000000E+00 -0.00000000000E+00  0.11368683772E-12  0.17120000000E+03  0.17120000000E+03 0.  0.
         13    1    1    2    0    0 -0.12122564874E+02  0.30302451733E+00  0.67789558810E+02  0.68865694295E+02  0.10566000000E+00 0.  1.
        994    1    1    2    0    0  0.36286038015E+01  0.21376601195E+01  0.11943172585E+01  0.17125595683E+03  0.17120000000E+03 0.  0.
        998    1    1    2    0    0  0.84939610726E+01 -0.24406846369E+01  0.14310161202E+04  0.14310783489E+04  0.10000000000E+02 0.  1.
</event>
<event>
 5    1  0.1675361E-008  0.3814369E+03  0.7957747E-01  0.3444926E+00
         13   -1    0    0    0    0  0.00000000000E+00  0.00000000000E+00  0.14999999963E+04  0.15000000000E+04  0.10566000000E+00 0. -1.
        994   -1    0    0    0    0 -0.00000000000E+00 -0.00000000000E+00  0.11368683772E-12  0.17120000000E+03  0.17120000000E+03 0.  0.
         13    1    1    2    0    0  0.58739716184E+01  0.14413023238E+02  0.34058877300E+02  0.37446723066E+02  0.10566000000E+00 0. -1.
        994    1    1    2    0    0  0.22554325117E+01 -0.14053148325E+02  0.40838488530E+01  0.17183915670E+03  0.17120000000E+03 0.  0.
        998    1    1    2    0    0 -0.81294041302E+01 -0.35987491318E+00  0.14618572701E+04  0.14619141202E+04  0.10000000000E+02 0. -1.
</event>
<event>
 5    1  0.1675361E-008  0.3722893E+03  0.7957747E-01  0.3485435E+00
         13   -1    0    0    0    0  0.00000000000E+00  0.00000000000E+00  0.14999999963E+04  0.15000000000E+04  0.10566000000E+00 0.  1.
        994   -1    0    0    0    0 -0.00000000000E+00 -0.00000000000E+00  0.11368683772E-12  0.17120000000E+03  0.17120000000E+03 0.  0.
         13    1    1    2    0    0 -0.34949437146E+02  0.39587859459E+02  0.15845994046E+03  0.16702761948E+03  0.10566000000E+00 0.  1.
        994    1    1    2    0    0  0.30429728341E+02 -0.34098058002E+02  0.15276811048E+02  0.17785237384E+03  0.17120000000E+03 0.  0.
        998    1    1    2    0    0  0.45197088046E+01 -0.54898014569E+01  0.13262632448E+04  0.13263200067E+04  0.10000000000E+02 0.  1.
</event>
<event>
 5    1  0.1675361E-008  0.3846900E+03  0.7957747E-01  0.3430988E+00
         13   -1    0    0    0    0  0.00000000000E+00  0.00000000000E+00  0.14999999963E+04  0.15000000000E+04  0.10566000000E+00 0.  1.
        994   -1    0    0    0    0 -0.00000000000E+00 -0.00000000000E+00  0.11368683772E-12  0.17120000000E+03  0.17120000000E+03 0.  0.
         13    1    1    2    0    0  0.10008917116E+02  0.12224130919E+01  0.28468734360E+02  0.30201866096E+02  0.10566000000E+00 0.  1.
        994    1    1    2    0    0 -0.47547574320E+01  0.63698682507E+01  0.19921645605E+01  0.17139600829E+03  0.17120000000E+03 0.  0.
        998    1    1    2    0    0 -0.52541596839E+01 -0.75922813425E+01  0.14695390974E+04  0.14696021256E+04  0.10000000000E+02 0.  1.
</event>
<event>
 5    1  0.1675361E-008  0.3863052E+03  0.7957747E-01  0.3424156E+00
         13   -1    0    0    0    0  0.00000000000E+00  0.00000000000E+00  0.14999999963E+04  0.15000000000E+04  0.10566000000E+00 0.  1.
        994   -1    0    0    0    0 -0.00000000000E+00 -0.00000000000E+00  0.11368683772E-12  0.17120000000E+03  0.17120000000E+03 0.  0.
         13    1    1    2    0    0 -0.34351235038E+00 -0.10241511026E+02  0.57818291499E+02  0.58719439241E+02  0.10566000000E+00 0.  1.
        994    1    1    2    0    0 -0.11366878743E+02 -0.59225535764E+00  0.14079014802E+01  0.17158373724E+03  0.17120000000E+03 0.  0.
        998    1    1    2    0    0  0.11710391094E+02  0.10833766384E+02  0.14407738033E+04  0.14408968235E+04  0.10000000000E+02 0.  1.
</event>
<event>
 5    1  0.1675361E-008  0.3692679E+03  0.7957747E-01  0.3499262E+00
         13   -1    0    0    0    0  0.00000000000E+00  0.00000000000E+00  0.14999999963E+04  0.15000000000E+04  0.10566000000E+00 0. -1.
        994   -1    0    0    0    0 -0.00000000000E+00 -0.00000000000E+00  0.11368683772E-12  0.17120000000E+03  0.17120000000E+03 0.  0.
         13    1    1    2    0    0  0.18731289728E+02 -0.83865113349E+01  0.17720844260E+02  0.27115203716E+02  0.10566000000E+00 0. -1.
        994    1    1    2    0    0 -0.23508706721E+02 -0.21797736835E+02  0.13223333166E+02  0.17467712261E+03  0.17120000000E+03 0.  0.
        998    1    1    2    0    0  0.47774169936E+01  0.30184248170E+02  0.14690558189E+04  0.14694076737E+04  0.10000000000E+02 0. -1.
</event>
<event>
 5    1  0.1675361E-008  0.3778485E+03  0.7957747E-01  0.3460580E+00
         13   -1    0    0    0    0  0.00000000000E+00  0.00000000000E+00  0.14999999963E+04  0.15000000000E+04  0.10566000000E+00 0. -1.
        994   -1    0    0    0    0 -0.00000000000E+00 -0.00000000000E+00  0.11368683772E-12  0.17120000000E+03  0.17120000000E+03 0.  0.
         13    1    1    2    0    0 -0.14674926235E+02  0.43322573906E+02  0.21762905174E+03  0.22238393421E+03  0.10566000000E+00 0. -1.
        994    1    1    2    0    0  0.32978677814E+01 -0.12976567396E+02  0.58269539194E+01  0.17182159534E+03  0.17120000000E+03 0.  0.
        998    1    1    2    0    0  0.11377058454E+02 -0.30346006510E+02  0.12765439906E+04  0.12769944705E+04  0.10000000000E+02 0. -1.
</event>
<event>
 5    1  0.1675361E-008  0.3846639E+03  0.7957747E-01  0.3431099E+00
         13   -1    0    0    0    0  0.00000000000E+00  0.00000000000E+00  0.14999999963E+04  0.15000000000E+04  0.10566000000E+00 0.  1.
        994   -1    0    0    0    0 -0.00000000000E+00 -0.00000000000E+00  0.11368683772E-12  0.17120000000E+03  0.17120000000E+03 0.  0.
         13    1    1    2    0    0  0.26363685501E+01 -0.18207808392E+02  0.93224802726E+02  0.95022890573E+02  0.10566000000E+00 0.  1.
        994    1    1    2    0    0  0.14212661802E+02  0.15540344726E+02  0.32585599557E+01  0.17252118792E+03  0.17120000000E+03 0.  0.
        998    1    1    2    0    0 -0.16849030352E+02  0.26674636661E+01  0.14035166336E+04  0.14036559215E+04  0.10000000000E+02 0.  1.
</event>
<event>
 5    1  0.1675361E-008  0.3748699E+03  0.7957747E-01  0.3473805E+00
         13   -1    0    0    0    0  0.00000000000E+00  0.00000000000E+00  0.14999999963E+04  0.15000000000E+04  0.10566000000E+00 0.  1.
        994   -1    0    0    0    0 -0.00000000000E+00 -0.00000000000E+00  0.11368683772E-12  0.17120000000E+03  0.17120000000E+03 0.  0.
         13    1    1    2    0    0  0.10746045824E+02 -0.54110514720E+02  0.25243487897E+03  0.25839273324E+03  0.10566000000E+00 0.  1.
        994    1    1    2    0    0 -0.43737453840E+01  0.13413707195E+02  0.74227582250E+01  0.17194067154E+03  0.17120000000E+03 0.  0.
        998    1    1    2    0    0 -0.63723004401E+01  0.40696807524E+02  0.12401423591E+04  0.12408665952E+04  0.10000000000E+02 0.  1.
</event>
<event>
 5    1  0.1675361E-008  0.3827207E+03  0.7957747E-01  0.3439397E+00
         13   -1    0    0    0    0  0.00000000000E+00  0.00000000000E+00  0.14999999963E+04  0.15000000000E+04  0.10566000000E+00 0.  1.
        994   -1    0    0    0    0 -0.00000000000E+00 -0.00000000000E+00  0.11368683772E-12  0.17120000000E+03  0.17120000000E+03 0.  0.
         13    1    1    2    0    0  0.26949858219E+02 -0.10554404005E+02  0.14506901202E+03  0.14792808967E+03  0.10566000000E+00 0.  1.
        994    1    1    2    0    0 -0.24767441127E+02 -0.16554172439E+01  0.48101319840E+01  0.17305705393E+03  0.17120000000E+03 0.  0.
        998    1    1    2    0    0 -0.21824170916E+01  0.12209821249E+02  0.13501208523E+04  0.13502148564E+04  0.10000000000E+02 0.  1.
</event>
<event>
 5    1  0.1675361E-008  0.3855130E+03  0.7957747E-01  0.3427499E+00
         13   -1    0    0    0    0  0.00000000000E+00  0.00000000000E+00  0.14999999963E+04  0.15000000000E+04  0.10566000000E+00 0. -1.
        994   -1    0    0    0    0 -0.00000000000E+00 -0.00000000000E+00  0.11368683772E-12  0.17120000000E+03  0.17120000000E+03 0.  0.
         13    1    1    2    0    0 -0.15775649849E+01  0.10744527610E+02  0.40413361187E+02  0.41847156550E+02  0.10566000000E+00 0. -1.
        994    1    1    2    0    0  0.22895930350E+02 -0.16103168136E+02  0.39523888771E+01  0.17351829018E+03  0.17120000000E+03 0.  0.
        998    1    1    2    0    0 -0.21318365365E+02  0.53586405254E+01  0.14556342462E+04  0.14558345533E+04  0.10000000000E+02 0. -1.
</event>
<event>
 5    1  0.1675361E-008  0.3793379E+03  0.7957747E-01  0.3454046E+00
         13   -1    0    0    0    0  0.00000000000E+00  0.00000000000E+00  0.14999999963E+04  0.15000000000E+04  0.10566000000E+00 0. -1.
        994   -1    0    0    0    0 -0.00000000000E+00 -0.00000000000E+00  0.11368683772E-12  0.17120000000E+03  0.17120000000E+03 0.  0.
         13    1    1    2    0    0 -0.22088349194E+02 -0.96294801211E+01  0.67030540112E+02  0.71230095670E+02  0.10566000000E+00 0. -1.
        994    1    1    2    0    0  0.21939182797E+01 -0.82657634961E+00  0.44861548549E+01  0.17127481453E+03  0.17120000000E+03 0.  0.
        998    1    1    2    0    0  0.19894430914E+02  0.10456056471E+02  0.14284833013E+04  0.14286950898E+04  0.10000000000E+02 0. -1.
</event>
<event>
 5    1  0.1675361E-008  0.3848592E+03  0.7957747E-01  0.3430269E+00
         13   -1    0    0    0    0  0.00000000000E+00  0.00000000000E+00  0.14999999963E+04  0.15000000000E+04  0.10566000000E+00 0. -1.
        994   -1    0    0    0    0 -0.00000000000E+00 -0.00000000000E+00  0.11368683772E-12  0.17120000000E+03  0.17120000000E+03 0.  0.
         13    1    1    2    0    0 -0.97001284960E+01  0.64611862441E+01  0.38487842297E+02  0.40213984996E+02  0.10566000000E+00 0. -1.
        994    1    1    2    0    0  0.13286312597E+02 -0.63725528963E+01  0.24147698706E+01  0.17184995387E+03  0.17120000000E+03 0.  0.
        998    1    1    2    0    0 -0.35861841009E+01 -0.88633347810E-01  0.14590973841E+04  0.14591360611E+04  0.10000000000E+02 0. -1.
</event>
<event>
 5    1  0.1675361E-008  0.3703935E+03  0.7957747E-01  0.3494085E+00
         13   -1    0    0    0    0  0.00000000000E+00  0.00000000000E+00  0.14999999963E+04  0.15000000000E+04  0.10566000000E+00 0.  1.
        994   -1    0    0    0    0 -0.00000000000E+00 -0.00000000000E+00  0.11368683772E-12  0.17120000000E+03  0.17120000000E+03 0.  0.
         13    1    1    2    0    0 -0.57739708222E+01  0.32474797522E+02  0.63934845995E+02  0.71941830041E+02  0.10566000000E+00 0.  1.
        994    1    1    2    0    0  0.10432505511E+01  0.17820441154E+02  0.10164614713E+02  0.17242800204E+03  0.17120000000E+03 0.  0.
        998    1    1    2    0    0  0.47307202711E+01 -0.50295238676E+02  0.14259005356E+04  0.14268301679E+04  0.10000000000E+02 0.  1.
</event>
<event>
 5    1  0.1675361E-008  0.3811575E+03  0.7957747E-01  0.3446134E+00
         13   -1    0    0    0    0  0.00000000000E+00  0.00000000000E+00  0.14999999963E+04  0.15000000000E+04  0.10566000000E+00 0. -1.
        994   -1    0    0    0    0 -0.00000000000E+00 -0.00000000000E+00  0.11368683772E-12  0.17120000000E+03  0.17120000000E+03 0.  0.
         13    1    1    2    0    0  0.13681897440E+02 -0.42163495782E+01  0.25918430220E+02  0.29609932631E+02  0.10566000000E+00 0. -1.
        994    1    1    2    0    0 -0.33450022433E+02 -0.10844023658E+02  0.76787171858E+01  0.17494256071E+03  0.17120000000E+03 0.  0.
        998    1    1    2    0    0  0.19768124994E+02  0.15060373236E+02  0.14664028489E+04  0.14666475067E+04  0.10000000000E+02 0. -1.
</event>
<event>
 5    1  0.1675361E-008  0.4009649E+03  0.7957747E-01  0.3364662E+00
         13   -1    0    0    0    0  0.00000000000E+00  0.00000000000E+00  0.14999999963E+04  0.15000000000E+04  0.10566000000E+00 0. -1.
        994   -1    0    0    0    0 -0.00000000000E+00 -0.00000000000E+00  0.11368683772E-12  0.17120000000E+03  0.17120000000E+03 0.  0.
         13    1    1    2    0    0 -0.22473637420E+02  0.94900427038E+02  0.15078385568E+03  0.17957432369E+03  0.10566000000E+00 0. -1.
        994    1    1    2    0    0  0.44195420797E+02 -0.75248198265E+02  0.58963242107E+02  0.20100156836E+03  0.17120000000E+03 0.  0.
        998    1    1    2    0    0 -0.21721783377E+02 -0.19652228773E+02  0.12902528985E+04  0.12906241080E+04  0.10000000000E+02 0. -1.
</event>
<event>
 5    1  0.1675361E-008  0.3844602E+03  0.7957747E-01  0.3431965E+00
         13   -1    0    0    0    0  0.00000000000E+00  0.00000000000E+00  0.14999999963E+04  0.15000000000E+04  0.10566000000E+00 0. -1.
        994   -1    0    0    0    0 -0.00000000000E+00 -0.00000000000E+00  0.11368683772E-12  0.17120000000E+03  0.17120000000E+03 0.  0.
         13    1    1    2    0    0  0.58650600506E+01 -0.90634032660E+01  0.30653864514E+02  0.32499458177E+02  0.10566000000E+00 0. -1.
        994    1    1    2    0    0 -0.41935929566E+01  0.24013191802E+01  0.19753187945E+01  0.17127957975E+03  0.17120000000E+03 0.  0.
        998    1    1    2    0    0 -0.16714670940E+01  0.66620840859E+01  0.14673708130E+04  0.14674209621E+04  0.10000000000E+02 0. -1.
</event>
<event>
 5    1  0.1675361E-008  0.3809937E+03  0.7957747E-01  0.3446843E+00
         13   -1    0    0    0    0  0.00000000000E+00  0.00000000000E+00  0.14999999963E+04  0.15000000000E+04  0.10566000000E+00 0.  1.
        994   -1    0    0    0    0 -0.00000000000E+00 -0.00000000000E+00  0.11368683772E-12  0.17120000000E+03  0.17120000000E+03 0.  0.
         13    1    1    2    0    0  0.24068283188E+02  0.11229521028E+02  0.91055420821E+02  0.94849803495E+02  0.10566000000E+00 0.  1.
        994    1    1    2    0    0 -0.22533873986E+02 -0.13888241120E+02  0.59704605157E+01  0.17333708523E+03  0.17120000000E+03 0.  0.
        998    1    1    2    0    0 -0.15344092017E+01  0.26587200920E+01  0.14029741149E+04  0.14030131113E+04  0.10000000000E+02 0.  1.
</event>
<event>
 5    1  0.1675361E-008  0.3743249E+03  0.7957747E-01  0.3476247E+00
         13   -1    0    0    0    0  0.00000000000E+00  0.00000000000E+00  0.14999999963E+04  0.15000000000E+04  0.10566000000E+00 0.  1.
        994   -1    0    0    0    0 -0.00000000000E+00 -0.00000000000E+00  0.11368683772E-12  0.17120000000E+03  0.17120000000E+03 0.  0.
         13    1    1    2    0    0 -0.23794330897E+02  0.49692431569E+02  0.17722007848E+03  0.18558684037E+03  0.10566000000E+00 0.  1.
        994    1    1    2    0    0  0.26210885055E+02 -0.61602298361E+02  0.22452146371E+02  0.18519015237E+03  0.17120000000E+03 0.  0.
        998    1    1    2    0    0 -0.24165541575E+01  0.11909866792E+02  0.13003277714E+04  0.13004230073E+04  0.10000000000E+02 0.  1.
</event>
<event>
 5    1  0.1675361E-008  0.3791012E+03  0.7957747E-01  0.3455081E+00
         13   -1    0    0    0    0  0.00000000000E+00  0.00000000000E+00  0.14999999963E+04  0.15000000000E+04  0.10566000000E+00 0. -1.
        994   -1    0    0    0    0 -0.00000000000E+00 -0.00000000000E+00  0.11368683772E-12  0.17120000000E+03  0.17120000000E+03 0.  0.
         13    1    1    2    0    0 -0.10037611930E+02 -0.20175404633E+02  0.53911254240E+02  0.58431456452E+02  0.10566000000E+00 0. -1.
        994    1    1    2    0    0 -0.50626533849E+00  0.14949835921E+02  0.53380889757E+01  0.17193513048E+03  0.17120000000E+03 0.  0.
        998    1    1    2    0    0  0.10543877268E+02  0.52255687123E+01  0.14407506531E+04  0.14408334131E+04  0.10000000000E+02 0. -1.
</event>
<event>
 5    1  0.1675361E-008  0.3790140E+03  0.7957747E-01  0.3455463E+00
         13   -1    0    0    0    0  0.00000000000E+00  0.00000000000E+00  0.14999999963E+04  0.15000000000E+04  0.10566000000E+00 0.  1.
        994   -1    0    0    0    0 -0.00000000000E+00 -0.00000000000E+00  0.11368683772E-12  0.17120000000E+03  0.17120000000E+03 0.  0.
         13    1    1    2    0    0 -0.10633157971E+02  0.39708495865E+02  0.18954649276E+03  0.19395286225E+03  0.10566000000E+00 0.  1.
        994    1    1    2    0    0 -0.22051850959E+02 -0.24515178316E+02  0.82868695244E+01  0.17454337657E+03  0.17120000000E+03 0.  0.
        998    1    1    2    0    0  0.32685008929E+02 -0.15193317549E+02  0.13021666340E+04  0.13027037612E+04  0.10000000000E+02 0.  1.
</event>
<event>
 5    1  0.1675361E-008  0.3828532E+03  0.7957747E-01  0.3438828E+00
         13   -1    0    0    0    0  0.00000000000E+00  0.00000000000E+00  0.14999999963E+04  0.15000000000E+04  0.10566000000E+00 0.  1.
        994   -1    0    0    0    0 -0.00000000000E+00 -0.00000000000E+00  0.11368683772E-12  0.17120000000E+03  0.17120000000E+03 0.  0.
         13    1    1    2    0    0 -0.13792139201E+02  0.56289932087E+01  0.39733551515E+02  0.42434360468E+02  0.10566000000E+00 0.  1.
        994    1    1    2    0    0  0.25924170081E+02  0.27741879783E+02  0.74888671273E+01  0.17551979267E+03  0.17120000000E+03 0.  0.
        998    1    1    2    0    0 -0.12132030879E+02 -0.33370872992E+02  0.14527775776E+04  0.14532458469E+04  0.10000000000E+02 0.  1.
</event>
<event>
 5    1  0.1675361E-008  0.3856143E+03  0.7957747E-01  0.3427071E+00
         13   -1    0    0    0    0  0.00000000000E+00  0.00000000000E+00  0.14999999963E+04  0.15000000000E+04  0.10566000000E+00 0.  1.
        994   -1    0    0    0    0 -0.00000000000E+00 -0.00000000000E+00  0.11368683772E-12  0.17120000000E+03  0.17120000000E+03 0.  0.
         13    1    1    2    0    0  0.10732100476E+02  0.63085572441E+01  0.66161609457E+02  0.67322697547E+02  0.10566000000E+00 0.  1.
        994    1    1    2    0    0  0.17682354157E+02 -0.15805885354E+02  0.31738063246E+01  0.17286412209E+03  0.17120000000E+03 0.  0.
        998    1    1    2    0    0 -0.28414454633E+02  0.94973281103E+01  0.14306645805E+04  0.14310131804E+04  0.10000000000E+02 0.  1.
</event>
<event>
 5    1  0.1675361E-008  0.3835559E+03  0.7957747E-01  0.3435820E+00
         13   -1    0    0    0    0  0.00000000000E+00  0.00000000000E+00  0.14999999963E+04  0.15000000000E+04  0.10566000000E+00 0. -1.
        994   -1    0    0    0    0 -0.00000000000E+00 -0.00000000000E+00  0.11368683772E-12  0.17120000000E+03  0.17120000000E+03 0.  0.
         13    1    1    2    0    0 -0.11974228378E+02  0.32183107441E+01  0.31771575636E+02  0.34105481256E+02  0.10566000000E+00 0. -1.
        994    1    1    2    0    0  0.95626904547E+01 -0.45193876904E+01  0.27185344120E+01  0.17154795348E+03  0.17120000000E+03 0.  0.
        998    1    1    2    0    0  0.24115379234E+01  0.13010769463E+01  0.14655098862E+04  0.14655465653E+04  0.10000000000E+02 0. -1.
</event>
<event>
 5    1  0.1675361E-008  0.3763164E+03  0.7957747E-01  0.3467356E+00
         13   -1    0    0    0    0  0.00000000000E+00  0.00000000000E+00  0.14999999963E+04  0.15000000000E+04  0.10566000000E+00 0. -1.
        994   -1    0    0    0    0 -0.00000000000E+00 -0.00000000000E+00  0.11368683772E-12  0.17120000000E+03  0.17120000000E+03 0.  0.
         13    1    1    2    0    0 -0.28408697067E+02  0.27613645814E+01  0.71847348810E+02  0.77309326077E+02  0.10566000000E+00 0. -1.
        994    1    1    2    0    0 -0.59244387091E+01 -0.15610556220E+01  0.61313160630E+01  0.17141927810E+03  0.17120000000E+03 0.  0.
        998    1    1    2    0    0  0.34333135776E+02 -0.12003089594E+01  0.14220213314E+04  0.14224713958E+04  0.10000000000E+02 0. -1.
</event>
<event>
 5    1  0.1675361E-008  0.3733079E+03  0.7957747E-01  0.3480825E+00
         13   -1    0    0    0    0  0.00000000000E+00  0.00000000000E+00  0.14999999963E+04  0.15000000000E+04  0.10566000000E+00 0. -1.
        994   -1    0    0    0    0 -0.00000000000E+00 -0.00000000000E+00  0.11368683772E-12  0.17120000000E+03  0.17120000000E+03 0.  0.
         13    1    1    2    0    0  0.23155828431E+02 -0.11800628214E+01  0.31912445519E+02  0.39446169416E+02  0.10566000000E+00 0. -1.
        994    1    1    2    0    0 -0.22946219301E+02  0.80423486351E-01  0.93523615654E+01  0.17298393600E+03  0.17120000000E+03 0.  0.
        998    1    1    2    0    0 -0.20960912967E+00  0.10996393350E+01  0.14587351892E+04  0.14587698946E+04  0.10000000000E+02 0. -1.
</event>
<event>
 5    1  0.1675361E-008  0.4333127E+03  0.7957747E-01  0.3247497E+00
         13   -1    0    0    0    0  0.00000000000E+00  0.00000000000E+00  0.14999999963E+04  0.15000000000E+04  0.10566000000E+00 0.  1.
        994   -1    0    0    0    0 -0.00000000000E+00 -0.00000000000E+00  0.11368683772E-12  0.17120000000E+03  0.17120000000E+03 0.  0.
         13    1    1    2    0    0  0.84093799371E+02 -0.27075871792E+02  0.64746526206E+02  0.10953078903E+03  0.10566000000E+00 0.  1.
        994    1    1    2    0    0 -0.70074053538E+02  0.17811851020E+02  0.73615380052E+02  0.19989071813E+03  0.17120000000E+03 0.  0.
        998    1    1    2    0    0 -0.14019745833E+02  0.92640207719E+01  0.13616380900E+04  0.13617784928E+04  0.10000000000E+02 0.  1.
</event>
<event>
 5    1  0.1675361E-008  0.3807793E+03  0.7957747E-01  0.3447772E+00
         13   -1    0    0    0    0  0.00000000000E+00  0.00000000000E+00  0.14999999963E+04  0.15000000000E+04  0.10566000000E+00 0.  1.
        994   -1    0    0    0    0 -0.00000000000E+00 -0.00000000000E+00  0.11368683772E-12  0.17120000000E+03  0.17120000000E+03 0.  0.
         13    1    1    2    0    0 -0.36311448836E+01  0.10428208301E+02  0.14761805559E+02  0.18435151448E+02  0.10566000000E+00 0.  1.
        994    1    1    2    0    0  0.23328576988E+01 -0.60979148461E+01  0.38824261108E+01  0.17136843357E+03  0.17120000000E+03 0.  0.
        998    1    1    2    0    0  0.12982871848E+01 -0.43302934546E+01  0.14813557646E+04  0.14813964150E+04  0.10000000000E+02 0.  1.
</event>
<event>
 5    1  0.1675361E-008  0.3727259E+03  0.7957747E-01  0.3483456E+00
         13   -1    0    0    0    0  0.00000000000E+00  0.00000000000E+00  0.14999999963E+04  0.15000000000E+04  0.10566000000E+00 0. -1.
        994   -1    0    0    0    0 -0.00000000000E+00 -0.00000000000E+00  0.11368683772E-12  0.17120000000E+03  0.17120000000E+03 0.  0.
         13    1    1    2    0    0  0.38988026359E+02  0.10478793732E+03  0.65132545230E+03  0.66085205151E+03  0.10566000000E+00 0. -1.
        994    1    1    2    0    0 -0.32536421428E+02 -0.76135199420E+02  0.31711362828E+02  0.19279584498E+03  0.17120000000E+03 0.  0.
        998    1    1    2    0    0 -0.64516049315E+01 -0.28652737897E+02  0.81696318115E+03  0.81755210351E+03  0.10000000000E+02 0. -1.
</event>
<event>
 5    1  0.1675361E-008  0.3828923E+03  0.7957747E-01  0.3438661E+00
         13   -1    0    0    0    0  0.00000000000E+00  0.00000000000E+00  0.14999999963E+04  0.15000000000E+04  0.10566000000E+00 0.  1.
        994   -1    0    0    0    0 -0.00000000000E+00 -0.00000000000E+00  0.11368683772E-12  0.17120000000E+03  0.17120000000E+03 0.  0.
         13    1    1    2    0    0 -0.25291405473E+02  0.31466413259E+02  0.37349391847E+02  0.54997987141E+02  0.10566000000E+00 0.  1.
        994    1    1    2    0    0  0.30301729219E+02 -0.30762369791E+02  0.24784855264E+02  0.17829258885E+03  0.17120000000E+03 0.  0.
        998    1    1    2    0    0 -0.50103237463E+01 -0.70404346848E+00  0.14378657492E+04  0.14379094240E+04  0.10000000000E+02 0.  1.
</event>
<event>
 5    1  0.1675361E-008  0.3816409E+03  0.7957747E-01  0.3444045E+00
         13   -1    0    0    0    0  0.00000000000E+00  0.00000000000E+00  0.14999999963E+04  0.15000000000E+04  0.10566000000E+00 0.  1.
        994   -1    0    0    0    0 -0.00000000000E+00 -0.00000000000E+00  0.11368683772E-12  0.17120000000E+03  0.17120000000E+03 0.  0.
         13    1    1    2    0    0 -0.30517227296E+01 -0.35828649948E+02  0.20501793848E+03  0.20814747520E+03  0.10566000000E+00 0.  1.
        994    1    1    2    0    0  0.16615847967E+02  0.13550159485E+02  0.48370397778E+01  0.17260512791E+03  0.17120000000E+03 0.  0.
        998    1    1    2    0    0 -0.13564125237E+02  0.22278490463E+02  0.12901450180E+04  0.12904473969E+04  0.10000000000E+02 0.  1.
</event>
<event>
 5    1  0.1675361E-008  0.3844928E+03  0.7957747E-01  0.3431826E+00
         13   -1    0    0    0    0  0.00000000000E+00  0.00000000000E+00  0.14999999963E+04  0.15000000000E+04  0.10566000000E+00 0. -1.
        994   -1    0    0    0    0 -0.00000000000E+00 -0.00000000000E+00  0.11368683772E-12  0.17120000000E+03  0.17120000000E+03 0.  0.
         13    1    1    2    0    0 -0.10369174720E+00  0.13692513661E+02  0.49002994660E+02  0.50880254834E+02  0.10566000000E+00 0. -1.
        994    1    1    2    0    0  0.45999021930E+01 -0.11153337753E+02  0.23618028814E+01  0.17164082893E+03  0.17120000000E+03 0.  0.
        998    1    1    2    0    0 -0.44962104458E+01 -0.25391759080E+01  0.14486351987E+04  0.14486789162E+04  0.10000000000E+02 0. -1.
</event>
<event>
 5    1  0.1675361E-008  0.3815856E+03  0.7957747E-01  0.3444284E+00
         13   -1    0    0    0    0  0.00000000000E+00  0.00000000000E+00  0.14999999963E+04  0.15000000000E+04  0.10566000000E+00 0. -1.
        994   -1    0    0    0    0 -0.00000000000E+00 -0.00000000000E+00  0.11368683772E-12  0.17120000000E+03  0.17120000000E+03 0.  0.
         13    1    1    2    0    0 -0.15093796069E+02  0.13859859972E+02  0.10974179070E+03  0.11163865903E+03  0.10566000000E+00 0. -1.
        994    1    1    2    0    0 -0.71112779245E+02  0.30619884797E+02  0.23533294558E+02  0.18936171912E+03  0.17120000000E+03 0.  0.
        998    1    1    2    0    0  0.86206575314E+02 -0.44479744769E+02  0.13667249110E+04  0.13701996218E+04  0.10000000000E+02 0. -1.
</event>
<event>
 5    1  0.1675361E-008  0.3779500E+03  0.7957747E-01  0.3460134E+00
         13   -1    0    0    0    0  0.00000000000E+00  0.00000000000E+00  0.14999999963E+04  0.15000000000E+04  0.10566000000E+00 0.  1.
        994   -1    0    0    0    0 -0.00000000000E+00 -0.00000000000E+00  0.11368683772E-12  0.17120000000E+03  0.17120000000E+03 0.  0.
         13    1    1    2    0    0 -0.11122382851E+02  0.43807193808E+02  0.20476737633E+03  0.20969613063E+03  0.10566000000E+00 0.  1.
        994    1    1    2    0    0 -0.11841522052E+02 -0.23493637968E+02  0.75047323332E+01  0.17337224021E+03  0.17120000000E+03 0.  0.
        998    1    1    2    0    0  0.22963904902E+02 -0.20313555840E+02  0.12877278876E+04  0.12881316292E+04  0.10000000000E+02 0. -1.
</event>
<event>
 5    1  0.1675361E-008  0.3813039E+03  0.7957747E-01  0.3445500E+00
         13   -1    0    0    0    0  0.00000000000E+00  0.00000000000E+00  0.14999999963E+04  0.15000000000E+04  0.10566000000E+00 0. -1.
        994   -1    0    0    0    0 -0.00000000000E+00 -0.00000000000E+00  0.11368683772E-12  0.17120000000E+03  0.17120000000E+03 0.  0.
         13    1    1    2    0    0 -0.60151883146E+01  0.25676728435E+02  0.10087837766E+03  0.10426857204E+03  0.10566000000E+00 0. -1.
        994    1    1    2    0    0  0.26581135943E+01 -0.12249335742E+02  0.39995088566E+01  0.17170482773E+03  0.17120000000E+03 0.  0.
        998    1    1    2    0    0  0.33570747203E+01 -0.13427392694E+02  0.13951221098E+04  0.13952266002E+04  0.10000000000E+02 0. -1.
</event>
<event>
 5    1  0.1675361E-008  0.3844568E+03  0.7957747E-01  0.3431979E+00
         13   -1    0    0    0    0  0.00000000000E+00  0.00000000000E+00  0.14999999963E+04  0.15000000000E+04  0.10566000000E+00 0. -1.
        994   -1    0    0    0    0 -0.00000000000E+00 -0.00000000000E+00  0.11368683772E-12  0.17120000000E+03  0.17120000000E+03 0.  0.
         13    1    1    2    0    0  0.84679205168E+01 -0.96553617762E+01  0.43149097810E+02  0.45019856672E+02  0.10566000000E+00 0. -1.
        994    1    1    2    0    0 -0.43001827177E+01  0.71855801900E+01  0.21311195132E+01  0.17141792731E+03  0.17120000000E+03 0.  0.
        998    1    1    2    0    0 -0.41677377990E+01  0.24697815862E+01  0.14547197790E+04  0.14547622160E+04  0.10000000000E+02 0. -1.
</event>
<event>
 5    1  0.1675361E-008  0.3726596E+03  0.7957747E-01  0.3483756E+00
         13   -1    0    0    0    0  0.00000000000E+00  0.00000000000E+00  0.14999999963E+04  0.15000000000E+04  0.10566000000E+00 0. -1.
        994   -1    0    0    0    0 -0.00000000000E+00 -0.00000000000E+00  0.11368683772E-12  0.17120000000E+03  0.17120000000E+03 0.  0.
         13    1    1    2    0    0 -0.10697936754E+02  0.97083519278E+01  0.96713380056E+01  0.17385162950E+02  0.10566000000E+00 0. -1.
        994    1    1    2    0    0  0.34185149341E+01 -0.13239075275E+02  0.85263229175E+01  0.17195667344E+03  0.17120000000E+03 0.  0.
        998    1    1    2    0    0  0.72794218195E+01  0.35307233468E+01  0.14818023354E+04  0.14818581636E+04  0.10000000000E+02 0. -1.
</event>
<event>
 5    1  0.1675361E-008  0.3377221E+03  0.7957747E-01  0.3658799E+00
         13   -1    0    0    0    0  0.00000000000E+00  0.00000000000E+00  0.14999999963E+04  0.15000000000E+04  0.10566000000E+00 0. -1.
        994   -1    0    0    0    0 -0.00000000000E+00 -0.00000000000E+00  0.11368683772E-12  0.17120000000E+03  0.17120000000E+03 0.  0.
         13    1    1    2    0    0  0.14326746929E+03  0.15579359530E+03  0.10225073182E+04  0.10441831444E+04  0.10566000000E+00 0. -1.
        994    1    1    2    0    0 -0.10433489803E+03 -0.10229179725E+03  0.10464680138E+03  0.24821316599E+03  0.17120000000E+03 0.  0.
        998    1    1    2    0    0 -0.38932571259E+02 -0.53501798045E+02  0.37284587668E+03  0.37880368960E+03  0.10000000000E+02 0. -1.
</event>
<event>
 5    1  0.1675361E-008  0.3797953E+03  0.7957747E-01  0.3452050E+00
         13   -1    0    0    0    0  0.00000000000E+00  0.00000000000E+00  0.14999999963E+04  0.15000000000E+04  0.10566000000E+00 0. -1.
        994   -1    0    0    0    0 -0.00000000000E+00 -0.00000000000E+00  0.11368683772E-12  0.17120000000E+03  0.17120000000E+03 0.  0.
         13    1    1    2    0    0 -0.22277388012E+02  0.14884826480E+02  0.79190777493E+02  0.83600421530E+02  0.10566000000E+00 0. -1.
        994    1    1    2    0    0  0.25044670527E+02 -0.12176247290E+02  0.68350203576E+01  0.17358471714E+03  0.17120000000E+03 0.  0.
        998    1    1    2    0    0 -0.27672825144E+01 -0.27085791905E+01  0.14139741984E+04  0.14140148613E+04  0.10000000000E+02 0. -1.
</event>
<event>
 5    1  0.1675361E-008  0.3701812E+03  0.7957747E-01  0.3495058E+00
         13   -1    0    0    0    0  0.00000000000E+00  0.00000000000E+00  0.14999999963E+04  0.15000000000E+04  0.10566000000E+00 0. -1.
        994   -1    0    0    0    0 -0.00000000000E+00 -0.00000000000E+00  0.11368683772E-12  0.17120000000E+03  0.17120000000E+03 0.  0.
         13    1    1    2    0    0  0.14280688944E+02 -0.78553464459E+01  0.10234499441E+02  0.19245796615E+02  0.10566000000E+00 0. -1.
        994    1    1    2    0    0 -0.15911552574E+02  0.88750684373E+01  0.10322230293E+02  0.17247589044E+03  0.17120000000E+03 0.  0.
        998    1    1    2    0    0  0.16308636296E+01 -0.10197219914E+01  0.14794432665E+04  0.14794783129E+04  0.10000000000E+02 0. -1.
</event>
<event>
 5    1  0.1675361E-008  0.3786743E+03  0.7957747E-01  0.3456951E+00
         13   -1    0    0    0    0  0.00000000000E+00  0.00000000000E+00  0.14999999963E+04  0.15000000000E+04  0.10566000000E+00 0. -1.
        994   -1    0    0    0    0 -0.00000000000E+00 -0.00000000000E+00  0.11368683772E-12  0.17120000000E+03  0.17120000000E+03 0.  0.
         13    1    1    2    0    0  0.44828256355E+02  0.13202353175E+02  0.20338782062E+03  0.20868754500E+03  0.10566000000E+00 0. -1.
        994    1    1    2    0    0 -0.36426957569E+02 -0.26174059434E+02  0.11589264022E+02  0.17735770540E+03  0.17120000000E+03 0.  0.
        998    1    1    2    0    0 -0.84012987855E+01  0.12971706260E+02  0.12850229116E+04  0.12851547496E+04  0.10000000000E+02 0. -1.
</event>
<event>
 5    1  0.1675361E-008  0.3692128E+03  0.7957747E-01  0.3499516E+00
         13   -1    0    0    0    0  0.00000000000E+00  0.00000000000E+00  0.14999999963E+04  0.15000000000E+04  0.10566000000E+00 0.  1.
        994   -1    0    0    0    0 -0.00000000000E+00 -0.00000000000E+00  0.11368683772E-12  0.17120000000E+03  0.17120000000E+03 0.  0.
         13    1    1    2    0    0  0.41842426950E+02  0.80193561496E+02  0.30617802250E+03  0.31925975102E+03  0.10566000000E+00 0.  1.
        994    1    1    2    0    0 -0.48224235266E+02 -0.89658540994E+02  0.46526409747E+02  0.20454431707E+03  0.17120000000E+03 0.  0.
        998    1    1    2    0    0  0.63818083156E+01  0.94649794981E+01  0.11472955640E+04  0.11473959319E+04  0.10000000000E+02 0.  1.
</event>
<event>
 5    1  0.1675361E-008  0.3802415E+03  0.7957747E-01  0.3450108E+00
         13   -1    0    0    0    0  0.00000000000E+00  0.00000000000E+00  0.14999999963E+04  0.15000000000E+04  0.10566000000E+00 0.  1.
        994   -1    0    0    0    0 -0.00000000000E+00 -0.00000000000E+00  0.11368683772E-12  0.17120000000E+03  0.17120000000E+03 0.  0.
         13    1    1    2    0    0  0.10577738160E+02 -0.66345701462E+01  0.17394201133E+02  0.21412040134E+02  0.10566000000E+00 0.  1.
        994    1    1    2    0    0 -0.14418253804E+02  0.79797583450E+01  0.49188855858E+01  0.17206161112E+03  0.17120000000E+03 0.  0.
        998    1    1    2    0    0  0.38405156437E+01 -0.13451881988E+01  0.14776869096E+04  0.14777263487E+04  0.10000000000E+02 0.  1.
</event>
<event>
 5    1  0.1675361E-008  0.3760323E+03  0.7957747E-01  0.3468619E+00
         13   -1    0    0    0    0  0.00000000000E+00  0.00000000000E+00  0.14999999963E+04  0.15000000000E+04  0.10566000000E+00 0. -1.
        994   -1    0    0    0    0 -0.00000000000E+00 -0.00000000000E+00  0.11368683772E-12  0.17120000000E+03  0.17120000000E+03 0.  0.
         13    1    1    2    0    0  0.67906262323E+02 -0.36792522626E+02  0.41728343470E+03  0.42437062366E+03  0.10566000000E+00 0. -1.
        994    1    1    2    0    0 -0.52468197464E+02  0.28217223402E+02  0.18268143020E+02  0.18218750915E+03  0.17120000000E+03 0.  0.
        998    1    1    2    0    0 -0.15438064859E+02  0.85752992234E+01  0.10644484186E+04  0.10646418672E+04  0.10000000000E+02 0. -1.
</event>
<event>
 5    1  0.1675361E-008  0.3859173E+03  0.7957747E-01  0.3425791E+00
         13   -1    0    0    0    0  0.00000000000E+00  0.00000000000E+00  0.14999999963E+04  0.15000000000E+04  0.10566000000E+00 0.  1.
        994   -1    0    0    0    0 -0.00000000000E+00 -0.00000000000E+00  0.11368683772E-12  0.17120000000E+03  0.17120000000E+03 0.  0.
         13    1    1    2    0    0  0.10704799214E+02 -0.57177734940E+00  0.52821799479E+02  0.53898732079E+02  0.10566000000E+00 0.  1.
        994    1    1    2    0    0  0.26004864984E+01 -0.19510030234E+01  0.12100605276E+01  0.17123514005E+03  0.17120000000E+03 0.  0.
        998    1    1    2    0    0 -0.13305285712E+02  0.25227803728E+01  0.14459681363E+04  0.14460661279E+04  0.10000000000E+02 0.  1.
</event>
<event>
 5    1  0.1675361E-008  0.3863005E+03  0.7957747E-01  0.3424175E+00
         13   -1    0    0    0    0  0.00000000000E+00  0.00000000000E+00  0.14999999963E+04  0.15000000000E+04  0.10566000000E+00 0. -1.
        994   -1    0    0    0    0 -0.00000000000E+00 -0.00000000000E+00  0.11368683772E-12  0.17120000000E+03  0.17120000000E+03 0.  0.
         13    1    1    2    0    0  0.15614464546E+02  0.54072898707E+01  0.93155721812E+02  0.94609988675E+02  0.10566000000E+00 0. -1.
        994    1    1    2    0    0 -0.60465204031E+02 -0.78616481517E+00  0.13053532448E+02  0.18203432001E+03  0.17120000000E+03 0.  0.
        998    1    1    2    0    0  0.44850739486E+02 -0.46211250555E+01  0.13937907420E+04  0.13945556913E+04  0.10000000000E+02 0. -1.
</event>
<event>
 5    1  0.1675361E-008  0.3853958E+03  0.7957747E-01  0.3427995E+00
         13   -1    0    0    0    0  0.00000000000E+00  0.00000000000E+00  0.14999999963E+04  0.15000000000E+04  0.10566000000E+00 0. -1.
        994   -1    0    0    0    0 -0.00000000000E+00 -0.00000000000E+00  0.11368683772E-12  0.17120000000E+03  0.17120000000E+03 0.  0.
         13    1    1    2    0    0  0.10371895755E+02  0.23195938564E+01  0.40268825047E+02  0.41647883162E+02  0.10566000000E+00 0. -1.
        994    1    1    2    0    0 -0.36513827007E+01  0.97836281809E+00  0.14806870724E+01  0.17124813057E+03  0.17120000000E+03 0.  0.
        998    1    1    2    0    0 -0.67205130541E+01 -0.32979566745E+01  0.14582504842E+04  0.14583039863E+04  0.10000000000E+02 0. -1.
</event>
<event>
 5    1  0.1675361E-008  0.3801937E+03  0.7957747E-01  0.3450315E+00
         13   -1    0    0    0    0  0.00000000000E+00  0.00000000000E+00  0.14999999963E+04  0.15000000000E+04  0.10566000000E+00 0.  1.
        994   -1    0    0    0    0 -0.00000000000E+00 -0.00000000000E+00  0.11368683772E-12  0.17120000000E+03  0.17120000000E+03 0.  0.
         13    1    1    2    0    0 -0.54051074564E+01  0.23324929425E+02  0.65786698241E+02  0.70008344851E+02  0.10566000000E+00 0.  1.
        994    1    1    2    0    0 -0.10180228441E+01 -0.29368710437E+02  0.69256970571E+01  0.17384177520E+03  0.17120000000E+03 0.  0.
        998    1    1    2    0    0  0.64231303005E+01  0.60437810129E+01  0.14272876010E+04  0.14273498800E+04  0.10000000000E+02 0.  1.
</event>
<event>
 5    1  0.1675361E-008  0.3858816E+03  0.7957747E-01  0.3425942E+00
         13   -1    0    0    0    0  0.00000000000E+00  0.00000000000E+00  0.14999999963E+04  0.15000000000E+04  0.10566000000E+00 0. -1.
        994   -1    0    0    0    0 -0.00000000000E+00 -0.00000000000E+00  0.11368683772E-12  0.17120000000E+03  0.17120000000E+03 0.  0.
         13    1    1    2    0    0  0.52786810981E+01  0.86096250758E+01  0.41622311621E+02  0.42830107481E+02  0.10566000000E+00 0. -1.
        994    1    1    2    0    0 -0.42083932059E+01 -0.12554399251E+02  0.17682363769E+01  0.17172038369E+03  0.17120000000E+03 0.  0.
        998    1    1    2    0    0 -0.10702878923E+01  0.39447741755E+01  0.14566094483E+04  0.14566495088E+04  0.10000000000E+02 0. -1.
</event>
<event>
 5    1  0.1675361E-008  0.3926911E+03  0.7957747E-01  0.3397694E+00
         13   -1    0    0    0    0  0.00000000000E+00  0.00000000000E+00  0.14999999963E+04  0.15000000000E+04  0.10566000000E+00 0.  1.
        994   -1    0    0    0    0 -0.00000000000E+00 -0.00000000000E+00  0.11368683772E-12  0.17120000000E+03  0.17120000000E+03 0.  0.
         13    1    1    2    0    0  0.47827790840E+02 -0.60134047699E+02  0.11222180465E+03  0.13600494797E+03  0.10566000000E+00 0.  1.
        994    1    1    2    0    0 -0.48791539355E+02  0.51127887488E+02  0.42729555277E+02  0.19007874707E+03  0.17120000000E+03 0.  0.
        998    1    1    2    0    0  0.96374851550E+00  0.90061602112E+01  0.13450486364E+04  0.13451163050E+04  0.10000000000E+02 0.  1.
</event>
<event>
 5    1  0.1675361E-008  0.3695676E+03  0.7957747E-01  0.3497881E+00
         13   -1    0    0    0    0  0.00000000000E+00  0.00000000000E+00  0.14999999963E+04  0.15000000000E+04  0.10566000000E+00 0.  1.
        994   -1    0    0    0    0 -0.00000000000E+00 -0.00000000000E+00  0.11368683772E-12  0.17120000000E+03  0.17120000000E+03 0.  0.
         13    1    1    2    0    0  0.12724438059E+02  0.30880659097E+02  0.57353358595E+02  0.66369762214E+02  0.10566000000E+00 0.  1.
        994    1    1    2    0    0 -0.24508526512E+02  0.58241580616E+00  0.11579229373E+02  0.17333356753E+03  0.17120000000E+03 0.  0.
        998    1    1    2    0    0  0.11784088453E+02 -0.31463074903E+02  0.14310674083E+04  0.14314966703E+04  0.10000000000E+02 0.  1.
</event>
<event>
 5    1  0.1675361E-008  0.3854696E+03  0.7957747E-01  0.3427683E+00
         13   -1    0    0    0    0  0.00000000000E+00  0.00000000000E+00  0.14999999963E+04  0.15000000000E+04  0.10566000000E+00 0. -1.
        994   -1    0    0    0    0 -0.00000000000E+00 -0.00000000000E+00  0.11368683772E-12  0.17120000000E+03  0.17120000000E+03 0.  0.
         13    1    1    2    0    0 -0.74402658296E+01 -0.72899435269E+01  0.39611237415E+02  0.40958053247E+02  0.10566000000E+00 0. -1.
        994    1    1    2    0    0  0.35301580178E+00  0.50350353423E+01  0.14808306966E+01  0.17128079011E+03  0.17120000000E+03 0.  0.
        998    1    1    2    0    0  0.70872500278E+01  0.22549081845E+01  0.14589079282E+04  0.14589611566E+04  0.10000000000E+02 0. -1.
</event>
<event>
 5    1  0.1675361E-008  0.3594035E+03  0.7957747E-01  0.3546055E+00
         13   -1    0    0    0    0  0.00000000000E+00  0.00000000000E+00  0.14999999963E+04  0.15000000000E+04  0.10566000000E+00 0. -1.
        994   -1    0    0    0    0 -0.00000000000E+00 -0.00000000000E+00  0.11368683772E-12  0.17120000000E+03  0.17120000000E+03 0.  0.
         13    1    1    2    0    0 -0.22471490730E+03 -0.87951003506E+02  0.10713836484E+04  0.10982236120E+04  0.10566000000E+00 0. -1.
        994    1    1    2    0    0  0.19352525023E+03  0.10517445165E+03  0.20467623514E+03  0.34599926154E+03  0.17120000000E+03 0.  0.
        998    1    1    2    0    0  0.31189657073E+02 -0.17223448149E+02  0.22394011270E+03  0.22697712649E+03  0.10000000000E+02 0.  1.
</event>
<event>
 5    1  0.1675361E-008  0.3826732E+03  0.7957747E-01  0.3439601E+00
         13   -1    0    0    0    0  0.00000000000E+00  0.00000000000E+00  0.14999999963E+04  0.15000000000E+04  0.10566000000E+00 0.  1.
        994   -1    0    0    0    0 -0.00000000000E+00 -0.00000000000E+00  0.11368683772E-12  0.17120000000E+03  0.17120000000E+03 0.  0.
         13    1    1    2    0    0 -0.13700362994E+02  0.52600590375E+01  0.37191386725E+02  0.39982228275E+02  0.10566000000E+00 0.  1.
        994    1    1    2    0    0  0.92345861120E+01 -0.12725260950E+02  0.36093913224E+01  0.17195835994E+03  0.17120000000E+03 0.  0.
        998    1    1    2    0    0  0.44657768820E+01  0.74652019125E+01  0.14591992182E+04  0.14592594118E+04  0.10000000000E+02 0.  1.
</event>
<event>
 5    1  0.1675361E-008  0.3737659E+03  0.7957747E-01  0.3478761E+00
         13   -1    0    0    0    0  0.00000000000E+00  0.00000000000E+00  0.14999999963E+04  0.15000000000E+04  0.10566000000E+00 0.  1.
        994   -1    0    0    0    0 -0.00000000000E+00 -0.00000000000E+00  0.11368683772E-12  0.17120000000E+03  0.17120000000E+03 0.  0.
         13    1    1    2    0    0 -0.15482210960E+03  0.53497369264E+01  0.64666051605E+03  0.66495739675E+03  0.10566000000E+00 0.  1.
        994    1    1    2    0    0  0.18433004845E+03  0.51378012467E+02  0.14484776044E+03  0.29480091694E+03  0.17120000000E+03 0.  0.
        998    1    1    2    0    0 -0.29507938850E+02 -0.56727749393E+02  0.70849171979E+03  0.71144168631E+03  0.10000000000E+02 0.  1.
</event>
<event>
 5    1  0.1675361E-008  0.3688821E+03  0.7957747E-01  0.3501044E+00
         13   -1    0    0    0    0  0.00000000000E+00  0.00000000000E+00  0.14999999963E+04  0.15000000000E+04  0.10566000000E+00 0.  1.
        994   -1    0    0    0    0 -0.00000000000E+00 -0.00000000000E+00  0.11368683772E-12  0.17120000000E+03  0.17120000000E+03 0.  0.
         13    1    1    2    0    0  0.22133416729E+02  0.26672547162E+01  0.19794779139E+02  0.29813534326E+02  0.10566000000E+00 0.  1.
        994    1    1    2    0    0 -0.10937996004E+02 -0.94964074098E+01  0.11079909370E+02  0.17216859732E+03  0.17120000000E+03 0.  0.
        998    1    1    2    0    0 -0.11195420724E+02  0.68291526936E+01  0.14691253078E+04  0.14692178684E+04  0.10000000000E+02 0.  1.
</event>
<event>
 5    1  0.1675361E-008  0.3845771E+03  0.7957747E-01  0.3431468E+00
         13   -1    0    0    0    0  0.00000000000E+00  0.00000000000E+00  0.14999999963E+04  0.15000000000E+04  0.10566000000E+00 0.  1.
        994   -1    0    0    0    0 -0.00000000000E+00 -0.00000000000E+00  0.11368683772E-12  0.17120000000E+03  0.17120000000E+03 0.  0.
         13    1    1    2    0    0 -0.95999757306E+01 -0.30821407906E+01  0.27038895240E+02  0.28857791768E+02  0.10566000000E+00 0.  1.
        994    1    1    2    0    0  0.88478423356E+01 -0.22080580933E+00  0.20982512312E+01  0.17144146443E+03  0.17120000000E+03 0.  0.
        998    1    1    2    0    0  0.75213339500E+00  0.33029465999E+01  0.14708628498E+04  0.14709007438E+04  0.10000000000E+02 0.  1.
</event>
<event>
 5    1  0.1675361E-008  0.3824366E+03  0.7957747E-01  0.3440617E+00
         13   -1    0    0    0    0  0.00000000000E+00  0.00000000000E+00  0.14999999963E+04  0.15000000000E+04  0.10566000000E+00 0. -1.
        994   -1    0    0    0    0 -0.00000000000E+00 -0.00000000000E+00  0.11368683772E-12  0.17120000000E+03  0.17120000000E+03 0.  0.
         13    1    1    2    0    0 -0.11815106705E+02 -0.13849457474E+02  0.54698215440E+02  0.57648158298E+02  0.10566000000E+00 0. -1.
        994    1    1    2    0    0  0.12264332286E+02  0.12244464605E+02  0.39048180231E+01  0.17211922718E+03  0.17120000000E+03 0.  0.
        998    1    1    2    0    0 -0.44922558182E+00  0.16049928686E+01  0.14413969628E+04  0.14414326145E+04  0.10000000000E+02 0. -1.
</event>
<event>
 5    1  0.1675361E-008  0.3830951E+03  0.7957747E-01  0.3437792E+00
         13   -1    0    0    0    0  0.00000000000E+00  0.00000000000E+00  0.14999999963E+04  0.15000000000E+04  0.10566000000E+00 0. -1.
        994   -1    0    0    0    0 -0.00000000000E+00 -0.00000000000E+00  0.11368683772E-12  0.17120000000E+03  0.17120000000E+03 0.  0.
         13    1    1    2    0    0  0.11921684700E+03  0.85393100339E+02  0.85314296705E+03  0.86565441811E+03  0.10566000000E+00 0. -1.
        994    1    1    2    0    0 -0.15509631894E+03 -0.82487831455E+02  0.11245969842E+03  0.26984390720E+03  0.17120000000E+03 0.  0.
        998    1    1    2    0    0  0.35879471935E+02 -0.29052688842E+01  0.53439733080E+03  0.53570167469E+03  0.10000000000E+02 0. -1.
</event>
<event>
 5    1  0.1675361E-008  0.3791681E+03  0.7957747E-01  0.3454789E+00
         13   -1    0    0    0    0  0.00000000000E+00  0.00000000000E+00  0.14999999963E+04  0.15000000000E+04  0.10566000000E+00 0.  1.
        994   -1    0    0    0    0 -0.00000000000E+00 -0.00000000000E+00  0.11368683772E-12  0.17120000000E+03  0.17120000000E+03 0.  0.
         13    1    1    2    0    0  0.11541511228E+03  0.13159008434E+02  0.34610090432E+03  0.36507486189E+03  0.10566000000E+00 0.  1.
        994    1    1    2    0    0 -0.10247991481E+03 -0.36118785557E+01  0.54916304203E+02  0.20697927209E+03  0.17120000000E+03 0.  0.
        998    1    1    2    0    0 -0.12935197466E+02 -0.95471298783E+01  0.10989827878E+04  0.10991458660E+04  0.10000000000E+02 0.  1.
</event>
<event>
 5    1  0.1675361E-008  0.3836917E+03  0.7957747E-01  0.3435240E+00
         13   -1    0    0    0    0  0.00000000000E+00  0.00000000000E+00  0.14999999963E+04  0.15000000000E+04  0.10566000000E+00 0. -1.
        994   -1    0    0    0    0 -0.00000000000E+00 -0.00000000000E+00  0.11368683772E-12  0.17120000000E+03  0.17120000000E+03 0.  0.
         13    1    1    2    0    0 -0.14010205346E+02 -0.28960969798E+01  0.44799165055E+02  0.47028178629E+02  0.10566000000E+00 0. -1.
        994    1    1    2    0    0  0.67119286098E+01  0.17783948013E+01  0.24403157278E+01  0.17135812737E+03  0.17120000000E+03 0.  0.
        998    1    1    2    0    0  0.72982767361E+01  0.11177021785E+01  0.14527605155E+04  0.14528136940E+04  0.10000000000E+02 0. -1.
</event>
<event>
 5    1  0.1675361E-008  0.3772363E+03  0.7957747E-01  0.3463281E+00
         13   -1    0    0    0    0  0.00000000000E+00  0.00000000000E+00  0.14999999963E+04  0.15000000000E+04  0.10566000000E+00 0.  1.
        994   -1    0    0    0    0 -0.00000000000E+00 -0.00000000000E+00  0.11368683772E-12  0.17120000000E+03  0.17120000000E+03 0.  0.
         13    1    1    2    0    0  0.18926297230E+02 -0.29294663991E+01  0.30903516525E+02  0.36356911280E+02  0.10566000000E+00 0.  1.
        994    1    1    2    0    0 -0.14339405400E+02 -0.95549997632E+01  0.65371656571E+01  0.17218911436E+03  0.17120000000E+03 0.  0.
        998    1    1    2    0    0 -0.45868918294E+01  0.12484466162E+02  0.14625593141E+04  0.14626539744E+04  0.10000000000E+02 0.  1.
</event>
<event>
 5    1  0.1675361E-008  0.3798872E+03  0.7957747E-01  0.3451650E+00
         13   -1    0    0    0    0  0.00000000000E+00  0.00000000000E+00  0.14999999963E+04  0.15000000000E+04  0.10566000000E+00 0. -1.
        994   -1    0    0    0    0 -0.00000000000E+00 -0.00000000000E+00  0.11368683772E-12  0.17120000000E+03  0.17120000000E+03 0.  0.
         13    1    1    2    0    0  0.22594281801E+02  0.10053568668E+03  0.38903292299E+03  0.40244819815E+03  0.10566000000E+00 0. -1.
        994    1    1    2    0    0 -0.72675256867E+02 -0.20087605561E+02  0.37158223551E+02  0.19072330334E+03  0.17120000000E+03 0.  0.
        998    1    1    2    0    0  0.50080975066E+02 -0.80448081115E+02  0.10738088497E+04  0.10780284985E+04  0.10000000000E+02 0. -1.
</event>
<event>
 5    1  0.1675361E-008  0.3827379E+03  0.7957747E-01  0.3439323E+00
         13   -1    0    0    0    0  0.00000000000E+00  0.00000000000E+00  0.14999999963E+04  0.15000000000E+04  0.10566000000E+00 0.  1.
        994   -1    0    0    0    0 -0.00000000000E+00 -0.00000000000E+00  0.11368683772E-12  0.17120000000E+03  0.17120000000E+03 0.  0.
         13    1    1    2    0    0  0.28236175671E+01  0.10409661054E+02  0.19874158792E+02  0.22612545437E+02  0.10566000000E+00 0.  1.
        994    1    1    2    0    0 -0.59249111071E+01 -0.92195393538E+01  0.31554017094E+01  0.17157943069E+03  0.17120000000E+03 0.  0.
        998    1    1    2    0    0  0.31012935400E+01 -0.11901217000E+01  0.14769704358E+04  0.14770080239E+04  0.10000000000E+02 0.  1.
</event>
<event>
 5    1  0.1675361E-008  0.3818684E+03  0.7957747E-01  0.3443063E+00
         13   -1    0    0    0    0  0.00000000000E+00  0.00000000000E+00  0.14999999963E+04  0.15000000000E+04  0.10566000000E+00 0. -1.
        994   -1    0    0    0    0 -0.00000000000E+00 -0.00000000000E+00  0.11368683772E-12  0.17120000000E+03  0.17120000000E+03 0.  0.
         13    1    1    2    0    0  0.22086324570E+02 -0.22227711450E+02  0.12652082818E+03  0.13034342337E+03  0.10566000000E+00 0. -1.
        994    1    1    2    0    0 -0.13809213012E+02  0.56034406779E+02  0.14338439940E+02  0.18123349571E+03  0.17120000000E+03 0.  0.
        998    1    1    2    0    0 -0.82771115576E+01 -0.33806695329E+02  0.13591407282E+04  0.13596230809E+04  0.10000000000E+02 0. -1.
</event>
<event>
 5    1  0.1675361E-008  0.3808780E+03  0.7957747E-01  0.3447344E+00
         13   -1    0    0    0    0  0.00000000000E+00  0.00000000000E+00  0.14999999963E+04  0.15000000000E+04  0.10566000000E+00 0. -1.
        994   -1    0    0    0    0 -0.00000000000E+00 -0.00000000000E+00  0.11368683772E-12  0.17120000000E+03  0.17120000000E+03 0.  0.
         13    1    1    2    0    0 -0.71351713603E+01  0.40942942050E+02  0.17714952651E+03  0.18195933909E+03  0.10566000000E+00 0. -1.
        994    1    1    2    0    0  0.36515301796E+02 -0.58716517399E+02  0.19794515500E+02  0.18569399431E+03  0.17120000000E+03 0.  0.
        998    1    1    2    0    0 -0.29380130436E+02  0.17773575349E+02  0.13030559543E+04  0.13035466666E+04  0.10000000000E+02 0. -1.
</event>
<event>
 5    1  0.1675361E-008  0.3800026E+03  0.7957747E-01  0.3451147E+00
         13   -1    0    0    0    0  0.00000000000E+00  0.00000000000E+00  0.14999999963E+04  0.15000000000E+04  0.10566000000E+00 0.  1.
        994   -1    0    0    0    0 -0.00000000000E+00 -0.00000000000E+00  0.11368683772E-12  0.17120000000E+03  0.17120000000E+03 0.  0.
         13    1    1    2    0    0  0.17444690100E+02  0.33621507184E+02  0.16483721225E+03  0.16913320391E+03  0.10566000000E+00 0.  1.
        994    1    1    2    0    0 -0.40210487700E+02 -0.12744810047E+02  0.10102927846E+02  0.17660923717E+03  0.17120000000E+03 0.  0.
        998    1    1    2    0    0  0.22765797600E+02 -0.20876697137E+02  0.13250598562E+04  0.13254575589E+04  0.10000000000E+02 0.  1.
</event>
<event>
 5    1  0.1675361E-008  0.3798336E+03  0.7957747E-01  0.3451883E+00
         13   -1    0    0    0    0  0.00000000000E+00  0.00000000000E+00  0.14999999963E+04  0.15000000000E+04  0.10566000000E+00 0.  1.
        994   -1    0    0    0    0 -0.00000000000E+00 -0.00000000000E+00  0.11368683772E-12  0.17120000000E+03  0.17120000000E+03 0.  0.
         13    1    1    2    0    0 -0.11842728112E+01 -0.41369205794E+02  0.21566922226E+03  0.21960427657E+03  0.10566000000E+00 0.  1.
        994    1    1    2    0    0  0.50962472167E+02  0.17725024270E+02  0.14017117481E+02  0.18004796482E+03  0.17120000000E+03 0.  0.
        998    1    1    2    0    0 -0.49778199356E+02  0.23644181524E+02  0.12703136565E+04  0.12715477586E+04  0.10000000000E+02 0.  1.
</event>
<event>
 5    1  0.1675361E-008  0.3834427E+03  0.7957747E-01  0.3436304E+00
         13   -1    0    0    0    0  0.00000000000E+00  0.00000000000E+00  0.14999999963E+04  0.15000000000E+04  0.10566000000E+00 0.  1.
        994   -1    0    0    0    0 -0.00000000000E+00 -0.00000000000E+00  0.11368683772E-12  0.17120000000E+03  0.17120000000E+03 0.  0.
         13    1    1    2    0    0  0.73947946879E+01 -0.26601656757E+02  0.16545373941E+03  0.16774171270E+03  0.10566000000E+00 0.  1.
        994    1    1    2    0    0 -0.61453223651E+01  0.97150383294E+01  0.28422059585E+01  0.17160904723E+03  0.17120000000E+03 0.  0.
        998    1    1    2    0    0 -0.12494723228E+01  0.16886618428E+02  0.13317040509E+04  0.13318492401E+04  0.10000000000E+02 0.  1.
</event>
<event>
 5    1  0.1675361E-008  0.3826494E+03  0.7957747E-01  0.3439703E+00
         13   -1    0    0    0    0  0.00000000000E+00  0.00000000000E+00  0.14999999963E+04  0.15000000000E+04  0.10566000000E+00 0.  1.
        994   -1    0    0    0    0 -0.00000000000E+00 -0.00000000000E+00  0.11368683772E-12  0.17120000000E+03  0.17120000000E+03 0.  0.
         13    1    1    2    0    0 -0.10916916940E+03  0.90732398663E+02  0.42123775030E+03  0.44451268728E+03  0.10566000000E+00 0.  1.
        994    1    1    2    0    0  0.95891649987E+02 -0.86597122306E+02  0.81762510531E+02  0.22954045015E+03  0.17120000000E+03 0.  0.
        998    1    1    2    0    0  0.13277519415E+02 -0.41352763573E+01  0.99699973545E+03  0.99714686257E+03  0.10000000000E+02 0.  1.
</event>
<event>
 5    1  0.1675361E-008  0.3787307E+03  0.7957747E-01  0.3456704E+00
         13   -1    0    0    0    0  0.00000000000E+00  0.00000000000E+00  0.14999999963E+04  0.15000000000E+04  0.10566000000E+00 0.  1.
        994   -1    0    0    0    0 -0.00000000000E+00 -0.00000000000E+00  0.11368683772E-12  0.17120000000E+03  0.17120000000E+03 0.  0.
         13    1    1    2    0    0  0.11012036782E+02  0.15588938014E+02  0.36111421188E+02  0.40845144715E+02  0.10566000000E+00 0.  1.
        994    1    1    2    0    0 -0.10574179334E+02 -0.97429900841E+01  0.54695613832E+01  0.17188977639E+03  0.17120000000E+03 0.  0.
        998    1    1    2    0    0 -0.43785744827E+00 -0.58459479296E+01  0.14584190137E+04  0.14584650789E+04  0.10000000000E+02 0.  1.
</event>
<event>
 5    1  0.1675361E-008  0.3848578E+03  0.7957747E-01  0.3430275E+00
         13   -1    0    0    0    0  0.00000000000E+00  0.00000000000E+00  0.14999999963E+04  0.15000000000E+04  0.10566000000E+00 0.  1.
        994   -1    0    0    0    0 -0.00000000000E+00 -0.00000000000E+00  0.11368683772E-12  0.17120000000E+03  0.17120000000E+03 0.  0.
         13    1    1    2    0    0  0.14719652824E+02  0.31418978750E+01  0.82734500794E+02  0.84092499589E+02  0.10566000000E+00 0.  1.
        994    1    1    2    0    0  0.18056943028E+02  0.10717508373E+02  0.31527716234E+01  0.17251173336E+03  0.17120000000E+03 0.  0.
        998    1    1    2    0    0 -0.32776595852E+02 -0.13859406248E+02  0.14141127239E+04  0.14145957671E+04  0.10000000000E+02 0.  1.
</event>
<event>
 5    1  0.1675361E-008  0.3827181E+03  0.7957747E-01  0.3439408E+00
         13   -1    0    0    0    0  0.00000000000E+00  0.00000000000E+00  0.14999999963E+04  0.15000000000E+04  0.10566000000E+00 0. -1.
        994   -1    0    0    0    0 -0.00000000000E+00 -0.00000000000E+00  0.11368683772E-12  0.17120000000E+03  0.17120000000E+03 0.  0.
         13    1    1    2    0    0 -0.14266750187E+02  0.50066248131E+01  0.39881029349E+02  0.42651074065E+02  0.10566000000E+00 0. -1.
        994    1    1    2    0    0  0.97868462799E+01 -0.12497213879E+02  0.36025549929E+01  0.17197203586E+03  0.17120000000E+03 0.  0.
        998    1    1    2    0    0  0.44799039075E+01  0.74905890664E+01  0.14565164119E+04  0.14565768901E+04  0.10000000000E+02 0. -1.
</event>
<event>
 5    1  0.1675361E-008  0.3767610E+03  0.7957747E-01  0.3465384E+00
         13   -1    0    0    0    0  0.00000000000E+00  0.00000000000E+00  0.14999999963E+04  0.15000000000E+04  0.10566000000E+00 0. -1.
        994   -1    0    0    0    0 -0.00000000000E+00 -0.00000000000E+00  0.11368683772E-12  0.17120000000E+03  0.17120000000E+03 0.  0.
         13    1    1    2    0    0  0.41744228751E+02 -0.12903518932E+02  0.12676537738E+03  0.13408412844E+03  0.10566000000E+00 0. -1.
        994    1    1    2    0    0 -0.69927022099E+02  0.35724606457E+02  0.26905530260E+02  0.19026135573E+03  0.17120000000E+03 0.  0.
        998    1    1    2    0    0  0.28182793348E+02 -0.22821087525E+02  0.13463290886E+04  0.13468545158E+04  0.10000000000E+02 0. -1.
</event>
<event>
 5    1  0.1675361E-008  0.3811245E+03  0.7957747E-01  0.3446277E+00
         13   -1    0    0    0    0  0.00000000000E+00  0.00000000000E+00  0.14999999963E+04  0.15000000000E+04  0.10566000000E+00 0.  1.
        994   -1    0    0    0    0 -0.00000000000E+00 -0.00000000000E+00  0.11368683772E-12  0.17120000000E+03  0.17120000000E+03 0.  0.
         13    1    1    2    0    0 -0.16488490088E+02 -0.33510675642E+02  0.22344193838E+03  0.22654171068E+03  0.10566000000E+00 0.  1.
        994    1    1    2    0    0 -0.10661964824E+02  0.11728184243E+02  0.44037250040E+01  0.17198854786E+03  0.17120000000E+03 0.  0.
        998    1    1    2    0    0  0.27150454912E+02  0.21782491399E+02  0.12721543329E+04  0.12726697415E+04  0.10000000000E+02 0.  1.
</event>
<event>
 5    1  0.1675361E-008  0.3761641E+03  0.7957747E-01  0.3468033E+00
         13   -1    0    0    0    0  0.00000000000E+00  0.00000000000E+00  0.14999999963E+04  0.15000000000E+04  0.10566000000E+00 0. -1.
        994   -1    0    0    0    0 -0.00000000000E+00 -0.00000000000E+00  0.11368683772E-12  0.17120000000E+03  0.17120000000E+03 0.  0.
         13    1    1    2    0    0  0.43494608367E+02 -0.11046915295E+02  0.16121964267E+03  0.16734873660E+03  0.10566000000E+00 0. -1.
        994    1    1    2    0    0 -0.15786467230E+02  0.69602239577E+02  0.23528558023E+02  0.18696715579E+03  0.17120000000E+03 0.  0.
        998    1    1    2    0    0 -0.27708141137E+02 -0.58555324282E+02  0.13152517956E+04  0.13168841076E+04  0.10000000000E+02 0. -1.
</event>
<event>
 5    1  0.1675361E-008  0.3837875E+03  0.7957747E-01  0.3434831E+00
         13   -1    0    0    0    0  0.00000000000E+00  0.00000000000E+00  0.14999999963E+04  0.15000000000E+04  0.10566000000E+00 0. -1.
        994   -1    0    0    0    0 -0.00000000000E+00 -0.00000000000E+00  0.11368683772E-12  0.17120000000E+03  0.17120000000E+03 0.  0.
         13    1    1    2    0    0 -0.41948988081E+02 -0.24461730693E+02  0.66606072617E+02  0.82428599060E+02  0.10566000000E+00 0. -1.
        994    1    1    2    0    0 -0.25587808766E+02  0.51087335924E-01  0.20832900319E+02  0.17435076227E+03  0.17120000000E+03 0.  0.
        998    1    1    2    0    0  0.67536796847E+02  0.24410643357E+02  0.14125610233E+04  0.14144206387E+04  0.10000000000E+02 0. -1.
</event>
<event>
 5    1  0.1675361E-008  0.3848397E+03  0.7957747E-01  0.3430352E+00
         13   -1    0    0    0    0  0.00000000000E+00  0.00000000000E+00  0.14999999963E+04  0.15000000000E+04  0.10566000000E+00 0.  1.
        994   -1    0    0    0    0 -0.00000000000E+00 -0.00000000000E+00  0.11368683772E-12  0.17120000000E+03  0.17120000000E+03 0.  0.
         13    1    1    2    0    0 -0.58283257679E+01 -0.14018431091E+02  0.70405756744E+02  0.72024076101E+02  0.10566000000E+00 0.  1.
        994    1    1    2    0    0  0.86447559542E+00  0.29959517055E+01  0.17417564523E+01  0.17123725284E+03  0.17120000000E+03 0.  0.
        998    1    1    2    0    0  0.49638501725E+01  0.11022479386E+02  0.14278524831E+04  0.14279386711E+04  0.10000000000E+02 0.  1.
</event>
<event>
 5    1  0.1675361E-008  0.3837779E+03  0.7957747E-01  0.3434872E+00
         13   -1    0    0    0    0  0.00000000000E+00  0.00000000000E+00  0.14999999963E+04  0.15000000000E+04  0.10566000000E+00 0.  1.
        994   -1    0    0    0    0 -0.00000000000E+00 -0.00000000000E+00  0.11368683772E-12  0.17120000000E+03  0.17120000000E+03 0.  0.
         13    1    1    2    0    0 -0.63283017223E+01  0.16582667906E+02  0.99304748635E+02  0.10087852370E+03  0.10566000000E+00 0.  1.
        994    1    1    2    0    0  0.27298377939E+02  0.47448694710E+02  0.12195573892E+02  0.18015202494E+03  0.17120000000E+03 0.  0.
        998    1    1    2    0    0 -0.20970076216E+02 -0.64031362616E+02  0.13884996738E+04  0.13901694514E+04  0.10000000000E+02 0.  1.
</event>
<event>
 5    1  0.1675361E-008  0.3824687E+03  0.7957747E-01  0.3440479E+00
         13   -1    0    0    0    0  0.00000000000E+00  0.00000000000E+00  0.14999999963E+04  0.15000000000E+04  0.10566000000E+00 0.  1.
        994   -1    0    0    0    0 -0.00000000000E+00 -0.00000000000E+00  0.11368683772E-12  0.17120000000E+03  0.17120000000E+03 0.  0.
         13    1    1    2    0    0  0.86974618633E+01  0.67547595598E+01  0.20415479385E+02  0.23196456241E+02  0.10566000000E+00 0.  1.
        994    1    1    2    0    0  0.47547209917E+01 -0.35322720869E+01  0.30084768540E+01  0.17132885119E+03  0.17120000000E+03 0.  0.
        998    1    1    2    0    0 -0.13452182855E+02 -0.32224874729E+01  0.14765760400E+04  0.14766746926E+04  0.10000000000E+02 0.  1.
</event>
<event>
 5    1  0.1675361E-008  0.3690299E+03  0.7957747E-01  0.3500361E+00
         13   -1    0    0    0    0  0.00000000000E+00  0.00000000000E+00  0.14999999963E+04  0.15000000000E+04  0.10566000000E+00 0.  1.
        994   -1    0    0    0    0 -0.00000000000E+00 -0.00000000000E+00  0.11368683772E-12  0.17120000000E+03  0.17120000000E+03 0.  0.
         13    1    1    2    0    0  0.15349906873E+03  0.73058961664E+02  0.70887836495E+03  0.72897745056E+03  0.10566000000E+00 0.  1.
        994    1    1    2    0    0 -0.14641157129E+03 -0.70598383612E+02  0.10905965287E+03  0.26004601104E+03  0.17120000000E+03 0.  0.
        998    1    1    2    0    0 -0.70874974382E+01 -0.24605780523E+01  0.68206197847E+03  0.68217653839E+03  0.10000000000E+02 0.  1.
</event>
<event>
 5    1  0.1675361E-008  0.3742767E+03  0.7957747E-01  0.3476464E+00
         13   -1    0    0    0    0  0.00000000000E+00  0.00000000000E+00  0.14999999963E+04  0.15000000000E+04  0.10566000000E+00 0. -1.
        994   -1    0    0    0    0 -0.00000000000E+00 -0.00000000000E+00  0.11368683772E-12  0.17120000000E+03  0.17120000000E+03 0.  0.
         13    1    1    2    0    0 -0.85469729514E+01  0.67038753292E+02  0.39321372320E+03  0.39897905768E+03  0.10566000000E+00 0. -1.
        994    1    1    2    0    0  0.55897920246E+02 -0.14991724019E+02  0.18550577167E+02  0.18166698432E+03  0.17120000000E+03 0.  0.
        998    1    1    2    0    0 -0.47350947295E+02 -0.52047029274E+02  0.10882356959E+04  0.10905539580E+04  0.10000000000E+02 0. -1.
</event>
<event>
 5    1  0.1675361E-008  0.3768428E+03  0.7957747E-01  0.3465022E+00
         13   -1    0    0    0    0  0.00000000000E+00  0.00000000000E+00  0.14999999963E+04  0.15000000000E+04  0.10566000000E+00 0.  1.
        994   -1    0    0    0    0 -0.00000000000E+00 -0.00000000000E+00  0.11368683772E-12  0.17120000000E+03  0.17120000000E+03 0.  0.
         13    1    1    2    0    0  0.36718701517E+01  0.55420998911E+02  0.30726565170E+03  0.31224535486E+03  0.10566000000E+00 0.  1.
        994    1    1    2    0    0  0.61622812545E+02 -0.26134413530E+02  0.21024020756E+02  0.18501845326E+03  0.17120000000E+03 0.  0.
        998    1    1    2    0    0 -0.65294682696E+02 -0.29286585381E+02  0.11717103238E+04  0.11739361919E+04  0.10000000000E+02 0.  1.
</event>
<event>
 5    1  0.1893296E-008  0.3853191E+03  0.7957747E-01  0.3428320E+00
         13   -1    0    0    0    0  0.00000000000E+00  0.00000000000E+00  0.14999999963E+04  0.15000000000E+04  0.10566000000E+00 0.  1.
        994   -1    0    0    0    0 -0.00000000000E+00 -0.00000000000E+00  0.11368683772E-12  0.17120000000E+03  0.17120000000E+03 0.  0.
         13    1    1    2    0    0  0.36609990486E+01  0.11284663752E+02  0.46702860708E+02  0.48186252317E+02  0.10566000000E+00 0.  1.
        994    1    1    2    0    0 -0.52117790631E+01 -0.11442012125E+02  0.19912935622E+01  0.17167261731E+03  0.17120000000E+03 0.  0.
        998    1    1    2    0    0  0.15507800145E+01  0.15734837381E+00  0.14513058420E+04  0.14513411304E+04  0.10000000000E+02 0.  1.
</event>
<event>
 5    1  0.1675361E-008  0.3694297E+03  0.7957747E-01  0.3498516E+00
         13   -1    0    0    0    0  0.00000000000E+00  0.00000000000E+00  0.14999999963E+04  0.15000000000E+04  0.10566000000E+00 0. -1.
        994   -1    0    0    0    0 -0.00000000000E+00 -0.00000000000E+00  0.11368683772E-12  0.17120000000E+03  0.17120000000E+03 0.  0.
         13    1    1    2    0    0  0.10247737307E+02  0.15715563470E+02  0.12588104207E+02  0.22593507622E+02  0.10566000000E+00 0. -1.
        994    1    1    2    0    0  0.14555958991E+01  0.13362430062E+02  0.11268168440E+02  0.17209615021E+03  0.17120000000E+03 0.  0.
        998    1    1    2    0    0 -0.11703333206E+02 -0.29077993532E+02  0.14761437236E+04  0.14765103422E+04  0.10000000000E+02 0. -1.
</event>
<event>
 5    1  0.1675361E-008  0.3702179E+03  0.7957747E-01  0.3494890E+00
         13   -1    0    0    0    0  0.00000000000E+00  0.00000000000E+00  0.14999999963E+04  0.15000000000E+04  0.10566000000E+00 0. -1.
        994   -1    0    0    0    0 -0.00000000000E+00 -0.00000000000E+00  0.11368683772E-12  0.17120000000E+03  0.17120000000E+03 0.  0.
         13    1    1    2    0    0  0.46007432329E+01 -0.51356742411E+02  0.22069575201E+03  0.22663915802E+03  0.10566000000E+00 0. -1.
        994    1    1    2    0    0  0.13774884768E+02 -0.42997716041E+02  0.16231617404E+02  0.17779610918E+03  0.17120000000E+03 0.  0.
        998    1    1    2    0    0 -0.18375628001E+02  0.94354458451E+02  0.12630726269E+04  0.12667647328E+04  0.10000000000E+02 0. -1.
</event>
<event>
 5    1  0.1675361E-008  0.3826687E+03  0.7957747E-01  0.3439620E+00
         13   -1    0    0    0    0  0.00000000000E+00  0.00000000000E+00  0.14999999963E+04  0.15000000000E+04  0.10566000000E+00 0. -1.
        994   -1    0    0    0    0 -0.00000000000E+00 -0.00000000000E+00  0.11368683772E-12  0.17120000000E+03  0.17120000000E+03 0.  0.
         13    1    1    2    0    0 -0.91851471039E+01  0.30674971370E+02  0.16299043968E+03  0.16610603657E+03  0.10566000000E+00 0. -1.
        994    1    1    2    0    0 -0.73956237909E+01 -0.37860623747E+02  0.77389268274E+01  0.17566289611E+03  0.17120000000E+03 0.  0.
        998    1    1    2    0    0  0.16580770895E+02  0.71856523776E+01  0.13292706298E+04  0.13294310673E+04  0.10000000000E+02 0. -1.
</event>
<event>
 5    1  0.1675361E-008  0.3855835E+03  0.7957747E-01  0.3427201E+00
         13   -1    0    0    0    0  0.00000000000E+00  0.00000000000E+00  0.14999999963E+04  0.15000000000E+04  0.10566000000E+00 0.  1.
        994   -1    0    0    0    0 -0.00000000000E+00 -0.00000000000E+00  0.11368683772E-12  0.17120000000E+03  0.17120000000E+03 0.  0.
         13    1    1    2    0    0 -0.16081504692E+02 -0.88611188270E+01  0.10648565683E+03  0.10805711681E+03  0.10566000000E+00 0.  1.
        994    1    1    2    0    0  0.25419327961E+02  0.19180382687E+02  0.46763126073E+01  0.17419913092E+03  0.17120000000E+03 0.  0.
        998    1    1    2    0    0 -0.93378232692E+01 -0.10319263860E+02  0.13888380268E+04  0.13889437523E+04  0.10000000000E+02 0.  1.
</event>
<event>
 5    1  0.1675361E-008  0.3810303E+03  0.7957747E-01  0.3446685E+00
         13   -1    0    0    0    0  0.00000000000E+00  0.00000000000E+00  0.14999999963E+04  0.15000000000E+04  0.10566000000E+00 0.  1.
        994   -1    0    0    0    0 -0.00000000000E+00 -0.00000000000E+00  0.11368683772E-12  0.17120000000E+03  0.17120000000E+03 0.  0.
         13    1    1    2    0    0 -0.11572377392E+03 -0.39607136456E+02  0.36100584242E+03  0.38116393656E+03  0.10566000000E+00 0.  1.
        994    1    1    2    0    0  0.11734968742E+03 -0.11886583438E+02  0.69430282898E+02  0.21918541052E+03  0.17120000000E+03 0.  0.
        998    1    1    2    0    0 -0.16259134949E+01  0.51493719893E+02  0.10695638710E+04  0.10708506529E+04  0.10000000000E+02 0.  1.
</event>
<event>
 5    1  0.1675361E-008  0.3787969E+03  0.7957747E-01  0.3456414E+00
         13   -1    0    0    0    0  0.00000000000E+00  0.00000000000E+00  0.14999999963E+04  0.15000000000E+04  0.10566000000E+00 0.  1.
        994   -1    0    0    0    0 -0.00000000000E+00 -0.00000000000E+00  0.11368683772E-12  0.17120000000E+03  0.17120000000E+03 0.  0.
         13    1    1    2    0    0  0.23136440403E+00  0.16378429066E+02  0.26697072964E+02  0.31321739048E+02  0.10566000000E+00 0.  1.
        994    1    1    2    0    0 -0.54048327823E+01 -0.65380462957E+01  0.49832523377E+01  0.17148245120E+03  0.17120000000E+03 0.  0.
        998    1    1    2    0    0  0.51734683783E+01 -0.98403827701E+01  0.14683196710E+04  0.14683958097E+04  0.10000000000E+02 0.  1.
</event>
<event>
 5    1  0.1767911E-008  0.3857158E+03  0.7957747E-01  0.3426642E+00
         13   -1    0    0    0    0  0.00000000000E+00  0.00000000000E+00  0.14999999963E+04  0.15000000000E+04  0.10566000000E+00 0. -1.
        994   -1    0    0    0    0 -0.00000000000E+00 -0.00000000000E+00  0.11368683772E-12  0.17120000000E+03  0.17120000000E+03 0.  0.
         13    1    1    2    0    0 -0.10413436385E+02  0.44725210156E+01  0.51514346263E+02  0.52746394536E+02  0.10566000000E+00 0. -1.
        994    1    1    2    0    0  0.55285474548E+01 -0.34296453444E+00  0.13758443306E+01  0.17129511204E+03  0.17120000000E+03 0.  0.
        998    1    1    2    0    0  0.48848889298E+01 -0.41295564811E+01  0.14471098057E+04  0.14471584934E+04  0.10000000000E+02 0. -1.
</event>
<event>
 5    1  0.1675361E-008  0.3697323E+03  0.7957747E-01  0.3497122E+00
         13   -1    0    0    0    0  0.00000000000E+00  0.00000000000E+00  0.14999999963E+04  0.15000000000E+04  0.10566000000E+00 0.  1.
        994   -1    0    0    0    0 -0.00000000000E+00 -0.00000000000E+00  0.11368683772E-12  0.17120000000E+03  0.17120000000E+03 0.  0.
         13    1    1    2    0    0  0.76898784605E+01  0.48839315868E+02  0.13040103923E+03  0.13945915245E+03  0.10566000000E+00 0.  1.
        994    1    1    2    0    0 -0.23486728742E+02 -0.20126562829E+02  0.12727240058E+02  0.17443660051E+03  0.17120000000E+03 0.  0.
        998    1    1    2    0    0  0.15796850281E+02 -0.28712753039E+02  0.13568717170E+04  0.13573042470E+04  0.10000000000E+02 0.  1.
</event>
<event>
 5    1  0.1675361E-008  0.3858920E+03  0.7957747E-01  0.3425898E+00
         13   -1    0    0    0    0  0.00000000000E+00  0.00000000000E+00  0.14999999963E+04  0.15000000000E+04  0.10566000000E+00 0.  1.
        994   -1    0    0    0    0 -0.00000000000E+00 -0.00000000000E+00  0.11368683772E-12  0.17120000000E+03  0.17120000000E+03 0.  0.
         13    1    1    2    0    0 -0.66964153992E+01  0.12280513905E+02  0.76133538031E+02  0.77407879302E+02  0.10566000000E+00 0.  1.
        994    1    1    2    0    0  0.14767499137E+02 -0.15275594703E+02  0.26696166557E+01  0.17253402469E+03  0.17120000000E+03 0.  0.
        998    1    1    2    0    0 -0.80710837382E+01  0.29950807979E+01  0.14211968416E+04  0.14212580960E+04  0.10000000000E+02 0.  1.
</event>
<event>
 5    1  0.1675361E-008  0.3846060E+03  0.7957747E-01  0.3431345E+00
         13   -1    0    0    0    0  0.00000000000E+00  0.00000000000E+00  0.14999999963E+04  0.15000000000E+04  0.10566000000E+00 0.  1.
        994   -1    0    0    0    0 -0.00000000000E+00 -0.00000000000E+00  0.11368683772E-12  0.17120000000E+03  0.17120000000E+03 0.  0.
         13    1    1    2    0    0 -0.10566830495E+02  0.82991724428E+01  0.53693003502E+02  0.55348748487E+02  0.10566000000E+00 0.  1.
        994    1    1    2    0    0 -0.61178323601E+01  0.31518480833E+01  0.19818410243E+01  0.17134972925E+03  0.17120000000E+03 0.  0.
        998    1    1    2    0    0  0.16684662855E+02 -0.11451020526E+02  0.14443251518E+04  0.14445015223E+04  0.10000000000E+02 0.  1.
</event>
<event>
 5    1  0.1675361E-008  0.3820413E+03  0.7957747E-01  0.3442318E+00
         13   -1    0    0    0    0  0.00000000000E+00  0.00000000000E+00  0.14999999963E+04  0.15000000000E+04  0.10566000000E+00 0. -1.
        994   -1    0    0    0    0 -0.00000000000E+00 -0.00000000000E+00  0.11368683772E-12  0.17120000000E+03  0.17120000000E+03 0.  0.
         13    1    1    2    0    0  0.35870715102E+01  0.22791756664E+02  0.90412273345E+02  0.93309815075E+02  0.10566000000E+00 0. -1.
        994    1    1    2    0    0 -0.84017714781E+01 -0.14782016752E+01  0.33479433607E+01  0.17144510366E+03  0.17120000000E+03 0.  0.
        998    1    1    2    0    0  0.48146999679E+01 -0.21313554989E+02  0.14062397796E+04  0.14064450813E+04  0.10000000000E+02 0. -1.
</event>
<event>
 5    1  0.1675361E-008  0.3822486E+03  0.7957747E-01  0.3441425E+00
         13   -1    0    0    0    0  0.00000000000E+00  0.00000000000E+00  0.14999999963E+04  0.15000000000E+04  0.10566000000E+00 0. -1.
        994   -1    0    0    0    0 -0.00000000000E+00 -0.00000000000E+00  0.11368683772E-12  0.17120000000E+03  0.17120000000E+03 0.  0.
         13    1    1    2    0    0  0.10310375543E+02 -0.83640372403E+01  0.29422007258E+02  0.32278888424E+02  0.10566000000E+00 0. -1.
        994    1    1    2    0    0  0.12209888018E+01 -0.28822458035E+01  0.30348456607E+01  0.17125550631E+03  0.17120000000E+03 0.  0.
        998    1    1    2    0    0 -0.11531364345E+02  0.11246283044E+02  0.14675431434E+04  0.14676656053E+04  0.10000000000E+02 0. -1.
</event>
<event>
 5    1  0.1675361E-008  0.3817212E+03  0.7957747E-01  0.3443698E+00
         13   -1    0    0    0    0  0.00000000000E+00  0.00000000000E+00  0.14999999963E+04  0.15000000000E+04  0.10566000000E+00 0.  1.
        994   -1    0    0    0    0 -0.00000000000E+00 -0.00000000000E+00  0.11368683772E-12  0.17120000000E+03  0.17120000000E+03 0.  0.
         13    1    1    2    0    0 -0.28390832739E+01  0.25587499515E+02  0.11474608847E+03  0.11759870964E+03  0.10566000000E+00 0.  1.
        994    1    1    2    0    0  0.34580391849E+02  0.81119457683E+01  0.74717818974E+01  0.17500535617E+03  0.17120000000E+03 0.  0.
        998    1    1    2    0    0 -0.31741308575E+02 -0.33699445283E+02  0.13777821259E+04  0.13785959342E+04  0.10000000000E+02 0.  1.
</event>
<event>
 5    1  0.1675361E-008  0.3703143E+03  0.7957747E-01  0.3494448E+00
         13   -1    0    0    0    0  0.00000000000E+00  0.00000000000E+00  0.14999999963E+04  0.15000000000E+04  0.10566000000E+00 0. -1.
        994   -1    0    0    0    0 -0.00000000000E+00 -0.00000000000E+00  0.11368683772E-12  0.17120000000E+03  0.17120000000E+03 0.  0.
         13    1    1    2    0    0 -0.16238151608E+02  0.93373990888E+02  0.35822147604E+03  0.37054691579E+03  0.10566000000E+00 0. -1.
        994    1    1    2    0    0  0.17415680970E+02 -0.96961508420E+02  0.43412212085E+02  0.20223476510E+03  0.17120000000E+03 0.  0.
        998    1    1    2    0    0 -0.11775293621E+01  0.35875175320E+01  0.10983663082E+04  0.10984183191E+04  0.10000000000E+02 0. -1.
</event>
<event>
 5    1  0.1675361E-008  0.3774387E+03  0.7957747E-01  0.3462387E+00
         13   -1    0    0    0    0  0.00000000000E+00  0.00000000000E+00  0.14999999963E+04  0.15000000000E+04  0.10566000000E+00 0. -1.
        994   -1    0    0    0    0 -0.00000000000E+00 -0.00000000000E+00  0.11368683772E-12  0.17120000000E+03  0.17120000000E+03 0.  0.
         13    1    1    2    0    0  0.46102474455E+02  0.15223102717E+02  0.19889894882E+03  0.20473881902E+03  0.10566000000E+00 0. -1.
        994    1    1    2    0    0 -0.40320144210E+02 -0.62615107734E+01  0.11065577946E+02  0.17634286932E+03  0.17120000000E+03 0.  0.
        998    1    1    2    0    0 -0.57823302451E+01 -0.89615919436E+01  0.12900354695E+04  0.12901183117E+04  0.10000000000E+02 0. -1.
</event>
<event>
 5    1  0.1675361E-008  0.3689513E+03  0.7957747E-01  0.3500724E+00
         13   -1    0    0    0    0  0.00000000000E+00  0.00000000000E+00  0.14999999963E+04  0.15000000000E+04  0.10566000000E+00 0. -1.
        994   -1    0    0    0    0 -0.00000000000E+00 -0.00000000000E+00  0.11368683772E-12  0.17120000000E+03  0.17120000000E+03 0.  0.
         13    1    1    2    0    0 -0.94300781412E+02 -0.23494757843E+02  0.32121553601E+03  0.33559510241E+03  0.10566000000E+00 0. -1.
        994    1    1    2    0    0  0.10567366742E+03  0.29658696702E+02  0.53606955735E+02  0.21030860177E+03  0.17120000000E+03 0.  0.
        998    1    1    2    0    0 -0.11372886012E+02 -0.61639388590E+01  0.11251775045E+04  0.11252962958E+04  0.10000000000E+02 0.  1.
</event>
<event>
 5    1  0.1675361E-008  0.3843238E+03  0.7957747E-01  0.3432545E+00
         13   -1    0    0    0    0  0.00000000000E+00  0.00000000000E+00  0.14999999963E+04  0.15000000000E+04  0.10566000000E+00 0. -1.
        994   -1    0    0    0    0 -0.00000000000E+00 -0.00000000000E+00  0.11368683772E-12  0.17120000000E+03  0.17120000000E+03 0.  0.
         13    1    1    2    0    0 -0.20215331856E+02  0.26304576076E+01  0.10717242365E+03  0.10909408097E+03  0.10566000000E+00 0. -1.
        994    1    1    2    0    0  0.10485432522E+02 -0.11119986668E+01  0.23327465781E+01  0.17154026508E+03  0.17120000000E+03 0.  0.
        998    1    1    2    0    0  0.97298993341E+01 -0.15184589409E+01  0.13904948261E+04  0.13905656539E+04  0.10000000000E+02 0. -1.
</event>
<event>
 5    1  0.1675361E-008  0.3809748E+03  0.7957747E-01  0.3446925E+00
         13   -1    0    0    0    0  0.00000000000E+00  0.00000000000E+00  0.14999999963E+04  0.15000000000E+04  0.10566000000E+00 0.  1.
        994   -1    0    0    0    0 -0.00000000000E+00 -0.00000000000E+00  0.11368683772E-12  0.17120000000E+03  0.17120000000E+03 0.  0.
         13    1    1    2    0    0 -0.39761453086E+02 -0.23090924417E+02  0.25381716787E+03  0.25794830841E+03  0.10566000000E+00 0.  1.
        994    1    1    2    0    0  0.29854819814E+02  0.30903271721E+02  0.98187809193E+01  0.17678283550E+03  0.17120000000E+03 0.  0.
        998    1    1    2    0    0  0.99066332724E+01 -0.78123473040E+01  0.12363640475E+04  0.12364688561E+04  0.10000000000E+02 0.  1.
</event>
<event>
 5    1  0.1675361E-008  0.3813564E+03  0.7957747E-01  0.3445273E+00
         13   -1    0    0    0    0  0.00000000000E+00  0.00000000000E+00  0.14999999963E+04  0.15000000000E+04  0.10566000000E+00 0. -1.
        994   -1    0    0    0    0 -0.00000000000E+00 -0.00000000000E+00  0.11368683772E-12  0.17120000000E+03  0.17120000000E+03 0.  0.
         13    1    1    2    0    0  0.22680120272E+02  0.90253199198E+01  0.91375895692E+02  0.94580176215E+02  0.10566000000E+00 0. -1.
        994    1    1    2    0    0  0.21305854739E+01 -0.11376455607E+02  0.38959460649E+01  0.17163502420E+03  0.17120000000E+03 0.  0.
        998    1    1    2    0    0 -0.24810705745E+02  0.23511356868E+01  0.14047281545E+04  0.14049847996E+04  0.10000000000E+02 0. -1.
</event>
<event>
 5    1  0.1675361E-008  0.3791110E+03  0.7957747E-01  0.3455039E+00
         13   -1    0    0    0    0  0.00000000000E+00  0.00000000000E+00  0.14999999963E+04  0.15000000000E+04  0.10566000000E+00 0.  1.
        994   -1    0    0    0    0 -0.00000000000E+00 -0.00000000000E+00  0.11368683772E-12  0.17120000000E+03  0.17120000000E+03 0.  0.
         13    1    1    2    0    0  0.11878748939E+03  0.60259994733E+02  0.46973213541E+03  0.48825200952E+03  0.10566000000E+00 0.  1.
        994    1    1    2    0    0 -0.99412708610E+02 -0.30383410253E+02  0.55988462008E+02  0.20796679093E+03  0.17120000000E+03 0.  0.
        998    1    1    2    0    0 -0.19374780775E+02 -0.29876584480E+02  0.97427939886E+03  0.97498119955E+03  0.10000000000E+02 0.  1.
</event>
<event>
 5    1  0.1675361E-008  0.3827403E+03  0.7957747E-01  0.3439313E+00
         13   -1    0    0    0    0  0.00000000000E+00  0.00000000000E+00  0.14999999963E+04  0.15000000000E+04  0.10566000000E+00 0.  1.
        994   -1    0    0    0    0 -0.00000000000E+00 -0.00000000000E+00  0.11368683772E-12  0.17120000000E+03  0.17120000000E+03 0.  0.
         13    1    1    2    0    0  0.96735658228E+01 -0.17976894227E+02  0.75020784516E+02  0.77748799831E+02  0.10566000000E+00 0.  1.
        994    1    1    2    0    0 -0.17088914040E+01  0.13147338901E+02  0.33387385955E+01  0.17174504361E+03  0.17120000000E+03 0.  0.
        998    1    1    2    0    0 -0.79646744189E+01  0.48295553263E+01  0.14216404732E+04  0.14217061566E+04  0.10000000000E+02 0.  1.
</event>
<event>
 5    1  0.1675361E-008  0.3828288E+03  0.7957747E-01  0.3438933E+00
         13   -1    0    0    0    0  0.00000000000E+00  0.00000000000E+00  0.14999999963E+04  0.15000000000E+04  0.10566000000E+00 0. -1.
        994   -1    0    0    0    0 -0.00000000000E+00 -0.00000000000E+00  0.11368683772E-12  0.17120000000E+03  0.17120000000E+03 0.  0.
         13    1    1    2    0    0 -0.17383413760E+02 -0.34112677387E+01  0.60845262787E+02  0.63371736518E+02  0.10566000000E+00 0. -1.
        994    1    1    2    0    0 -0.11288907889E+01 -0.26267545232E+01  0.27390296739E+01  0.17124577810E+03  0.17120000000E+03 0.  0.
        998    1    1    2    0    0  0.18512304549E+02  0.60380222619E+01  0.14364157038E+04  0.14365824854E+04  0.10000000000E+02 0. -1.
</event>
<event>
 5    1  0.1675361E-008  0.3815953E+03  0.7957747E-01  0.3444242E+00
         13   -1    0    0    0    0  0.00000000000E+00  0.00000000000E+00  0.14999999963E+04  0.15000000000E+04  0.10566000000E+00 0.  1.
        994   -1    0    0    0    0 -0.00000000000E+00 -0.00000000000E+00  0.11368683772E-12  0.17120000000E+03  0.17120000000E+03 0.  0.
         13    1    1    2    0    0 -0.24037696504E+01  0.14825151973E+02  0.33871289047E+02  0.37051837003E+02  0.10566000000E+00 0.  1.
        994    1    1    2    0    0 -0.59233774097E+01 -0.39061817499E+00  0.34472179953E+01  0.17133756825E+03  0.17120000000E+03 0.  0.
        998    1    1    2    0    0  0.83271470601E+01 -0.14434533798E+02  0.14626814892E+04  0.14628105947E+04  0.10000000000E+02 0.  1.
</event>
<event>
 5    1  0.1675361E-008  0.3772062E+03  0.7957747E-01  0.3463414E+00
         13   -1    0    0    0    0  0.00000000000E+00  0.00000000000E+00  0.14999999963E+04  0.15000000000E+04  0.10566000000E+00 0. -1.
        994   -1    0    0    0    0 -0.00000000000E+00 -0.00000000000E+00  0.11368683772E-12  0.17120000000E+03  0.17120000000E+03 0.  0.
         13    1    1    2    0    0  0.52308622602E+02  0.16319738996E+02  0.23657939998E+03  0.24284223179E+03  0.10566000000E+00 0. -1.
        994    1    1    2    0    0 -0.49282368595E+02 -0.86232906555E+01  0.14042924202E+02  0.17891270697E+03  0.17120000000E+03 0.  0.
        998    1    1    2    0    0 -0.30262540073E+01 -0.76964483407E+01  0.12493776721E+04  0.12494450612E+04  0.10000000000E+02 0. -1.
</event>
<event>
 5    1  0.1675361E-008  0.3749641E+03  0.7957747E-01  0.3473383E+00
         13   -1    0    0    0    0  0.00000000000E+00  0.00000000000E+00  0.14999999963E+04  0.15000000000E+04  0.10566000000E+00 0.  1.
        994   -1    0    0    0    0 -0.00000000000E+00 -0.00000000000E+00  0.11368683772E-12  0.17120000000E+03  0.17120000000E+03 0.  0.
         13    1    1    2    0    0  0.86790248537E+02 -0.22276855738E+02  0.23376188446E+03  0.25034663036E+03  0.10566000000E+00 0.  1.
        994    1    1    2    0    0 -0.93699478381E+02  0.30273025854E+02  0.48944065642E+02  0.20347238118E+03  0.17120000000E+03 0.  0.
        998    1    1    2    0    0  0.69092298444E+01 -0.79961701153E+01  0.12172940462E+04  0.12173809885E+04  0.10000000000E+02 0.  1.
</event>
<event>
 5    1  0.1675361E-008  0.3857404E+03  0.7957747E-01  0.3426538E+00
         13   -1    0    0    0    0  0.00000000000E+00  0.00000000000E+00  0.14999999963E+04  0.15000000000E+04  0.10566000000E+00 0.  1.
        994   -1    0    0    0    0 -0.00000000000E+00 -0.00000000000E+00  0.11368683772E-12  0.17120000000E+03  0.17120000000E+03 0.  0.
         13    1    1    2    0    0 -0.12584843081E+02  0.28090172381E+01  0.70946830661E+02  0.72109172773E+02  0.10566000000E+00 0.  1.
        994    1    1    2    0    0 -0.10577973675E+01 -0.34300359715E+01  0.13052695498E+01  0.17124259929E+03  0.17120000000E+03 0.  0.
        998    1    1    2    0    0  0.13642640449E+02  0.62101873339E+00  0.14277478961E+04  0.14278482279E+04  0.10000000000E+02 0.  1.
</event>
<event>
 5    1  0.1675361E-008  0.3773674E+03  0.7957747E-01  0.3462702E+00
         13   -1    0    0    0    0  0.00000000000E+00  0.00000000000E+00  0.14999999963E+04  0.15000000000E+04  0.10566000000E+00 0.  1.
        994   -1    0    0    0    0 -0.00000000000E+00 -0.00000000000E+00  0.11368683772E-12  0.17120000000E+03  0.17120000000E+03 0.  0.
         13    1    1    2    0    0  0.16084130174E+02 -0.27470548516E+01  0.21867976913E+02  0.27284888347E+02  0.10566000000E+00 0.  1.
        994    1    1    2    0    0 -0.14208025816E+02  0.22110204554E+01  0.61655497925E+01  0.17191338114E+03  0.17120000000E+03 0.  0.
        998    1    1    2    0    0 -0.18761043572E+01  0.53603439611E+00  0.14719664696E+04  0.14720017305E+04  0.10000000000E+02 0.  1.
</event>
<event>
 5    1  0.1675361E-008  0.3772982E+03  0.7957747E-01  0.3463008E+00
         13   -1    0    0    0    0  0.00000000000E+00  0.00000000000E+00  0.14999999963E+04  0.15000000000E+04  0.10566000000E+00 0.  1.
        994   -1    0    0    0    0 -0.00000000000E+00 -0.00000000000E+00  0.11368683772E-12  0.17120000000E+03  0.17120000000E+03 0.  0.
         13    1    1    2    0    0 -0.97875307474E+01 -0.37033211558E+01  0.74732519768E+01  0.12859665814E+02  0.10566000000E+00 0.  1.
        994    1    1    2    0    0  0.46524405109E+01  0.44206360200E+01  0.56422089200E+01  0.17141313178E+03  0.17120000000E+03 0.  0.
        998    1    1    2    0    0  0.51350902365E+01 -0.71731486417E+00  0.14868845354E+04  0.14869272024E+04  0.10000000000E+02 0.  1.
</event>
<event>
 5    1  0.1675361E-008  0.3846117E+03  0.7957747E-01  0.3431321E+00
         13   -1    0    0    0    0  0.00000000000E+00  0.00000000000E+00  0.14999999963E+04  0.15000000000E+04  0.10566000000E+00 0.  1.
        994   -1    0    0    0    0 -0.00000000000E+00 -0.00000000000E+00  0.11368683772E-12  0.17120000000E+03  0.17120000000E+03 0.  0.
         13    1    1    2    0    0  0.39967715357E+01  0.13038481577E+02  0.48357507341E+02  0.50243764437E+02  0.10566000000E+00 0.  1.
        994    1    1    2    0    0  0.26604379048E+01 -0.20233061968E+02  0.31955405356E+01  0.17244160231E+03  0.17120000000E+03 0.  0.
        998    1    1    2    0    0 -0.66572094406E+01  0.71945803910E+01  0.14484469484E+04  0.14485146333E+04  0.10000000000E+02 0.  1.
</event>
<event>
 5    1  0.1675361E-008  0.4153808E+03  0.7957747E-01  0.3310229E+00
         13   -1    0    0    0    0  0.00000000000E+00  0.00000000000E+00  0.14999999963E+04  0.15000000000E+04  0.10566000000E+00 0. -1.
        994   -1    0    0    0    0 -0.00000000000E+00 -0.00000000000E+00  0.11368683772E-12  0.17120000000E+03  0.17120000000E+03 0.  0.
         13    1    1    2    0    0  0.85915048009E+02 -0.89382211053E+01  0.10685675739E+03  0.13740329340E+03  0.10566000000E+00 0. -1.
        994    1    1    2    0    0 -0.30471774785E+01 -0.32921073373E+02  0.41894724836E+02  0.17932565442E+03  0.17120000000E+03 0.  0.
        998    1    1    2    0    0 -0.82867870531E+02  0.41859294479E+02  0.13512485140E+04  0.13544710522E+04  0.10000000000E+02 0. -1.
</event>
<event>
 5    1  0.1675361E-008  0.3859966E+03  0.7957747E-01  0.3425456E+00
         13   -1    0    0    0    0  0.00000000000E+00  0.00000000000E+00  0.14999999963E+04  0.15000000000E+04  0.10566000000E+00 0.  1.
        994   -1    0    0    0    0 -0.00000000000E+00 -0.00000000000E+00  0.11368683772E-12  0.17120000000E+03  0.17120000000E+03 0.  0.
         13    1    1    2    0    0 -0.12838176731E+01 -0.10547208836E+02  0.47579295364E+02  0.48751331401E+02  0.10566000000E+00 0.  1.
        994    1    1    2    0    0 -0.16073258068E+02  0.18209487789E+02  0.30723586999E+01  0.17294165044E+03  0.17120000000E+03 0.  0.
        998    1    1    2    0    0  0.17357075742E+02 -0.76622789529E+01  0.14493483422E+04  0.14495070182E+04  0.10000000000E+02 0.  1.
</event>
<event>
 5    1  0.1675361E-008  0.3832076E+03  0.7957747E-01  0.3437310E+00
         13   -1    0    0    0    0  0.00000000000E+00  0.00000000000E+00  0.14999999963E+04  0.15000000000E+04  0.10566000000E+00 0. -1.
        994   -1    0    0    0    0 -0.00000000000E+00 -0.00000000000E+00  0.11368683772E-12  0.17120000000E+03  0.17120000000E+03 0.  0.
         13    1    1    2    0    0  0.42734096974E+01  0.10355250085E+02  0.23163836282E+02  0.25730676441E+02  0.10566000000E+00 0. -1.
        994    1    1    2    0    0 -0.33112462397E+01 -0.18464624140E+02  0.36875826937E+01  0.17226417202E+03  0.17120000000E+03 0.  0.
        998    1    1    2    0    0 -0.96216345768E+00  0.81093740551E+01  0.14731485773E+04  0.14732051515E+04  0.10000000000E+02 0. -1.
</event>
<event>
 5    1  0.1675361E-008  0.3779109E+03  0.7957747E-01  0.3460306E+00
         13   -1    0    0    0    0  0.00000000000E+00  0.00000000000E+00  0.14999999963E+04  0.15000000000E+04  0.10566000000E+00 0. -1.
        994   -1    0    0    0    0 -0.00000000000E+00 -0.00000000000E+00  0.11368683772E-12  0.17120000000E+03  0.17120000000E+03 0.  0.
         13    1    1    2    0    0  0.33855164260E+02 -0.25468411529E+02  0.54458097515E+02  0.68996432385E+02  0.10566000000E+00 0. -1.
        994    1    1    2    0    0 -0.15169067446E+02  0.17901774573E+02  0.17166708811E+02  0.17365111584E+03  0.17120000000E+03 0.  0.
        998    1    1    2    0    0 -0.18686096814E+02  0.75666369561E+01  0.14283751900E+04  0.14285524518E+04  0.10000000000E+02 0. -1.
</event>
<event>
 5    1  0.1675361E-008  0.3765706E+03  0.7957747E-01  0.3466228E+00
         13   -1    0    0    0    0  0.00000000000E+00  0.00000000000E+00  0.14999999963E+04  0.15000000000E+04  0.10566000000E+00 0. -1.
        994   -1    0    0    0    0 -0.00000000000E+00 -0.00000000000E+00  0.11368683772E-12  0.17120000000E+03  0.17120000000E+03 0.  0.
         13    1    1    2    0    0  0.30407847383E+01 -0.14008545858E+02  0.15145234699E+02  0.20853657401E+02  0.10566000000E+00 0. -1.
        994    1    1    2    0    0 -0.36946206871E+01  0.31941937746E+01  0.59550580845E+01  0.17137314788E+03  0.17120000000E+03 0.  0.
        998    1    1    2    0    0  0.65383594880E+00  0.10814352084E+02  0.14788997035E+04  0.14789731947E+04  0.10000000000E+02 0. -1.
</event>
<event>
 5    1  0.1675361E-008  0.3829225E+03  0.7957747E-01  0.3438531E+00
         13   -1    0    0    0    0  0.00000000000E+00  0.00000000000E+00  0.14999999963E+04  0.15000000000E+04  0.10566000000E+00 0. -1.
        994   -1    0    0    0    0 -0.00000000000E+00 -0.00000000000E+00  0.11368683772E-12  0.17120000000E+03  0.17120000000E+03 0.  0.
         13    1    1    2    0    0  0.11801630697E+02 -0.82980252014E+01  0.39358131139E+02  0.41919081099E+02  0.10566000000E+00 0. -1.
        994    1    1    2    0    0  0.17977611778E+01  0.64954866601E+01  0.28155286619E+01  0.17135574252E+03  0.17120000000E+03 0.  0.
        998    1    1    2    0    0 -0.13599391875E+02  0.18025385413E+01  0.14578263365E+04  0.14579251764E+04  0.10000000000E+02 0. -1.
</event>
<event>
 5    1  0.1675361E-008  0.3845012E+03  0.7957747E-01  0.3431790E+00
         13   -1    0    0    0    0  0.00000000000E+00  0.00000000000E+00  0.14999999963E+04  0.15000000000E+04  0.10566000000E+00 0.  1.
        994   -1    0    0    0    0 -0.00000000000E+00 -0.00000000000E+00  0.11368683772E-12  0.17120000000E+03  0.17120000000E+03 0.  0.
         13    1    1    2    0    0  0.35443915759E+00 -0.11331335457E+02  0.34908900303E+02  0.36703777391E+02  0.10566000000E+00 0.  1.
        994    1    1    2    0    0  0.42766805650E+01  0.82709882219E+00  0.19404784994E+01  0.17126639935E+03  0.17120000000E+03 0.  0.
        998    1    1    2    0    0 -0.46311197226E+01  0.10504236635E+02  0.14631506175E+04  0.14632298233E+04  0.10000000000E+02 0.  1.
</event>
<event>
 5    1  0.1675361E-008  0.3739176E+03  0.7957747E-01  0.3478078E+00
         13   -1    0    0    0    0  0.00000000000E+00  0.00000000000E+00  0.14999999963E+04  0.15000000000E+04  0.10566000000E+00 0.  1.
        994   -1    0    0    0    0 -0.00000000000E+00 -0.00000000000E+00  0.11368683772E-12  0.17120000000E+03  0.17120000000E+03 0.  0.
         13    1    1    2    0    0  0.62469387876E+02 -0.70164570674E+02  0.41491147176E+03  0.42541395365E+03  0.10566000000E+00 0.  1.
        994    1    1    2    0    0 -0.61142830594E+02  0.77702992769E+02  0.41359198943E+02  0.20198075194E+03  0.17120000000E+03 0.  0.
        998    1    1    2    0    0 -0.13265572820E+01 -0.75384220946E+01  0.10437293256E+04  0.10438052944E+04  0.10000000000E+02 0.  1.
</event>
<event>
 5    1  0.1675361E-008  0.3858592E+03  0.7957747E-01  0.3426036E+00
         13   -1    0    0    0    0  0.00000000000E+00  0.00000000000E+00  0.14999999963E+04  0.15000000000E+04  0.10566000000E+00 0. -1.
        994   -1    0    0    0    0 -0.00000000000E+00 -0.00000000000E+00  0.11368683772E-12  0.17120000000E+03  0.17120000000E+03 0.  0.
         13    1    1    2    0    0  0.39820560318E+01  0.11126337065E+02  0.59277643332E+02  0.60444208240E+02  0.10566000000E+00 0. -1.
        994    1    1    2    0    0 -0.30659869674E+01 -0.54155764946E+01  0.13311615538E+01  0.17131824403E+03  0.17120000000E+03 0.  0.
        998    1    1    2    0    0 -0.91606906441E+00 -0.57107605707E+01  0.14393911914E+04  0.14394375477E+04  0.10000000000E+02 0. -1.
</event>
<event>
 5    1  0.1675361E-008  0.3820676E+03  0.7957747E-01  0.3442205E+00
         13   -1    0    0    0    0  0.00000000000E+00  0.00000000000E+00  0.14999999963E+04  0.15000000000E+04  0.10566000000E+00 0. -1.
        994   -1    0    0    0    0 -0.00000000000E+00 -0.00000000000E+00  0.11368683772E-12  0.17120000000E+03  0.17120000000E+03 0.  0.
         13    1    1    2    0    0  0.94807803973E+01 -0.81040422407E+01  0.24286919971E+02  0.27302497016E+02  0.10566000000E+00 0. -1.
        994    1    1    2    0    0 -0.24505045758E+01  0.38972659344E+01  0.31634177245E+01  0.17129109979E+03  0.17120000000E+03 0.  0.
        998    1    1    2    0    0 -0.70302758215E+01  0.42067763063E+01  0.14725496586E+04  0.14726064032E+04  0.10000000000E+02 0. -1.
</event>
<event>
 5    1  0.1675361E-008  0.3767065E+03  0.7957747E-01  0.3465626E+00
         13   -1    0    0    0    0  0.00000000000E+00  0.00000000000E+00  0.14999999963E+04  0.15000000000E+04  0.10566000000E+00 0. -1.
        994   -1    0    0    0    0 -0.00000000000E+00 -0.00000000000E+00  0.11368683772E-12  0.17120000000E+03  0.17120000000E+03 0.  0.
         13    1    1    2    0    0 -0.43911341672E+02 -0.52285429675E+01  0.15267326723E+03  0.15894867499E+03  0.10566000000E+00 0. -1.
        994    1    1    2    0    0  0.43526424065E+02 -0.10106580011E+02  0.12583283335E+02  0.17738227524E+03  0.17120000000E+03 0.  0.
        998    1    1    2    0    0  0.38491760737E+00  0.15335122979E+02  0.13347434457E+04  0.13348690498E+04  0.10000000000E+02 0. -1.
</event>
<event>
 5    1  0.1675361E-008  0.3896923E+03  0.7957747E-01  0.3410012E+00
         13   -1    0    0    0    0  0.00000000000E+00  0.00000000000E+00  0.14999999963E+04  0.15000000000E+04  0.10566000000E+00 0. -1.
        994   -1    0    0    0    0 -0.00000000000E+00 -0.00000000000E+00  0.11368683772E-12  0.17120000000E+03  0.17120000000E+03 0.  0.
         13    1    1    2    0    0 -0.22545103060E+02 -0.22752697648E+02  0.14146268975E+02  0.35015639537E+02  0.10566000000E+00 0. -1.
        994    1    1    2    0    0 -0.28540424559E+02  0.68529266352E+02  0.42775146134E+02  0.19144181703E+03  0.17120000000E+03 0.  0.
        998    1    1    2    0    0  0.51085527619E+02 -0.45776568704E+02  0.14430785812E+04  0.14447425434E+04  0.10000000000E+02 0. -1.
</event>
<event>
 5    1  0.1675361E-008  0.3856395E+03  0.7957747E-01  0.3426965E+00
         13   -1    0    0    0    0  0.00000000000E+00  0.00000000000E+00  0.14999999963E+04  0.15000000000E+04  0.10566000000E+00 0. -1.
        994   -1    0    0    0    0 -0.00000000000E+00 -0.00000000000E+00  0.11368683772E-12  0.17120000000E+03  0.17120000000E+03 0.  0.
         13    1    1    2    0    0 -0.10712103720E+02  0.72915052568E+01  0.63489528697E+02  0.64798507956E+02  0.10566000000E+00 0. -1.
        994    1    1    2    0    0  0.63004610818E+01 -0.96368166127E+01  0.17481527858E+01  0.17159562956E+03  0.17120000000E+03 0.  0.
        998    1    1    2    0    0  0.44116426384E+01  0.23453113559E+01  0.14347623148E+04  0.14348058625E+04  0.10000000000E+02 0. -1.
</event>
<event>
 5    1  0.1803573E-008  0.3854605E+03  0.7957747E-01  0.3427722E+00
         13   -1    0    0    0    0  0.00000000000E+00  0.00000000000E+00  0.14999999963E+04  0.15000000000E+04  0.10566000000E+00 0. -1.
        994   -1    0    0    0    0 -0.00000000000E+00 -0.00000000000E+00  0.11368683772E-12  0.17120000000E+03  0.17120000000E+03 0.  0.
         13    1    1    2    0    0 -0.63195515177E+01  0.10982151484E+02  0.55621892799E+02  0.57046914949E+02  0.10566000000E+00 0. -1.
        994    1    1    2    0    0  0.79720955032E+01 -0.11347305082E+02  0.20334644433E+01  0.17177278777E+03  0.17120000000E+03 0.  0.
        998    1    1    2    0    0 -0.16525439855E+01  0.36515359752E+00  0.14423446390E+04  0.14423802973E+04  0.10000000000E+02 0. -1.
</event>
<event>
 5    1  0.1675361E-008  0.3782094E+03  0.7957747E-01  0.3458993E+00
         13   -1    0    0    0    0  0.00000000000E+00  0.00000000000E+00  0.14999999963E+04  0.15000000000E+04  0.10566000000E+00 0.  1.
        994   -1    0    0    0    0 -0.00000000000E+00 -0.00000000000E+00  0.11368683772E-12  0.17120000000E+03  0.17120000000E+03 0.  0.
         13    1    1    2    0    0 -0.11949927603E+02 -0.81702474908E+01  0.18317066164E+02  0.23346943926E+02  0.10566000000E+00 0.  1.
        994    1    1    2    0    0  0.12151569047E+02  0.12452104506E+02  0.60584271211E+01  0.17218844350E+03  0.17120000000E+03 0.  0.
        998    1    1    2    0    0 -0.20164144341E+00 -0.42818570156E+01  0.14756245030E+04  0.14756646126E+04  0.10000000000E+02 0.  1.
</event>
<event>
 5    1  0.1675361E-008  0.3843362E+03  0.7957747E-01  0.3432492E+00
         13   -1    0    0    0    0  0.00000000000E+00  0.00000000000E+00  0.14999999963E+04  0.15000000000E+04  0.10566000000E+00 0.  1.
        994   -1    0    0    0    0 -0.00000000000E+00 -0.00000000000E+00  0.11368683772E-12  0.17120000000E+03  0.17120000000E+03 0.  0.
         13    1    1    2    0    0 -0.55909638003E+01  0.17256930745E+02  0.84459064682E+02  0.86385214626E+02  0.10566000000E+00 0.  1.
        994    1    1    2    0    0  0.67821551441E+01 -0.85326577853E+01  0.23516990955E+01  0.17156274178E+03  0.17120000000E+03 0.  0.
        998    1    1    2    0    0 -0.11911913439E+01 -0.87242729596E+01  0.14131892325E+04  0.14132520436E+04  0.10000000000E+02 0.  1.
</event>
<event>
 5    1  0.1675361E-008  0.3726354E+03  0.7957747E-01  0.3483866E+00
         13   -1    0    0    0    0  0.00000000000E+00  0.00000000000E+00  0.14999999963E+04  0.15000000000E+04  0.10566000000E+00 0.  1.
        994   -1    0    0    0    0 -0.00000000000E+00 -0.00000000000E+00  0.11368683772E-12  0.17120000000E+03  0.17120000000E+03 0.  0.
         13    1    1    2    0    0  0.18710362843E+02  0.36770596277E+02  0.13882818797E+03  0.14482897282E+03  0.10566000000E+00 0.  1.
        994    1    1    2    0    0  0.61531909502E+02  0.41894633169E+01  0.21046132931E+02  0.18318326125E+03  0.17120000000E+03 0.  0.
        998    1    1    2    0    0 -0.80242272344E+02 -0.40960059594E+02  0.13401256754E+04  0.13431877659E+04  0.10000000000E+02 0.  1.
</event>
<event>
 5    1  0.1675361E-008  0.3795047E+03  0.7957747E-01  0.3453318E+00
         13   -1    0    0    0    0  0.00000000000E+00  0.00000000000E+00  0.14999999963E+04  0.15000000000E+04  0.10566000000E+00 0.  1.
        994   -1    0    0    0    0 -0.00000000000E+00 -0.00000000000E+00  0.11368683772E-12  0.17120000000E+03  0.17120000000E+03 0.  0.
         13    1    1    2    0    0  0.11009587436E+02  0.55366386358E+02  0.23280768998E+03  0.23955391759E+03  0.10566000000E+00 0.  1.
        994    1    1    2    0    0 -0.14048516902E+01 -0.94281287707E+02  0.34753309297E+02  0.19851490455E+03  0.17120000000E+03 0.  0.
        998    1    1    2    0    0 -0.96047357461E+01  0.38914901349E+02  0.12324389970E+04  0.12331311779E+04  0.10000000000E+02 0.  1.
</event>
<event>
 5    1  0.1675361E-008  0.3826336E+03  0.7957747E-01  0.3439771E+00
         13   -1    0    0    0    0  0.00000000000E+00  0.00000000000E+00  0.14999999963E+04  0.15000000000E+04  0.10566000000E+00 0. -1.
        994   -1    0    0    0    0 -0.00000000000E+00 -0.00000000000E+00  0.11368683772E-12  0.17120000000E+03  0.17120000000E+03 0.  0.
         13    1    1    2    0    0  0.75703894267E+01  0.11999780764E+02  0.33723400118E+02  0.36586669895E+02  0.10566000000E+00 0. -1.
        994    1    1    2    0    0 -0.84181477753E+01 -0.16683791415E+02  0.39677883751E+01  0.17226258286E+03  0.17120000000E+03 0.  0.
        998    1    1    2    0    0  0.84775834856E+00  0.46840106510E+01  0.14623088078E+04  0.14623507472E+04  0.10000000000E+02 0. -1.
</event>
<event>
 5    1  0.1675361E-008  0.3854312E+03  0.7957747E-01  0.3427845E+00
         13   -1    0    0    0    0  0.00000000000E+00  0.00000000000E+00  0.14999999963E+04  0.15000000000E+04  0.10566000000E+00 0.  1.
        994   -1    0    0    0    0 -0.00000000000E+00 -0.00000000000E+00  0.11368683772E-12  0.17120000000E+03  0.17120000000E+03 0.  0.
         13    1    1    2    0    0  0.31628710933E+01 -0.14858693094E+02  0.85969734068E+02  0.87301723086E+02  0.10566000000E+00 0.  1.
        994    1    1    2    0    0 -0.39405521815E+02 -0.20770018083E+01  0.65466078417E+01  0.17581071401E+03  0.17120000000E+03 0.  0.
        998    1    1    2    0    0  0.36242650721E+02  0.16935694902E+02  0.14074836544E+04  0.14080875629E+04  0.10000000000E+02 0.  1.
</event>
<event>
 5    1  0.1675361E-008  0.3802392E+03  0.7957747E-01  0.3450118E+00
         13   -1    0    0    0    0  0.00000000000E+00  0.00000000000E+00  0.14999999963E+04  0.15000000000E+04  0.10566000000E+00 0. -1.
        994   -1    0    0    0    0 -0.00000000000E+00 -0.00000000000E+00  0.11368683772E-12  0.17120000000E+03  0.17120000000E+03 0.  0.
         13    1    1    2    0    0  0.73597177616E+01 -0.12664823247E+02  0.24961231729E+02  0.28941966880E+02  0.10566000000E+00 0. -1.
        994    1    1    2    0    0 -0.69256589734E+01  0.10129994508E+02  0.45155895598E+01  0.17169860829E+03  0.17120000000E+03 0.  0.
        998    1    1    2    0    0 -0.43405878816E+00  0.25348287396E+01  0.14705231750E+04  0.14705594248E+04  0.10000000000E+02 0. -1.
</event>
<event>
 5    1  0.1675361E-008  0.3818403E+03  0.7957747E-01  0.3443184E+00
         13   -1    0    0    0    0  0.00000000000E+00  0.00000000000E+00  0.14999999963E+04  0.15000000000E+04  0.10566000000E+00 0. -1.
        994   -1    0    0    0    0 -0.00000000000E+00 -0.00000000000E+00  0.11368683772E-12  0.17120000000E+03  0.17120000000E+03 0.  0.
         13    1    1    2    0    0  0.11210340450E+01 -0.22703215038E+02  0.86350657647E+02  0.89292440500E+02  0.10566000000E+00 0. -1.
        994    1    1    2    0    0  0.87936643365E+01 -0.52954607798E+00  0.34649711325E+01  0.17146152623E+03  0.17120000000E+03 0.  0.
        998    1    1    2    0    0 -0.99146983815E+01  0.23232761116E+02  0.14101843675E+04  0.14104460333E+04  0.10000000000E+02 0. -1.
</event>
<event>
 5    1  0.1675361E-008  0.3831688E+03  0.7957747E-01  0.3437476E+00
         13   -1    0    0    0    0  0.00000000000E+00  0.00000000000E+00  0.14999999963E+04  0.15000000000E+04  0.10566000000E+00 0.  1.
        994   -1    0    0    0    0 -0.00000000000E+00 -0.00000000000E+00  0.11368683772E-12  0.17120000000E+03  0.17120000000E+03 0.  0.
         13    1    1    2    0    0 -0.15349616909E+02 -0.67348810358E+01  0.56917088446E+02  0.59334100507E+02  0.10566000000E+00 0.  1.
        994    1    1    2    0    0  0.44652451197E+01 -0.45243428555E+01  0.26757118827E+01  0.17133886753E+03  0.17120000000E+03 0.  0.
        998    1    1    2    0    0  0.10884371789E+02  0.11259223891E+02  0.14404071960E+04  0.14405270320E+04  0.10000000000E+02 0.  1.
</event>
<event>
 5    1  0.1675361E-008  0.3826963E+03  0.7957747E-01  0.3439502E+00
         13   -1    0    0    0    0  0.00000000000E+00  0.00000000000E+00  0.14999999963E+04  0.15000000000E+04  0.10566000000E+00 0.  1.
        994   -1    0    0    0    0 -0.00000000000E+00 -0.00000000000E+00  0.11368683772E-12  0.17120000000E+03  0.17120000000E+03 0.  0.
         13    1    1    2    0    0  0.26446380826E+03  0.12727812421E+03  0.97509927870E+03  0.10183120550E+04  0.10566000000E+00 0.  1.
        994    1    1    2    0    0 -0.26591067110E+03 -0.14181589977E+03  0.41106630598E+03  0.53768502150E+03  0.17120000000E+03 0.  0.
        998    1    1    2    0    0  0.14468628383E+01  0.14537775554E+02  0.11383441160E+03  0.11520292355E+03  0.10000000000E+02 0. -1.
</event>
<event>
 5    1  0.2231124E-008  0.3860588E+03  0.7957747E-01  0.3425194E+00
         13   -1    0    0    0    0  0.00000000000E+00  0.00000000000E+00  0.14999999963E+04  0.15000000000E+04  0.10566000000E+00 0. -1.
        994   -1    0    0    0    0 -0.00000000000E+00 -0.00000000000E+00  0.11368683772E-12  0.17120000000E+03  0.17120000000E+03 0.  0.
         13    1    1    2    0    0  0.70806223967E+01  0.74797090301E+01  0.46992058890E+02  0.48107650363E+02  0.10566000000E+00 0. -1.
        994    1    1    2    0    0 -0.10987272283E+02 -0.63167705626E+01  0.16319826518E+01  0.17167622174E+03  0.17120000000E+03 0.  0.
        998    1    1    2    0    0  0.39066498861E+01 -0.11629384675E+01  0.14513759547E+04  0.14514161279E+04  0.10000000000E+02 0. -1.
</event>
<event>
 5    1  0.1675361E-008  0.3754366E+03  0.7957747E-01  0.3471272E+00
         13   -1    0    0    0    0  0.00000000000E+00  0.00000000000E+00  0.14999999963E+04  0.15000000000E+04  0.10566000000E+00 0.  1.
        994   -1    0    0    0    0 -0.00000000000E+00 -0.00000000000E+00  0.11368683772E-12  0.17120000000E+03  0.17120000000E+03 0.  0.
         13    1    1    2    0    0  0.56630807434E+02  0.19050951188E+02  0.28494952247E+03  0.29114640408E+03  0.10566000000E+00 0.  1.
        994    1    1    2    0    0 -0.37875186140E+02  0.17543315637E+02  0.12391386060E+02  0.17665017435E+03  0.17120000000E+03 0.  0.
        998    1    1    2    0    0 -0.18755621294E+02 -0.36594266825E+02  0.12026590878E+04  0.12034034216E+04  0.10000000000E+02 0.  1.
</event>
<event>
 5    1  0.1675361E-008  0.3828975E+03  0.7957747E-01  0.3438639E+00
         13   -1    0    0    0    0  0.00000000000E+00  0.00000000000E+00  0.14999999963E+04  0.15000000000E+04  0.10566000000E+00 0.  1.
        994   -1    0    0    0    0 -0.00000000000E+00 -0.00000000000E+00  0.11368683772E-12  0.17120000000E+03  0.17120000000E+03 0.  0.
         13    1    1    2    0    0  0.20671025615E+02 -0.55578845035E+01  0.89862490639E+02  0.92376727416E+02  0.10566000000E+00 0.  1.
        994    1    1    2    0    0 -0.36734042754E+01  0.53429947580E+00  0.27232503157E+01  0.17126189146E+03  0.17120000000E+03 0.  0.
        998    1    1    2    0    0 -0.16997621340E+02  0.50235850277E+01  0.14074142553E+04  0.14075613811E+04  0.10000000000E+02 0.  1.
</event>
<event>
 5    1  0.1675361E-008  0.3830862E+03  0.7957747E-01  0.3437829E+00
         13   -1    0    0    0    0  0.00000000000E+00  0.00000000000E+00  0.14999999963E+04  0.15000000000E+04  0.10566000000E+00 0.  1.
        994   -1    0    0    0    0 -0.00000000000E+00 -0.00000000000E+00  0.11368683772E-12  0.17120000000E+03  0.17120000000E+03 0.  0.
         13    1    1    2    0    0  0.60523450886E+01  0.13338019620E+02  0.39902951854E+02  0.42506356926E+02  0.10566000000E+00 0.  1.
        994    1    1    2    0    0 -0.54041041864E+01 -0.13762430395E+02  0.33070223195E+01  0.17186909329E+03  0.17120000000E+03 0.  0.
        998    1    1    2    0    0 -0.64824090215E+00  0.42441077532E+00  0.14567900221E+04  0.14568245498E+04  0.10000000000E+02 0.  1.
</event>
<event>
 5    1  0.1675361E-008  0.3777422E+03  0.7957747E-01  0.3461049E+00
         13   -1    0    0    0    0  0.00000000000E+00  0.00000000000E+00  0.14999999963E+04  0.15000000000E+04  0.10566000000E+00 0. -1.
        994   -1    0    0    0    0 -0.00000000000E+00 -0.00000000000E+00  0.11368683772E-12  0.17120000000E+03  0.17120000000E+03 0.  0.
         13    1    1    2    0    0 -0.42132314636E+02  0.41334576259E+02  0.25682167767E+03  0.26351672512E+03  0.10566000000E+00 0. -1.
        994    1    1    2    0    0  0.42706771402E+02 -0.52306618342E+02  0.20792255431E+02  0.18520693435E+03  0.17120000000E+03 0.  0.
        998    1    1    2    0    0 -0.57445676658E+00  0.10972042084E+02  0.12223860632E+04  0.12224763405E+04  0.10000000000E+02 0. -1.
</event>
<event>
 5    1  0.1675361E-008  0.3763226E+03  0.7957747E-01  0.3467329E+00
         13   -1    0    0    0    0  0.00000000000E+00  0.00000000000E+00  0.14999999963E+04  0.15000000000E+04  0.10566000000E+00 0. -1.
        994   -1    0    0    0    0 -0.00000000000E+00 -0.00000000000E+00  0.11368683772E-12  0.17120000000E+03  0.17120000000E+03 0.  0.
         13    1    1    2    0    0 -0.17774096331E+02  0.38332530901E+02  0.13870092847E+03  0.14499400038E+03  0.10566000000E+00 0. -1.
        994    1    1    2    0    0  0.20170595001E+02 -0.30279877497E+02  0.10493840161E+02  0.17533763020E+03  0.17120000000E+03 0.  0.
        998    1    1    2    0    0 -0.23964986693E+01 -0.80526534046E+01  0.13508052277E+04  0.13508683694E+04  0.10000000000E+02 0.  1.
</event>
<event>
 5    1  0.1675361E-008  0.3847899E+03  0.7957747E-01  0.3430564E+00
         13   -1    0    0    0    0  0.00000000000E+00  0.00000000000E+00  0.14999999963E+04  0.15000000000E+04  0.10566000000E+00 0. -1.
        994   -1    0    0    0    0 -0.00000000000E+00 -0.00000000000E+00  0.11368683772E-12  0.17120000000E+03  0.17120000000E+03 0.  0.
         13    1    1    2    0    0  0.17568209809E+02  0.12264170497E+02  0.12153052551E+03  0.12340474735E+03  0.10566000000E+00 0. -1.
        994    1    1    2    0    0 -0.18977644593E+02 -0.13874181355E+02  0.35553107246E+01  0.17284306216E+03  0.17120000000E+03 0.  0.
        998    1    1    2    0    0  0.14094347834E+01  0.16100108576E+01  0.13749141600E+04  0.13749521905E+04  0.10000000000E+02 0. -1.
</event>
<event>
 5    1  0.1675361E-008  0.3807217E+03  0.7957747E-01  0.3448022E+00
         13   -1    0    0    0    0  0.00000000000E+00  0.00000000000E+00  0.14999999963E+04  0.15000000000E+04  0.10566000000E+00 0.  1.
        994   -1    0    0    0    0 -0.00000000000E+00 -0.00000000000E+00  0.11368683772E-12  0.17120000000E+03  0.17120000000E+03 0.  0.
         13    1    1    2    0    0 -0.40745881757E+02 -0.64161571935E+01  0.24617326374E+03  0.24960504982E+03  0.10566000000E+00 0.  1.
        994    1    1    2    0    0  0.15037564994E+02 -0.92118223780E+01  0.48070705163E+01  0.17217297686E+03  0.17120000000E+03 0.  0.
        998    1    1    2    0    0  0.25708316762E+02  0.15627979571E+02  0.12490196620E+04  0.12494219733E+04  0.10000000000E+02 0.  1.
</event>
<event>
 5    1  0.1675361E-008  0.3735335E+03  0.7957747E-01  0.3479807E+00
         13   -1    0    0    0    0  0.00000000000E+00  0.00000000000E+00  0.14999999963E+04  0.15000000000E+04  0.10566000000E+00 0. -1.
        994   -1    0    0    0    0 -0.00000000000E+00 -0.00000000000E+00  0.11368683772E-12  0.17120000000E+03  0.17120000000E+03 0.  0.
         13    1    1    2    0    0 -0.48700002732E+02  0.79286080689E+02  0.41825357403E+03  0.42847874651E+03  0.10566000000E+00 0. -1.
        994    1    1    2    0    0  0.53876458131E+02 -0.74626367503E+02  0.36951238144E+02  0.19785500112E+03  0.17120000000E+03 0.  0.
        998    1    1    2    0    0 -0.51764553992E+01 -0.46597131862E+01  0.10447951841E+04  0.10448662524E+04  0.10000000000E+02 0. -1.
</event>
<event>
 5    1  0.1675361E-008  0.3788985E+03  0.7957747E-01  0.3455969E+00
         13   -1    0    0    0    0  0.00000000000E+00  0.00000000000E+00  0.14999999963E+04  0.15000000000E+04  0.10566000000E+00 0.  1.
        994   -1    0    0    0    0 -0.00000000000E+00 -0.00000000000E+00  0.11368683772E-12  0.17120000000E+03  0.17120000000E+03 0.  0.
         13    1    1    2    0    0 -0.17480623249E+02 -0.11591260243E+02  0.45452090718E+02  0.50058298192E+02  0.10566000000E+00 0.  1.
        994    1    1    2    0    0  0.17801798309E+02 -0.59783059755E+01  0.58742784918E+01  0.17232698951E+03  0.17120000000E+03 0.  0.
        998    1    1    2    0    0 -0.32117505998E+00  0.17569566219E+02  0.14486736271E+04  0.14488147123E+04  0.10000000000E+02 0.  1.
</event>
<event>
 5    1  0.1675361E-008  0.3853384E+03  0.7957747E-01  0.3428238E+00
         13   -1    0    0    0    0  0.00000000000E+00  0.00000000000E+00  0.14999999963E+04  0.15000000000E+04  0.10566000000E+00 0. -1.
        994   -1    0    0    0    0 -0.00000000000E+00 -0.00000000000E+00  0.11368683772E-12  0.17120000000E+03  0.17120000000E+03 0.  0.
         13    1    1    2    0    0 -0.93606934743E+01  0.64832919164E+01  0.43497129367E+02  0.44962952346E+02  0.10566000000E+00 0. -1.
        994    1    1    2    0    0  0.11662272272E+02 -0.33172371759E+01  0.19453064439E+01  0.17163984641E+03  0.17120000000E+03 0.  0.
        998    1    1    2    0    0 -0.23015787979E+01 -0.31660547405E+01  0.14545575605E+04  0.14545972012E+04  0.10000000000E+02 0. -1.
</event>
<event>
 5    1  0.1675361E-008  0.3847267E+03  0.7957747E-01  0.3430832E+00
         13   -1    0    0    0    0  0.00000000000E+00  0.00000000000E+00  0.14999999963E+04  0.15000000000E+04  0.10566000000E+00 0.  1.
        994   -1    0    0    0    0 -0.00000000000E+00 -0.00000000000E+00  0.11368683772E-12  0.17120000000E+03  0.17120000000E+03 0.  0.
         13    1    1    2    0    0  0.13513967644E+02 -0.42470907647E+01  0.54986623049E+02  0.56782083264E+02  0.10566000000E+00 0.  1.
        994    1    1    2    0    0 -0.12285578229E+02  0.10244063041E+02  0.26085739906E+01  0.17196546432E+03  0.17120000000E+03 0.  0.
        998    1    1    2    0    0 -0.12283894155E+01 -0.59969722764E+01  0.14424047992E+04  0.14424524524E+04  0.10000000000E+02 0.  1.
</event>
<event>
 5    1  0.1675361E-008  0.3850156E+03  0.7957747E-01  0.3429606E+00
         13   -1    0    0    0    0  0.00000000000E+00  0.00000000000E+00  0.14999999963E+04  0.15000000000E+04  0.10566000000E+00 0. -1.
        994   -1    0    0    0    0 -0.00000000000E+00 -0.00000000000E+00  0.11368683772E-12  0.17120000000E+03  0.17120000000E+03 0.  0.
         13    1    1    2    0    0 -0.16595261430E+02  0.90501711137E+01  0.99496396989E+02  0.10127611997E+03  0.10566000000E+00 0. -1.
        994    1    1    2    0    0  0.21279632217E+02 -0.13758469779E+02  0.37368289104E+01  0.17310552310E+03  0.17120000000E+03 0.  0.
        998    1    1    2    0    0 -0.46843707867E+01  0.47082986656E+01  0.13967667704E+04  0.13968183569E+04  0.10000000000E+02 0. -1.
</event>
<event>
 5    1  0.1675361E-008  0.3841751E+03  0.7957747E-01  0.3433178E+00
         13   -1    0    0    0    0  0.00000000000E+00  0.00000000000E+00  0.14999999963E+04  0.15000000000E+04  0.10566000000E+00 0. -1.
        994   -1    0    0    0    0 -0.00000000000E+00 -0.00000000000E+00  0.11368683772E-12  0.17120000000E+03  0.17120000000E+03 0.  0.
         13    1    1    2    0    0 -0.24021660067E+00  0.21179355103E+02  0.10928194324E+03  0.11131566407E+03  0.10566000000E+00 0. -1.
        994    1    1    2    0    0  0.13769591052E+02 -0.13715345279E+02  0.32867379013E+01  0.17233094609E+03  0.17120000000E+03 0.  0.
        998    1    1    2    0    0 -0.13529374452E+02 -0.74640098236E+01  0.13874313151E+04  0.13875533898E+04  0.10000000000E+02 0. -1.
</event>
<event>
 5    1  0.1675361E-008  0.3805495E+03  0.7957747E-01  0.3448769E+00
         13   -1    0    0    0    0  0.00000000000E+00  0.00000000000E+00  0.14999999963E+04  0.15000000000E+04  0.10566000000E+00 0.  1.
        994   -1    0    0    0    0 -0.00000000000E+00 -0.00000000000E+00  0.11368683772E-12  0.17120000000E+03  0.17120000000E+03 0.  0.
         13    1    1    2    0    0 -0.42580088729E+01 -0.15498785312E+02  0.30665048541E+02  0.34622237821E+02  0.10566000000E+00 0.  1.
        994    1    1    2    0    0 -0.69596390939E+01  0.27072563101E+02  0.64676857747E+01  0.17358753183E+03  0.17120000000E+03 0.  0.
        998    1    1    2    0    0  0.11217647967E+02 -0.11573777789E+02  0.14628672620E+04  0.14629902303E+04  0.10000000000E+02 0.  1.
</event>
<event>
 5    1  0.1675361E-008  0.3841885E+03  0.7957747E-01  0.3433121E+00
         13   -1    0    0    0    0  0.00000000000E+00  0.00000000000E+00  0.14999999963E+04  0.15000000000E+04  0.10566000000E+00 0. -1.
        994   -1    0    0    0    0 -0.00000000000E+00 -0.00000000000E+00  0.11368683772E-12  0.17120000000E+03  0.17120000000E+03 0.  0.
         13    1    1    2    0    0  0.83316775287E+01 -0.73547035442E+01  0.28436185453E+02  0.30530907648E+02  0.10566000000E+00 0. -1.
        994    1    1    2    0    0 -0.43554824567E+01  0.25196865026E+02  0.41924927715E+01  0.17314984617E+03  0.17120000000E+03 0.  0.
        998    1    1    2    0    0 -0.39761950720E+01 -0.17842161481E+02  0.14673713181E+04  0.14675192462E+04  0.10000000000E+02 0. -1.
</event>
<event>
 5    1  0.1675361E-008  0.3835762E+03  0.7957747E-01  0.3435733E+00
         13   -1    0    0    0    0  0.00000000000E+00  0.00000000000E+00  0.14999999963E+04  0.15000000000E+04  0.10566000000E+00 0. -1.
        994   -1    0    0    0    0 -0.00000000000E+00 -0.00000000000E+00  0.11368683772E-12  0.17120000000E+03  0.17120000000E+03 0.  0.
         13    1    1    2    0    0  0.55291540347E+01  0.91819920171E+01  0.24316151602E+02  0.26573801280E+02  0.10566000000E+00 0. -1.
        994    1    1    2    0    0 -0.44157645889E+01  0.13908204711E+01  0.24094747562E+01  0.17127953447E+03  0.17120000000E+03 0.  0.
        998    1    1    2    0    0 -0.11133894458E+01 -0.10572812488E+02  0.14732743699E+04  0.14733466643E+04  0.10000000000E+02 0. -1.
</event>
<event>
 5    1  0.1675361E-008  0.3848005E+03  0.7957747E-01  0.3430519E+00
         13   -1    0    0    0    0  0.00000000000E+00  0.00000000000E+00  0.14999999963E+04  0.15000000000E+04  0.10566000000E+00 0.  1.
        994   -1    0    0    0    0 -0.00000000000E+00 -0.00000000000E+00  0.11368683772E-12  0.17120000000E+03  0.17120000000E+03 0.  0.
         13    1    1    2    0    0 -0.11765163805E+02 -0.22680996454E+01  0.41895403489E+02  0.43575214892E+02  0.10566000000E+00 0.  1.
        994    1    1    2    0    0  0.64435384434E+01 -0.55568740188E+01  0.19674965454E+01  0.17142260376E+03  0.17120000000E+03 0.  0.
        998    1    1    2    0    0  0.53216253612E+01  0.78249736641E+01  0.14561370962E+04  0.14562021813E+04  0.10000000000E+02 0.  1.
</event>
<event>
 5    1  0.1675361E-008  0.3838179E+03  0.7957747E-01  0.3434701E+00
         13   -1    0    0    0    0  0.00000000000E+00  0.00000000000E+00  0.14999999963E+04  0.15000000000E+04  0.10566000000E+00 0.  1.
        994   -1    0    0    0    0 -0.00000000000E+00 -0.00000000000E+00  0.11368683772E-12  0.17120000000E+03  0.17120000000E+03 0.  0.
         13    1    1    2    0    0 -0.15345388057E+01 -0.22954127048E+02  0.12912926104E+03  0.13116258604E+03  0.10566000000E+00 0.  1.
        994    1    1    2    0    0 -0.32858277115E+02  0.76090780113E+01  0.59826525066E+01  0.17459323175E+03  0.17120000000E+03 0.  0.
        998    1    1    2    0    0  0.34392815921E+02  0.15345049036E+02  0.13648880827E+04  0.13654441822E+04  0.10000000000E+02 0.  1.
</event>
<event>
 5    1  0.1675361E-008  0.3738281E+03  0.7957747E-01  0.3478480E+00
         13   -1    0    0    0    0  0.00000000000E+00  0.00000000000E+00  0.14999999963E+04  0.15000000000E+04  0.10566000000E+00 0. -1.
        994   -1    0    0    0    0 -0.00000000000E+00 -0.00000000000E+00  0.11368683772E-12  0.17120000000E+03  0.17120000000E+03 0.  0.
         13    1    1    2    0    0  0.29171501386E+02  0.90781768417E+02  0.45999736121E+03  0.46977642496E+03  0.10566000000E+00 0. -1.
        994    1    1    2    0    0 -0.18831008565E+02 -0.86112678024E+02  0.34280596723E+02  0.19558783068E+03  0.17120000000E+03 0.  0.
        998    1    1    2    0    0 -0.10340492821E+02 -0.46690903928E+01  0.10057220383E+04  0.10058357444E+04  0.10000000000E+02 0.  0.
</event>
<event>
 5    1  0.1675361E-008  0.3790482E+03  0.7957747E-01  0.3455313E+00
         13   -1    0    0    0    0  0.00000000000E+00  0.00000000000E+00  0.14999999963E+04  0.15000000000E+04  0.10566000000E+00 0.  1.
        994   -1    0    0    0    0 -0.00000000000E+00 -0.00000000000E+00  0.11368683772E-12  0.17120000000E+03  0.17120000000E+03 0.  0.
         13    1    1    2    0    0  0.22677329986E+02  0.23625289606E+02  0.10466345894E+03  0.10966707075E+03  0.10566000000E+00 0.  1.
        994    1    1    2    0    0 -0.25264856712E+02 -0.28410792502E+02  0.94770732985E+01  0.17562670934E+03  0.17120000000E+03 0.  0.
        998    1    1    2    0    0  0.25875267269E+01  0.47855028969E+01  0.13858594640E+04  0.13859062199E+04  0.10000000000E+02 0.  0.
</event>
<event>
 5    1  0.1675361E-008  0.3950792E+03  0.7957747E-01  0.3388018E+00
         13   -1    0    0    0    0  0.00000000000E+00  0.00000000000E+00  0.14999999963E+04  0.15000000000E+04  0.10566000000E+00 0. -1.
        994   -1    0    0    0    0 -0.00000000000E+00 -0.00000000000E+00  0.11368683772E-12  0.17120000000E+03  0.17120000000E+03 0.  0.
         13    1    1    2    0    0  0.35524108452E+02  0.72381740737E+01  0.19562627450E+02  0.41195400253E+02  0.10566000000E+00 0. -1.
        994    1    1    2    0    0  0.48704880055E+02 -0.20670783223E+02  0.35692594559E+02  0.18270973681E+03  0.17120000000E+03 0.  0.
        998    1    1    2    0    0 -0.84228988506E+02  0.13432609149E+02  0.14447447743E+04  0.14472948629E+04  0.10000000000E+02 0. -1.
</event>
<event>
 5    1  0.1675361E-008  0.3768667E+03  0.7957747E-01  0.3464916E+00
         13   -1    0    0    0    0  0.00000000000E+00  0.00000000000E+00  0.14999999963E+04  0.15000000000E+04  0.10566000000E+00 0.  1.
        994   -1    0    0    0    0 -0.00000000000E+00 -0.00000000000E+00  0.11368683772E-12  0.17120000000E+03  0.17120000000E+03 0.  0.
         13    1    1    2    0    0  0.17502714895E+02 -0.34056436149E+02  0.15470621018E+03  0.15937442864E+03  0.10566000000E+00 0.  1.
        994    1    1    2    0    0 -0.49356409253E+02 -0.35788984423E+02  0.18383540197E+02  0.18265897484E+03  0.17120000000E+03 0.  0.
        998    1    1    2    0    0  0.31853694359E+02  0.69845420572E+02  0.13269102459E+04  0.13291665965E+04  0.10000000000E+02 0.  1.
</event>
<event>
 5    1  0.1675361E-008  0.3841295E+03  0.7957747E-01  0.3433372E+00
         13   -1    0    0    0    0  0.00000000000E+00  0.00000000000E+00  0.14999999963E+04  0.15000000000E+04  0.10566000000E+00 0.  1.
        994   -1    0    0    0    0 -0.00000000000E+00 -0.00000000000E+00  0.11368683772E-12  0.17120000000E+03  0.17120000000E+03 0.  0.
         13    1    1    2    0    0 -0.28170812817E+01  0.26994695232E+02  0.16110527407E+03  0.16337554901E+03  0.10566000000E+00 0.  1.
        994    1    1    2    0    0  0.59668084287E+01 -0.27121078077E+02  0.46103167552E+01  0.17349884927E+03  0.17120000000E+03 0.  0.
        998    1    1    2    0    0 -0.31497271470E+01  0.12638284587E+00  0.13342844055E+04  0.13343256017E+04  0.10000000000E+02 0.  1.
</event>
<event>
 5    1  0.1905655E-008  0.3850080E+03  0.7957747E-01  0.3429638E+00
         13   -1    0    0    0    0  0.00000000000E+00  0.00000000000E+00  0.14999999963E+04  0.15000000000E+04  0.10566000000E+00 0. -1.
        994   -1    0    0    0    0 -0.00000000000E+00 -0.00000000000E+00  0.11368683772E-12  0.17120000000E+03  0.17120000000E+03 0.  0.
         13    1    1    2    0    0 -0.11544443439E+01 -0.10376938195E+02  0.32647113514E+02  0.34276212931E+02  0.10566000000E+00 0. -1.
        994    1    1    2    0    0  0.89350576051E+00  0.11556541669E+02  0.20681134825E+01  0.17160439709E+03  0.17120000000E+03 0.  0.
        998    1    1    2    0    0  0.26093858336E+00 -0.11796034744E+01  0.14652847693E+04  0.14653193900E+04  0.10000000000E+02 0. -1.
</event>
<event>
 5    1  0.1675361E-008  0.3848828E+03  0.7957747E-01  0.3430170E+00
         13   -1    0    0    0    0  0.00000000000E+00  0.00000000000E+00  0.14999999963E+04  0.15000000000E+04  0.10566000000E+00 0.  1.
        994   -1    0    0    0    0 -0.00000000000E+00 -0.00000000000E+00  0.11368683772E-12  0.17120000000E+03  0.17120000000E+03 0.  0.
         13    1    1    2    0    0  0.11394972141E+02 -0.14968447258E+02  0.11216039766E+03  0.11372715494E+03  0.10566000000E+00 0.  1.
        994    1    1    2    0    0 -0.10806325730E+02 -0.32728717871E+01  0.21078947515E+01  0.17158488158E+03  0.17120000000E+03 0.  0.
        998    1    1    2    0    0 -0.58864641102E+00  0.18241319045E+02  0.13857317039E+04  0.13858879635E+04  0.10000000000E+02 0.  1.
</event>
<event>
 5    1  0.1675361E-008  0.3784298E+03  0.7957747E-01  0.3458024E+00
         13   -1    0    0    0    0  0.00000000000E+00  0.00000000000E+00  0.14999999963E+04  0.15000000000E+04  0.10566000000E+00 0.  1.
        994   -1    0    0    0    0 -0.00000000000E+00 -0.00000000000E+00  0.11368683772E-12  0.17120000000E+03  0.17120000000E+03 0.  0.
         13    1    1    2    0    0  0.41985077997E+02  0.70556072651E+02  0.49558180102E+03  0.50233677830E+03  0.10566000000E+00 0.  1.
        994    1    1    2    0    0 -0.27582365971E+02 -0.71640470886E+02  0.24993395480E+02  0.18928088598E+03  0.17120000000E+03 0.  0.
        998    1    1    2    0    0 -0.14402712026E+02  0.10843982357E+01  0.97942479978E+03  0.97958233572E+03  0.10000000000E+02 0.  1.
</event>
<event>
 5    1  0.1675361E-008  0.3732237E+03  0.7957747E-01  0.3481205E+00
         13   -1    0    0    0    0  0.00000000000E+00  0.00000000000E+00  0.14999999963E+04  0.15000000000E+04  0.10566000000E+00 0. -1.
        994   -1    0    0    0    0 -0.00000000000E+00 -0.00000000000E+00  0.11368683772E-12  0.17120000000E+03  0.17120000000E+03 0.  0.
         13    1    1    2    0    0 -0.18297896910E+02  0.71099508071E+02  0.33067845661E+03  0.33873028490E+03  0.10566000000E+00 0. -1.
        994    1    1    2    0    0  0.15373903647E+02 -0.48180767037E+02  0.16391448792E+02  0.17926478410E+03  0.17120000000E+03 0.  0.
        998    1    1    2    0    0  0.29239932632E+01 -0.22918741034E+02  0.11529300909E+04  0.11532049310E+04  0.10000000000E+02 0. -1.
</event>
<event>
 5    1  0.1675361E-008  0.3741689E+03  0.7957747E-01  0.3476948E+00
         13   -1    0    0    0    0  0.00000000000E+00  0.00000000000E+00  0.14999999963E+04  0.15000000000E+04  0.10566000000E+00 0. -1.
        994   -1    0    0    0    0 -0.00000000000E+00 -0.00000000000E+00  0.11368683772E-12  0.17120000000E+03  0.17120000000E+03 0.  0.
         13    1    1    2    0    0  0.11412090060E+02  0.25570823556E+01  0.64192145769E+01  0.13341362357E+02  0.10566000000E+00 0. -1.
        994    1    1    2    0    0 -0.34150323573E+01 -0.90906777977E+01  0.74276540379E+01  0.17163598956E+03  0.17120000000E+03 0.  0.
        998    1    1    2    0    0 -0.79970577028E+01  0.65335954422E+01  0.14861531277E+04  0.14862226481E+04  0.10000000000E+02 0. -1.
</event>
<event>
 5    1  0.1675361E-008  0.3835962E+03  0.7957747E-01  0.3435648E+00
         13   -1    0    0    0    0  0.00000000000E+00  0.00000000000E+00  0.14999999963E+04  0.15000000000E+04  0.10566000000E+00 0.  1.
        994   -1    0    0    0    0 -0.00000000000E+00 -0.00000000000E+00  0.11368683772E-12  0.17120000000E+03  0.17120000000E+03 0.  0.
         13    1    1    2    0    0  0.93646051544E+01  0.97420733516E+01  0.39188914540E+02  0.41453419760E+02  0.10566000000E+00 0.  1.
        994    1    1    2    0    0 -0.98841634846E+01  0.21713152488E+01  0.26671252140E+01  0.17151957572E+03  0.17120000000E+03 0.  0.
        998    1    1    2    0    0  0.51955833021E+00 -0.11913388600E+02  0.14581439565E+04  0.14582270045E+04  0.10000000000E+02 0.  1.
</event>
<event>
 5    1  0.1675361E-008  0.3812966E+03  0.7957747E-01  0.3445532E+00
         13   -1    0    0    0    0  0.00000000000E+00  0.00000000000E+00  0.14999999963E+04  0.15000000000E+04  0.10566000000E+00 0. -1.
        994   -1    0    0    0    0 -0.00000000000E+00 -0.00000000000E+00  0.11368683772E-12  0.17120000000E+03  0.17120000000E+03 0.  0.
         13    1    1    2    0    0 -0.32368497025E+02 -0.14303903195E+03  0.81548985786E+03  0.82857202686E+03  0.10566000000E+00 0. -1.
        994    1    1    2    0    0  0.51820941037E+02  0.15978822987E+03  0.10393456400E+03  0.26139916207E+03  0.17120000000E+03 0.  0.
        998    1    1    2    0    0 -0.19452444012E+02 -0.16749197917E+02  0.58057557442E+03  0.58122881108E+03  0.10000000000E+02 0. -1.
</event>
<event>
 5    1  0.1675361E-008  0.3836799E+03  0.7957747E-01  0.3435290E+00
         13   -1    0    0    0    0  0.00000000000E+00  0.00000000000E+00  0.14999999963E+04  0.15000000000E+04  0.10566000000E+00 0.  1.
        994   -1    0    0    0    0 -0.00000000000E+00 -0.00000000000E+00  0.11368683772E-12  0.17120000000E+03  0.17120000000E+03 0.  0.
         13    1    1    2    0    0  0.18579887303E+02  0.24935338087E+01  0.76251104695E+02  0.78521793499E+02  0.10566000000E+00 0.  1.
        994    1    1    2    0    0 -0.12881475915E+02  0.46033741259E+01  0.29052314862E+01  0.17177020651E+03  0.17120000000E+03 0.  0.
        998    1    1    2    0    0 -0.56984113879E+01 -0.70969079347E+01  0.14208436601E+04  0.14209080000E+04  0.10000000000E+02 0.  1.
</event>
<event>
 5    1  0.1675361E-008  0.3857748E+03  0.7957747E-01  0.3426393E+00
         13   -1    0    0    0    0  0.00000000000E+00  0.00000000000E+00  0.14999999963E+04  0.15000000000E+04  0.10566000000E+00 0. -1.
        994   -1    0    0    0    0 -0.00000000000E+00 -0.00000000000E+00  0.11368683772E-12  0.17120000000E+03  0.17120000000E+03 0.  0.
         13    1    1    2    0    0 -0.15470347773E+01 -0.13650229283E+02  0.75861548252E+02  0.77095445671E+02  0.10566000000E+00 0. -1.
        994    1    1    2    0    0  0.12236444403E+01  0.98112700593E+01  0.15666853174E+01  0.17149242791E+03  0.17120000000E+03 0.  0.
        998    1    1    2    0    0  0.32339033695E+00  0.38389592232E+01  0.14225717627E+04  0.14226121264E+04  0.10000000000E+02 0. -1.
</event>
<event>
 5    1  0.1675361E-008  0.3742489E+03  0.7957747E-01  0.3476589E+00
         13   -1    0    0    0    0  0.00000000000E+00  0.00000000000E+00  0.14999999963E+04  0.15000000000E+04  0.10566000000E+00 0.  1.
        994   -1    0    0    0    0 -0.00000000000E+00 -0.00000000000E+00  0.11368683772E-12  0.17120000000E+03  0.17120000000E+03 0.  0.
         13    1    1    2    0    0 -0.10883338848E+02  0.37845458104E+02  0.10120799580E+03  0.10859924190E+03  0.10566000000E+00 0.  1.
        994    1    1    2    0    0  0.14565777463E+02 -0.35471348090E+02  0.12092232608E+02  0.17585801232E+03  0.17120000000E+03 0.  0.
        998    1    1    2    0    0 -0.36824386146E+01 -0.23741100139E+01  0.13866997679E+04  0.13867427458E+04  0.10000000000E+02 0.  1.
</event>
<event>
 5    1  0.1675361E-008  0.3855269E+03  0.7957747E-01  0.3427440E+00
         13   -1    0    0    0    0  0.00000000000E+00  0.00000000000E+00  0.14999999963E+04  0.15000000000E+04  0.10566000000E+00 0. -1.
        994   -1    0    0    0    0 -0.00000000000E+00 -0.00000000000E+00  0.11368683772E-12  0.17120000000E+03  0.17120000000E+03 0.  0.
         13    1    1    2    0    0 -0.15374769160E+02  0.51567611235E+01  0.92946707629E+02  0.94350820532E+02  0.10566000000E+00 0. -1.
        994    1    1    2    0    0  0.14839713464E+02 -0.32951126682E+01  0.21277462590E+01  0.17188671318E+03  0.17120000000E+03 0.  0.
        998    1    1    2    0    0  0.53505569548E+00 -0.18616484553E+01  0.14049255424E+04  0.14049624663E+04  0.10000000000E+02 0.  0.
</event>
<event>
 5    1  0.1675361E-008  0.3787792E+03  0.7957747E-01  0.3456492E+00
         13   -1    0    0    0    0  0.00000000000E+00  0.00000000000E+00  0.14999999963E+04  0.15000000000E+04  0.10566000000E+00 0.  1.
        994   -1    0    0    0    0 -0.00000000000E+00 -0.00000000000E+00  0.11368683772E-12  0.17120000000E+03  0.17120000000E+03 0.  0.
         13    1    1    2    0    0 -0.11184250911E+03 -0.14125724072E+03  0.10194646293E+04  0.10352634914E+04  0.10566000000E+00 0.  1.
        994    1    1    2    0    0  0.11062783204E+03  0.13516721968E+03  0.11509284675E+03  0.27030445404E+03  0.17120000000E+03 0.  0.
        998    1    1    2    0    0  0.12146770697E+01  0.60900210371E+01  0.36544252018E+03  0.36563205460E+03  0.10000000000E+02 0.  0.
</event>
<event>
 5    1  0.1675361E-008  0.3831931E+03  0.7957747E-01  0.3437372E+00
         13   -1    0    0    0    0  0.00000000000E+00  0.00000000000E+00  0.14999999963E+04  0.15000000000E+04  0.10566000000E+00 0.  1.
        994   -1    0    0    0    0 -0.00000000000E+00 -0.00000000000E+00  0.11368683772E-12  0.17120000000E+03  0.17120000000E+03 0.  0.
         13    1    1    2    0    0  0.80299666439E+01  0.88695039952E+01  0.26879894476E+02  0.29422582424E+02  0.10566000000E+00 0.  1.
        994    1    1    2    0    0 -0.82371825157E+01 -0.11502677313E+02  0.31923245332E+01  0.17181325239E+03  0.17120000000E+03 0.  0.
        998    1    1    2    0    0  0.20721587179E+00  0.26331733174E+01  0.14699277773E+04  0.14699641652E+04  0.10000000000E+02 0.  1.
</event>
<event>
 5    1  0.1675361E-008  0.4012786E+03  0.7957747E-01  0.3363436E+00
         13   -1    0    0    0    0  0.00000000000E+00  0.00000000000E+00  0.14999999963E+04  0.15000000000E+04  0.10566000000E+00 0. -1.
        994   -1    0    0    0    0 -0.00000000000E+00 -0.00000000000E+00  0.11368683772E-12  0.17120000000E+03  0.17120000000E+03 0.  0.
         13    1    1    2    0    0  0.16150222881E+02 -0.78857344079E+02  0.99259113616E+02  0.12779551328E+03  0.10566000000E+00 0. -1.
        994    1    1    2    0    0 -0.89347910566E+01  0.76171224142E+02  0.52085527182E+02  0.19469008198E+03  0.17120000000E+03 0.  0.
        998    1    1    2    0    0 -0.72154318244E+01  0.26861199373E+01  0.13486553555E+04  0.13487144047E+04  0.10000000000E+02 0. -1.
</event>
<event>
 5    1  0.1675361E-008  0.3809310E+03  0.7957747E-01  0.3447115E+00
         13   -1    0    0    0    0  0.00000000000E+00  0.00000000000E+00  0.14999999963E+04  0.15000000000E+04  0.10566000000E+00 0. -1.
        994   -1    0    0    0    0 -0.00000000000E+00 -0.00000000000E+00  0.11368683772E-12  0.17120000000E+03  0.17120000000E+03 0.  0.
         13    1    1    2    0    0 -0.33467791233E+02 -0.69260992452E+02  0.18017505423E+03  0.19590875288E+03  0.10566000000E+00 0. -1.
        994    1    1    2    0    0 -0.93278337491E+01  0.43123125003E+02  0.23950940531E+02  0.17840880008E+03  0.17120000000E+03 0.  0.
        998    1    1    2    0    0  0.42795624982E+02  0.26137867449E+02  0.12958740015E+04  0.12968824470E+04  0.10000000000E+02 0. -1.
</event>
<event>
 5    1  0.1675361E-008  0.3754607E+03  0.7957747E-01  0.3471165E+00
         13   -1    0    0    0    0  0.00000000000E+00  0.00000000000E+00  0.14999999963E+04  0.15000000000E+04  0.10566000000E+00 0.  1.
        994   -1    0    0    0    0 -0.00000000000E+00 -0.00000000000E+00  0.11368683772E-12  0.17120000000E+03  0.17120000000E+03 0.  0.
         13    1    1    2    0    0  0.10261732592E+02 -0.15655974858E+02  0.24683317095E+02  0.30978863947E+02  0.10566000000E+00 0.  1.
        994    1    1    2    0    0 -0.63031476961E+01  0.77787978769E+01  0.67826328052E+01  0.17162658149E+03  0.17120000000E+03 0.  0.
        998    1    1    2    0    0 -0.39585848964E+01  0.78771769816E+01  0.14685340464E+04  0.14685945546E+04  0.10000000000E+02 0.  1.
</event>
<event>
 5    1  0.1675361E-008  0.3774902E+03  0.7957747E-01  0.3462160E+00
         13   -1    0    0    0    0  0.00000000000E+00  0.00000000000E+00  0.14999999963E+04  0.15000000000E+04  0.10566000000E+00 0.  1.
        994   -1    0    0    0    0 -0.00000000000E+00 -0.00000000000E+00  0.11368683772E-12  0.17120000000E+03  0.17120000000E+03 0.  0.
         13    1    1    2    0    0  0.12840929875E+02 -0.68709050940E+02  0.32708978519E+03  0.33447505423E+03  0.10566000000E+00 0.  1.
        994    1    1    2    0    0 -0.17380076406E+02  0.76275685922E+02  0.26321523490E+02  0.19005870124E+03  0.17120000000E+03 0.  0.
        998    1    1    2    0    0  0.45391465317E+01 -0.75666349818E+01  0.11465886876E+04  0.11466662445E+04  0.10000000000E+02 0.  1.
</event>
<event>
 5    1  0.1675361E-008  0.3830195E+03  0.7957747E-01  0.3438115E+00
         13   -1    0    0    0    0  0.00000000000E+00  0.00000000000E+00  0.14999999963E+04  0.15000000000E+04  0.10566000000E+00 0.  1.
        994   -1    0    0    0    0 -0.00000000000E+00 -0.00000000000E+00  0.11368683772E-12  0.17120000000E+03  0.17120000000E+03 0.  0.
         13    1    1    2    0    0  0.81096210143E+01  0.13272226671E+02  0.43929911081E+02  0.46602212452E+02  0.10566000000E+00 0.  1.
        994    1    1    2    0    0 -0.13718181369E+01 -0.20552355532E+02  0.40222040243E+01  0.17248159127E+03  0.17120000000E+03 0.  0.
        998    1    1    2    0    0 -0.67378028773E+01  0.72801288609E+01  0.14520478812E+04  0.14521161963E+04  0.10000000000E+02 0.  1.
</event>
<event>
 5    1  0.1675361E-008  0.2509084E+03  0.7957747E-01  0.4323791E+00
         13   -1    0    0    0    0  0.00000000000E+00  0.00000000000E+00  0.14999999963E+04  0.15000000000E+04  0.10566000000E+00 0.  1.
        994   -1    0    0    0    0 -0.00000000000E+00 -0.00000000000E+00  0.11368683772E-12  0.17120000000E+03  0.17120000000E+03 0.  0.
         13    1    1    2    0    0 -0.13791241373E+03 -0.11581874822E+03  0.26278766985E+03  0.31857681474E+03  0.10566000000E+00 0.  1.
        994    1    1    2    0    0  0.12177036883E+03  0.12751703754E+03  0.20462755542E+03  0.31979758289E+03  0.17120000000E+03 0.  0.
        998    1    1    2    0    0  0.16142044901E+02 -0.11698289318E+02  0.10325847710E+04  0.10328256024E+04  0.10000000000E+02 0.  1.
</event>
<event>
 5    1  0.1675361E-008  0.3861119E+03  0.7957747E-01  0.3424970E+00
         13   -1    0    0    0    0  0.00000000000E+00  0.00000000000E+00  0.14999999963E+04  0.15000000000E+04  0.10566000000E+00 0.  1.
        994   -1    0    0    0    0 -0.00000000000E+00 -0.00000000000E+00  0.11368683772E-12  0.17120000000E+03  0.17120000000E+03 0.  0.
         13    1    1    2    0    0 -0.96725089205E+01 -0.41964446886E+01  0.53075512852E+02  0.54112741617E+02  0.10566000000E+00 0.  1.
        994    1    1    2    0    0  0.63874979685E+01 -0.26493760733E+01  0.12358094551E+01  0.17134405898E+03  0.17120000000E+03 0.  0.
        998    1    1    2    0    0  0.32850109520E+01  0.68458207619E+01  0.14456886740E+04  0.14457431994E+04  0.10000000000E+02 0.  1.
</event>
<event>
 5    1  0.1675361E-008  0.3815817E+03  0.7957747E-01  0.3444300E+00
         13   -1    0    0    0    0  0.00000000000E+00  0.00000000000E+00  0.14999999963E+04  0.15000000000E+04  0.10566000000E+00 0. -1.
        994   -1    0    0    0    0 -0.00000000000E+00 -0.00000000000E+00  0.11368683772E-12  0.17120000000E+03  0.17120000000E+03 0.  0.
         13    1    1    2    0    0  0.11231341682E+02  0.18893870322E+02  0.74751754217E+02  0.77916348056E+02  0.10566000000E+00 0. -1.
        994    1    1    2    0    0 -0.21617387685E+01 -0.36442479459E+01  0.33965582742E+01  0.17128610646E+03  0.17120000000E+03 0.  0.
        998    1    1    2    0    0 -0.90696029137E+01 -0.15249622376E+02  0.14218516838E+04  0.14219975455E+04  0.10000000000E+02 0. -1.
</event>
<event>
 5    1  0.2069955E-008  0.3855058E+03  0.7957747E-01  0.3427530E+00
         13   -1    0    0    0    0  0.00000000000E+00  0.00000000000E+00  0.14999999963E+04  0.15000000000E+04  0.10566000000E+00 0. -1.
        994   -1    0    0    0    0 -0.00000000000E+00 -0.00000000000E+00  0.11368683772E-12  0.17120000000E+03  0.17120000000E+03 0.  0.
         13    1    1    2    0    0 -0.92992464068E+01  0.41422384755E+01  0.37594148201E+02  0.38948238295E+02  0.10566000000E+00 0. -1.
        994    1    1    2    0    0  0.63154944625E+01 -0.36009905211E+01  0.15527849662E+01  0.17136132511E+03  0.17120000000E+03 0.  0.
        998    1    1    2    0    0  0.29837519443E+01 -0.54124795438E+00  0.14608530631E+04  0.14608904366E+04  0.10000000000E+02 0. -1.
</event>
<event>
 5    1  0.1675361E-008  0.3789471E+03  0.7957747E-01  0.3455756E+00
         13   -1    0    0    0    0  0.00000000000E+00  0.00000000000E+00  0.14999999963E+04  0.15000000000E+04  0.10566000000E+00 0.  1.
        994   -1    0    0    0    0 -0.00000000000E+00 -0.00000000000E+00  0.11368683772E-12  0.17120000000E+03  0.17120000000E+03 0.  0.
         13    1    1    2    0    0 -0.14831922059E+03 -0.11535825096E+03  0.99237853719E+03  0.10100105393E+04  0.10566000000E+00 0.  1.
        994    1    1    2    0    0  0.14214960673E+03  0.12338159621E+03  0.13450720926E+03  0.28780402763E+03  0.17120000000E+03 0.  0.
        998    1    1    2    0    0  0.61696138591E+01 -0.80233452445E+01  0.37311424983E+03  0.37338543307E+03  0.10000000000E+02 0. -1.
</event>
<event>
 5    1  0.1675361E-008  0.3770157E+03  0.7957747E-01  0.3464257E+00
         13   -1    0    0    0    0  0.00000000000E+00  0.00000000000E+00  0.14999999963E+04  0.15000000000E+04  0.10566000000E+00 0. -1.
        994   -1    0    0    0    0 -0.00000000000E+00 -0.00000000000E+00  0.11368683772E-12  0.17120000000E+03  0.17120000000E+03 0.  0.
         13    1    1    2    0    0  0.74352537419E+01  0.19855276566E+02  0.38657703740E+02  0.44090182901E+02  0.10566000000E+00 0. -1.
        994    1    1    2    0    0 -0.68072806123E+01 -0.23594007885E+01  0.58225331308E+01  0.17145042354E+03  0.17120000000E+03 0.  0.
        998    1    1    2    0    0 -0.62797312961E+00 -0.17495875777E+02  0.14555197594E+04  0.14556593936E+04  0.10000000000E+02 0. -1.
</event>
<event>
 5    1  0.1675361E-008  0.3838314E+03  0.7957747E-01  0.3434644E+00
         13   -1    0    0    0    0  0.00000000000E+00  0.00000000000E+00  0.14999999963E+04  0.15000000000E+04  0.10566000000E+00 0.  1.
        994   -1    0    0    0    0 -0.00000000000E+00 -0.00000000000E+00  0.11368683772E-12  0.17120000000E+03  0.17120000000E+03 0.  0.
         13    1    1    2    0    0 -0.11016603497E+02 -0.87426416752E+01  0.44840461592E+02  0.46994441117E+02  0.10566000000E+00 0.  1.
        994    1    1    2    0    0  0.59967306228E+01  0.23359713431E+01  0.23482011840E+01  0.17133701173E+03  0.17120000000E+03 0.  0.
        998    1    1    2    0    0  0.50198728745E+01  0.64066703321E+01  0.14528113335E+04  0.14528685472E+04  0.10000000000E+02 0.  1.
</event>
<event>
 5    1  0.1675361E-008  0.3840978E+03  0.7957747E-01  0.3433507E+00
         13   -1    0    0    0    0  0.00000000000E+00  0.00000000000E+00  0.14999999963E+04  0.15000000000E+04  0.10566000000E+00 0.  1.
        994   -1    0    0    0    0 -0.00000000000E+00 -0.00000000000E+00  0.11368683772E-12  0.17120000000E+03  0.17120000000E+03 0.  0.
         13    1    1    2    0    0  0.20584143490E+02  0.78371034711E+01  0.10754002311E+03  0.10977246872E+03  0.10566000000E+00 0.  1.
        994    1    1    2    0    0 -0.21267073145E+02 -0.13379025045E+02  0.41636619107E+01  0.17308397613E+03  0.17120000000E+03 0.  0.
        998    1    1    2    0    0  0.68292965497E+00  0.55419215738E+01  0.13882963113E+04  0.13883435551E+04  0.10000000000E+02 0.  1.
</event>
<event>
 5    1  0.1675361E-008  0.3750298E+03  0.7957747E-01  0.3473089E+00
         13   -1    0    0    0    0  0.00000000000E+00  0.00000000000E+00  0.14999999963E+04  0.15000000000E+04  0.10566000000E+00 0.  1.
        994   -1    0    0    0    0 -0.00000000000E+00 -0.00000000000E+00  0.11368683772E-12  0.17120000000E+03  0.17120000000E+03 0.  0.
         13    1    1    2    0    0  0.50336915318E+02  0.86461603077E+01  0.23360280958E+03  0.23912098389E+03  0.10566000000E+00 0.  1.
        994    1    1    2    0    0 -0.19413829212E+01  0.26237291774E+01  0.66996272705E+01  0.17136212513E+03  0.17120000000E+03 0.  0.
        998    1    1    2    0    0 -0.48395532397E+02 -0.11269889485E+02  0.12596975594E+04  0.12607168910E+04  0.10000000000E+02 0.  1.
</event>
<event>
 5    1  0.1675361E-008  0.3857115E+03  0.7957747E-01  0.3426660E+00
         13   -1    0    0    0    0  0.00000000000E+00  0.00000000000E+00  0.14999999963E+04  0.15000000000E+04  0.10566000000E+00 0.  1.
        994   -1    0    0    0    0 -0.00000000000E+00 -0.00000000000E+00  0.11368683772E-12  0.17120000000E+03  0.17120000000E+03 0.  0.
         13    1    1    2    0    0  0.11034926538E+02  0.87695052488E+01  0.76974387682E+02  0.78254337573E+02  0.10566000000E+00 0.  1.
        994    1    1    2    0    0 -0.10447201074E+02 -0.54307034402E+01  0.17323304410E+01  0.17161316243E+03  0.17120000000E+03 0.  0.
        998    1    1    2    0    0 -0.58772546377E+00 -0.33388018086E+01  0.14212932782E+04  0.14213325000E+04  0.10000000000E+02 0.  1.
</event>
<event>
 5    1  0.1675361E-008  0.3806824E+03  0.7957747E-01  0.3448193E+00
         13   -1    0    0    0    0  0.00000000000E+00  0.00000000000E+00  0.14999999963E+04  0.15000000000E+04  0.10566000000E+00 0.  1.
        994   -1    0    0    0    0 -0.00000000000E+00 -0.00000000000E+00  0.11368683772E-12  0.17120000000E+03  0.17120000000E+03 0.  0.
         13    1    1    2    0    0 -0.28878281506E+02  0.12831266147E+02  0.14921106540E+03  0.15252065347E+03  0.10566000000E+00 0.  1.
        994    1    1    2    0    0 -0.29638609343E+02 -0.97779412367E+02  0.39430994871E+02  0.20323263518E+03  0.17120000000E+03 0.  0.
        998    1    1    2    0    0  0.58516890849E+02  0.84948146220E+02  0.13113579360E+04  0.13154467113E+04  0.10000000000E+02 0.  1.
</event>
<event>
 5    1  0.1675361E-008  0.3854051E+03  0.7957747E-01  0.3427956E+00
         13   -1    0    0    0    0  0.00000000000E+00  0.00000000000E+00  0.14999999963E+04  0.15000000000E+04  0.10566000000E+00 0.  1.
        994   -1    0    0    0    0 -0.00000000000E+00 -0.00000000000E+00  0.11368683772E-12  0.17120000000E+03  0.17120000000E+03 0.  0.
         13    1    1    2    0    0  0.57813040129E+01  0.98555206727E+01  0.46585117724E+02  0.47966020486E+02  0.10566000000E+00 0.  1.
        994    1    1    2    0    0 -0.33988610084E+01 -0.35012538585E+01  0.15073555154E+01  0.17127616050E+03  0.17120000000E+03 0.  0.
        998    1    1    2    0    0 -0.23824430044E+01 -0.63542668142E+01  0.14519075230E+04  0.14519578190E+04  0.10000000000E+02 0.  1.
</event>
<event>
 5    1  0.1675361E-008  0.3761748E+03  0.7957747E-01  0.3467985E+00
         13   -1    0    0    0    0  0.00000000000E+00  0.00000000000E+00  0.14999999963E+04  0.15000000000E+04  0.10566000000E+00 0. -1.
        994   -1    0    0    0    0 -0.00000000000E+00 -0.00000000000E+00  0.11368683772E-12  0.17120000000E+03  0.17120000000E+03 0.  0.
         13    1    1    2    0    0 -0.69672300700E+02 -0.44392757518E+02  0.41320455799E+03  0.42138220692E+03  0.10566000000E+00 0. -1.
        994    1    1    2    0    0  0.96350699947E+02  0.58995354374E+01  0.38308801831E+02  0.20023802385E+03  0.17120000000E+03 0.  0.
        998    1    1    2    0    0 -0.26678399247E+02  0.38493222081E+02  0.10484866365E+04  0.10495797692E+04  0.10000000000E+02 0. -1.
</event>
<event>
 5    1  0.1675361E-008  0.3834881E+03  0.7957747E-01  0.3436110E+00
         13   -1    0    0    0    0  0.00000000000E+00  0.00000000000E+00  0.14999999963E+04  0.15000000000E+04  0.10566000000E+00 0.  1.
        994   -1    0    0    0    0 -0.00000000000E+00 -0.00000000000E+00  0.11368683772E-12  0.17120000000E+03  0.17120000000E+03 0.  0.
         13    1    1    2    0    0 -0.10888492501E+02 -0.26721642156E+02  0.16978109018E+03  0.17221566472E+03  0.10566000000E+00 0.  1.
        994    1    1    2    0    0  0.31396508465E+00  0.21607146139E+02  0.39273882164E+01  0.17260310460E+03  0.17120000000E+03 0.  0.
        998    1    1    2    0    0  0.10574527416E+02  0.51144960172E+01  0.13262915179E+04  0.13263812307E+04  0.10000000000E+02 0.  1.
</event>
<event>
 5    1  0.1675361E-008  0.3830194E+03  0.7957747E-01  0.3438116E+00
         13   -1    0    0    0    0  0.00000000000E+00  0.00000000000E+00  0.14999999963E+04  0.15000000000E+04  0.10566000000E+00 0. -1.
        994   -1    0    0    0    0 -0.00000000000E+00 -0.00000000000E+00  0.11368683772E-12  0.17120000000E+03  0.17120000000E+03 0.  0.
         13    1    1    2    0    0 -0.19304686168E+02  0.17763703679E+02  0.13923642258E+03  0.14168631766E+03  0.10566000000E+00 0. -1.
        994    1    1    2    0    0  0.17284804752E+01 -0.92850260914E+01  0.29119681584E+01  0.17148503991E+03  0.17120000000E+03 0.  0.
        998    1    1    2    0    0  0.17576205693E+02 -0.84786775876E+01  0.13578516055E+04  0.13580286424E+04  0.10000000000E+02 0. -1.
</event>
<event>
 5    1  0.1675361E-008  0.3845446E+03  0.7957747E-01  0.3431606E+00
         13   -1    0    0    0    0  0.00000000000E+00  0.00000000000E+00  0.14999999963E+04  0.15000000000E+04  0.10566000000E+00 0. -1.
        994   -1    0    0    0    0 -0.00000000000E+00 -0.00000000000E+00  0.11368683772E-12  0.17120000000E+03  0.17120000000E+03 0.  0.
         13    1    1    2    0    0  0.41489955390E+00  0.10407883279E+02  0.30363751662E+02  0.32100852871E+02  0.10566000000E+00 0. -1.
        994    1    1    2    0    0  0.54827872286E+01  0.51428649114E+01  0.20425337447E+01  0.17137713371E+03  0.17120000000E+03 0.  0.
        998    1    1    2    0    0 -0.58976867825E+01 -0.15550748191E+02  0.14675937109E+04  0.14677220134E+04  0.10000000000E+02 0. -1.
</event>
<event>
 5    1  0.2691775E-008  0.3862565E+03  0.7957747E-01  0.3424361E+00
         13   -1    0    0    0    0  0.00000000000E+00  0.00000000000E+00  0.14999999963E+04  0.15000000000E+04  0.10566000000E+00 0.  1.
        994   -1    0    0    0    0 -0.00000000000E+00 -0.00000000000E+00  0.11368683772E-12  0.17120000000E+03  0.17120000000E+03 0.  0.
         13    1    1    2    0    0  0.61423000853E+01  0.80292383592E+01  0.49575246192E+02  0.50595580024E+02  0.10566000000E+00 0.  1.
        994    1    1    2    0    0 -0.83844306615E+01 -0.92749118858E+01  0.15197791120E+01  0.17166267036E+03  0.17120000000E+03 0.  0.
        998    1    1    2    0    0  0.22421305762E+01  0.12456735266E+01  0.14489049710E+04  0.14489417496E+04  0.10000000000E+02 0.  1.
</event>
<event>
 5    1  0.1675361E-008  0.3857096E+03  0.7957747E-01  0.3426668E+00
         13   -1    0    0    0    0  0.00000000000E+00  0.00000000000E+00  0.14999999963E+04  0.15000000000E+04  0.10566000000E+00 0.  1.
        994   -1    0    0    0    0 -0.00000000000E+00 -0.00000000000E+00  0.11368683772E-12  0.17120000000E+03  0.17120000000E+03 0.  0.
         13    1    1    2    0    0 -0.12273665217E+02  0.33096494727E+01  0.62768065401E+02  0.64042469001E+02  0.10566000000E+00 0.  1.
        994    1    1    2    0    0  0.10560889044E+02 -0.13429154171E+01  0.16502199807E+01  0.17153862255E+03  0.17120000000E+03 0.  0.
        998    1    1    2    0    0  0.17127761732E+01 -0.19667340556E+01  0.14355817109E+04  0.14356189085E+04  0.10000000000E+02 0.  1.
</event>
<event>
 5    1  0.1675361E-008  0.3712061E+03  0.7957747E-01  0.3490366E+00
         13   -1    0    0    0    0  0.00000000000E+00  0.00000000000E+00  0.14999999963E+04  0.15000000000E+04  0.10566000000E+00 0.  1.
        994   -1    0    0    0    0 -0.00000000000E+00 -0.00000000000E+00  0.11368683772E-12  0.17120000000E+03  0.17120000000E+03 0.  0.
         13    1    1    2    0    0 -0.28073134372E+02 -0.44076895970E+01  0.44015207420E+02  0.52391585673E+02  0.10566000000E+00 0.  1.
        994    1    1    2    0    0  0.22816883503E+01  0.63728321377E+02  0.22775201528E+02  0.18410501039E+03  0.17120000000E+03 0.  0.
        998    1    1    2    0    0  0.25791446022E+02 -0.59320631780E+02  0.14332095873E+04  0.14347034039E+04  0.10000000000E+02 0.  1.
</event>
<event>
 5    1  0.1675361E-008  0.3844183E+03  0.7957747E-01  0.3432143E+00
         13   -1    0    0    0    0  0.00000000000E+00  0.00000000000E+00  0.14999999963E+04  0.15000000000E+04  0.10566000000E+00 0.  1.
        994   -1    0    0    0    0 -0.00000000000E+00 -0.00000000000E+00  0.11368683772E-12  0.17120000000E+03  0.17120000000E+03 0.  0.
         13    1    1    2    0    0 -0.93910306074E+00  0.12934336562E+02  0.42069418268E+02  0.44023017778E+02  0.10566000000E+00 0.  1.
        994    1    1    2    0    0  0.19293707808E+01 -0.15468127873E+02  0.27202068596E+01  0.17192970941E+03  0.17120000000E+03 0.  0.
        998    1    1    2    0    0 -0.99026772002E+00  0.25337913106E+01  0.14552103712E+04  0.14552472728E+04  0.10000000000E+02 0.  1.
</event>
<event>
 5    1  0.1675361E-008  0.3774982E+03  0.7957747E-01  0.3462125E+00
         13   -1    0    0    0    0  0.00000000000E+00  0.00000000000E+00  0.14999999963E+04  0.15000000000E+04  0.10566000000E+00 0.  1.
        994   -1    0    0    0    0 -0.00000000000E+00 -0.00000000000E+00  0.11368683772E-12  0.17120000000E+03  0.17120000000E+03 0.  0.
         13    1    1    2    0    0  0.70638537924E+01  0.10350732313E+02  0.11338552335E+02  0.16899988843E+02  0.10566000000E+00 0.  1.
        994    1    1    2    0    0 -0.26621582806E+02 -0.27550501974E+02  0.10364837792E+02  0.17574017382E+03  0.17120000000E+03 0.  0.
        998    1    1    2    0    0  0.19557729014E+02  0.17199769661E+02  0.14782966062E+04  0.14785598373E+04  0.10000000000E+02 0.  1.
</event>
<event>
 5    1  0.1675361E-008  0.3806577E+03  0.7957747E-01  0.3448300E+00
         13   -1    0    0    0    0  0.00000000000E+00  0.00000000000E+00  0.14999999963E+04  0.15000000000E+04  0.10566000000E+00 0.  1.
        994   -1    0    0    0    0 -0.00000000000E+00 -0.00000000000E+00  0.11368683772E-12  0.17120000000E+03  0.17120000000E+03 0.  0.
         13    1    1    2    0    0 -0.46287269210E+01 -0.39597568925E+02  0.21637275657E+03  0.22001493933E+03  0.10566000000E+00 0.  1.
        994    1    1    2    0    0 -0.16023595454E+02  0.20498372082E+02  0.60628158642E+01  0.17327185751E+03  0.17120000000E+03 0.  0.
        998    1    1    2    0    0  0.20652322375E+02  0.19099196843E+02  0.12775644238E+04  0.12779132032E+04  0.10000000000E+02 0.  1.
</event>
<event>
 5    1  0.1675361E-008  0.3847972E+03  0.7957747E-01  0.3430533E+00
         13   -1    0    0    0    0  0.00000000000E+00  0.00000000000E+00  0.14999999963E+04  0.15000000000E+04  0.10566000000E+00 0. -1.
        994   -1    0    0    0    0 -0.00000000000E+00 -0.00000000000E+00  0.11368683772E-12  0.17120000000E+03  0.17120000000E+03 0.  0.
         13    1    1    2    0    0 -0.21923051900E+01 -0.16744340100E+02  0.85453985241E+02  0.87106681058E+02  0.10566000000E+00 0. -1.
        994    1    1    2    0    0 -0.90000965630E+00  0.58105974351E+01  0.18446535371E+01  0.17131087475E+03  0.17120000000E+03 0.  0.
        998    1    1    2    0    0  0.30923148463E+01  0.10933742665E+02  0.14127013575E+04  0.14127824442E+04  0.10000000000E+02 0. -1.
</event>
<event>
 5    1  0.1675361E-008  0.3803299E+03  0.7957747E-01  0.3449723E+00
         13   -1    0    0    0    0  0.00000000000E+00  0.00000000000E+00  0.14999999963E+04  0.15000000000E+04  0.10566000000E+00 0.  1.
        994   -1    0    0    0    0 -0.00000000000E+00 -0.00000000000E+00  0.11368683772E-12  0.17120000000E+03  0.17120000000E+03 0.  0.
         13    1    1    2    0    0  0.15347128278E+02 -0.24829706045E+02  0.11480673020E+03  0.11845946612E+03  0.10566000000E+00 0.  1.
        994    1    1    2    0    0  0.20447888793E+01  0.55627510260E+01  0.40840346656E+01  0.17135123198E+03  0.17120000000E+03 0.  0.
        998    1    1    2    0    0 -0.17391917157E+02  0.19266955019E+02  0.13811092314E+04  0.13813893019E+04  0.10000000000E+02 0.  1.
</event>
<event>
 5    1  0.1675361E-008  0.3712158E+03  0.7957747E-01  0.3490322E+00
         13   -1    0    0    0    0  0.00000000000E+00  0.00000000000E+00  0.14999999963E+04  0.15000000000E+04  0.10566000000E+00 0.  1.
        994   -1    0    0    0    0 -0.00000000000E+00 -0.00000000000E+00  0.11368683772E-12  0.17120000000E+03  0.17120000000E+03 0.  0.
         13    1    1    2    0    0 -0.20085320774E+02  0.79834137698E+01  0.22808949490E+02  0.31423149856E+02  0.10566000000E+00 0.  1.
        994    1    1    2    0    0  0.23027534501E+02 -0.12209187199E+02  0.10977594880E+02  0.17352025584E+03  0.17120000000E+03 0.  0.
        998    1    1    2    0    0 -0.29422137272E+01  0.42257734292E+01  0.14662134519E+04  0.14662565943E+04  0.10000000000E+02 0.  1.
</event>
<event>
 5    1  0.1675361E-008  0.3773625E+03  0.7957747E-01  0.3462724E+00
         13   -1    0    0    0    0  0.00000000000E+00  0.00000000000E+00  0.14999999963E+04  0.15000000000E+04  0.10566000000E+00 0.  1.
        994   -1    0    0    0    0 -0.00000000000E+00 -0.00000000000E+00  0.11368683772E-12  0.17120000000E+03  0.17120000000E+03 0.  0.
         13    1    1    2    0    0  0.16257903829E+02 -0.27094541560E+02  0.84666384478E+02  0.90370578420E+02  0.10566000000E+00 0.  1.
        994    1    1    2    0    0 -0.21403629352E+02  0.24602024383E+02  0.90649437278E+01  0.17451357586E+03  0.17120000000E+03 0.  0.
        998    1    1    2    0    0  0.51457255229E+01  0.24925171773E+01  0.14062686681E+04  0.14063158457E+04  0.10000000000E+02 0.  1.
</event>
<event>
 5    1  0.1675361E-008  0.3855600E+03  0.7957747E-01  0.3427301E+00
         13   -1    0    0    0    0  0.00000000000E+00  0.00000000000E+00  0.14999999963E+04  0.15000000000E+04  0.10566000000E+00 0.  1.
        994   -1    0    0    0    0 -0.00000000000E+00 -0.00000000000E+00  0.11368683772E-12  0.17120000000E+03  0.17120000000E+03 0.  0.
         13    1    1    2    0    0 -0.31249198593E+01 -0.12311894768E+02  0.57087189496E+02  0.58483384354E+02  0.10566000000E+00 0.  1.
        994    1    1    2    0    0  0.69148681462E+01  0.14945339470E+02  0.22430850158E+01  0.17200479646E+03  0.17120000000E+03 0.  0.
        998    1    1    2    0    0 -0.37899482869E+01 -0.26334447014E+01  0.14406697218E+04  0.14407118192E+04  0.10000000000E+02 0.  1.
</event>
<event>
 5    1  0.1675361E-008  0.3793321E+03  0.7957747E-01  0.3454072E+00
         13   -1    0    0    0    0  0.00000000000E+00  0.00000000000E+00  0.14999999963E+04  0.15000000000E+04  0.10566000000E+00 0. -1.
        994   -1    0    0    0    0 -0.00000000000E+00 -0.00000000000E+00  0.11368683772E-12  0.17120000000E+03  0.17120000000E+03 0.  0.
         13    1    1    2    0    0 -0.30706761922E+02  0.49184467051E+01  0.11129917833E+03  0.11556216771E+03  0.10566000000E+00 0. -1.
        994    1    1    2    0    0  0.11035620199E+02  0.18028322732E+01  0.48896911598E+01  0.17163444933E+03  0.17120000000E+03 0.  0.
        998    1    1    2    0    0  0.19671141723E+02 -0.67212789783E+01  0.13838111268E+04  0.13840033830E+04  0.10000000000E+02 0. -1.
</event>
<event>
 5    1  0.1675361E-008  0.3962735E+03  0.7957747E-01  0.3383223E+00
         13   -1    0    0    0    0  0.00000000000E+00  0.00000000000E+00  0.14999999963E+04  0.15000000000E+04  0.10566000000E+00 0.  1.
        994   -1    0    0    0    0 -0.00000000000E+00 -0.00000000000E+00  0.11368683772E-12  0.17120000000E+03  0.17120000000E+03 0.  0.
         13    1    1    2    0    0 -0.44213631403E+02 -0.68393055833E+02  0.11100213782E+03  0.13767331278E+03  0.10566000000E+00 0.  1.
        994    1    1    2    0    0  0.36538127614E+02  0.79737154072E+02  0.55895880161E+02  0.20031684384E+03  0.17120000000E+03 0.  0.
        998    1    1    2    0    0  0.76755037893E+01 -0.11344098239E+02  0.13331019783E+04  0.13332098434E+04  0.10000000000E+02 0.  1.
</event>
<event>
 5    1  0.1675361E-008  0.3731218E+03  0.7957747E-01  0.3481666E+00
         13   -1    0    0    0    0  0.00000000000E+00  0.00000000000E+00  0.14999999963E+04  0.15000000000E+04  0.10566000000E+00 0. -1.
        994   -1    0    0    0    0 -0.00000000000E+00 -0.00000000000E+00  0.11368683772E-12  0.17120000000E+03  0.17120000000E+03 0.  0.
         13    1    1    2    0    0 -0.13304947365E+02 -0.18184367383E+01  0.81782524209E+01  0.15723336582E+02  0.10566000000E+00 0. -1.
        994    1    1    2    0    0  0.16944022160E+02  0.60831496231E+01  0.87558898879E+01  0.17236649966E+03  0.17120000000E+03 0.  0.
        998    1    1    2    0    0 -0.36390747944E+01 -0.42647128848E+01  0.14830658540E+04  0.14831101638E+04  0.10000000000E+02 0. -1.
</event>
<event>
 5    1  0.1675361E-008  0.3843127E+03  0.7957747E-01  0.3432592E+00
         13   -1    0    0    0    0  0.00000000000E+00  0.00000000000E+00  0.14999999963E+04  0.15000000000E+04  0.10566000000E+00 0.  1.
        994   -1    0    0    0    0 -0.00000000000E+00 -0.00000000000E+00  0.11368683772E-12  0.17120000000E+03  0.17120000000E+03 0.  0.
         13    1    1    2    0    0 -0.18067738823E+02 -0.91231696981E+01  0.95395778548E+02  0.97519439807E+02  0.10566000000E+00 0.  1.
        994    1    1    2    0    0  0.23475825608E+02  0.83053376666E+01  0.40182351884E+01  0.17304819917E+03  0.17120000000E+03 0.  0.
        998    1    1    2    0    0 -0.54080867847E+01  0.81783203152E+00  0.14005859825E+04  0.14006323610E+04  0.10000000000E+02 0.  1.
</event>
<event>
 5    1  0.1675361E-008  0.3857066E+03  0.7957747E-01  0.3426681E+00
         13   -1    0    0    0    0  0.00000000000E+00  0.00000000000E+00  0.14999999963E+04  0.15000000000E+04  0.10566000000E+00 0. -1.
        994   -1    0    0    0    0 -0.00000000000E+00 -0.00000000000E+00  0.11368683772E-12  0.17120000000E+03  0.17120000000E+03 0.  0.
         13    1    1    2    0    0 -0.10475194549E+02 -0.86006255399E+01  0.69684072772E+02  0.70990010725E+02  0.10566000000E+00 0. -1.
        994    1    1    2    0    0  0.17646904803E+02  0.86313284218E+00  0.23046087302E+01  0.17212469163E+03  0.17120000000E+03 0.  0.
        998    1    1    2    0    0 -0.71717102544E+01  0.77374926977E+01  0.14280113148E+04  0.14280852976E+04  0.10000000000E+02 0. -1.
</event>
<event>
 5    1  0.1675361E-008  0.3835735E+03  0.7957747E-01  0.3435745E+00
         13   -1    0    0    0    0  0.00000000000E+00  0.00000000000E+00  0.14999999963E+04  0.15000000000E+04  0.10566000000E+00 0. -1.
        994   -1    0    0    0    0 -0.00000000000E+00 -0.00000000000E+00  0.11368683772E-12  0.17120000000E+03  0.17120000000E+03 0.  0.
         13    1    1    2    0    0  0.44908830440E+01  0.13658755044E+02  0.42059883460E+02  0.44449685944E+02  0.10566000000E+00 0. -1.
        994    1    1    2    0    0 -0.73731545265E+01 -0.15973730600E+02  0.33633396179E+01  0.17213446933E+03  0.17120000000E+03 0.  0.
        998    1    1    2    0    0  0.28822714826E+01  0.23149755560E+01  0.14545767732E+04  0.14546158447E+04  0.10000000000E+02 0. -1.
</event>
<event>
 5    1  0.1675361E-008  0.3836201E+03  0.7957747E-01  0.3435545E+00
         13   -1    0    0    0    0  0.00000000000E+00  0.00000000000E+00  0.14999999963E+04  0.15000000000E+04  0.10566000000E+00 0. -1.
        994   -1    0    0    0    0 -0.00000000000E+00 -0.00000000000E+00  0.11368683772E-12  0.17120000000E+03  0.17120000000E+03 0.  0.
         13    1    1    2    0    0 -0.26534996751E+01 -0.12788538184E+02  0.36098071441E+02  0.38388405740E+02  0.10566000000E+00 0. -1.
        994    1    1    2    0    0 -0.35034498535E+00  0.94601454540E+01  0.26128639631E+01  0.17148143967E+03  0.17120000000E+03 0.  0.
        998    1    1    2    0    0  0.30038446605E+01  0.33283927300E+01  0.14612890609E+04  0.14613301546E+04  0.10000000000E+02 0. -1.
</event>
<event>
 5    1  0.1675361E-008  0.3832779E+03  0.7957747E-01  0.3437009E+00
         13   -1    0    0    0    0  0.00000000000E+00  0.00000000000E+00  0.14999999963E+04  0.15000000000E+04  0.10566000000E+00 0. -1.
        994   -1    0    0    0    0 -0.00000000000E+00 -0.00000000000E+00  0.11368683772E-12  0.17120000000E+03  0.17120000000E+03 0.  0.
         13    1    1    2    0    0 -0.11905220076E+02 -0.19041234898E+02  0.10168860436E+03  0.10413878390E+03  0.10566000000E+00 0. -1.
        994    1    1    2    0    0  0.27392799075E+00  0.14587491835E+02  0.31918256553E+01  0.17185021881E+03  0.17120000000E+03 0.  0.
        998    1    1    2    0    0  0.11631292086E+02  0.44537430627E+01  0.13951195663E+04  0.13952109973E+04  0.10000000000E+02 0. -1.
</event>
<event>
 5    1  0.1675361E-008  0.3843756E+03  0.7957747E-01  0.3432325E+00
         13   -1    0    0    0    0  0.00000000000E+00  0.00000000000E+00  0.14999999963E+04  0.15000000000E+04  0.10566000000E+00 0. -1.
        994   -1    0    0    0    0 -0.00000000000E+00 -0.00000000000E+00  0.11368683772E-12  0.17120000000E+03  0.17120000000E+03 0.  0.
         13    1    1    2    0    0  0.96749136135E+02  0.24745780597E+03  0.11424797847E+04  0.11729688106E+04  0.10566000000E+00 0. -1.
        994    1    1    2    0    0 -0.88895904922E+02 -0.25489048768E+03  0.29835560926E+03  0.43726096578E+03  0.17120000000E+03 0.  0.
        998    1    1    2    0    0 -0.78532312126E+01  0.74326817091E+01  0.59164602335E+02  0.60970223612E+02  0.10000000000E+02 0. -1.
</event>
<event>
 5    1  0.1675361E-008  0.3821958E+03  0.7957747E-01  0.3441653E+00
         13   -1    0    0    0    0  0.00000000000E+00  0.00000000000E+00  0.14999999963E+04  0.15000000000E+04  0.10566000000E+00 0.  1.
        994   -1    0    0    0    0 -0.00000000000E+00 -0.00000000000E+00  0.11368683772E-12  0.17120000000E+03  0.17120000000E+03 0.  0.
         13    1    1    2    0    0  0.17968633002E+02  0.27482943159E+02  0.15202146531E+03  0.15552723561E+03  0.10566000000E+00 0.  1.
        994    1    1    2    0    0 -0.14733239265E+02 -0.39075883540E+02  0.88385476675E+01  0.17644135836E+03  0.17120000000E+03 0.  0.
        998    1    1    2    0    0 -0.32353937375E+01  0.11592940381E+02  0.13391399833E+04  0.13392314060E+04  0.10000000000E+02 0.  1.
</event>
<event>
 5    1  0.1675361E-008  0.3708016E+03  0.7957747E-01  0.3492215E+00
         13   -1    0    0    0    0  0.00000000000E+00  0.00000000000E+00  0.14999999963E+04  0.15000000000E+04  0.10566000000E+00 0.  1.
        994   -1    0    0    0    0 -0.00000000000E+00 -0.00000000000E+00  0.11368683772E-12  0.17120000000E+03  0.17120000000E+03 0.  0.
         13    1    1    2    0    0  0.43581254937E+02  0.17973247062E+02  0.12708661438E+03  0.13554844931E+03  0.10566000000E+00 0.  1.
        994    1    1    2    0    0 -0.11719323885E+02 -0.24811588762E+02  0.11451349711E+02  0.17376285823E+03  0.17120000000E+03 0.  0.
        998    1    1    2    0    0 -0.31861931051E+02  0.68383417001E+01  0.13614620322E+04  0.13618886925E+04  0.10000000000E+02 0.  1.
</event>
<event>
 5    1  0.1675361E-008  0.3798154E+03  0.7957747E-01  0.3451963E+00
         13   -1    0    0    0    0  0.00000000000E+00  0.00000000000E+00  0.14999999963E+04  0.15000000000E+04  0.10566000000E+00 0. -1.
        994   -1    0    0    0    0 -0.00000000000E+00 -0.00000000000E+00  0.11368683772E-12  0.17120000000E+03  0.17120000000E+03 0.  0.
         13    1    1    2    0    0 -0.31673900350E+02 -0.21135953801E+02  0.37137046917E+02  0.53189622336E+02  0.10566000000E+00 0. -1.
        994    1    1    2    0    0  0.35971899849E+02  0.20272053627E+02  0.22424942246E+02  0.17753098820E+03  0.17120000000E+03 0.  0.
        998    1    1    2    0    0 -0.42979994985E+01  0.86390017389E+00  0.14404380071E+04  0.14404793895E+04  0.10000000000E+02 0. -1.
</event>
<event>
 5    1  0.1675361E-008  0.3822576E+03  0.7957747E-01  0.3441387E+00
         13   -1    0    0    0    0  0.00000000000E+00  0.00000000000E+00  0.14999999963E+04  0.15000000000E+04  0.10566000000E+00 0.  1.
        994   -1    0    0    0    0 -0.00000000000E+00 -0.00000000000E+00  0.11368683772E-12  0.17120000000E+03  0.17120000000E+03 0.  0.
         13    1    1    2    0    0 -0.17605527869E+02 -0.19105941361E+01  0.54282833254E+02  0.57098530030E+02  0.10566000000E+00 0.  1.
        994    1    1    2    0    0 -0.14395697988E+01  0.38638450198E+01  0.30542564130E+01  0.17127688152E+03  0.17120000000E+03 0.  0.
        998    1    1    2    0    0  0.19045097668E+02 -0.19532508837E+01  0.14426629066E+04  0.14428245885E+04  0.10000000000E+02 0.  1.
</event>
<event>
 5    1  0.1675361E-008  0.3799528E+03  0.7957747E-01  0.3451364E+00
         13   -1    0    0    0    0  0.00000000000E+00  0.00000000000E+00  0.14999999963E+04  0.15000000000E+04  0.10566000000E+00 0. -1.
        994   -1    0    0    0    0 -0.00000000000E+00 -0.00000000000E+00  0.11368683772E-12  0.17120000000E+03  0.17120000000E+03 0.  0.
         13    1    1    2    0    0 -0.24347590582E+02  0.25160991972E+02  0.17368796038E+03  0.17718182590E+03  0.10566000000E+00 0. -1.
        994    1    1    2    0    0 -0.18679698890E+02 -0.13244928886E+02  0.59121015178E+01  0.17282578580E+03  0.17120000000E+03 0.  0.
        998    1    1    2    0    0  0.43027289472E+02 -0.11916063086E+02  0.13203999344E+04  0.13211923883E+04  0.10000000000E+02 0. -1.
</event>
<event>
 5    1  0.1675361E-008  0.3839590E+03  0.7957747E-01  0.3434099E+00
         13   -1    0    0    0    0  0.00000000000E+00  0.00000000000E+00  0.14999999963E+04  0.15000000000E+04  0.10566000000E+00 0. -1.
        994   -1    0    0    0    0 -0.00000000000E+00 -0.00000000000E+00  0.11368683772E-12  0.17120000000E+03  0.17120000000E+03 0.  0.
         13    1    1    2    0    0  0.15561340622E+02 -0.36304913966E+02  0.22127121955E+03  0.22476913904E+03  0.10566000000E+00 0. -1.
        994    1    1    2    0    0  0.63180229334E+01  0.87325847405E+02  0.27867205687E+02  0.19429807562E+03  0.17120000000E+03 0.  0.
        998    1    1    2    0    0 -0.21879363555E+02 -0.51020933439E+02  0.12508615710E+04  0.12521327853E+04  0.10000000000E+02 0. -1.
</event>
<event>
 5    1  0.1675361E-008  0.3750443E+03  0.7957747E-01  0.3473025E+00
         13   -1    0    0    0    0  0.00000000000E+00  0.00000000000E+00  0.14999999963E+04  0.15000000000E+04  0.10566000000E+00 0. -1.
        994   -1    0    0    0    0 -0.00000000000E+00 -0.00000000000E+00  0.11368683772E-12  0.17120000000E+03  0.17120000000E+03 0.  0.
         13    1    1    2    0    0 -0.41042087672E+02 -0.51758501095E+02  0.17330660402E+03  0.18546855679E+03  0.10566000000E+00 0. -1.
        994    1    1    2    0    0  0.51125729636E+01  0.15650279361E+02  0.14596566463E+02  0.17260813828E+03  0.17120000000E+03 0.  0.
        998    1    1    2    0    0  0.35929514709E+02  0.36108221734E+02  0.13120968258E+04  0.13131233049E+04  0.10000000000E+02 0. -1.
</event>
<event>
 5    1  0.1675361E-008  0.3781658E+03  0.7957747E-01  0.3459184E+00
         13   -1    0    0    0    0  0.00000000000E+00  0.00000000000E+00  0.14999999963E+04  0.15000000000E+04  0.10566000000E+00 0.  1.
        994   -1    0    0    0    0 -0.00000000000E+00 -0.00000000000E+00  0.11368683772E-12  0.17120000000E+03  0.17120000000E+03 0.  0.
         13    1    1    2    0    0  0.21993473037E+03  0.43937794144E+02  0.94723067172E+03  0.97342065521E+03  0.10566000000E+00 0.  1.
        994    1    1    2    0    0 -0.22932913317E+03 -0.36931297762E+02  0.21547030987E+03  0.36012868049E+03  0.17120000000E+03 0.  0.
        998    1    1    2    0    0  0.93944027930E+01 -0.70064963819E+01  0.33729901469E+03  0.33765066430E+03  0.10000000000E+02 0. -1.
</event>
<event>
 5    1  0.1675361E-008  0.3842176E+03  0.7957747E-01  0.3432997E+00
         13   -1    0    0    0    0  0.00000000000E+00  0.00000000000E+00  0.14999999963E+04  0.15000000000E+04  0.10566000000E+00 0. -1.
        994   -1    0    0    0    0 -0.00000000000E+00 -0.00000000000E+00  0.11368683772E-12  0.17120000000E+03  0.17120000000E+03 0.  0.
         13    1    1    2    0    0  0.19369380908E+02 -0.87211520624E+01  0.10666146921E+03  0.10875620252E+03  0.10566000000E+00 0. -1.
        994    1    1    2    0    0 -0.18311918237E+02  0.61749507997E+01  0.32513583822E+01  0.17231792622E+03  0.17120000000E+03 0.  0.
        998    1    1    2    0    0 -0.10574626707E+01  0.25462012627E+01  0.13900871687E+04  0.13901258713E+04  0.10000000000E+02 0. -1.
</event>
<event>
 5    1  0.1675361E-008  0.3774725E+03  0.7957747E-01  0.3462238E+00
         13   -1    0    0    0    0  0.00000000000E+00  0.00000000000E+00  0.14999999963E+04  0.15000000000E+04  0.10566000000E+00 0. -1.
        994   -1    0    0    0    0 -0.00000000000E+00 -0.00000000000E+00  0.11368683772E-12  0.17120000000E+03  0.17120000000E+03 0.  0.
         13    1    1    2    0    0 -0.34025740194E+01  0.13103098705E+02  0.15004983840E+02  0.20209636556E+02  0.10566000000E+00 0. -1.
        994    1    1    2    0    0  0.46352389540E+01  0.44575833409E+01  0.55539125129E+01  0.17141073897E+03  0.17120000000E+03 0.  0.
        998    1    1    2    0    0 -0.12326649346E+01 -0.17560682046E+02  0.14794410999E+04  0.14795796245E+04  0.10000000000E+02 0. -1.
</event>
<event>
 5    1  0.1876335E-008  0.3857597E+03  0.7957747E-01  0.3426456E+00
         13   -1    0    0    0    0  0.00000000000E+00  0.00000000000E+00  0.14999999963E+04  0.15000000000E+04  0.10566000000E+00 0.  1.
        994   -1    0    0    0    0 -0.00000000000E+00 -0.00000000000E+00  0.11368683772E-12  0.17120000000E+03  0.17120000000E+03 0.  0.
         13    1    1    2    0    0 -0.32328198185E+01 -0.99901504984E+01  0.46536043018E+02  0.47706065597E+02  0.10566000000E+00 0.  1.
        994    1    1    2    0    0 -0.46134701953E+01  0.58752903307E+00  0.13243656447E+01  0.17126827856E+03  0.17120000000E+03 0.  0.
        998    1    1    2    0    0  0.78462900138E+01  0.94026214653E+01  0.14521395876E+04  0.14522256558E+04  0.10000000000E+02 0.  1.
</event>
<event>
 5    1  0.1675361E-008  0.3751317E+03  0.7957747E-01  0.3472634E+00
         13   -1    0    0    0    0  0.00000000000E+00  0.00000000000E+00  0.14999999963E+04  0.15000000000E+04  0.10566000000E+00 0.  1.
        994   -1    0    0    0    0 -0.00000000000E+00 -0.00000000000E+00  0.11368683772E-12  0.17120000000E+03  0.17120000000E+03 0.  0.
         13    1    1    2    0    0  0.28373345868E+02  0.60809505895E+01  0.63815775768E+02  0.70103417297E+02  0.10566000000E+00 0.  1.
        994    1    1    2    0    0 -0.57289875929E+01 -0.47019832468E+01  0.67977626850E+01  0.17149512973E+03  0.17120000000E+03 0.  0.
        998    1    1    2    0    0 -0.22644358275E+02 -0.13789673427E+01  0.14293864578E+04  0.14296014530E+04  0.10000000000E+02 0.  1.
</event>
<event>
 5    1  0.1675361E-008  0.3719894E+03  0.7957747E-01  0.3486798E+00
         13   -1    0    0    0    0  0.00000000000E+00  0.00000000000E+00  0.14999999963E+04  0.15000000000E+04  0.10566000000E+00 0.  1.
        994   -1    0    0    0    0 -0.00000000000E+00 -0.00000000000E+00  0.11368683772E-12  0.17120000000E+03  0.17120000000E+03 0.  0.
         13    1    1    2    0    0  0.75910553282E+01  0.88825855656E+01  0.30798160789E+00  0.11688903457E+02  0.10566000000E+00 0.  1.
        994    1    1    2    0    0  0.23803148564E+02  0.11459469416E+01  0.13996448592E+02  0.17341638806E+03  0.17120000000E+03 0.  0.
        998    1    1    2    0    0 -0.31394203892E+02 -0.10028532507E+02  0.14856955661E+04  0.14860947085E+04  0.10000000000E+02 0.  1.
</event>
<event>
 5    1  0.1675361E-008  0.3838885E+03  0.7957747E-01  0.3434400E+00
         13   -1    0    0    0    0  0.00000000000E+00  0.00000000000E+00  0.14999999963E+04  0.15000000000E+04  0.10566000000E+00 0.  1.
        994   -1    0    0    0    0 -0.00000000000E+00 -0.00000000000E+00  0.11368683772E-12  0.17120000000E+03  0.17120000000E+03 0.  0.
         13    1    1    2    0    0 -0.72673849044E+01 -0.22510036546E+02  0.12469883573E+03  0.12692252529E+03  0.10566000000E+00 0.  1.
        994    1    1    2    0    0  0.87441662674E+01  0.15667803175E+02  0.32462679509E+01  0.17216828615E+03  0.17120000000E+03 0.  0.
        998    1    1    2    0    0 -0.14767813630E+01  0.68422333702E+01  0.13720548926E+04  0.13721091886E+04  0.10000000000E+02 0.  1.
</event>
<event>
 5    1  0.1675361E-008  0.3829628E+03  0.7957747E-01  0.3438358E+00
         13   -1    0    0    0    0  0.00000000000E+00  0.00000000000E+00  0.14999999963E+04  0.15000000000E+04  0.10566000000E+00 0.  1.
        994   -1    0    0    0    0 -0.00000000000E+00 -0.00000000000E+00  0.11368683772E-12  0.17120000000E+03  0.17120000000E+03 0.  0.
         13    1    1    2    0    0 -0.18842187742E+02 -0.42078961441E+01  0.67913912603E+02  0.70604851943E+02  0.10566000000E+00 0.  1.
        994    1    1    2    0    0  0.16835016008E+02  0.44300754307E+01  0.36488267140E+01  0.17212146080E+03  0.17120000000E+03 0.  0.
        998    1    1    2    0    0  0.20071717339E+01 -0.22217928664E+00  0.14284372570E+04  0.14284736873E+04  0.10000000000E+02 0.  1.
</event>
<event>
 5    1  0.1675361E-008  0.3854867E+03  0.7957747E-01  0.3427611E+00
         13   -1    0    0    0    0  0.00000000000E+00  0.00000000000E+00  0.14999999963E+04  0.15000000000E+04  0.10566000000E+00 0. -1.
        994   -1    0    0    0    0 -0.00000000000E+00 -0.00000000000E+00  0.11368683772E-12  0.17120000000E+03  0.17120000000E+03 0.  0.
         13    1    1    2    0    0  0.25695747523E+01  0.14029602636E+02  0.67034446913E+02  0.68535105613E+02  0.10566000000E+00 0. -1.
        994    1    1    2    0    0 -0.45919678188E+01 -0.22663493498E+02  0.31463953995E+01  0.17278327439E+03  0.17120000000E+03 0.  0.
        998    1    1    2    0    0  0.20223930665E+01  0.86338908620E+01  0.14298191540E+04  0.14298816200E+04  0.10000000000E+02 0. -1.
</event>
<event>
 5    1  0.1675361E-008  0.3772413E+03  0.7957747E-01  0.3463259E+00
         13   -1    0    0    0    0  0.00000000000E+00  0.00000000000E+00  0.14999999963E+04  0.15000000000E+04  0.10566000000E+00 0.  1.
        994   -1    0    0    0    0 -0.00000000000E+00 -0.00000000000E+00  0.11368683772E-12  0.17120000000E+03  0.17120000000E+03 0.  0.
         13    1    1    2    0    0  0.47154948603E+02  0.12485190686E+02  0.17634202868E+03  0.18296445394E+03  0.10566000000E+00 0.  1.
        994    1    1    2    0    0 -0.56598926458E+02 -0.22211066250E+02  0.18107346581E+02  0.18257624692E+03  0.17120000000E+03 0.  0.
        998    1    1    2    0    0  0.94439778547E+01  0.97258755637E+01  0.13055506210E+04  0.13056592991E+04  0.10000000000E+02 0.  1.
</event>
<event>
 5    1  0.1675361E-008  0.3793343E+03  0.7957747E-01  0.3454062E+00
         13   -1    0    0    0    0  0.00000000000E+00  0.00000000000E+00  0.14999999963E+04  0.15000000000E+04  0.10566000000E+00 0. -1.
        994   -1    0    0    0    0 -0.00000000000E+00 -0.00000000000E+00  0.11368683772E-12  0.17120000000E+03  0.17120000000E+03 0.  0.
         13    1    1    2    0    0 -0.41243795940E+02 -0.15046416161E+02  0.25981621262E+03  0.26349937542E+03  0.10566000000E+00 0. -1.
        994    1    1    2    0    0  0.38467841062E+01 -0.28654712438E+01  0.45466732909E+01  0.17132752526E+03  0.17120000000E+03 0.  0.
        998    1    1    2    0    0  0.37397011834E+02  0.17911887405E+02  0.12356371104E+04  0.12363730993E+04  0.10000000000E+02 0. -1.
</event>
<event>
 5    1  0.1675361E-008  0.3857735E+03  0.7957747E-01  0.3426398E+00
         13   -1    0    0    0    0  0.00000000000E+00  0.00000000000E+00  0.14999999963E+04  0.15000000000E+04  0.10566000000E+00 0. -1.
        994   -1    0    0    0    0 -0.00000000000E+00 -0.00000000000E+00  0.11368683772E-12  0.17120000000E+03  0.17120000000E+03 0.  0.
         13    1    1    2    0    0 -0.10241923806E+02  0.46774787070E+01  0.54589731964E+02  0.55738907508E+02  0.10566000000E+00 0. -1.
        994    1    1    2    0    0  0.88527247131E+00  0.62436381477E+01  0.13770403018E+01  0.17132163601E+03  0.17120000000E+03 0.  0.
        998    1    1    2    0    0  0.93566513351E+01 -0.10921116855E+02  0.14440332240E+04  0.14441394565E+04  0.10000000000E+02 0. -1.
</event>
<event>
 5    1  0.1675361E-008  0.3827679E+03  0.7957747E-01  0.3439194E+00
         13   -1    0    0    0    0  0.00000000000E+00  0.00000000000E+00  0.14999999963E+04  0.15000000000E+04  0.10566000000E+00 0. -1.
        994   -1    0    0    0    0 -0.00000000000E+00 -0.00000000000E+00  0.11368683772E-12  0.17120000000E+03  0.17120000000E+03 0.  0.
         13    1    1    2    0    0 -0.97897815549E+01  0.16869618949E+02  0.68084277669E+02  0.70823046362E+02  0.10566000000E+00 0. -1.
        994    1    1    2    0    0 -0.17813552294E+01 -0.17086355875E+02  0.37206332056E+01  0.17209997064E+03  0.17120000000E+03 0.  0.
        998    1    1    2    0    0  0.11571136784E+02  0.21673692601E+00  0.14281950854E+04  0.14282769830E+04  0.10000000000E+02 0. -1.
</event>
<event>
 5    1  0.1675361E-008  0.3853173E+03  0.7957747E-01  0.3428328E+00
         13   -1    0    0    0    0  0.00000000000E+00  0.00000000000E+00  0.14999999963E+04  0.15000000000E+04  0.10566000000E+00 0. -1.
        994   -1    0    0    0    0 -0.00000000000E+00 -0.00000000000E+00  0.11368683772E-12  0.17120000000E+03  0.17120000000E+03 0.  0.
         13    1    1    2    0    0 -0.32633034256E+01 -0.16220100866E+02  0.99815771461E+02  0.10117776543E+03  0.10566000000E+00 0. -1.
        994    1    1    2    0    0  0.80281720176E+01  0.10231177476E+01  0.16879212019E+01  0.17139949648E+03  0.17120000000E+03 0.  0.
        998    1    1    2    0    0 -0.47648685920E+01  0.15196983119E+02  0.13984963036E+04  0.13986227381E+04  0.10000000000E+02 0. -1.
</event>
<event>
 5    1  0.1675361E-008  0.3838011E+03  0.7957747E-01  0.3434773E+00
         13   -1    0    0    0    0  0.00000000000E+00  0.00000000000E+00  0.14999999963E+04  0.15000000000E+04  0.10566000000E+00 0.  1.
        994   -1    0    0    0    0 -0.00000000000E+00 -0.00000000000E+00  0.11368683772E-12  0.17120000000E+03  0.17120000000E+03 0.  0.
         13    1    1    2    0    0  0.14595958015E+02  0.10674729844E+02  0.78809749991E+02  0.80857774551E+02  0.10566000000E+00 0.  1.
        994    1    1    2    0    0 -0.62494651288E+00  0.26479870891E+01  0.22509870785E+01  0.17123641358E+03  0.17120000000E+03 0.  0.
        998    1    1    2    0    0 -0.13971011502E+02 -0.13322716933E+02  0.14189392592E+04  0.14191058119E+04  0.10000000000E+02 0.  1.
</event>
<event>
 5    1  0.1675361E-008  0.3752061E+03  0.7957747E-01  0.3472302E+00
         13   -1    0    0    0    0  0.00000000000E+00  0.00000000000E+00  0.14999999963E+04  0.15000000000E+04  0.10566000000E+00 0.  1.
        994   -1    0    0    0    0 -0.00000000000E+00 -0.00000000000E+00  0.11368683772E-12  0.17120000000E+03  0.17120000000E+03 0.  0.
         13    1    1    2    0    0  0.77151780821E+01 -0.65503606991E+02  0.27872041518E+03  0.28641809912E+03  0.10566000000E+00 0.  1.
        994    1    1    2    0    0 -0.19679461349E+02  0.59248942023E+02  0.19930091821E+02  0.18331493908E+03  0.17120000000E+03 0.  0.
        998    1    1    2    0    0  0.11964283267E+02  0.62546649678E+01  0.12013494893E+04  0.12014669618E+04  0.10000000000E+02 0.  1.
</event>
<event>
 5    1  0.1675361E-008  0.3821925E+03  0.7957747E-01  0.3441667E+00
         13   -1    0    0    0    0  0.00000000000E+00  0.00000000000E+00  0.14999999963E+04  0.15000000000E+04  0.10566000000E+00 0. -1.
        994   -1    0    0    0    0 -0.00000000000E+00 -0.00000000000E+00  0.11368683772E-12  0.17120000000E+03  0.17120000000E+03 0.  0.
         13    1    1    2    0    0 -0.18816716301E+02 -0.81063604384E+01  0.70165565141E+02  0.73095824693E+02  0.10566000000E+00 0. -1.
        994    1    1    2    0    0  0.52632575038E+01  0.70747353160E+01  0.32885337564E+01  0.17145847373E+03  0.17120000000E+03 0.  0.
        998    1    1    2    0    0  0.13553458797E+02  0.10316251224E+01  0.14265458974E+04  0.14266457016E+04  0.10000000000E+02 0. -1.
</event>
<event>
 5    1  0.1675361E-008  0.3842294E+03  0.7957747E-01  0.3432947E+00
         13   -1    0    0    0    0  0.00000000000E+00  0.00000000000E+00  0.14999999963E+04  0.15000000000E+04  0.10566000000E+00 0.  1.
        994   -1    0    0    0    0 -0.00000000000E+00 -0.00000000000E+00  0.11368683772E-12  0.17120000000E+03  0.17120000000E+03 0.  0.
         13    1    1    2    0    0 -0.18505812885E+02  0.30283877966E+01  0.96110881819E+02  0.97923179131E+02  0.10566000000E+00 0.  1.
        994    1    1    2    0    0 -0.60749913678E+01 -0.36342327201E+02  0.65021678627E+01  0.17524094400E+03  0.17120000000E+03 0.  0.
        998    1    1    2    0    0  0.24580804253E+02  0.33313939404E+02  0.13973869466E+04  0.13980358769E+04  0.10000000000E+02 0.  0.
</event>
<event>
 5    1  0.1675361E-008  0.3859335E+03  0.7957747E-01  0.3425723E+00
         13   -1    0    0    0    0  0.00000000000E+00  0.00000000000E+00  0.14999999963E+04  0.15000000000E+04  0.10566000000E+00 0.  1.
        994   -1    0    0    0    0 -0.00000000000E+00 -0.00000000000E+00  0.11368683772E-12  0.17120000000E+03  0.17120000000E+03 0.  0.
         13    1    1    2    0    0 -0.10063768094E+02  0.68202866425E+01  0.68726168112E+02  0.69793216615E+02  0.10566000000E+00 0.  1.
        994    1    1    2    0    0 -0.44930826193E+01 -0.47141857738E+01  0.13064518691E+01  0.17132880130E+03  0.17120000000E+03 0.  0.
        998    1    1    2    0    0  0.14556850713E+02 -0.21061008687E+01  0.14299673763E+04  0.14300779821E+04  0.10000000000E+02 0.  1.
</event>
<event>
 5    1  0.1675361E-008  0.3756605E+03  0.7957747E-01  0.3470274E+00
         13   -1    0    0    0    0  0.00000000000E+00  0.00000000000E+00  0.14999999963E+04  0.15000000000E+04  0.10566000000E+00 0. -1.
        994   -1    0    0    0    0 -0.00000000000E+00 -0.00000000000E+00  0.11368683772E-12  0.17120000000E+03  0.17120000000E+03 0.  0.
         13    1    1    2    0    0  0.76560569833E+02 -0.37568440575E+02  0.41966433635E+03  0.42824184166E+03  0.10566000000E+00 0. -1.
        994    1    1    2    0    0 -0.78579766028E+02  0.27709445996E+02  0.30263085950E+02  0.19278974920E+03  0.17120000000E+03 0.  0.
        998    1    1    2    0    0  0.20191961945E+01  0.98589945792E+01  0.10500725740E+04  0.10501684091E+04  0.10000000000E+02 0. -1.
</event>
<event>
 5    1  0.1675361E-008  0.3786620E+03  0.7957747E-01  0.3457005E+00
         13   -1    0    0    0    0  0.00000000000E+00  0.00000000000E+00  0.14999999963E+04  0.15000000000E+04  0.10566000000E+00 0.  1.
        994   -1    0    0    0    0 -0.00000000000E+00 -0.00000000000E+00  0.11368683772E-12  0.17120000000E+03  0.17120000000E+03 0.  0.
         13    1    1    2    0    0 -0.36135320429E+02 -0.16507041490E+02  0.14928003604E+03  0.15447583670E+03  0.10566000000E+00 0.  1.
        994    1    1    2    0    0  0.37048576003E+02  0.98697959916E+01  0.97619281364E+01  0.17571210857E+03  0.17120000000E+03 0.  0.
        998    1    1    2    0    0 -0.91325557449E+00  0.66372454983E+01  0.13409580321E+04  0.13410120547E+04  0.10000000000E+02 0.  1.
</event>
<event>
 5    1  0.1675361E-008  0.3746879E+03  0.7957747E-01  0.3474620E+00
         13   -1    0    0    0    0  0.00000000000E+00  0.00000000000E+00  0.14999999963E+04  0.15000000000E+04  0.10566000000E+00 0.  1.
        994   -1    0    0    0    0 -0.00000000000E+00 -0.00000000000E+00  0.11368683772E-12  0.17120000000E+03  0.17120000000E+03 0.  0.
         13    1    1    2    0    0 -0.23501738601E+02 -0.14493828765E+02  0.52328547736E+02  0.59166636391E+02  0.10566000000E+00 0.  1.
        994    1    1    2    0    0  0.19052606338E+02  0.12235330717E+02  0.85856680720E+01  0.17290418972E+03  0.17120000000E+03 0.  0.
        998    1    1    2    0    0  0.44491322629E+01  0.22584980476E+01  0.14390857805E+04  0.14391291739E+04  0.10000000000E+02 0.  1.
</event>
<event>
 5    1  0.1675361E-008  0.3817142E+03  0.7957747E-01  0.3443728E+00
         13   -1    0    0    0    0  0.00000000000E+00  0.00000000000E+00  0.14999999963E+04  0.15000000000E+04  0.10566000000E+00 0. -1.
        994   -1    0    0    0    0 -0.00000000000E+00 -0.00000000000E+00  0.11368683772E-12  0.17120000000E+03  0.17120000000E+03 0.  0.
         13    1    1    2    0    0 -0.12044803074E+02  0.92785825181E+01  0.32536890792E+02  0.35914200549E+02  0.10566000000E+00 0. -1.
        994    1    1    2    0    0  0.12493853642E+02 -0.23512600349E+02  0.56304656105E+01  0.17334959157E+03  0.17120000000E+03 0.  0.
        998    1    1    2    0    0 -0.44905056785E+00  0.14234017830E+02  0.14618326399E+04  0.14619362079E+04  0.10000000000E+02 0. -1.
</event>
<event>
 5    1  0.1675361E-008  0.3820096E+03  0.7957747E-01  0.3442455E+00
         13   -1    0    0    0    0  0.00000000000E+00  0.00000000000E+00  0.14999999963E+04  0.15000000000E+04  0.10566000000E+00 0. -1.
        994   -1    0    0    0    0 -0.00000000000E+00 -0.00000000000E+00  0.11368683772E-12  0.17120000000E+03  0.17120000000E+03 0.  0.
         13    1    1    2    0    0  0.12929582662E+02  0.22299370747E+01  0.26763677368E+02  0.29806917275E+02  0.10566000000E+00 0. -1.
        994    1    1    2    0    0 -0.57988176566E+01  0.58689233835E+01  0.33482483000E+01  0.17143138953E+03  0.17120000000E+03 0.  0.
        998    1    1    2    0    0 -0.71307650050E+01 -0.80988604582E+01  0.14698880706E+04  0.14699616932E+04  0.10000000000E+02 0. -1.
</event>
<event>
 5    1  0.1675361E-008  0.3742770E+03  0.7957747E-01  0.3476462E+00
         13   -1    0    0    0    0  0.00000000000E+00  0.00000000000E+00  0.14999999963E+04  0.15000000000E+04  0.10566000000E+00 0.  1.
        994   -1    0    0    0    0 -0.00000000000E+00 -0.00000000000E+00  0.11368683772E-12  0.17120000000E+03  0.17120000000E+03 0.  0.
         13    1    1    2    0    0  0.41267193961E+02 -0.97481223799E+02  0.31714092094E+03  0.33434106118E+03  0.10566000000E+00 0.  1.
        994    1    1    2    0    0 -0.52257147722E+02  0.97486039414E+02  0.58017654906E+02  0.21191938479E+03  0.17120000000E+03 0.  0.
        998    1    1    2    0    0  0.10989953761E+02 -0.48156149631E-02  0.11248414204E+04  0.11249395540E+04  0.10000000000E+02 0.  1.
</event>
<event>
 5    1  0.1675361E-008  0.3777476E+03  0.7957747E-01  0.3461025E+00
         13   -1    0    0    0    0  0.00000000000E+00  0.00000000000E+00  0.14999999963E+04  0.15000000000E+04  0.10566000000E+00 0. -1.
        994   -1    0    0    0    0 -0.00000000000E+00 -0.00000000000E+00  0.11368683772E-12  0.17120000000E+03  0.17120000000E+03 0.  0.
         13    1    1    2    0    0  0.21592206650E+02 -0.48427272262E+02  0.26478675867E+03  0.27004344616E+03  0.10566000000E+00 0. -1.
        994    1    1    2    0    0  0.12491080382E+00  0.33476540198E+02  0.90582678243E+01  0.17467737851E+03  0.17120000000E+03 0.  0.
        998    1    1    2    0    0 -0.21717117454E+02  0.14950732064E+02  0.12261549698E+04  0.12264791753E+04  0.10000000000E+02 0. -1.
</event>
<event>
 5    1  0.1675361E-008  0.3776002E+03  0.7957747E-01  0.3461675E+00
         13   -1    0    0    0    0  0.00000000000E+00  0.00000000000E+00  0.14999999963E+04  0.15000000000E+04  0.10566000000E+00 0. -1.
        994   -1    0    0    0    0 -0.00000000000E+00 -0.00000000000E+00  0.11368683772E-12  0.17120000000E+03  0.17120000000E+03 0.  0.
         13    1    1    2    0    0  0.11859022501E+02 -0.39543867368E+02  0.19878347009E+03  0.20302520289E+03  0.10566000000E+00 0. -1.
        994    1    1    2    0    0  0.19335357806E+02 -0.44086923063E+01  0.66758764022E+01  0.17247405589E+03  0.17120000000E+03 0.  0.
        998    1    1    2    0    0 -0.31194380307E+02  0.43952559674E+02  0.12945406498E+04  0.12957007412E+04  0.10000000000E+02 0. -1.
</event>
<event>
 5    1  0.1675361E-008  0.3810623E+03  0.7957747E-01  0.3446546E+00
         13   -1    0    0    0    0  0.00000000000E+00  0.00000000000E+00  0.14999999963E+04  0.15000000000E+04  0.10566000000E+00 0. -1.
        994   -1    0    0    0    0 -0.00000000000E+00 -0.00000000000E+00  0.11368683772E-12  0.17120000000E+03  0.17120000000E+03 0.  0.
         13    1    1    2    0    0 -0.13985850004E+02 -0.11414012235E+02  0.43049000318E+02  0.46680951876E+02  0.10566000000E+00 0. -1.
        994    1    1    2    0    0  0.14276243357E+02  0.10421427393E+02  0.46392736503E+01  0.17217253014E+03  0.17120000000E+03 0.  0.
        998    1    1    2    0    0 -0.29039335228E+00  0.99258484132E+00  0.14523117223E+04  0.14523465180E+04  0.10000000000E+02 0. -1.
</event>
<event>
 5    1  0.1675361E-008  0.3847260E+03  0.7957747E-01  0.3430835E+00
         13   -1    0    0    0    0  0.00000000000E+00  0.00000000000E+00  0.14999999963E+04  0.15000000000E+04  0.10566000000E+00 0. -1.
        994   -1    0    0    0    0 -0.00000000000E+00 -0.00000000000E+00  0.11368683772E-12  0.17120000000E+03  0.17120000000E+03 0.  0.
         13    1    1    2    0    0 -0.13174026450E+02  0.43631101383E+01  0.51787901416E+02  0.53615199338E+02  0.10566000000E+00 0. -1.
        994    1    1    2    0    0  0.15680208915E+02 -0.10435317407E+02  0.29348158422E+01  0.17225799820E+03  0.17120000000E+03 0.  0.
        998    1    1    2    0    0 -0.25061824655E+01  0.60722072684E+01  0.14452772790E+04  0.14453268025E+04  0.10000000000E+02 0. -1.
</event>
<event>
 5    1  0.1675361E-008  0.3835068E+03  0.7957747E-01  0.3436030E+00
         13   -1    0    0    0    0  0.00000000000E+00  0.00000000000E+00  0.14999999963E+04  0.15000000000E+04  0.10566000000E+00 0. -1.
        994   -1    0    0    0    0 -0.00000000000E+00 -0.00000000000E+00  0.11368683772E-12  0.17120000000E+03  0.17120000000E+03 0.  0.
         13    1    1    2    0    0  0.20464027365E+02 -0.14346223069E+01  0.92389698650E+02  0.94639854913E+02  0.10566000000E+00 0. -1.
        994    1    1    2    0    0 -0.51937797432E+01  0.36181245304E+01  0.25057038068E+01  0.17133529912E+03  0.17120000000E+03 0.  0.
        998    1    1    2    0    0 -0.15270247621E+02 -0.21835022236E+01  0.14051045938E+04  0.14052248460E+04  0.10000000000E+02 0. -1.
</event>
<event>
 5    1  0.1675361E-008  0.3846336E+03  0.7957747E-01  0.3431228E+00
         13   -1    0    0    0    0  0.00000000000E+00  0.00000000000E+00  0.14999999963E+04  0.15000000000E+04  0.10566000000E+00 0.  1.
        994   -1    0    0    0    0 -0.00000000000E+00 -0.00000000000E+00  0.11368683772E-12  0.17120000000E+03  0.17120000000E+03 0.  0.
         13    1    1    2    0    0  0.76373368072E+01 -0.70800972491E+01  0.29713019987E+02  0.31485415852E+02  0.10566000000E+00 0.  1.
        994    1    1    2    0    0 -0.48804282416E+01  0.32225426144E+01  0.19247755117E+01  0.17131067720E+03  0.17120000000E+03 0.  0.
        998    1    1    2    0    0 -0.27569085656E+01  0.38575546347E+01  0.14683622008E+04  0.14684039070E+04  0.10000000000E+02 0.  1.
</event>
<event>
 5    1  0.1675361E-008  0.3797522E+03  0.7957747E-01  0.3452238E+00
         13   -1    0    0    0    0  0.00000000000E+00  0.00000000000E+00  0.14999999963E+04  0.15000000000E+04  0.10566000000E+00 0.  1.
        994   -1    0    0    0    0 -0.00000000000E+00 -0.00000000000E+00  0.11368683772E-12  0.17120000000E+03  0.17120000000E+03 0.  0.
         13    1    1    2    0    0 -0.86642189778E+01  0.60990626425E+01  0.11170885414E+02  0.15396983490E+02  0.10566000000E+00 0.  1.
        994    1    1    2    0    0  0.10455130008E+02 -0.73599912566E+01  0.48054311025E+01  0.17174402867E+03  0.17120000000E+03 0.  0.
        998    1    1    2    0    0 -0.17909110303E+01  0.12609286141E+01  0.14840236798E+04  0.14840589878E+04  0.10000000000E+02 0.  1.
</event>
<event>
 5    1  0.1675361E-008  0.3791459E+03  0.7957747E-01  0.3454886E+00
         13   -1    0    0    0    0  0.00000000000E+00  0.00000000000E+00  0.14999999963E+04  0.15000000000E+04  0.10566000000E+00 0.  1.
        994   -1    0    0    0    0 -0.00000000000E+00 -0.00000000000E+00  0.11368683772E-12  0.17120000000E+03  0.17120000000E+03 0.  0.
         13    1    1    2    0    0 -0.10955432909E+03  0.53419774168E+02  0.73684036429E+03  0.74685310263E+03  0.10566000000E+00 0.  1.
        994    1    1    2    0    0  0.10790965875E+03 -0.65763765352E+02  0.60109338586E+02  0.22111521854E+03  0.17120000000E+03 0.  0.
        998    1    1    2    0    0  0.16446703463E+01  0.12343991184E+02  0.70305029340E+03  0.70323167883E+03  0.10000000000E+02 0.  0.
</event>
<event>
 5    1  0.1675361E-008  0.3815284E+03  0.7957747E-01  0.3444530E+00
         13   -1    0    0    0    0  0.00000000000E+00  0.00000000000E+00  0.14999999963E+04  0.15000000000E+04  0.10566000000E+00 0.  1.
        994   -1    0    0    0    0 -0.00000000000E+00 -0.00000000000E+00  0.11368683772E-12  0.17120000000E+03  0.17120000000E+03 0.  0.
         13    1    1    2    0    0 -0.29101930406E+02 -0.74482362827E+01  0.13025068289E+03  0.13366992981E+03  0.10566000000E+00 0.  1.
        994    1    1    2    0    0  0.20829528828E+02  0.42501608593E+01  0.48682143562E+01  0.17258352369E+03  0.17120000000E+03 0.  0.
        998    1    1    2    0    0  0.82724015779E+01  0.31980754234E+01  0.13648810990E+04  0.13649465465E+04  0.10000000000E+02 0.  1.
</event>
<event>
 5    1  0.1675361E-008  0.3847196E+03  0.7957747E-01  0.3430862E+00
         13   -1    0    0    0    0  0.00000000000E+00  0.00000000000E+00  0.14999999963E+04  0.15000000000E+04  0.10566000000E+00 0.  1.
        994   -1    0    0    0    0 -0.00000000000E+00 -0.00000000000E+00  0.11368683772E-12  0.17120000000E+03  0.17120000000E+03 0.  0.
         13    1    1    2    0    0 -0.57752369204E+01 -0.10074129279E+02  0.40542564376E+02  0.42172883853E+02  0.10566000000E+00 0.  1.
        994    1    1    2    0    0 -0.57600108143E+01 -0.38026602631E+01  0.19262181923E+01  0.17134990011E+03  0.17120000000E+03 0.  0.
        998    1    1    2    0    0  0.11535247735E+02  0.13876789542E+02  0.14575312137E+04  0.14576772160E+04  0.10000000000E+02 0.  1.
</event>
<event>
 5    1  0.1675361E-008  0.3834006E+03  0.7957747E-01  0.3436484E+00
         13   -1    0    0    0    0  0.00000000000E+00  0.00000000000E+00  0.14999999963E+04  0.15000000000E+04  0.10566000000E+00 0.  1.
        994   -1    0    0    0    0 -0.00000000000E+00 -0.00000000000E+00  0.11368683772E-12  0.17120000000E+03  0.17120000000E+03 0.  0.
         13    1    1    2    0    0  0.36225315917E+01  0.94096325215E+01  0.19968393118E+02  0.22369886166E+02  0.10566000000E+00 0.  1.
        994    1    1    2    0    0 -0.18494409929E+01 -0.88052331888E+01  0.26939501546E+01  0.17145742892E+03  0.17120000000E+03 0.  0.
        998    1    1    2    0    0 -0.17730905988E+01 -0.60439933268E+00  0.14773376530E+04  0.14773726849E+04  0.10000000000E+02 0.  1.
</event>
<event>
 5    1  0.1675361E-008  0.3714897E+03  0.7957747E-01  0.3489072E+00
         13   -1    0    0    0    0  0.00000000000E+00  0.00000000000E+00  0.14999999963E+04  0.15000000000E+04  0.10566000000E+00 0.  1.
        994   -1    0    0    0    0 -0.00000000000E+00 -0.00000000000E+00  0.11368683772E-12  0.17120000000E+03  0.17120000000E+03 0.  0.
         13    1    1    2    0    0 -0.37554514259E+02 -0.11516587882E+02  0.58591226302E+02  0.70540175087E+02  0.10566000000E+00 0.  1.
        994    1    1    2    0    0  0.39982608158E+02  0.15427537618E+02  0.18211084919E+02  0.17741956343E+03  0.17120000000E+03 0.  0.
        998    1    1    2    0    0 -0.24280938985E+01 -0.39109497361E+01  0.14231976851E+04  0.14232402615E+04  0.10000000000E+02 0.  1.
</event>
<event>
 5    1  0.1675361E-008  0.3843505E+03  0.7957747E-01  0.3432431E+00
         13   -1    0    0    0    0  0.00000000000E+00  0.00000000000E+00  0.14999999963E+04  0.15000000000E+04  0.10566000000E+00 0. -1.
        994   -1    0    0    0    0 -0.00000000000E+00 -0.00000000000E+00  0.11368683772E-12  0.17120000000E+03  0.17120000000E+03 0.  0.
         13    1    1    2    0    0  0.83738016042E+01 -0.16753400438E+02  0.91513595131E+02  0.93410632357E+02  0.10566000000E+00 0. -1.
        994    1    1    2    0    0  0.41581939567E+00  0.10056130062E+02  0.22868471354E+01  0.17151084026E+03  0.17120000000E+03 0.  0.
        998    1    1    2    0    0 -0.87896209999E+01  0.66972703753E+01  0.14061995540E+04  0.14062785274E+04  0.10000000000E+02 0. -1.
</event>
<event>
 5    1  0.1675361E-008  0.3795826E+03  0.7957747E-01  0.3452978E+00
         13   -1    0    0    0    0  0.00000000000E+00  0.00000000000E+00  0.14999999963E+04  0.15000000000E+04  0.10566000000E+00 0. -1.
        994   -1    0    0    0    0 -0.00000000000E+00 -0.00000000000E+00  0.11368683772E-12  0.17120000000E+03  0.17120000000E+03 0.  0.
         13    1    1    2    0    0 -0.10265686294E+02  0.48514368042E+01  0.12804869108E+02  0.17114221895E+02  0.10566000000E+00 0. -1.
        994    1    1    2    0    0  0.75528509702E+01 -0.13436889746E+02  0.51397719501E+01  0.17196933686E+03  0.17120000000E+03 0.  0.
        998    1    1    2    0    0  0.27128353233E+01  0.85854529415E+01  0.14820553552E+04  0.14821164412E+04  0.10000000000E+02 0. -1.
</event>
<event>
 5    1  0.1675361E-008  0.3741642E+03  0.7957747E-01  0.3476969E+00
         13   -1    0    0    0    0  0.00000000000E+00  0.00000000000E+00  0.14999999963E+04  0.15000000000E+04  0.10566000000E+00 0.  1.
        994   -1    0    0    0    0 -0.00000000000E+00 -0.00000000000E+00  0.11368683772E-12  0.17120000000E+03  0.17120000000E+03 0.  0.
         13    1    1    2    0    0 -0.99762972366E+02 -0.46321165039E+02  0.44346906784E+03  0.45690603660E+03  0.10566000000E+00 0.  1.
        994    1    1    2    0    0  0.61929374903E+02  0.27863511458E+02  0.29704960751E+02  0.18655682094E+03  0.17120000000E+03 0.  0.
        998    1    1    2    0    0  0.37833597463E+02  0.18457653581E+02  0.10268259677E+04  0.10277371425E+04  0.10000000000E+02 0.  1.
</event>
<event>
 5    1  0.1675361E-008  0.3820863E+03  0.7957747E-01  0.3442124E+00
         13   -1    0    0    0    0  0.00000000000E+00  0.00000000000E+00  0.14999999963E+04  0.15000000000E+04  0.10566000000E+00 0.  1.
        994   -1    0    0    0    0 -0.00000000000E+00 -0.00000000000E+00  0.11368683772E-12  0.17120000000E+03  0.17120000000E+03 0.  0.
         13    1    1    2    0    0 -0.15965857617E+02  0.22986694066E+02  0.13952305984E+03  0.14230246697E+03  0.10566000000E+00 0.  1.
        994    1    1    2    0    0 -0.51223698470E+01 -0.65578492111E+01  0.33136284872E+01  0.17143413952E+03  0.17120000000E+03 0.  0.
        998    1    1    2    0    0  0.21088227464E+02 -0.16428844855E+02  0.13571633080E+04  0.13574633935E+04  0.10000000000E+02 0.  1.
</event>
<event>
 5    1  0.1675361E-008  0.3817584E+03  0.7957747E-01  0.3443538E+00
         13   -1    0    0    0    0  0.00000000000E+00  0.00000000000E+00  0.14999999963E+04  0.15000000000E+04  0.10566000000E+00 0.  1.
        994   -1    0    0    0    0 -0.00000000000E+00 -0.00000000000E+00  0.11368683772E-12  0.17120000000E+03  0.17120000000E+03 0.  0.
         13    1    1    2    0    0 -0.14527695590E+02  0.12954864522E+02  0.52690667756E+02  0.56171167751E+02  0.10566000000E+00 0.  1.
        994    1    1    2    0    0  0.55812241783E+02  0.12848552752E+02  0.14227590249E+02  0.18108549352E+03  0.17120000000E+03 0.  0.
        998    1    1    2    0    0 -0.41284546193E+02 -0.25803417273E+02  0.14330817383E+04  0.14339433387E+04  0.10000000000E+02 0.  1.
</event>
<event>
 5    1  0.1675361E-008  0.3734466E+03  0.7957747E-01  0.3480199E+00
         13   -1    0    0    0    0  0.00000000000E+00  0.00000000000E+00  0.14999999963E+04  0.15000000000E+04  0.10566000000E+00 0. -1.
        994   -1    0    0    0    0 -0.00000000000E+00 -0.00000000000E+00  0.11368683772E-12  0.17120000000E+03  0.17120000000E+03 0.  0.
         13    1    1    2    0    0 -0.17358618791E+03  0.23696086091E+03  0.10795924737E+04  0.11188398163E+04  0.10566000000E+00 0. -1.
        994    1    1    2    0    0  0.14470295844E+03 -0.23271784238E+03  0.35496064521E+03  0.48000316665E+03  0.17120000000E+03 0.  0.
        998    1    1    2    0    0  0.28883229468E+02 -0.42430185270E+01  0.65446877397E+02  0.72357017018E+02  0.10000000000E+02 0. -1.
</event>
<event>
 5    1  0.1675361E-008  0.3790207E+03  0.7957747E-01  0.3455434E+00
         13   -1    0    0    0    0  0.00000000000E+00  0.00000000000E+00  0.14999999963E+04  0.15000000000E+04  0.10566000000E+00 0. -1.
        994   -1    0    0    0    0 -0.00000000000E+00 -0.00000000000E+00  0.11368683772E-12  0.17120000000E+03  0.17120000000E+03 0.  0.
         13    1    1    2    0    0  0.26932397944E+02  0.26026892593E+02  0.17436511844E+03  0.17834225211E+03  0.10566000000E+00 0. -1.
        994    1    1    2    0    0  0.71913526686E+01 -0.66023419066E+01  0.49480285468E+01  0.17154949565E+03  0.17120000000E+03 0.  0.
        998    1    1    2    0    0 -0.34123750613E+02 -0.19424550686E+02  0.13206868493E+04  0.13213082522E+04  0.10000000000E+02 0. -1.
</event>
<event>
 5    1  0.1675361E-008  0.3841596E+03  0.7957747E-01  0.3433244E+00
         13   -1    0    0    0    0  0.00000000000E+00  0.00000000000E+00  0.14999999963E+04  0.15000000000E+04  0.10566000000E+00 0. -1.
        994   -1    0    0    0    0 -0.00000000000E+00 -0.00000000000E+00  0.11368683772E-12  0.17120000000E+03  0.17120000000E+03 0.  0.
         13    1    1    2    0    0  0.42221454364E+01  0.99771787884E+01  0.30527754403E+02  0.32393295009E+02  0.10566000000E+00 0. -1.
        994    1    1    2    0    0  0.17200595968E+02  0.66952624897E+01  0.31722290638E+01  0.17222134037E+03  0.17120000000E+03 0.  0.
        998    1    1    2    0    0 -0.21422741405E+02 -0.16672441278E+02  0.14663000128E+04  0.14665853646E+04  0.10000000000E+02 0. -1.
</event>
<event>
 5    1  0.1675361E-008  0.3768021E+03  0.7957747E-01  0.3465202E+00
         13   -1    0    0    0    0  0.00000000000E+00  0.00000000000E+00  0.14999999963E+04  0.15000000000E+04  0.10566000000E+00 0.  1.
        994   -1    0    0    0    0 -0.00000000000E+00 -0.00000000000E+00  0.11368683772E-12  0.17120000000E+03  0.17120000000E+03 0.  0.
         13    1    1    2    0    0 -0.41459848655E+02 -0.76763222509E+01  0.14904856386E+03  0.15489780672E+03  0.10566000000E+00 0.  1.
        994    1    1    2    0    0  0.29609524027E+02 -0.48289712545E+00  0.87248584104E+01  0.17396126079E+03  0.17120000000E+03 0.  0.
        998    1    1    2    0    0  0.11850324628E+02  0.81592193764E+01  0.13422265740E+04  0.13423409325E+04  0.10000000000E+02 0.  1.
</event>
<event>
 5    1  0.1675361E-008  0.3838591E+03  0.7957747E-01  0.3434526E+00
         13   -1    0    0    0    0  0.00000000000E+00  0.00000000000E+00  0.14999999963E+04  0.15000000000E+04  0.10566000000E+00 0.  1.
        994   -1    0    0    0    0 -0.00000000000E+00 -0.00000000000E+00  0.11368683772E-12  0.17120000000E+03  0.17120000000E+03 0.  0.
         13    1    1    2    0    0 -0.99233561079E+01 -0.11663974558E+02  0.52389095314E+02  0.54581588203E+02  0.10566000000E+00 0.  1.
        994    1    1    2    0    0  0.11507948684E+02  0.58167414739E+01  0.27466711222E+01  0.17170687688E+03  0.17120000000E+03 0.  0.
        998    1    1    2    0    0 -0.15845925758E+01  0.58472330845E+01  0.14448642298E+04  0.14449115349E+04  0.10000000000E+02 0.  1.
</event>
<event>
 5    1  0.1675361E-008  0.3841887E+03  0.7957747E-01  0.3433120E+00
         13   -1    0    0    0    0  0.00000000000E+00  0.00000000000E+00  0.14999999963E+04  0.15000000000E+04  0.10566000000E+00 0. -1.
        994   -1    0    0    0    0 -0.00000000000E+00 -0.00000000000E+00  0.11368683772E-12  0.17120000000E+03  0.17120000000E+03 0.  0.
         13    1    1    2    0    0 -0.12996496932E+02  0.14698682986E+01  0.40565386354E+02  0.42621956542E+02  0.10566000000E+00 0. -1.
        994    1    1    2    0    0  0.13942109061E+02 -0.49372425174E+01  0.27551201856E+01  0.17185979593E+03  0.17120000000E+03 0.  0.
        998    1    1    2    0    0 -0.94561212900E+00  0.34673742188E+01  0.14566794897E+04  0.14567182475E+04  0.10000000000E+02 0. -1.
</event>
<event>
 5    1  0.1675361E-008  0.3844675E+03  0.7957747E-01  0.3431934E+00
         13   -1    0    0    0    0  0.00000000000E+00  0.00000000000E+00  0.14999999963E+04  0.15000000000E+04  0.10566000000E+00 0.  1.
        994   -1    0    0    0    0 -0.00000000000E+00 -0.00000000000E+00  0.11368683772E-12  0.17120000000E+03  0.17120000000E+03 0.  0.
         13    1    1    2    0    0  0.77592281074E+01  0.69378040377E+01  0.27714132057E+02  0.29604442664E+02  0.10566000000E+00 0.  1.
        994    1    1    2    0    0 -0.12045208022E+02 -0.29042474585E+01  0.24006763959E+01  0.17166457100E+03  0.17120000000E+03 0.  0.
        998    1    1    2    0    0  0.42859799143E+01 -0.40335565792E+01  0.14698851878E+04  0.14699309863E+04  0.10000000000E+02 0.  1.
</event>
<event>
 5    1  0.1675361E-008  0.3801452E+03  0.7957747E-01  0.3450526E+00
         13   -1    0    0    0    0  0.00000000000E+00  0.00000000000E+00  0.14999999963E+04  0.15000000000E+04  0.10566000000E+00 0.  1.
        994   -1    0    0    0    0 -0.00000000000E+00 -0.00000000000E+00  0.11368683772E-12  0.17120000000E+03  0.17120000000E+03 0.  0.
         13    1    1    2    0    0  0.11195963750E+02  0.36596976908E+02  0.21206607751E+03  0.21549181126E+03  0.10566000000E+00 0.  1.
        994    1    1    2    0    0 -0.70781024360E+01  0.12627671287E+01  0.42326116228E+01  0.17140317709E+03  0.17120000000E+03 0.  0.
        998    1    1    2    0    0 -0.41178613139E+01 -0.37859744036E+02  0.12837013071E+04  0.12843050117E+04  0.10000000000E+02 0.  1.
</event>
<event>
 5    1  0.1675361E-008  0.3779763E+03  0.7957747E-01  0.3460018E+00
         13   -1    0    0    0    0  0.00000000000E+00  0.00000000000E+00  0.14999999963E+04  0.15000000000E+04  0.10566000000E+00 0.  1.
        994   -1    0    0    0    0 -0.00000000000E+00 -0.00000000000E+00  0.11368683772E-12  0.17120000000E+03  0.17120000000E+03 0.  0.
         13    1    1    2    0    0 -0.46297892181E+01 -0.32389930855E+02  0.98642691438E+02  0.10392754354E+03  0.10566000000E+00 0.  1.
        994    1    1    2    0    0  0.17291620169E+01  0.27039577930E+02  0.76327955672E+01  0.17349878485E+03  0.17120000000E+03 0.  0.
        998    1    1    2    0    0  0.29006272012E+01  0.53503529252E+01  0.13937245093E+04  0.13937736716E+04  0.10000000000E+02 0.  1.
</event>
<event>
 5    1  0.1675361E-008  0.3829782E+03  0.7957747E-01  0.3438293E+00
         13   -1    0    0    0    0  0.00000000000E+00  0.00000000000E+00  0.14999999963E+04  0.15000000000E+04  0.10566000000E+00 0. -1.
        994   -1    0    0    0    0 -0.00000000000E+00 -0.00000000000E+00  0.11368683772E-12  0.17120000000E+03  0.17120000000E+03 0.  0.
         13    1    1    2    0    0  0.68104592451E+01  0.19226134611E+02  0.85741513250E+02  0.88134243434E+02  0.10566000000E+00 0. -1.
        994    1    1    2    0    0  0.19757714864E+01  0.23357246654E+01  0.26682718207E+01  0.17124812103E+03  0.17120000000E+03 0.  0.
        998    1    1    2    0    0 -0.87862307315E+01 -0.21561859276E+02  0.14115902112E+04  0.14118176355E+04  0.10000000000E+02 0. -1.
</event>
<event>
 5    1  0.1675361E-008  0.3854105E+03  0.7957747E-01  0.3427933E+00
         13   -1    0    0    0    0  0.00000000000E+00  0.00000000000E+00  0.14999999963E+04  0.15000000000E+04  0.10566000000E+00 0.  1.
        994   -1    0    0    0    0 -0.00000000000E+00 -0.00000000000E+00  0.11368683772E-12  0.17120000000E+03  0.17120000000E+03 0.  0.
         13    1    1    2    0    0  0.73528525309E+01  0.85417015096E+01  0.44437741000E+02  0.45844837160E+02  0.10566000000E+00 0.  1.
        994    1    1    2    0    0 -0.65999463780E+01 -0.54097731553E+01  0.16657013090E+01  0.17142065074E+03  0.17120000000E+03 0.  0.
        998    1    1    2    0    0 -0.75290615291E+00 -0.31319283543E+01  0.14538965540E+04  0.14539345121E+04  0.10000000000E+02 0.  1.
</event>
<event>
 5    1  0.1675361E-008  0.3857706E+03  0.7957747E-01  0.3426410E+00
         13   -1    0    0    0    0  0.00000000000E+00  0.00000000000E+00  0.14999999963E+04  0.15000000000E+04  0.10566000000E+00 0.  1.
        994   -1    0    0    0    0 -0.00000000000E+00 -0.00000000000E+00  0.11368683772E-12  0.17120000000E+03  0.17120000000E+03 0.  0.
         13    1    1    2    0    0 -0.83880253495E+01 -0.85588619552E+01  0.60582863940E+02  0.61756842977E+02  0.10566000000E+00 0.  1.
        994    1    1    2    0    0 -0.66564315731E+00  0.32280194909E+01  0.12836543547E+01  0.17123653512E+03  0.17120000000E+03 0.  0.
        998    1    1    2    0    0  0.90536685068E+01  0.53308424642E+01  0.14381334780E+04  0.14382066219E+04  0.10000000000E+02 0.  1.
</event>
<event>
 5    1  0.1675361E-008  0.3702809E+03  0.7957747E-01  0.3494601E+00
         13   -1    0    0    0    0  0.00000000000E+00  0.00000000000E+00  0.14999999963E+04  0.15000000000E+04  0.10566000000E+00 0. -1.
        994   -1    0    0    0    0 -0.00000000000E+00 -0.00000000000E+00  0.11368683772E-12  0.17120000000E+03  0.17120000000E+03 0.  0.
         13    1    1    2    0    0  0.34831263294E+02 -0.36773373782E+01  0.50732200510E+02  0.61648252574E+02  0.10566000000E+00 0. -1.
        994    1    1    2    0    0 -0.26032160399E+02  0.39976335085E+01  0.13518618721E+02  0.17374074796E+03  0.17120000000E+03 0.  0.
        998    1    1    2    0    0 -0.87991028951E+01 -0.32029613030E+00  0.14357491770E+04  0.14358109995E+04  0.10000000000E+02 0. -1.
</event>
<event>
 5    1  0.1675361E-008  0.3730841E+03  0.7957747E-01  0.3481836E+00
         13   -1    0    0    0    0  0.00000000000E+00  0.00000000000E+00  0.14999999963E+04  0.15000000000E+04  0.10566000000E+00 0. -1.
        994   -1    0    0    0    0 -0.00000000000E+00 -0.00000000000E+00  0.11368683772E-12  0.17120000000E+03  0.17120000000E+03 0.  0.
         13    1    1    2    0    0 -0.52075336631E+02  0.21378400234E+02  0.19604140922E+03  0.20396353100E+03  0.10566000000E+00 0. -1.
        994    1    1    2    0    0  0.36760834825E+02 -0.16202722539E+02  0.13207673866E+02  0.17634559774E+03  0.17120000000E+03 0.  0.
        998    1    1    2    0    0  0.15314501805E+02 -0.51756776943E+01  0.12907509132E+04  0.12908908713E+04  0.10000000000E+02 0. -1.
</event>
<event>
 5    1  0.1675361E-008  0.3818744E+03  0.7957747E-01  0.3443037E+00
         13   -1    0    0    0    0  0.00000000000E+00  0.00000000000E+00  0.14999999963E+04  0.15000000000E+04  0.10566000000E+00 0. -1.
        994   -1    0    0    0    0 -0.00000000000E+00 -0.00000000000E+00  0.11368683772E-12  0.17120000000E+03  0.17120000000E+03 0.  0.
         13    1    1    2    0    0 -0.41529726460E+02  0.41573389403E+01  0.24007132593E+03  0.24367243247E+03  0.10566000000E+00 0. -1.
        994    1    1    2    0    0  0.37381318914E+02 -0.58838152724E+01  0.79621148894E+01  0.17551301251E+03  0.17120000000E+03 0.  0.
        998    1    1    2    0    0  0.41484075457E+01  0.17264763321E+01  0.12519665555E+04  0.12520145550E+04  0.10000000000E+02 0.  0.
</event>
<event>
 5    1  0.1675361E-008  0.3853778E+03  0.7957747E-01  0.3428071E+00
         13   -1    0    0    0    0  0.00000000000E+00  0.00000000000E+00  0.14999999963E+04  0.15000000000E+04  0.10566000000E+00 0. -1.
        994   -1    0    0    0    0 -0.00000000000E+00 -0.00000000000E+00  0.11368683772E-12  0.17120000000E+03  0.17120000000E+03 0.  0.
         13    1    1    2    0    0  0.15885640296E+02  0.86713199449E+01  0.10249677185E+03  0.10408239410E+03  0.10566000000E+00 0. -1.
        994    1    1    2    0    0 -0.21827581088E+02 -0.10690940275E+02  0.33854293525E+01  0.17294982114E+03  0.17120000000E+03 0.  0.
        998    1    1    2    0    0  0.59419407923E+01  0.20196203305E+01  0.13941177951E+04  0.13941677848E+04  0.10000000000E+02 0. -1.
</event>
<event>
 5    1  0.1675361E-008  0.3624342E+03  0.7957747E-01  0.3531401E+00
         13   -1    0    0    0    0  0.00000000000E+00  0.00000000000E+00  0.14999999963E+04  0.15000000000E+04  0.10566000000E+00 0.  1.
        994   -1    0    0    0    0 -0.00000000000E+00 -0.00000000000E+00  0.11368683772E-12  0.17120000000E+03  0.17120000000E+03 0.  0.
         13    1    1    2    0    0 -0.21244371451E+03 -0.14929611266E+03  0.10116345974E+04  0.10444262687E+04  0.10566000000E+00 0.  1.
        994    1    1    2    0    0  0.20560720827E+03  0.14302089775E+03  0.26449399668E+03  0.40248703776E+03  0.17120000000E+03 0.  0.
        998    1    1    2    0    0  0.68365062428E+01  0.62752149116E+01  0.22387140225E+03  0.22428669351E+03  0.10000000000E+02 0.  0.
</event>
<event>
 5    1  0.1675361E-008  0.3765903E+03  0.7957747E-01  0.3466141E+00
         13   -1    0    0    0    0  0.00000000000E+00  0.00000000000E+00  0.14999999963E+04  0.15000000000E+04  0.10566000000E+00 0. -1.
        994   -1    0    0    0    0 -0.00000000000E+00 -0.00000000000E+00  0.11368683772E-12  0.17120000000E+03  0.17120000000E+03 0.  0.
         13    1    1    2    0    0  0.93163893653E+01 -0.12692309247E+02  0.18674569281E+02  0.24426226207E+02  0.10566000000E+00 0. -1.
        994    1    1    2    0    0 -0.77229409494E+01  0.65197100804E+01  0.62097889259E+01  0.17161046563E+03  0.17120000000E+03 0.  0.
        998    1    1    2    0    0 -0.15934484159E+01  0.61725991663E+01  0.14751156381E+04  0.14751633082E+04  0.10000000000E+02 0. -1.
</event>
<event>
 5    1  0.1675361E-008  0.3744792E+03  0.7957747E-01  0.3475555E+00
         13   -1    0    0    0    0  0.00000000000E+00  0.00000000000E+00  0.14999999963E+04  0.15000000000E+04  0.10566000000E+00 0.  1.
        994   -1    0    0    0    0 -0.00000000000E+00 -0.00000000000E+00  0.11368683772E-12  0.17120000000E+03  0.17120000000E+03 0.  0.
         13    1    1    2    0    0 -0.11065327465E+02 -0.44280765223E+00  0.56126830943E+01  0.12415753141E+02  0.10566000000E+00 0.  1.
        994    1    1    2    0    0  0.95912955586E+01 -0.54009578845E+00  0.72607094358E+01  0.17162296628E+03  0.17120000000E+03 0.  0.
        998    1    1    2    0    0  0.14740319060E+01  0.98290344068E+00  0.14871266037E+04  0.14871612806E+04  0.10000000000E+02 0.  1.
</event>
<event>
 5    1  0.1675361E-008  0.3854141E+03  0.7957747E-01  0.3427918E+00
         13   -1    0    0    0    0  0.00000000000E+00  0.00000000000E+00  0.14999999963E+04  0.15000000000E+04  0.10566000000E+00 0.  1.
        994   -1    0    0    0    0 -0.00000000000E+00 -0.00000000000E+00  0.11368683772E-12  0.17120000000E+03  0.17120000000E+03 0.  0.
         13    1    1    2    0    0 -0.11988816480E+02 -0.12796053930E+02  0.10457991567E+03  0.10603980688E+03  0.10566000000E+00 0.  1.
        994    1    1    2    0    0 -0.78406543381E+01  0.30086998045E+02  0.46060147609E+01  0.17406136471E+03  0.17120000000E+03 0.  0.
        998    1    1    2    0    0  0.19829470818E+02 -0.17290944115E+02  0.13908140658E+04  0.13910988284E+04  0.10000000000E+02 0.  1.
</event>
<event>
 5    1  0.1675361E-008  0.3788690E+03  0.7957747E-01  0.3456098E+00
         13   -1    0    0    0    0  0.00000000000E+00  0.00000000000E+00  0.14999999963E+04  0.15000000000E+04  0.10566000000E+00 0. -1.
        994   -1    0    0    0    0 -0.00000000000E+00 -0.00000000000E+00  0.11368683772E-12  0.17120000000E+03  0.17120000000E+03 0.  0.
         13    1    1    2    0    0 -0.29779688438E+02 -0.22983468470E+02  0.14249936096E+03  0.14738096453E+03  0.10566000000E+00 0. -1.
        994    1    1    2    0    0  0.20204637626E+02  0.22323603083E+02  0.77531146458E+01  0.17400034892E+03  0.17120000000E+03 0.  0.
        998    1    1    2    0    0  0.95750508119E+01  0.65986538642E+00  0.13497475207E+04  0.13498186866E+04  0.10000000000E+02 0.  0.
</event>
<event>
 5    1  0.1675361E-008  0.3832250E+03  0.7957747E-01  0.3437235E+00
         13   -1    0    0    0    0  0.00000000000E+00  0.00000000000E+00  0.14999999963E+04  0.15000000000E+04  0.10566000000E+00 0.  1.
        994   -1    0    0    0    0 -0.00000000000E+00 -0.00000000000E+00  0.11368683772E-12  0.17120000000E+03  0.17120000000E+03 0.  0.
         13    1    1    2    0    0 -0.21572275096E+01 -0.11875529151E+02  0.27524335186E+02  0.30054650466E+02  0.10566000000E+00 0.  1.
        994    1    1    2    0    0  0.11818790873E+02  0.12548890697E+02  0.34974970421E+01  0.17210122301E+03  0.17120000000E+03 0.  0.
        998    1    1    2    0    0 -0.96615633636E+01 -0.67336154510E+00  0.14689781641E+04  0.14690441265E+04  0.10000000000E+02 0.  1.
</event>
<event>
 5    1  0.1675361E-008  0.4310999E+03  0.7957747E-01  0.3254962E+00
         13   -1    0    0    0    0  0.00000000000E+00  0.00000000000E+00  0.14999999963E+04  0.15000000000E+04  0.10566000000E+00 0.  1.
        994   -1    0    0    0    0 -0.00000000000E+00 -0.00000000000E+00  0.11368683772E-12  0.17120000000E+03  0.17120000000E+03 0.  0.
         13    1    1    2    0    0 -0.67389769543E+02 -0.37972411800E+02  0.45776495847E+02  0.89882055122E+02  0.10566000000E+00 0.  1.
        994    1    1    2    0    0  0.80557978642E+02  0.12377319080E+02  0.78436981924E+02  0.20519402058E+03  0.17120000000E+03 0.  0.
        998    1    1    2    0    0 -0.13168209099E+02  0.25595092720E+02  0.13757865185E+04  0.13761239243E+04  0.10000000000E+02 0.  1.
</event>
<event>
 5    1  0.1675361E-008  0.3789004E+03  0.7957747E-01  0.3455960E+00
         13   -1    0    0    0    0  0.00000000000E+00  0.00000000000E+00  0.14999999963E+04  0.15000000000E+04  0.10566000000E+00 0.  1.
        994   -1    0    0    0    0 -0.00000000000E+00 -0.00000000000E+00  0.11368683772E-12  0.17120000000E+03  0.17120000000E+03 0.  0.
         13    1    1    2    0    0  0.69838143351E+01  0.21940343772E+02  0.55068932883E+02  0.59688783540E+02  0.10566000000E+00 0.  1.
        994    1    1    2    0    0 -0.44814202895E+01 -0.12635491125E+02  0.52924942593E+01  0.17180567295E+03  0.17120000000E+03 0.  0.
        998    1    1    2    0    0 -0.25023940457E+01 -0.93048526470E+01  0.14396385691E+04  0.14397055435E+04  0.10000000000E+02 0.  1.
</event>
<event>
 5    1  0.1675361E-008  0.3848030E+03  0.7957747E-01  0.3430508E+00
         13   -1    0    0    0    0  0.00000000000E+00  0.00000000000E+00  0.14999999963E+04  0.15000000000E+04  0.10566000000E+00 0. -1.
        994   -1    0    0    0    0 -0.00000000000E+00 -0.00000000000E+00  0.11368683772E-12  0.17120000000E+03  0.17120000000E+03 0.  0.
         13    1    1    2    0    0  0.11841961018E+00 -0.11670820993E+02  0.41444352934E+02  0.43056563262E+02  0.10566000000E+00 0. -1.
        994    1    1    2    0    0 -0.12992858489E+01 -0.32488853130E+01  0.17682870790E+01  0.17124488383E+03  0.17120000000E+03 0.  0.
        998    1    1    2    0    0  0.11808662387E+01  0.14919706306E+02  0.14567873563E+04  0.14568985529E+04  0.10000000000E+02 0. -1.
</event>
<event>
 5    1  0.1675361E-008  0.4385235E+03  0.7957747E-01  0.3230208E+00
         13   -1    0    0    0    0  0.00000000000E+00  0.00000000000E+00  0.14999999963E+04  0.15000000000E+04  0.10566000000E+00 0. -1.
        994   -1    0    0    0    0 -0.00000000000E+00 -0.00000000000E+00  0.11368683772E-12  0.17120000000E+03  0.17120000000E+03 0.  0.
         13    1    1    2    0    0 -0.28340871239E+02 -0.43519382615E+02  0.61051527539E+01  0.52291736440E+02  0.10566000000E+00 0. -1.
        994    1    1    2    0    0  0.10358328814E+02  0.49178634812E+02  0.65062896754E+02  0.18991696510E+03  0.17120000000E+03 0.  0.
        998    1    1    2    0    0  0.17982542425E+02 -0.56592521972E+01  0.14288319468E+04  0.14289912985E+04  0.10000000000E+02 0. -1.
</event>
<event>
 5    1  0.1675361E-008  0.3771484E+03  0.7957747E-01  0.3463670E+00
         13   -1    0    0    0    0  0.00000000000E+00  0.00000000000E+00  0.14999999963E+04  0.15000000000E+04  0.10566000000E+00 0. -1.
        994   -1    0    0    0    0 -0.00000000000E+00 -0.00000000000E+00  0.11368683772E-12  0.17120000000E+03  0.17120000000E+03 0.  0.
         13    1    1    2    0    0 -0.58489476939E+02 -0.83347988068E+01  0.27147248277E+03  0.27782693867E+03  0.10566000000E+00 0. -1.
        994    1    1    2    0    0  0.51499118197E+02  0.50934704239E+01  0.14671468234E+02  0.17945137112E+03  0.17120000000E+03 0.  0.
        998    1    1    2    0    0  0.69903587418E+01  0.32413283829E+01  0.12138560453E+04  0.12139216902E+04  0.10000000000E+02 0. -1.
</event>
<event>
 5    1  0.1849781E-008  0.3858720E+03  0.7957747E-01  0.3425982E+00
         13   -1    0    0    0    0  0.00000000000E+00  0.00000000000E+00  0.14999999963E+04  0.15000000000E+04  0.10566000000E+00 0. -1.
        994   -1    0    0    0    0 -0.00000000000E+00 -0.00000000000E+00  0.11368683772E-12  0.17120000000E+03  0.17120000000E+03 0.  0.
         13    1    1    2    0    0  0.10671791730E+00 -0.10161579221E+02  0.42379912357E+02  0.43581386124E+02  0.10566000000E+00 0. -1.
        994    1    1    2    0    0  0.27037648561E+01  0.11297809729E+02  0.16404877110E+01  0.17160152112E+03  0.17120000000E+03 0.  0.
        998    1    1    2    0    0 -0.28104827734E+01 -0.11362305077E+01  0.14559795962E+04  0.14560170928E+04  0.10000000000E+02 0. -1.
</event>
<event>
 5    1  0.1675361E-008  0.3772456E+03  0.7957747E-01  0.3463240E+00
         13   -1    0    0    0    0  0.00000000000E+00  0.00000000000E+00  0.14999999963E+04  0.15000000000E+04  0.10566000000E+00 0.  1.
        994   -1    0    0    0    0 -0.00000000000E+00 -0.00000000000E+00  0.11368683772E-12  0.17120000000E+03  0.17120000000E+03 0.  0.
         13    1    1    2    0    0  0.87161763604E+01  0.11556175074E+02  0.17139430926E+02  0.22434084987E+02  0.10566000000E+00 0.  1.
        994    1    1    2    0    0 -0.13407185344E+01  0.63367706301E+01  0.56716024169E+01  0.17141633313E+03  0.17120000000E+03 0.  0.
        998    1    1    2    0    0 -0.73754578260E+01 -0.17892945705E+02  0.14771889629E+04  0.14773495819E+04  0.10000000000E+02 0.  1.
</event>
<event>
 5    1  0.1675361E-008  0.2745743E+03  0.7957747E-01  0.4096113E+00
         13   -1    0    0    0    0  0.00000000000E+00  0.00000000000E+00  0.14999999963E+04  0.15000000000E+04  0.10566000000E+00 0. -1.
        994   -1    0    0    0    0 -0.00000000000E+00 -0.00000000000E+00  0.11368683772E-12  0.17120000000E+03  0.17120000000E+03 0.  0.
         13    1    1    2    0    0 -0.70337977125E+02  0.17945726388E+03  0.42146395618E+03  0.46344818277E+03  0.10566000000E+00 0. -1.
        994    1    1    2    0    0  0.79876419778E+02 -0.17540809470E+03  0.19284159573E+03  0.32194030995E+03  0.17120000000E+03 0.  0.
        998    1    1    2    0    0 -0.95384426534E+01 -0.40491691823E+01  0.88569444437E+03  0.88581150729E+03  0.10000000000E+02 0. -1.
</event>
<event>
 5    1  0.1675361E-008  0.3846419E+03  0.7957747E-01  0.3431192E+00
         13   -1    0    0    0    0  0.00000000000E+00  0.00000000000E+00  0.14999999963E+04  0.15000000000E+04  0.10566000000E+00 0. -1.
        994   -1    0    0    0    0 -0.00000000000E+00 -0.00000000000E+00  0.11368683772E-12  0.17120000000E+03  0.17120000000E+03 0.  0.
         13    1    1    2    0    0 -0.12194818622E+02 -0.37760780295E+01  0.45305694847E+02  0.47070049035E+02  0.10566000000E+00 0. -1.
        994    1    1    2    0    0  0.73769626872E+01 -0.19746617578E+01  0.20000501017E+01  0.17138190998E+03  0.17120000000E+03 0.  0.
        998    1    1    2    0    0  0.48178559345E+01  0.57507397873E+01  0.14526942513E+04  0.14527480410E+04  0.10000000000E+02 0. -1.
</event>
<event>
 5    1  0.1675361E-008  0.3744969E+03  0.7957747E-01  0.3475476E+00
         13   -1    0    0    0    0  0.00000000000E+00  0.00000000000E+00  0.14999999963E+04  0.15000000000E+04  0.10566000000E+00 0.  1.
        994   -1    0    0    0    0 -0.00000000000E+00 -0.00000000000E+00  0.11368683772E-12  0.17120000000E+03  0.17120000000E+03 0.  0.
         13    1    1    2    0    0  0.13783492093E+02  0.99251352917E+00  0.10296214875E+02  0.17233483170E+02  0.10566000000E+00 0.  1.
        994    1    1    2    0    0 -0.25572606508E+02  0.13699227424E+02  0.98083516222E+01  0.17391742523E+03  0.17120000000E+03 0.  0.
        998    1    1    2    0    0  0.11789114415E+02 -0.14691740953E+02  0.14798954298E+04  0.14800490916E+04  0.10000000000E+02 0.  1.
</event>
<event>
 5    1  0.1675361E-008  0.3837965E+03  0.7957747E-01  0.3434792E+00
         13   -1    0    0    0    0  0.00000000000E+00  0.00000000000E+00  0.14999999963E+04  0.15000000000E+04  0.10566000000E+00 0.  1.
        994   -1    0    0    0    0 -0.00000000000E+00 -0.00000000000E+00  0.11368683772E-12  0.17120000000E+03  0.17120000000E+03 0.  0.
         13    1    1    2    0    0  0.10194316069E+01  0.17085553930E+02  0.68764058477E+02  0.70862276962E+02  0.10566000000E+00 0.  1.
        994    1    1    2    0    0  0.65938385955E+01 -0.22299531637E+01  0.23888089788E+01  0.17135809817E+03  0.17120000000E+03 0.  0.
        998    1    1    2    0    0 -0.76132702023E+01 -0.14855600766E+02  0.14288471288E+04  0.14289796249E+04  0.10000000000E+02 0.  1.
</event>
<event>
 5    1  0.1675361E-008  0.3820563E+03  0.7957747E-01  0.3442253E+00
         13   -1    0    0    0    0  0.00000000000E+00  0.00000000000E+00  0.14999999963E+04  0.15000000000E+04  0.10566000000E+00 0. -1.
        994   -1    0    0    0    0 -0.00000000000E+00 -0.00000000000E+00  0.11368683772E-12  0.17120000000E+03  0.17120000000E+03 0.  0.
         13    1    1    2    0    0 -0.11991103606E+02 -0.19722948276E+02  0.84280883185E+02  0.87384550630E+02  0.10566000000E+00 0. -1.
        994    1    1    2    0    0  0.81581879392E+01  0.13695304783E+02  0.39429166860E+01  0.17198576684E+03  0.17120000000E+03 0.  0.
        998    1    1    2    0    0  0.38329156664E+01  0.60276434934E+01  0.14117761964E+04  0.14118296825E+04  0.10000000000E+02 0. -1.
</event>
<event>
 5    1  0.1675361E-008  0.3727252E+03  0.7957747E-01  0.3483459E+00
         13   -1    0    0    0    0  0.00000000000E+00  0.00000000000E+00  0.14999999963E+04  0.15000000000E+04  0.10566000000E+00 0. -1.
        994   -1    0    0    0    0 -0.00000000000E+00 -0.00000000000E+00  0.11368683772E-12  0.17120000000E+03  0.17120000000E+03 0.  0.
         13    1    1    2    0    0 -0.87008288843E+01 -0.46145666931E+02  0.13826282492E+03  0.14601967990E+03  0.10566000000E+00 0. -1.
        994    1    1    2    0    0  0.98560391232E+01  0.26033994503E+02  0.10510582075E+02  0.17376657536E+03  0.17120000000E+03 0.  0.
        998    1    1    2    0    0 -0.11552102388E+01  0.20111672428E+02  0.13512265893E+04  0.13514137447E+04  0.10000000000E+02 0. -1.
</event>
<event>
 5    1  0.1675361E-008  0.3700370E+03  0.7957747E-01  0.3495721E+00
         13   -1    0    0    0    0  0.00000000000E+00  0.00000000000E+00  0.14999999963E+04  0.15000000000E+04  0.10566000000E+00 0.  1.
        994   -1    0    0    0    0 -0.00000000000E+00 -0.00000000000E+00  0.11368683772E-12  0.17120000000E+03  0.17120000000E+03 0.  0.
         13    1    1    2    0    0  0.45154783061E+02 -0.40410702922E+02  0.18065102010E+03  0.19054338501E+03  0.10566000000E+00 0.  1.
        994    1    1    2    0    0 -0.29872408378E+02  0.44599118872E+02  0.19278304842E+02  0.18045092193E+03  0.17120000000E+03 0.  0.
        998    1    1    2    0    0 -0.15282374684E+02 -0.41884159502E+01  0.13000706713E+04  0.13002056931E+04  0.10000000000E+02 0.  1.
</event>
<event>
 5    1  0.1675361E-008  0.4336432E+03  0.7957747E-01  0.3246389E+00
         13   -1    0    0    0    0  0.00000000000E+00  0.00000000000E+00  0.14999999963E+04  0.15000000000E+04  0.10566000000E+00 0. -1.
        994   -1    0    0    0    0 -0.00000000000E+00 -0.00000000000E+00  0.11368683772E-12  0.17120000000E+03  0.17120000000E+03 0.  0.
         13    1    1    2    0    0 -0.11855973807E+03 -0.97599624259E+02  0.27808701276E+03  0.31767042037E+03  0.10566000000E+00 0. -1.
        994    1    1    2    0    0  0.82604524239E+02 -0.17929552393E+02  0.83045201691E+02  0.20820884179E+03  0.17120000000E+03 0.  0.
        998    1    1    2    0    0  0.35955213829E+02  0.11552917665E+03  0.11388677818E+04  0.11453207378E+04  0.10000000000E+02 0. -1.
</event>
<event>
 5    1  0.1675361E-008  0.3838961E+03  0.7957747E-01  0.3434368E+00
         13   -1    0    0    0    0  0.00000000000E+00  0.00000000000E+00  0.14999999963E+04  0.15000000000E+04  0.10566000000E+00 0. -1.
        994   -1    0    0    0    0 -0.00000000000E+00 -0.00000000000E+00  0.11368683772E-12  0.17120000000E+03  0.17120000000E+03 0.  0.
         13    1    1    2    0    0  0.39092680606E+01 -0.23139683395E+02  0.12084136753E+03  0.12309904384E+03  0.10566000000E+00 0. -1.
        994    1    1    2    0    0 -0.21063324117E+01  0.19783663636E+02  0.34867264211E+01  0.17238743354E+03  0.17120000000E+03 0.  0.
        998    1    1    2    0    0 -0.18029356489E+01  0.33560197587E+01  0.13756719023E+04  0.13757135226E+04  0.10000000000E+02 0. -1.
</event>
<event>
 5    1  0.1675361E-008  0.3842684E+03  0.7957747E-01  0.3432781E+00
         13   -1    0    0    0    0  0.00000000000E+00  0.00000000000E+00  0.14999999963E+04  0.15000000000E+04  0.10566000000E+00 0.  1.
        994   -1    0    0    0    0 -0.00000000000E+00 -0.00000000000E+00  0.11368683772E-12  0.17120000000E+03  0.17120000000E+03 0.  0.
         13    1    1    2    0    0  0.35780373252E+01  0.19961320464E+02  0.11968659729E+03  0.12139254261E+03  0.10566000000E+00 0.  1.
        994    1    1    2    0    0  0.59486084330E+01  0.50958940260E+01  0.21960811353E+01  0.17139316454E+03  0.17120000000E+03 0.  0.
        998    1    1    2    0    0 -0.95266457582E+01 -0.25057214490E+02  0.13781173178E+04  0.13784142928E+04  0.10000000000E+02 0.  1.
</event>
<event>
 5    1  0.1675361E-008  0.3816632E+03  0.7957747E-01  0.3443949E+00
         13   -1    0    0    0    0  0.00000000000E+00  0.00000000000E+00  0.14999999963E+04  0.15000000000E+04  0.10566000000E+00 0. -1.
        994   -1    0    0    0    0 -0.00000000000E+00 -0.00000000000E+00  0.11368683772E-12  0.17120000000E+03  0.17120000000E+03 0.  0.
         13    1    1    2    0    0  0.11741666282E+02  0.20620143203E+02  0.86039634033E+02  0.89251816908E+02  0.10566000000E+00 0. -1.
        994    1    1    2    0    0 -0.52221228417E+00 -0.12366754191E+02  0.38054702422E+01  0.17168905300E+03  0.17120000000E+03 0.  0.
        998    1    1    2    0    0 -0.11219453998E+02 -0.82533890120E+01  0.14101548920E+04  0.14102591301E+04  0.10000000000E+02 0. -1.
</event>
<event>
 5    1  0.1675361E-008  0.3772260E+03  0.7957747E-01  0.3463327E+00
         13   -1    0    0    0    0  0.00000000000E+00  0.00000000000E+00  0.14999999963E+04  0.15000000000E+04  0.10566000000E+00 0. -1.
        994   -1    0    0    0    0 -0.00000000000E+00 -0.00000000000E+00  0.11368683772E-12  0.17120000000E+03  0.17120000000E+03 0.  0.
         13    1    1    2    0    0 -0.20288615314E+02  0.49619822165E+02  0.23734914205E+03  0.24332772357E+03  0.10566000000E+00 0. -1.
        994    1    1    2    0    0  0.67340619560E+01 -0.43045097239E+02  0.11971365023E+02  0.17706208393E+03  0.17120000000E+03 0.  0.
        998    1    1    2    0    0  0.13554553358E+02 -0.65747249267E+01  0.12506794892E+04  0.12508101925E+04  0.10000000000E+02 0. -1.
</event>
<event>
 5    1  0.1675361E-008  0.3858639E+03  0.7957747E-01  0.3426017E+00
         13   -1    0    0    0    0  0.00000000000E+00  0.00000000000E+00  0.14999999963E+04  0.15000000000E+04  0.10566000000E+00 0.  1.
        994   -1    0    0    0    0 -0.00000000000E+00 -0.00000000000E+00  0.11368683772E-12  0.17120000000E+03  0.17120000000E+03 0.  0.
         13    1    1    2    0    0 -0.45995457430E+01  0.12363790796E+02  0.67654915268E+02  0.68929078536E+02  0.10566000000E+00 0.  1.
        994    1    1    2    0    0  0.11838872962E+02 -0.16152298319E+02  0.25181947836E+01  0.17238572145E+03  0.17120000000E+03 0.  0.
        998    1    1    2    0    0 -0.72393272193E+01  0.37885075229E+01  0.14298268862E+04  0.14298852000E+04  0.10000000000E+02 0.  1.
</event>
<event>
 5    1  0.1675361E-008  0.3842368E+03  0.7957747E-01  0.3432915E+00
         13   -1    0    0    0    0  0.00000000000E+00  0.00000000000E+00  0.14999999963E+04  0.15000000000E+04  0.10566000000E+00 0. -1.
        994   -1    0    0    0    0 -0.00000000000E+00 -0.00000000000E+00  0.11368683772E-12  0.17120000000E+03  0.17120000000E+03 0.  0.
         13    1    1    2    0    0  0.14002250193E+02  0.44634380517E+01  0.52893496021E+02  0.54897343971E+02  0.10566000000E+00 0. -1.
        994    1    1    2    0    0 -0.11589221444E+02 -0.13901324633E+01  0.24587967024E+01  0.17161505821E+03  0.17120000000E+03 0.  0.
        998    1    1    2    0    0 -0.24130287488E+01 -0.30733055884E+01  0.14446477036E+04  0.14446875978E+04  0.10000000000E+02 0. -1.
</event>
<event>
 5    1  0.1675361E-008  0.3700393E+03  0.7957747E-01  0.3495710E+00
         13   -1    0    0    0    0  0.00000000000E+00  0.00000000000E+00  0.14999999963E+04  0.15000000000E+04  0.10566000000E+00 0. -1.
        994   -1    0    0    0    0 -0.00000000000E+00 -0.00000000000E+00  0.11368683772E-12  0.17120000000E+03  0.17120000000E+03 0.  0.
         13    1    1    2    0    0 -0.41257454549E+02 -0.42114832098E+02  0.16427480773E+03  0.17453383699E+03  0.10566000000E+00 0. -1.
        994    1    1    2    0    0  0.45385341668E+02  0.39969276941E+02  0.22001084508E+02  0.18289576282E+03  0.17120000000E+03 0.  0.
        998    1    1    2    0    0 -0.41278871195E+01  0.21455551562E+01  0.13137241040E+04  0.13137704002E+04  0.10000000000E+02 0. -1.
</event>
<event>
 5    1  0.1675361E-008  0.2914737E+03  0.7957747E-01  0.3958834E+00
         13   -1    0    0    0    0  0.00000000000E+00  0.00000000000E+00  0.14999999963E+04  0.15000000000E+04  0.10566000000E+00 0.  1.
        994   -1    0    0    0    0 -0.00000000000E+00 -0.00000000000E+00  0.11368683772E-12  0.17120000000E+03  0.17120000000E+03 0.  0.
         13    1    1    2    0    0 -0.12912000056E+03  0.15796590531E+03  0.65670291530E+03  0.68766556691E+03  0.10566000000E+00 0.  1.
        994    1    1    2    0    0  0.96547890368E+02 -0.93290366768E+02  0.10490903804E+03  0.24153660992E+03  0.17120000000E+03 0.  0.
        998    1    1    2    0    0  0.32572110188E+02 -0.64675538544E+02  0.73838804294E+03  0.74199782318E+03  0.10000000000E+02 0. -1.
</event>
<event>
 5    1  0.1675361E-008  0.3824421E+03  0.7957747E-01  0.3440594E+00
         13   -1    0    0    0    0  0.00000000000E+00  0.00000000000E+00  0.14999999963E+04  0.15000000000E+04  0.10566000000E+00 0. -1.
        994   -1    0    0    0    0 -0.00000000000E+00 -0.00000000000E+00  0.11368683772E-12  0.17120000000E+03  0.17120000000E+03 0.  0.
         13    1    1    2    0    0  0.10654424125E+02  0.12639702763E+02  0.47570200132E+02  0.50360837404E+02  0.10566000000E+00 0. -1.
        994    1    1    2    0    0 -0.29357265820E+01 -0.19592419544E+01  0.29467573657E+01  0.17126173098E+03  0.17120000000E+03 0.  0.
        998    1    1    2    0    0 -0.77186975435E+01 -0.10680460808E+02  0.14494830388E+04  0.14495774316E+04  0.10000000000E+02 0. -1.
</event>
<event>
 5    1  0.1675361E-008  0.3779647E+03  0.7957747E-01  0.3460069E+00
         13   -1    0    0    0    0  0.00000000000E+00  0.00000000000E+00  0.14999999963E+04  0.15000000000E+04  0.10566000000E+00 0.  1.
        994   -1    0    0    0    0 -0.00000000000E+00 -0.00000000000E+00  0.11368683772E-12  0.17120000000E+03  0.17120000000E+03 0.  0.
         13    1    1    2    0    0  0.16612823509E+02  0.22800035532E+02  0.73410545478E+02  0.78644433221E+02  0.10566000000E+00 0.  1.
        994    1    1    2    0    0 -0.11648049537E+02 -0.20597569097E+02  0.70508569757E+01  0.17297136033E+03  0.17120000000E+03 0.  0.
        998    1    1    2    0    0 -0.49647739718E+01 -0.22024664351E+01  0.14195385938E+04  0.14195842064E+04  0.10000000000E+02 0.  1.
</event>
<event>
 5    1  0.1675361E-008  0.3714193E+03  0.7957747E-01  0.3489394E+00
         13   -1    0    0    0    0  0.00000000000E+00  0.00000000000E+00  0.14999999963E+04  0.15000000000E+04  0.10566000000E+00 0.  1.
        994   -1    0    0    0    0 -0.00000000000E+00 -0.00000000000E+00  0.11368683772E-12  0.17120000000E+03  0.17120000000E+03 0.  0.
         13    1    1    2    0    0  0.57189305620E+02  0.30604289517E+02  0.20298894959E+03  0.21310036141E+03  0.10566000000E+00 0.  1.
        994    1    1    2    0    0 -0.66012531795E+02 -0.29488563441E+02  0.26735632017E+02  0.18775373165E+03  0.17120000000E+03 0.  0.
        998    1    1    2    0    0  0.88232261751E+01 -0.11157260760E+01  0.12702754147E+04  0.12703459069E+04  0.10000000000E+02 0.  1.
</event>
<event>
 5    1  0.1675361E-008  0.3844289E+03  0.7957747E-01  0.3432098E+00
         13   -1    0    0    0    0  0.00000000000E+00  0.00000000000E+00  0.14999999963E+04  0.15000000000E+04  0.10566000000E+00 0.  1.
        994   -1    0    0    0    0 -0.00000000000E+00 -0.00000000000E+00  0.11368683772E-12  0.17120000000E+03  0.17120000000E+03 0.  0.
         13    1    1    2    0    0  0.10225245320E+00 -0.13702342038E+02  0.49048034646E+02  0.50926275139E+02  0.10566000000E+00 0.  1.
        994    1    1    2    0    0  0.20549028669E+00  0.79082506806E+01  0.21201576015E+01  0.17139579261E+03  0.17120000000E+03 0.  0.
        998    1    1    2    0    0 -0.30774273989E+00  0.57940913571E+01  0.14488318040E+04  0.14488779323E+04  0.10000000000E+02 0.  1.
</event>
<event>
 5    1  0.1770203E-008  0.3862958E+03  0.7957747E-01  0.3424195E+00
         13   -1    0    0    0    0  0.00000000000E+00  0.00000000000E+00  0.14999999963E+04  0.15000000000E+04  0.10566000000E+00 0. -1.
        994   -1    0    0    0    0 -0.00000000000E+00 -0.00000000000E+00  0.11368683772E-12  0.17120000000E+03  0.17120000000E+03 0.  0.
         13    1    1    2    0    0  0.10644249360E+02  0.32444241474E+01  0.64949410887E+02  0.65895853216E+02  0.10566000000E+00 0. -1.
        994    1    1    2    0    0 -0.33147941041E+01 -0.67652379524E+01  0.11740652045E+01  0.17136970191E+03  0.17120000000E+03 0.  0.
        998    1    1    2    0    0 -0.73294552556E+01  0.35208138050E+01  0.14338765202E+04  0.14339344449E+04  0.10000000000E+02 0. -1.
</event>
<event>
 5    1  0.1675361E-008  0.3840551E+03  0.7957747E-01  0.3433689E+00
         13   -1    0    0    0    0  0.00000000000E+00  0.00000000000E+00  0.14999999963E+04  0.15000000000E+04  0.10566000000E+00 0. -1.
        994   -1    0    0    0    0 -0.00000000000E+00 -0.00000000000E+00  0.11368683772E-12  0.17120000000E+03  0.17120000000E+03 0.  0.
         13    1    1    2    0    0 -0.91855843986E+01 -0.22811526637E+02  0.14753987636E+03  0.14957528870E+03  0.10566000000E+00 0. -1.
        994    1    1    2    0    0  0.14601809067E+02  0.70113648479E+01  0.29659592084E+01  0.17199014210E+03  0.17120000000E+03 0.  0.
        998    1    1    2    0    0 -0.54162246683E+01  0.15800161789E+02  0.13494941607E+04  0.13496345692E+04  0.10000000000E+02 0. -1.
</event>
<event>
 5    1  0.1675361E-008  0.3702286E+03  0.7957747E-01  0.3494841E+00
         13   -1    0    0    0    0  0.00000000000E+00  0.00000000000E+00  0.14999999963E+04  0.15000000000E+04  0.10566000000E+00 0. -1.
        994   -1    0    0    0    0 -0.00000000000E+00 -0.00000000000E+00  0.11368683772E-12  0.17120000000E+03  0.17120000000E+03 0.  0.
         13    1    1    2    0    0 -0.43410792526E+02  0.36572072214E+02  0.14472308681E+03  0.15545673479E+03  0.10566000000E+00 0. -1.
        994    1    1    2    0    0 -0.49104231143E+01 -0.53836862530E+02  0.21356019111E+02  0.18079833952E+03  0.17120000000E+03 0.  0.
        998    1    1    2    0    0  0.48321215640E+02  0.17264790316E+02  0.13339208904E+04  0.13349449257E+04  0.10000000000E+02 0. -1.
</event>
<event>
 5    1  0.1675361E-008  0.3820344E+03  0.7957747E-01  0.3442348E+00
         13   -1    0    0    0    0  0.00000000000E+00  0.00000000000E+00  0.14999999963E+04  0.15000000000E+04  0.10566000000E+00 0. -1.
        994   -1    0    0    0    0 -0.00000000000E+00 -0.00000000000E+00  0.11368683772E-12  0.17120000000E+03  0.17120000000E+03 0.  0.
         13    1    1    2    0    0 -0.86453322153E+01 -0.21845421151E+02  0.83671659165E+02  0.86907548037E+02  0.10566000000E+00 0. -1.
        994    1    1    2    0    0  0.73333415667E+01  0.22492382926E+02  0.49703923409E+01  0.17289832269E+03  0.17120000000E+03 0.  0.
        998    1    1    2    0    0  0.13119906486E+01 -0.64696177550E+00  0.14113579448E+04  0.14113941293E+04  0.10000000000E+02 0. -1.
</event>
<event>
 5    1  0.1675361E-008  0.3834889E+03  0.7957747E-01  0.3436107E+00
         13   -1    0    0    0    0  0.00000000000E+00  0.00000000000E+00  0.14999999963E+04  0.15000000000E+04  0.10566000000E+00 0.  1.
        994   -1    0    0    0    0 -0.00000000000E+00 -0.00000000000E+00  0.11368683772E-12  0.17120000000E+03  0.17120000000E+03 0.  0.
         13    1    1    2    0    0  0.16940853020E+02  0.68127951770E+02  0.40666676722E+03  0.41268181573E+03  0.10566000000E+00 0.  1.
        994    1    1    2    0    0 -0.21914748467E+02 -0.11438306892E+03  0.48578837485E+02  0.21268071400E+03  0.17120000000E+03 0.  0.
        998    1    1    2    0    0  0.49738954467E+01  0.46255117151E+02  0.10447543916E+04  0.10458374703E+04  0.10000000000E+02 0.  1.
</event>
<event>
 5    1  0.1675361E-008  0.3856473E+03  0.7957747E-01  0.3426931E+00
         13   -1    0    0    0    0  0.00000000000E+00  0.00000000000E+00  0.14999999963E+04  0.15000000000E+04  0.10566000000E+00 0.  1.
        994   -1    0    0    0    0 -0.00000000000E+00 -0.00000000000E+00  0.11368683772E-12  0.17120000000E+03  0.17120000000E+03 0.  0.
         13    1    1    2    0    0 -0.41881305100E+01  0.12490976947E+02  0.68593255831E+02  0.69847053279E+02  0.10566000000E+00 0.  1.
        994    1    1    2    0    0  0.90114821267E+01 -0.23049035066E+01  0.15930797317E+01  0.17145989996E+03  0.17120000000E+03 0.  0.
        998    1    1    2    0    0 -0.48233516166E+01 -0.10186073440E+02  0.14298136607E+04  0.14298930468E+04  0.10000000000E+02 0.  1.
</event>
<event>
 5    1  0.1675361E-008  0.4061084E+03  0.7957747E-01  0.3344802E+00
         13   -1    0    0    0    0  0.00000000000E+00  0.00000000000E+00  0.14999999963E+04  0.15000000000E+04  0.10566000000E+00 0. -1.
        994   -1    0    0    0    0 -0.00000000000E+00 -0.00000000000E+00  0.11368683772E-12  0.17120000000E+03  0.17120000000E+03 0.  0.
         13    1    1    2    0    0 -0.85488518618E+01  0.21187802637E+02 -0.45410575595E+01  0.23294596295E+02  0.10566000000E+00 0. -1.
        994    1    1    2    0    0  0.18111157112E+02  0.79495242339E+02  0.58705737193E+02  0.19850267289E+03  0.17120000000E+03 0.  0.
        998    1    1    2    0    0 -0.95623052506E+01 -0.10068304498E+03  0.14458353166E+04  0.14494027308E+04  0.10000000000E+02 0. -1.
</event>
<event>
 5    1  0.1675361E-008  0.3793446E+03  0.7957747E-01  0.3454017E+00
         13   -1    0    0    0    0  0.00000000000E+00  0.00000000000E+00  0.14999999963E+04  0.15000000000E+04  0.10566000000E+00 0.  1.
        994   -1    0    0    0    0 -0.00000000000E+00 -0.00000000000E+00  0.11368683772E-12  0.17120000000E+03  0.17120000000E+03 0.  0.
         13    1    1    2    0    0  0.14896358366E+02 -0.16169766146E+02  0.51031452568E+02  0.55566025097E+02  0.10566000000E+00 0.  1.
        994    1    1    2    0    0 -0.13108125664E+02  0.17547478649E+02  0.60732187843E+01  0.17270223204E+03  0.17120000000E+03 0.  0.
        998    1    1    2    0    0 -0.17882327015E+01 -0.13777125025E+01  0.14428953249E+04  0.14429317429E+04  0.10000000000E+02 0.  1.
</event>
<event>
 5    1  0.1675361E-008  0.3739374E+03  0.7957747E-01  0.3477989E+00
         13   -1    0    0    0    0  0.00000000000E+00  0.00000000000E+00  0.14999999963E+04  0.15000000000E+04  0.10566000000E+00 0. -1.
        994   -1    0    0    0    0 -0.00000000000E+00 -0.00000000000E+00  0.11368683772E-12  0.17120000000E+03  0.17120000000E+03 0.  0.
         13    1    1    2    0    0  0.17856734593E+01  0.21842009159E+02  0.30156130425E+02  0.37278215623E+02  0.10566000000E+00 0. -1.
        994    1    1    2    0    0 -0.29818248862E+01 -0.16184445276E+02  0.81498615430E+01  0.17218213552E+03  0.17120000000E+03 0.  0.
        998    1    1    2    0    0  0.11961514268E+01 -0.56575638829E+01  0.14616940043E+04  0.14617396489E+04  0.10000000000E+02 0. -1.
</event>
<event>
 5    1  0.1675361E-008  0.3817768E+03  0.7957747E-01  0.3443458E+00
         13   -1    0    0    0    0  0.00000000000E+00  0.00000000000E+00  0.14999999963E+04  0.15000000000E+04  0.10566000000E+00 0.  1.
        994   -1    0    0    0    0 -0.00000000000E+00 -0.00000000000E+00  0.11368683772E-12  0.17120000000E+03  0.17120000000E+03 0.  0.
         13    1    1    2    0    0  0.19267856987E+02  0.12371506890E+02  0.74935560564E+02  0.78355943595E+02  0.10566000000E+00 0.  1.
        994    1    1    2    0    0 -0.38235926509E+01 -0.46336820645E+02  0.10456738680E+02  0.17770904364E+03  0.17120000000E+03 0.  0.
        998    1    1    2    0    0 -0.15444264336E+02  0.33965313755E+02  0.14146076970E+04  0.14151350128E+04  0.10000000000E+02 0.  1.
</event>
<event>
 5    1  0.1675361E-008  0.3839578E+03  0.7957747E-01  0.3434104E+00
         13   -1    0    0    0    0  0.00000000000E+00  0.00000000000E+00  0.14999999963E+04  0.15000000000E+04  0.10566000000E+00 0. -1.
        994   -1    0    0    0    0 -0.00000000000E+00 -0.00000000000E+00  0.11368683772E-12  0.17120000000E+03  0.17120000000E+03 0.  0.
         13    1    1    2    0    0  0.14610789346E+02 -0.14668919117E+01  0.54260722514E+02  0.56212668581E+02  0.10566000000E+00 0. -1.
        994    1    1    2    0    0  0.61615312198E+01 -0.99967327194E+01  0.26036195786E+01  0.17162202064E+03  0.17120000000E+03 0.  0.
        998    1    1    2    0    0 -0.20772320566E+02  0.11463624631E+02  0.14431356542E+04  0.14433653108E+04  0.10000000000E+02 0. -1.
</event>
<event>
 5    1  0.2078852E-008  0.3851892E+03  0.7957747E-01  0.3428870E+00
         13   -1    0    0    0    0  0.00000000000E+00  0.00000000000E+00  0.14999999963E+04  0.15000000000E+04  0.10566000000E+00 0.  1.
        994   -1    0    0    0    0 -0.00000000000E+00 -0.00000000000E+00  0.11368683772E-12  0.17120000000E+03  0.17120000000E+03 0.  0.
         13    1    1    2    0    0  0.25877893147E+01 -0.10856517364E+02  0.40396589591E+02  0.41910097083E+02  0.10566000000E+00 0.  1.
        994    1    1    2    0    0 -0.44181972705E-01  0.82592206170E+01  0.17604893522E+01  0.17140815617E+03  0.17120000000E+03 0.  0.
        998    1    1    2    0    0 -0.25436073420E+01  0.25972967475E+01  0.14578429173E+04  0.14578817468E+04  0.10000000000E+02 0.  1.
</event>
<event>
 5    1  0.1675361E-008  0.3700664E+03  0.7957747E-01  0.3495586E+00
         13   -1    0    0    0    0  0.00000000000E+00  0.00000000000E+00  0.14999999963E+04  0.15000000000E+04  0.10566000000E+00 0. -1.
        994   -1    0    0    0    0 -0.00000000000E+00 -0.00000000000E+00  0.11368683772E-12  0.17120000000E+03  0.17120000000E+03 0.  0.
         13    1    1    2    0    0  0.86350097966E+02  0.35033693744E+02  0.32088372198E+03  0.33414079863E+03  0.10566000000E+00 0. -1.
        994    1    1    2    0    0 -0.10897915972E+03 -0.25899409512E+02  0.53948516602E+02  0.21158241682E+03  0.17120000000E+03 0.  0.
        998    1    1    2    0    0  0.22629061749E+02 -0.91342842312E+01  0.11251677577E+04  0.11254767845E+04  0.10000000000E+02 0. -1.
</event>
<event>
 5    1  0.1675361E-008  0.3835499E+03  0.7957747E-01  0.3435845E+00
         13   -1    0    0    0    0  0.00000000000E+00  0.00000000000E+00  0.14999999963E+04  0.15000000000E+04  0.10566000000E+00 0. -1.
        994   -1    0    0    0    0 -0.00000000000E+00 -0.00000000000E+00  0.11368683772E-12  0.17120000000E+03  0.17120000000E+03 0.  0.
         13    1    1    2    0    0  0.23660874427E+02 -0.23077601376E+01  0.11471843484E+03  0.11715585001E+03  0.10566000000E+00 0. -1.
        994    1    1    2    0    0 -0.19632076845E+02  0.10666395518E+02  0.40029325685E+01  0.17269815837E+03  0.17120000000E+03 0.  0.
        998    1    1    2    0    0 -0.40287975819E+01 -0.83586353808E+01  0.13812786289E+04  0.13813459916E+04  0.10000000000E+02 0. -1.
</event>
<event>
 5    1  0.1675361E-008  0.3847473E+03  0.7957747E-01  0.3430745E+00
         13   -1    0    0    0    0  0.00000000000E+00  0.00000000000E+00  0.14999999963E+04  0.15000000000E+04  0.10566000000E+00 0. -1.
        994   -1    0    0    0    0 -0.00000000000E+00 -0.00000000000E+00  0.11368683772E-12  0.17120000000E+03  0.17120000000E+03 0.  0.
         13    1    1    2    0    0  0.72656185208E+01  0.86043824832E+01  0.37804406093E+02  0.39446278589E+02  0.10566000000E+00 0. -1.
        994    1    1    2    0    0  0.41286127410E+01  0.11000370442E+01  0.18157295860E+01  0.17126293352E+03  0.17120000000E+03 0.  0.
        998    1    1    2    0    0 -0.11394231262E+02 -0.97044195274E+01  0.14603798606E+04  0.14604907879E+04  0.10000000000E+02 0. -1.
</event>
<event>
 5    1  0.1675361E-008  0.3791362E+03  0.7957747E-01  0.3454928E+00
         13   -1    0    0    0    0  0.00000000000E+00  0.00000000000E+00  0.14999999963E+04  0.15000000000E+04  0.10566000000E+00 0. -1.
        994   -1    0    0    0    0 -0.00000000000E+00 -0.00000000000E+00  0.11368683772E-12  0.17120000000E+03  0.17120000000E+03 0.  0.
         13    1    1    2    0    0 -0.16388848441E+01  0.12693347195E+02  0.15879303787E+02  0.20395353866E+02  0.10566000000E+00 0. -1.
        994    1    1    2    0    0  0.49008454429E+01 -0.10510953043E+02  0.50208587600E+01  0.17166580161E+03  0.17120000000E+03 0.  0.
        998    1    1    2    0    0 -0.32619605987E+01 -0.21823941523E+01  0.14790998337E+04  0.14791388445E+04  0.10000000000E+02 0. -1.
</event>
<event>
 5    1  0.1675361E-008  0.3780066E+03  0.7957747E-01  0.3459884E+00
         13   -1    0    0    0    0  0.00000000000E+00  0.00000000000E+00  0.14999999963E+04  0.15000000000E+04  0.10566000000E+00 0.  1.
        994   -1    0    0    0    0 -0.00000000000E+00 -0.00000000000E+00  0.11368683772E-12  0.17120000000E+03  0.17120000000E+03 0.  0.
         13    1    1    2    0    0  0.37083356474E+02  0.27779612427E+02  0.19117447126E+03  0.19670935875E+03  0.10566000000E+00 0.  1.
        994    1    1    2    0    0 -0.26857922394E+02 -0.29428622374E+02  0.10503174711E+02  0.17608846779E+03  0.17120000000E+03 0.  0.
        998    1    1    2    0    0 -0.10225434080E+02  0.16490099466E+01  0.12983223503E+04  0.12984021735E+04  0.10000000000E+02 0.  1.
</event>
<event>
 5    1  0.1675361E-008  0.3827547E+03  0.7957747E-01  0.3439251E+00
         13   -1    0    0    0    0  0.00000000000E+00  0.00000000000E+00  0.14999999963E+04  0.15000000000E+04  0.10566000000E+00 0. -1.
        994   -1    0    0    0    0 -0.00000000000E+00 -0.00000000000E+00  0.11368683772E-12  0.17120000000E+03  0.17120000000E+03 0.  0.
         13    1    1    2    0    0 -0.62343869648E+01 -0.93517597498E+01  0.22358174994E+02  0.25024430949E+02  0.10566000000E+00 0. -1.
        994    1    1    2    0    0 -0.54100316841E+00  0.28884765650E+01  0.27776250005E+01  0.17124774796E+03  0.17120000000E+03 0.  0.
        998    1    1    2    0    0  0.67753901332E+01  0.64632831848E+01  0.14748641963E+04  0.14749278211E+04  0.10000000000E+02 0. -1.
</event>
<event>
 5    1  0.1675361E-008  0.3834830E+03  0.7957747E-01  0.3436132E+00
         13   -1    0    0    0    0  0.00000000000E+00  0.00000000000E+00  0.14999999963E+04  0.15000000000E+04  0.10566000000E+00 0.  1.
        994   -1    0    0    0    0 -0.00000000000E+00 -0.00000000000E+00  0.11368683772E-12  0.17120000000E+03  0.17120000000E+03 0.  0.
         13    1    1    2    0    0 -0.59730800547E+01  0.18082839578E+02  0.76048986132E+02  0.78397233550E+02  0.10566000000E+00 0.  1.
        994    1    1    2    0    0 -0.89844396748E+00 -0.11633005286E+02  0.28352232516E+01  0.17162054803E+03  0.17120000000E+03 0.  0.
        998    1    1    2    0    0  0.68715240222E+01 -0.64498342917E+01  0.14211157869E+04  0.14211822184E+04  0.10000000000E+02 0.  1.
</event>
<event>
 5    1  0.1675361E-008  0.3789496E+03  0.7957747E-01  0.3455745E+00
         13   -1    0    0    0    0  0.00000000000E+00  0.00000000000E+00  0.14999999963E+04  0.15000000000E+04  0.10566000000E+00 0. -1.
        994   -1    0    0    0    0 -0.00000000000E+00 -0.00000000000E+00  0.11368683772E-12  0.17120000000E+03  0.17120000000E+03 0.  0.
         13    1    1    2    0    0  0.16444608670E+02  0.11789297173E+02  0.41540134448E+02  0.46206131803E+02  0.10566000000E+00 0. -1.
        994    1    1    2    0    0 -0.12337730947E+02 -0.12438943773E+02  0.56946766948E+01  0.17218831630E+03  0.17120000000E+03 0.  0.
        998    1    1    2    0    0 -0.41068777236E+01  0.64964659976E+00  0.14527651851E+04  0.14528055519E+04  0.10000000000E+02 0. -1.
</event>
<event>
 5    1  0.1675361E-008  0.3758193E+03  0.7957747E-01  0.3469567E+00
         13   -1    0    0    0    0  0.00000000000E+00  0.00000000000E+00  0.14999999963E+04  0.15000000000E+04  0.10566000000E+00 0. -1.
        994   -1    0    0    0    0 -0.00000000000E+00 -0.00000000000E+00  0.11368683772E-12  0.17120000000E+03  0.17120000000E+03 0.  0.
         13    1    1    2    0    0 -0.10807585130E+02  0.77264118356E+01  0.11868628098E+02  0.17815073201E+02  0.10566000000E+00 0. -1.
        994    1    1    2    0    0 -0.78732738884E+00  0.19642832702E+02  0.75697104213E+01  0.17249116289E+03  0.17120000000E+03 0.  0.
        998    1    1    2    0    0  0.11594912519E+02 -0.27369244538E+02  0.14805616578E+04  0.14808937639E+04  0.10000000000E+02 0. -1.
</event>
<event>
 5    1  0.1675361E-008  0.3824082E+03  0.7957747E-01  0.3440739E+00
         13   -1    0    0    0    0  0.00000000000E+00  0.00000000000E+00  0.14999999963E+04  0.15000000000E+04  0.10566000000E+00 0.  1.
        994   -1    0    0    0    0 -0.00000000000E+00 -0.00000000000E+00  0.11368683772E-12  0.17120000000E+03  0.17120000000E+03 0.  0.
         13    1    1    2    0    0  0.14826211790E+02 -0.19787449042E+02  0.10292939740E+03  0.10585760109E+03  0.10566000000E+00 0.  1.
        994    1    1    2    0    0 -0.10664619767E+02  0.12509353758E+02  0.38190858282E+01  0.17202977493E+03  0.17120000000E+03 0.  0.
        998    1    1    2    0    0 -0.41615920235E+01  0.72780952836E+01  0.13932515130E+04  0.13933126240E+04  0.10000000000E+02 0.  1.
</event>
<event>
 5    1  0.1675361E-008  0.3709431E+03  0.7957747E-01  0.3491568E+00
         13   -1    0    0    0    0  0.00000000000E+00  0.00000000000E+00  0.14999999963E+04  0.15000000000E+04  0.10566000000E+00 0.  1.
        994   -1    0    0    0    0 -0.00000000000E+00 -0.00000000000E+00  0.11368683772E-12  0.17120000000E+03  0.17120000000E+03 0.  0.
         13    1    1    2    0    0  0.10648015665E+02  0.16450711481E+02  0.17955892797E+02  0.26578777173E+02  0.10566000000E+00 0.  1.
        994    1    1    2    0    0 -0.13388416268E+02 -0.11983656077E+02  0.98904100060E+01  0.17242423818E+03  0.17120000000E+03 0.  0.
        998    1    1    2    0    0  0.27404006025E+01 -0.44670554038E+01  0.14721536935E+04  0.14721969846E+04  0.10000000000E+02 0.  1.
</event>
<event>
 5    1  0.1675361E-008  0.3833997E+03  0.7957747E-01  0.3436488E+00
         13   -1    0    0    0    0  0.00000000000E+00  0.00000000000E+00  0.14999999963E+04  0.15000000000E+04  0.10566000000E+00 0. -1.
        994   -1    0    0    0    0 -0.00000000000E+00 -0.00000000000E+00  0.11368683772E-12  0.17120000000E+03  0.17120000000E+03 0.  0.
         13    1    1    2    0    0  0.21766028650E+01  0.27868178116E+02  0.15305406740E+03  0.15558576947E+03  0.10566000000E+00 0. -1.
        994    1    1    2    0    0 -0.50490330041E+01 -0.22132709627E+02  0.41322345346E+01  0.17274798098E+03  0.17120000000E+03 0.  0.
        998    1    1    2    0    0  0.28724301391E+01 -0.57354684893E+01  0.13428136943E+04  0.13428662496E+04  0.10000000000E+02 0. -1.
</event>
<event>
 5    1  0.1675361E-008  0.3804370E+03  0.7957747E-01  0.3449258E+00
         13   -1    0    0    0    0  0.00000000000E+00  0.00000000000E+00  0.14999999963E+04  0.15000000000E+04  0.10566000000E+00 0. -1.
        994   -1    0    0    0    0 -0.00000000000E+00 -0.00000000000E+00  0.11368683772E-12  0.17120000000E+03  0.17120000000E+03 0.  0.
         13    1    1    2    0    0 -0.26683385303E+02  0.19477966060E+02  0.15187731850E+03  0.15542884305E+03  0.10566000000E+00 0. -1.
        994    1    1    2    0    0 -0.50724136170E+01 -0.16307878317E+02  0.48869344908E+01  0.17211914014E+03  0.17120000000E+03 0.  0.
        998    1    1    2    0    0  0.31755798920E+02 -0.31700877432E+01  0.13432357433E+04  0.13436520168E+04  0.10000000000E+02 0. -1.
</event>
<event>
 5    1  0.1675361E-008  0.3831897E+03  0.7957747E-01  0.3437386E+00
         13   -1    0    0    0    0  0.00000000000E+00  0.00000000000E+00  0.14999999963E+04  0.15000000000E+04  0.10566000000E+00 0.  1.
        994   -1    0    0    0    0 -0.00000000000E+00 -0.00000000000E+00  0.11368683772E-12  0.17120000000E+03  0.17120000000E+03 0.  0.
         13    1    1    2    0    0 -0.99279990525E+01 -0.14014719470E+02  0.63699267907E+02  0.65974126921E+02  0.10566000000E+00 0.  1.
        994    1    1    2    0    0 -0.45214348355E+01 -0.69836931423E+01  0.27605815390E+01  0.17142425777E+03  0.17120000000E+03 0.  0.
        998    1    1    2    0    0  0.14449433888E+02  0.20998412612E+02  0.14335401468E+04  0.14338016153E+04  0.10000000000E+02 0.  1.
</event>
<event>
 5    1  0.1675361E-008  0.3829912E+03  0.7957747E-01  0.3438237E+00
         13   -1    0    0    0    0  0.00000000000E+00  0.00000000000E+00  0.14999999963E+04  0.15000000000E+04  0.10566000000E+00 0. -1.
        994   -1    0    0    0    0 -0.00000000000E+00 -0.00000000000E+00  0.11368683772E-12  0.17120000000E+03  0.17120000000E+03 0.  0.
         13    1    1    2    0    0  0.36292432099E+01 -0.44590301580E+02  0.58171150740E+02  0.73385014436E+02  0.10566000000E+00 0. -1.
        994    1    1    2    0    0 -0.60089189634E+02 -0.43148056184E+02  0.38316581031E+02  0.19039450056E+03  0.17120000000E+03 0.  0.
        998    1    1    2    0    0  0.56459946424E+02  0.87738357765E+02  0.14035122645E+04  0.14074204850E+04  0.10000000000E+02 0. -1.
</event>
<event>
 5    1  0.1675361E-008  0.3814082E+03  0.7957747E-01  0.3445050E+00
         13   -1    0    0    0    0  0.00000000000E+00  0.00000000000E+00  0.14999999963E+04  0.15000000000E+04  0.10566000000E+00 0.  1.
        994   -1    0    0    0    0 -0.00000000000E+00 -0.00000000000E+00  0.11368683772E-12  0.17120000000E+03  0.17120000000E+03 0.  0.
         13    1    1    2    0    0  0.33591809314E+02  0.74203706148E+01  0.19022783865E+03  0.19331351043E+03  0.10566000000E+00 0.  1.
        994    1    1    2    0    0 -0.79058906107E-01 -0.57915139401E+02  0.14666294094E+02  0.18132487365E+03  0.17120000000E+03 0.  0.
        998    1    1    2    0    0 -0.33512750408E+02  0.50494768786E+02  0.12951058635E+04  0.12965616159E+04  0.10000000000E+02 0.  1.
</event>
<event>
 5    1  0.1675361E-008  0.3857794E+03  0.7957747E-01  0.3426373E+00
         13   -1    0    0    0    0  0.00000000000E+00  0.00000000000E+00  0.14999999963E+04  0.15000000000E+04  0.10566000000E+00 0. -1.
        994   -1    0    0    0    0 -0.00000000000E+00 -0.00000000000E+00  0.11368683772E-12  0.17120000000E+03  0.17120000000E+03 0.  0.
         13    1    1    2    0    0 -0.44325743305E+01 -0.97618988479E+01  0.46732058152E+02  0.47946207436E+02  0.10566000000E+00 0. -1.
        994    1    1    2    0    0  0.13750983210E+02  0.12811510231E+01  0.18695959930E+01  0.17176631298E+03  0.17120000000E+03 0.  0.
        998    1    1    2    0    0 -0.93184088797E+01  0.84807478248E+01  0.14513983421E+04  0.14514874796E+04  0.10000000000E+02 0. -1.
</event>
<event>
 5    1  0.1675361E-008  0.3845927E+03  0.7957747E-01  0.3431401E+00
         13   -1    0    0    0    0  0.00000000000E+00  0.00000000000E+00  0.14999999963E+04  0.15000000000E+04  0.10566000000E+00 0.  1.
        994   -1    0    0    0    0 -0.00000000000E+00 -0.00000000000E+00  0.11368683772E-12  0.17120000000E+03  0.17120000000E+03 0.  0.
         13    1    1    2    0    0  0.52956320966E+01  0.16919922608E+02  0.84673004710E+02  0.86509284998E+02  0.10566000000E+00 0.  1.
        994    1    1    2    0    0 -0.13774138644E+01 -0.13189066343E+02  0.24117674096E+01  0.17172974513E+03  0.17120000000E+03 0.  0.
        998    1    1    2    0    0 -0.39182182322E+01 -0.37308562651E+01  0.14129152242E+04  0.14129609699E+04  0.10000000000E+02 0.  1.
</event>
<event>
 5    1  0.1675361E-008  0.3852423E+03  0.7957747E-01  0.3428645E+00
         13   -1    0    0    0    0  0.00000000000E+00  0.00000000000E+00  0.14999999963E+04  0.15000000000E+04  0.10566000000E+00 0.  1.
        994   -1    0    0    0    0 -0.00000000000E+00 -0.00000000000E+00  0.11368683772E-12  0.17120000000E+03  0.17120000000E+03 0.  0.
         13    1    1    2    0    0  0.85636641484E+01 -0.14894315114E+02  0.93149466344E+02  0.94720701067E+02  0.10566000000E+00 0.  1.
        994    1    1    2    0    0 -0.15065005843E+02  0.11673713956E+02  0.27043795009E+01  0.17227879634E+03  0.17120000000E+03 0.  0.
        998    1    1    2    0    0  0.65013416951E+01  0.32206011581E+01  0.14041461504E+04  0.14042005026E+04  0.10000000000E+02 0.  1.
</event>
<event>
 5    1  0.1675361E-008  0.3777107E+03  0.7957747E-01  0.3461188E+00
         13   -1    0    0    0    0  0.00000000000E+00  0.00000000000E+00  0.14999999963E+04  0.15000000000E+04  0.10566000000E+00 0. -1.
        994   -1    0    0    0    0 -0.00000000000E+00 -0.00000000000E+00  0.11368683772E-12  0.17120000000E+03  0.17120000000E+03 0.  0.
         13    1    1    2    0    0 -0.43195430969E+02 -0.17394467067E+02  0.22440884337E+03  0.22918933852E+03  0.10566000000E+00 0. -1.
        994    1    1    2    0    0  0.16425580143E+02 -0.59566810846E+01  0.63222474019E+01  0.17220537897E+03  0.17120000000E+03 0.  0.
        998    1    1    2    0    0  0.26769850826E+02  0.23351148151E+02  0.12692689055E+04  0.12698052825E+04  0.10000000000E+02 0. -1.
</event>
<event>
 5    1  0.1675361E-008  0.3861479E+03  0.7957747E-01  0.3424819E+00
         13   -1    0    0    0    0  0.00000000000E+00  0.00000000000E+00  0.14999999963E+04  0.15000000000E+04  0.10566000000E+00 0.  1.
        994   -1    0    0    0    0 -0.00000000000E+00 -0.00000000000E+00  0.11368683772E-12  0.17120000000E+03  0.17120000000E+03 0.  0.
         13    1    1    2    0    0 -0.95847421002E+01 -0.47720453152E+01  0.62796404077E+02  0.63702741123E+02  0.10566000000E+00 0.  1.
        994    1    1    2    0    0 -0.87396709853E+01 -0.52101196960E+01  0.14005869189E+01  0.17150780985E+03  0.17120000000E+03 0.  0.
        998    1    1    2    0    0  0.18324413085E+02  0.99821650112E+01  0.14358030053E+04  0.14359894490E+04  0.10000000000E+02 0.  1.
</event>
<event>
 5    1  0.1675361E-008  0.3821151E+03  0.7957747E-01  0.3442000E+00
         13   -1    0    0    0    0  0.00000000000E+00  0.00000000000E+00  0.14999999963E+04  0.15000000000E+04  0.10566000000E+00 0. -1.
        994   -1    0    0    0    0 -0.00000000000E+00 -0.00000000000E+00  0.11368683772E-12  0.17120000000E+03  0.17120000000E+03 0.  0.
         13    1    1    2    0    0  0.18561013918E+02  0.20314862999E+02  0.13342739538E+03  0.13623540618E+03  0.10566000000E+00 0. -1.
        994    1    1    2    0    0 -0.45900859340E+02  0.30913582621E+02  0.13303457509E+02  0.18041330455E+03  0.17120000000E+03 0.  0.
        998    1    1    2    0    0  0.27339845421E+02 -0.51228445620E+02  0.13532691434E+04  0.13545512893E+04  0.10000000000E+02 0. -1.
</event>
<event>
 5    1  0.1675361E-008  0.3771524E+03  0.7957747E-01  0.3463652E+00
         13   -1    0    0    0    0  0.00000000000E+00  0.00000000000E+00  0.14999999963E+04  0.15000000000E+04  0.10566000000E+00 0. -1.
        994   -1    0    0    0    0 -0.00000000000E+00 -0.00000000000E+00  0.11368683772E-12  0.17120000000E+03  0.17120000000E+03 0.  0.
         13    1    1    2    0    0 -0.98401169753E+01 -0.21860881800E+03  0.70628274083E+03  0.73940649468E+03  0.10566000000E+00 0. -1.
        994    1    1    2    0    0  0.13101203996E+02  0.26375977723E+03  0.29640971501E+03  0.43232975931E+03  0.17120000000E+03 0.  0.
        998    1    1    2    0    0 -0.32610870210E+01 -0.45150959237E+02  0.49730754043E+03  0.49946374601E+03  0.10000000000E+02 0.  1.
</event>
<event>
 5    1  0.1675361E-008  0.3705901E+03  0.7957747E-01  0.3493183E+00
         13   -1    0    0    0    0  0.00000000000E+00  0.00000000000E+00  0.14999999963E+04  0.15000000000E+04  0.10566000000E+00 0. -1.
        994   -1    0    0    0    0 -0.00000000000E+00 -0.00000000000E+00  0.11368683772E-12  0.17120000000E+03  0.17120000000E+03 0.  0.
         13    1    1    2    0    0 -0.39641241314E+02  0.29485719799E+02  0.13400654221E+03  0.14282366822E+03  0.10566000000E+00 0. -1.
        994    1    1    2    0    0  0.14501723825E+02 -0.28450250471E+02  0.12487726840E+02  0.17459982837E+03  0.17120000000E+03 0.  0.
        998    1    1    2    0    0  0.25139517490E+02 -0.10354693277E+01  0.13535057272E+04  0.13537765034E+04  0.10000000000E+02 0. -1.
</event>
<event>
 5    1  0.1675361E-008  0.3854653E+03  0.7957747E-01  0.3427701E+00
         13   -1    0    0    0    0  0.00000000000E+00  0.00000000000E+00  0.14999999963E+04  0.15000000000E+04  0.10566000000E+00 0.  1.
        994   -1    0    0    0    0 -0.00000000000E+00 -0.00000000000E+00  0.11368683772E-12  0.17120000000E+03  0.17120000000E+03 0.  0.
         13    1    1    2    0    0 -0.67360396014E+01  0.15629817355E+02  0.98927414042E+02  0.10038082403E+03  0.10566000000E+00 0.  1.
        994    1    1    2    0    0  0.39811084394E+01 -0.16649863678E+02  0.23622452067E+01  0.17207000723E+03  0.17120000000E+03 0.  0.
        998    1    1    2    0    0  0.27549311621E+01  0.10200463233E+01  0.13987103370E+04  0.13987491687E+04  0.10000000000E+02 0.  1.
</event>
<event>
 5    1  0.1675361E-008  0.3833328E+03  0.7957747E-01  0.3436774E+00
         13   -1    0    0    0    0  0.00000000000E+00  0.00000000000E+00  0.14999999963E+04  0.15000000000E+04  0.10566000000E+00 0. -1.
        994   -1    0    0    0    0 -0.00000000000E+00 -0.00000000000E+00  0.11368683772E-12  0.17120000000E+03  0.17120000000E+03 0.  0.
         13    1    1    2    0    0  0.99228570445E+01  0.23149120257E+02  0.15062888768E+03  0.15272006361E+03  0.10566000000E+00 0. -1.
        994    1    1    2    0    0  0.50450285094E+01  0.23584728419E+01  0.25626954570E+01  0.17130972569E+03  0.17120000000E+03 0.  0.
        998    1    1    2    0    0 -0.14967885554E+02 -0.25507593099E+02  0.13468084131E+04  0.13471702107E+04  0.10000000000E+02 0. -1.
</event>
<event>
 5    1  0.1675361E-008  0.3850059E+03  0.7957747E-01  0.3429647E+00
         13   -1    0    0    0    0  0.00000000000E+00  0.00000000000E+00  0.14999999963E+04  0.15000000000E+04  0.10566000000E+00 0. -1.
        994   -1    0    0    0    0 -0.00000000000E+00 -0.00000000000E+00  0.11368683772E-12  0.17120000000E+03  0.17120000000E+03 0.  0.
         13    1    1    2    0    0  0.23767890740E+01 -0.19146015795E+02  0.10554698708E+03  0.10729583726E+03  0.10566000000E+00 0. -1.
        994    1    1    2    0    0 -0.35010396612E+01  0.22103536684E+02  0.32759507104E+01  0.17268756604E+03  0.17120000000E+03 0.  0.
        998    1    1    2    0    0  0.11242505872E+01 -0.29575208889E+01  0.13911770585E+04  0.13912165967E+04  0.10000000000E+02 0. -1.
</event>
<event>
 5    1  0.1675361E-008  0.3713319E+03  0.7957747E-01  0.3489792E+00
         13   -1    0    0    0    0  0.00000000000E+00  0.00000000000E+00  0.14999999963E+04  0.15000000000E+04  0.10566000000E+00 0.  1.
        994   -1    0    0    0    0 -0.00000000000E+00 -0.00000000000E+00  0.11368683772E-12  0.17120000000E+03  0.17120000000E+03 0.  0.
         13    1    1    2    0    0  0.76405971095E+02 -0.54178165963E+00  0.27730372926E+03  0.28763785456E+03  0.10566000000E+00 0.  1.
        994    1    1    2    0    0 -0.75135431671E+02 -0.18540674057E+00  0.28263134924E+02  0.18908625615E+03  0.17120000000E+03 0.  0.
        998    1    1    2    0    0 -0.12705394241E+01  0.72718840020E+00  0.11944331321E+04  0.11944758893E+04  0.10000000000E+02 0.  1.
</event>
<event>
 5    1  0.1675361E-008  0.3733446E+03  0.7957747E-01  0.3480659E+00
         13   -1    0    0    0    0  0.00000000000E+00  0.00000000000E+00  0.14999999963E+04  0.15000000000E+04  0.10566000000E+00 0. -1.
        994   -1    0    0    0    0 -0.00000000000E+00 -0.00000000000E+00  0.11368683772E-12  0.17120000000E+03  0.17120000000E+03 0.  0.
         13    1    1    2    0    0 -0.62775403894E+01  0.79448213737E+01  0.32640882328E+01  0.10639226289E+02  0.10566000000E+00 0. -1.
        994    1    1    2    0    0  0.90574623237E+01 -0.70030364229E+01  0.79794551744E+01  0.17176784288E+03  0.17120000000E+03 0.  0.
        998    1    1    2    0    0 -0.27799219342E+01 -0.94178495087E+00  0.14887564529E+04  0.14887929308E+04  0.10000000000E+02 0. -1.
</event>
<event>
 5    1  0.1675361E-008  0.3836292E+03  0.7957747E-01  0.3435507E+00
         13   -1    0    0    0    0  0.00000000000E+00  0.00000000000E+00  0.14999999963E+04  0.15000000000E+04  0.10566000000E+00 0.  1.
        994   -1    0    0    0    0 -0.00000000000E+00 -0.00000000000E+00  0.11368683772E-12  0.17120000000E+03  0.17120000000E+03 0.  0.
         13    1    1    2    0    0 -0.21853582074E+02 -0.15177200476E+02  0.13022069484E+03  0.13291112441E+03  0.10566000000E+00 0.  1.
        994    1    1    2    0    0  0.31923596452E+02  0.19459076402E+02  0.69432768432E+01  0.17537223486E+03  0.17120000000E+03 0.  0.
        998    1    1    2    0    0 -0.10070014378E+02 -0.42818759257E+01  0.13628360246E+04  0.13629166407E+04  0.10000000000E+02 0.  1.
</event>
<event>
 5    1  0.1675361E-008  0.3878004E+03  0.7957747E-01  0.3417882E+00
         13   -1    0    0    0    0  0.00000000000E+00  0.00000000000E+00  0.14999999963E+04  0.15000000000E+04  0.10566000000E+00 0. -1.
        994   -1    0    0    0    0 -0.00000000000E+00 -0.00000000000E+00  0.11368683772E-12  0.17120000000E+03  0.17120000000E+03 0.  0.
         13    1    1    2    0    0 -0.59238544893E+02 -0.36435811175E+02  0.16330632482E+03  0.17749856458E+03  0.10566000000E+00 0. -1.
        994    1    1    2    0    0 -0.81157105227E+02  0.12736188136E+02  0.46319865034E+02  0.19545755579E+03  0.17120000000E+03 0.  0.
        998    1    1    2    0    0  0.14039565012E+03  0.23699623039E+02  0.12903738064E+04  0.12982438796E+04  0.10000000000E+02 0. -1.
</event>
<event>
 5    1  0.1675361E-008  0.2134180E+03  0.7957747E-01  0.4809550E+00
         13   -1    0    0    0    0  0.00000000000E+00  0.00000000000E+00  0.14999999963E+04  0.15000000000E+04  0.10566000000E+00 0. -1.
        994   -1    0    0    0    0 -0.00000000000E+00 -0.00000000000E+00  0.11368683772E-12  0.17120000000E+03  0.17120000000E+03 0.  0.
         13    1    1    2    0    0  0.13428578915E+03  0.27775381876E+02  0.92771163156E+02  0.16556160450E+03  0.10566000000E+00 0. -1.
        994    1    1    2    0    0 -0.11288284613E+03 -0.61841045949E+02  0.18591344160E+03  0.28361963910E+03  0.17120000000E+03 0.  0.
        998    1    1    2    0    0 -0.21402943026E+02  0.34065664073E+02  0.12213153915E+04  0.12220187564E+04  0.10000000000E+02 0. -1.
</event>
<event>
 5    1  0.1675361E-008  0.3714679E+03  0.7957747E-01  0.3489172E+00
         13   -1    0    0    0    0  0.00000000000E+00  0.00000000000E+00  0.14999999963E+04  0.15000000000E+04  0.10566000000E+00 0.  1.
        994   -1    0    0    0    0 -0.00000000000E+00 -0.00000000000E+00  0.11368683772E-12  0.17120000000E+03  0.17120000000E+03 0.  0.
         13    1    1    2    0    0 -0.67542643590E+01  0.66031593839E+02  0.21388076345E+03  0.22394370634E+03  0.10566000000E+00 0.  1.
        994    1    1    2    0    0 -0.52129932007E+01 -0.10538132547E+02  0.12202982750E+02  0.17203656682E+03  0.17120000000E+03 0.  0.
        998    1    1    2    0    0  0.11967257560E+02 -0.55493461292E+02  0.12739162501E+04  0.12752197268E+04  0.10000000000E+02 0.  1.
</event>
<event>
 5    1  0.1675361E-008  0.3732302E+03  0.7957747E-01  0.3481176E+00
         13   -1    0    0    0    0  0.00000000000E+00  0.00000000000E+00  0.14999999963E+04  0.15000000000E+04  0.10566000000E+00 0.  1.
        994   -1    0    0    0    0 -0.00000000000E+00 -0.00000000000E+00  0.11368683772E-12  0.17120000000E+03  0.17120000000E+03 0.  0.
         13    1    1    2    0    0 -0.92117954882E+01  0.10734377620E+03  0.59339875590E+03  0.60310002332E+03  0.10566000000E+00 0.  1.
        994    1    1    2    0    0  0.15607348028E+02 -0.84809805967E+02  0.33463313462E+02  0.19459066229E+03  0.17120000000E+03 0.  0.
        998    1    1    2    0    0 -0.63955525393E+01 -0.22533970237E+02  0.87313792692E+03  0.87350931439E+03  0.10000000000E+02 0.  1.
</event>
<event>
 5    1  0.1675361E-008  0.3835467E+03  0.7957747E-01  0.3435859E+00
         13   -1    0    0    0    0  0.00000000000E+00  0.00000000000E+00  0.14999999963E+04  0.15000000000E+04  0.10566000000E+00 0. -1.
        994   -1    0    0    0    0 -0.00000000000E+00 -0.00000000000E+00  0.11368683772E-12  0.17120000000E+03  0.17120000000E+03 0.  0.
         13    1    1    2    0    0  0.45065269029E+01 -0.14674464633E+02  0.48835290082E+02  0.51191263106E+02  0.10566000000E+00 0. -1.
        994    1    1    2    0    0  0.36690862628E+01  0.14562841008E+02  0.30989553251E+01  0.17188537476E+03  0.17120000000E+03 0.  0.
        998    1    1    2    0    0 -0.81756131656E+01  0.11162362529E+00  0.14480657509E+04  0.14481233621E+04  0.10000000000E+02 0. -1.
</event>
<event>
 5    1  0.1675361E-008  0.3818201E+03  0.7957747E-01  0.3443271E+00
         13   -1    0    0    0    0  0.00000000000E+00  0.00000000000E+00  0.14999999963E+04  0.15000000000E+04  0.10566000000E+00 0. -1.
        994   -1    0    0    0    0 -0.00000000000E+00 -0.00000000000E+00  0.11368683772E-12  0.17120000000E+03  0.17120000000E+03 0.  0.
         13    1    1    2    0    0  0.65362372460E+01  0.10471958063E+02  0.22953412228E+02  0.26062513309E+02  0.10566000000E+00 0. -1.
        994    1    1    2    0    0 -0.29674910862E+02  0.17594287880E+02  0.71820769549E+01  0.17478896284E+03  0.17120000000E+03 0.  0.
        998    1    1    2    0    0  0.23138673616E+02 -0.28066245943E+02  0.14698645071E+04  0.14703485239E+04  0.10000000000E+02 0. -1.
</event>
<event>
 5    1  0.1675361E-008  0.3818757E+03  0.7957747E-01  0.3443032E+00
         13   -1    0    0    0    0  0.00000000000E+00  0.00000000000E+00  0.14999999963E+04  0.15000000000E+04  0.10566000000E+00 0.  1.
        994   -1    0    0    0    0 -0.00000000000E+00 -0.00000000000E+00  0.11368683772E-12  0.17120000000E+03  0.17120000000E+03 0.  0.
         13    1    1    2    0    0  0.20078143589E+02 -0.10617012416E+02  0.79176600091E+02  0.82369885083E+02  0.10566000000E+00 0.  1.
        994    1    1    2    0    0 -0.24986743828E+02 -0.12466949913E+02  0.57842047070E+01  0.17355880626E+03  0.17120000000E+03 0.  0.
        998    1    1    2    0    0  0.49086002385E+01  0.23083962329E+02  0.14150391915E+04  0.14152713087E+04  0.10000000000E+02 0.  1.
</event>
<event>
 5    1  0.1675361E-008  0.3771940E+03  0.7957747E-01  0.3463468E+00
         13   -1    0    0    0    0  0.00000000000E+00  0.00000000000E+00  0.14999999963E+04  0.15000000000E+04  0.10566000000E+00 0.  1.
        994   -1    0    0    0    0 -0.00000000000E+00 -0.00000000000E+00  0.11368683772E-12  0.17120000000E+03  0.17120000000E+03 0.  0.
         13    1    1    2    0    0 -0.60337406490E+01  0.42042111653E+02  0.14528895796E+03  0.15136987034E+03  0.10566000000E+00 0.  1.
        994    1    1    2    0    0 -0.53403312692E+00 -0.43905963338E+02  0.12089733739E+02  0.17715422792E+03  0.17120000000E+03 0.  0.
        998    1    1    2    0    0  0.65677737759E+01  0.18638516845E+01  0.13426213046E+04  0.13426759017E+04  0.10000000000E+02 0.  1.
</event>
<event>
 5    1  0.1675361E-008  0.3763046E+03  0.7957747E-01  0.3467409E+00
         13   -1    0    0    0    0  0.00000000000E+00  0.00000000000E+00  0.14999999963E+04  0.15000000000E+04  0.10566000000E+00 0. -1.
        994   -1    0    0    0    0 -0.00000000000E+00 -0.00000000000E+00  0.11368683772E-12  0.17120000000E+03  0.17120000000E+03 0.  0.
         13    1    1    2    0    0 -0.15001291565E+02 -0.47280364041E+02  0.17574758619E+03  0.18261351754E+03  0.10566000000E+00 0. -1.
        994    1    1    2    0    0  0.16013040875E+02  0.51241658105E+02  0.15827351775E+02  0.18011682339E+03  0.17120000000E+03 0.  0.
        998    1    1    2    0    0 -0.10117493108E+01 -0.39612940642E+01  0.13084250583E+04  0.13084696591E+04  0.10000000000E+02 0. -1.
</event>
<event>
 5    1  0.1675361E-008  0.3685666E+03  0.7957747E-01  0.3502505E+00
         13   -1    0    0    0    0  0.00000000000E+00  0.00000000000E+00  0.14999999963E+04  0.15000000000E+04  0.10566000000E+00 0.  1.
        994   -1    0    0    0    0 -0.00000000000E+00 -0.00000000000E+00  0.11368683772E-12  0.17120000000E+03  0.17120000000E+03 0.  0.
         13    1    1    2    0    0 -0.26484526104E+02 -0.24167340258E+02  0.64361238663E+02  0.73674084076E+02  0.10566000000E+00 0.  1.
        994    1    1    2    0    0  0.80592678506E+01 -0.13709652490E+02  0.11063079020E+02  0.17229259441E+03  0.17120000000E+03 0.  0.
        998    1    1    2    0    0  0.18425258253E+02  0.37876992748E+02  0.14245756786E+04  0.14252333215E+04  0.10000000000E+02 0.  1.
</event>
<event>
 5    1  0.1675361E-008  0.3849812E+03  0.7957747E-01  0.3429752E+00
         13   -1    0    0    0    0  0.00000000000E+00  0.00000000000E+00  0.14999999963E+04  0.15000000000E+04  0.10566000000E+00 0. -1.
        994   -1    0    0    0    0 -0.00000000000E+00 -0.00000000000E+00  0.11368683772E-12  0.17120000000E+03  0.17120000000E+03 0.  0.
         13    1    1    2    0    0  0.16258110328E+02  0.68428931405E+01  0.93659149926E+02  0.95305817592E+02  0.10566000000E+00 0. -1.
        994    1    1    2    0    0 -0.95094758977E+01 -0.11391449369E+02  0.23640138770E+01  0.17185815026E+03  0.17120000000E+03 0.  0.
        998    1    1    2    0    0 -0.67486344298E+01  0.45485562289E+01  0.14039768325E+04  0.14040360321E+04  0.10000000000E+02 0. -1.
</event>
<event>
 5    1  0.1675361E-008  0.3854022E+03  0.7957747E-01  0.3427968E+00
         13   -1    0    0    0    0  0.00000000000E+00  0.00000000000E+00  0.14999999963E+04  0.15000000000E+04  0.10566000000E+00 0.  1.
        994   -1    0    0    0    0 -0.00000000000E+00 -0.00000000000E+00  0.11368683772E-12  0.17120000000E+03  0.17120000000E+03 0.  0.
         13    1    1    2    0    0  0.12651444248E+02  0.45612294641E+01  0.64582871886E+02  0.65968343627E+02  0.10566000000E+00 0.  1.
        994    1    1    2    0    0 -0.64671180593E+01 -0.71461587242E+00  0.15696200619E+01  0.17133078532E+03  0.17120000000E+03 0.  0.
        998    1    1    2    0    0 -0.61843261886E+01 -0.38466135917E+01  0.14338475043E+04  0.14339008711E+04  0.10000000000E+02 0.  1.
</event>
<event>
 5    1  0.1675361E-008  0.3811309E+03  0.7957747E-01  0.3446249E+00
         13   -1    0    0    0    0  0.00000000000E+00  0.00000000000E+00  0.14999999963E+04  0.15000000000E+04  0.10566000000E+00 0.  1.
        994   -1    0    0    0    0 -0.00000000000E+00 -0.00000000000E+00  0.11368683772E-12  0.17120000000E+03  0.17120000000E+03 0.  0.
         13    1    1    2    0    0 -0.10274470009E+02 -0.15361740883E+02  0.45878957253E+02  0.49461476925E+02  0.10566000000E+00 0.  1.
        994    1    1    2    0    0  0.94340014112E+01  0.13456771588E+02  0.44633999665E+01  0.17204489828E+03  0.17120000000E+03 0.  0.
        998    1    1    2    0    0  0.84046859781E+00  0.19049692953E+01  0.14496576391E+04  0.14496936248E+04  0.10000000000E+02 0.  1.
</event>
<event>
 5    1  0.1675361E-008  0.3719535E+03  0.7957747E-01  0.3486961E+00
         13   -1    0    0    0    0  0.00000000000E+00  0.00000000000E+00  0.14999999963E+04  0.15000000000E+04  0.10566000000E+00 0. -1.
        994   -1    0    0    0    0 -0.00000000000E+00 -0.00000000000E+00  0.11368683772E-12  0.17120000000E+03  0.17120000000E+03 0.  0.
         13    1    1    2    0    0  0.16023353177E+02 -0.38096310770E+02  0.11657930979E+03  0.12368841246E+03  0.10566000000E+00 0. -1.
        994    1    1    2    0    0 -0.11779904645E+02 -0.15117259486E+02  0.95140431216E+01  0.17253189475E+03  0.17120000000E+03 0.  0.
        998    1    1    2    0    0 -0.42434485320E+01  0.53213570256E+02  0.13739066434E+04  0.13749796928E+04  0.10000000000E+02 0. -1.
</event>
<event>
 5    1  0.1675361E-008  0.3851453E+03  0.7957747E-01  0.3429056E+00
         13   -1    0    0    0    0  0.00000000000E+00  0.00000000000E+00  0.14999999963E+04  0.15000000000E+04  0.10566000000E+00 0.  1.
        994   -1    0    0    0    0 -0.00000000000E+00 -0.00000000000E+00  0.11368683772E-12  0.17120000000E+03  0.17120000000E+03 0.  0.
         13    1    1    2    0    0  0.10391829614E+02  0.65986537257E+01  0.49401599496E+02  0.50912292725E+02  0.10566000000E+00 0.  1.
        994    1    1    2    0    0 -0.93392314067E+01  0.42932654415E+01  0.19054023335E+01  0.17151887339E+03  0.17120000000E+03 0.  0.
        998    1    1    2    0    0 -0.10525982074E+01 -0.10891919167E+02  0.14486929944E+04  0.14487688339E+04  0.10000000000E+02 0.  1.
</event>
<event>
 5    1  0.1675361E-008  0.3684863E+03  0.7957747E-01  0.3502877E+00
         13   -1    0    0    0    0  0.00000000000E+00  0.00000000000E+00  0.14999999963E+04  0.15000000000E+04  0.10566000000E+00 0. -1.
        994   -1    0    0    0    0 -0.00000000000E+00 -0.00000000000E+00  0.11368683772E-12  0.17120000000E+03  0.17120000000E+03 0.  0.
         13    1    1    2    0    0 -0.19917177711E+02 -0.25515645071E+01  0.15213885461E+02  0.25192814933E+02  0.10566000000E+00 0. -1.
        994    1    1    2    0    0  0.21724146054E+02  0.40571666008E+01  0.11840890774E+02  0.17302614200E+03  0.17120000000E+03 0.  0.
        998    1    1    2    0    0 -0.18069683435E+01 -0.15056020937E+01  0.14729452200E+04  0.14729810431E+04  0.10000000000E+02 0. -1.
</event>
<event>
 5    1  0.1675361E-008  0.2221935E+03  0.7957747E-01  0.4677869E+00
         13   -1    0    0    0    0  0.00000000000E+00  0.00000000000E+00  0.14999999963E+04  0.15000000000E+04  0.10566000000E+00 0. -1.
        994   -1    0    0    0    0 -0.00000000000E+00 -0.00000000000E+00  0.11368683772E-12  0.17120000000E+03  0.17120000000E+03 0.  0.
         13    1    1    2    0    0  0.10768344211E+03  0.19966752229E+02  0.39719517497E+02  0.11649912504E+03  0.10566000000E+00 0. -1.
        994    1    1    2    0    0 -0.10939839536E+03 -0.20544423102E+02  0.17372217639E+03  0.26810243714E+03  0.17120000000E+03 0.  0.
        998    1    1    2    0    0  0.17149532494E+01  0.57767087322E+00  0.12865583024E+04  0.12865984378E+04  0.10000000000E+02 0. -1.
</event>
<event>
 5    1  0.1675361E-008  0.3685091E+03  0.7957747E-01  0.3502771E+00
         13   -1    0    0    0    0  0.00000000000E+00  0.00000000000E+00  0.14999999963E+04  0.15000000000E+04  0.10566000000E+00 0.  1.
        994   -1    0    0    0    0 -0.00000000000E+00 -0.00000000000E+00  0.11368683772E-12  0.17120000000E+03  0.17120000000E+03 0.  0.
         13    1    1    2    0    0  0.11061716371E+02 -0.88573090107E+01  0.52061896222E+01  0.15097319842E+02  0.10566000000E+00 0.  1.
        994    1    1    2    0    0 -0.12777140111E+02  0.69155412948E+01  0.10887030161E+02  0.17215994728E+03  0.17120000000E+03 0.  0.
        998    1    1    2    0    0  0.17154237401E+01  0.19417677159E+01  0.14839067765E+04  0.14839427329E+04  0.10000000000E+02 0.  1.
</event>
<event>
 5    1  0.1675361E-008  0.3841065E+03  0.7957747E-01  0.3433470E+00
         13   -1    0    0    0    0  0.00000000000E+00  0.00000000000E+00  0.14999999963E+04  0.15000000000E+04  0.10566000000E+00 0. -1.
        994   -1    0    0    0    0 -0.00000000000E+00 -0.00000000000E+00  0.11368683772E-12  0.17120000000E+03  0.17120000000E+03 0.  0.
         13    1    1    2    0    0  0.14483761079E+02  0.70660907712E+01  0.60652374255E+02  0.62756917074E+02  0.10566000000E+00 0. -1.
        994    1    1    2    0    0 -0.15084009233E+02 -0.37139311699E+01  0.28706973088E+01  0.17192731465E+03  0.17120000000E+03 0.  0.
        998    1    1    2    0    0  0.60024815387E+00 -0.33521596013E+01  0.14364769247E+04  0.14365157683E+04  0.10000000000E+02 0. -1.
</event>
<event>
 5    1  0.1675361E-008  0.3851238E+03  0.7957747E-01  0.3429147E+00
         13   -1    0    0    0    0  0.00000000000E+00  0.00000000000E+00  0.14999999963E+04  0.15000000000E+04  0.10566000000E+00 0. -1.
        994   -1    0    0    0    0 -0.00000000000E+00 -0.00000000000E+00  0.11368683772E-12  0.17120000000E+03  0.17120000000E+03 0.  0.
         13    1    1    2    0    0  0.10391431770E+02 -0.19316466057E+01  0.36453824190E+02  0.37955310234E+02  0.10566000000E+00 0. -1.
        994    1    1    2    0    0 -0.10334532525E+01  0.38795890077E+01  0.16216800494E+01  0.17125474908E+03  0.17120000000E+03 0.  0.
        998    1    1    2    0    0 -0.93579785172E+01 -0.19479424020E+01  0.14619244920E+04  0.14619899407E+04  0.10000000000E+02 0. -1.
</event>
<event>
 5    1  0.1675361E-008  0.3750761E+03  0.7957747E-01  0.3472883E+00
         13   -1    0    0    0    0  0.00000000000E+00  0.00000000000E+00  0.14999999963E+04  0.15000000000E+04  0.10566000000E+00 0.  1.
        994   -1    0    0    0    0 -0.00000000000E+00 -0.00000000000E+00  0.11368683772E-12  0.17120000000E+03  0.17120000000E+03 0.  0.
         13    1    1    2    0    0 -0.37817655139E+02  0.18518577897E+02  0.12523055763E+03  0.13212046206E+03  0.10566000000E+00 0.  1.
        994    1    1    2    0    0  0.28056947223E+02 -0.22870231720E+02  0.11105278578E+02  0.17533683868E+03  0.17120000000E+03 0.  0.
        998    1    1    2    0    0  0.97607079158E+01  0.43516538232E+01  0.13636641601E+04  0.13637426993E+04  0.10000000000E+02 0.  1.
</event>
<event>
 5    1  0.1675361E-008  0.3846461E+03  0.7957747E-01  0.3431175E+00
         13   -1    0    0    0    0  0.00000000000E+00  0.00000000000E+00  0.14999999963E+04  0.15000000000E+04  0.10566000000E+00 0. -1.
        994   -1    0    0    0    0 -0.00000000000E+00 -0.00000000000E+00  0.11368683772E-12  0.17120000000E+03  0.17120000000E+03 0.  0.
         13    1    1    2    0    0  0.95354103184E+01  0.56830948731E+01  0.34232227764E+02  0.35987194931E+02  0.10566000000E+00 0. -1.
        994    1    1    2    0    0 -0.18832286267E+01 -0.58379638488E+01  0.19298588135E+01  0.17132073058E+03  0.17120000000E+03 0.  0.
        998    1    1    2    0    0 -0.76521816918E+01  0.15486897576E+00  0.14638379097E+04  0.14638920745E+04  0.10000000000E+02 0. -1.
</event>
<event>
 5    1  0.1675361E-008  0.3711126E+03  0.7957747E-01  0.3490793E+00
         13   -1    0    0    0    0  0.00000000000E+00  0.00000000000E+00  0.14999999963E+04  0.15000000000E+04  0.10566000000E+00 0. -1.
        994   -1    0    0    0    0 -0.00000000000E+00 -0.00000000000E+00  0.11368683772E-12  0.17120000000E+03  0.17120000000E+03 0.  0.
         13    1    1    2    0    0 -0.11409128841E+03 -0.92572033396E+02  0.56390930322E+03  0.58273503145E+03  0.10566000000E+00 0. -1.
        994    1    1    2    0    0  0.10042832423E+03  0.10397456176E+03  0.88947764057E+02  0.24107613431E+03  0.17120000000E+03 0.  0.
        998    1    1    2    0    0  0.13662964179E+02 -0.11402528364E+02  0.84714292900E+03  0.84738883424E+03  0.10000000000E+02 0.  1.
</event>
<event>
 5    1  0.1675361E-008  0.3776323E+03  0.7957747E-01  0.3461533E+00
         13   -1    0    0    0    0  0.00000000000E+00  0.00000000000E+00  0.14999999963E+04  0.15000000000E+04  0.10566000000E+00 0.  1.
        994   -1    0    0    0    0 -0.00000000000E+00 -0.00000000000E+00  0.11368683772E-12  0.17120000000E+03  0.17120000000E+03 0.  0.
         13    1    1    2    0    0  0.31820900064E+02 -0.72903878097E+01  0.93419546827E+02  0.98959296323E+02  0.10566000000E+00 0.  1.
        994    1    1    2    0    0 -0.29058610268E+02  0.10827058891E+02  0.85799687273E+01  0.17419725571E+03  0.17120000000E+03 0.  0.
        998    1    1    2    0    0 -0.27622897962E+01 -0.35366710812E+01  0.13980004807E+04  0.13980434480E+04  0.10000000000E+02 0.  1.
</event>
<event>
 5    1  0.1675361E-008  0.3839344E+03  0.7957747E-01  0.3434204E+00
         13   -1    0    0    0    0  0.00000000000E+00  0.00000000000E+00  0.14999999963E+04  0.15000000000E+04  0.10566000000E+00 0. -1.
        994   -1    0    0    0    0 -0.00000000000E+00 -0.00000000000E+00  0.11368683772E-12  0.17120000000E+03  0.17120000000E+03 0.  0.
         13    1    1    2    0    0 -0.85719400703E+01  0.86869522615E+01  0.34531637184E+02  0.36624942686E+02  0.10566000000E+00 0. -1.
        994    1    1    2    0    0  0.45309808839E+01 -0.90736566312E+00  0.22306093995E+01  0.17127687736E+03  0.17120000000E+03 0.  0.
        998    1    1    2    0    0  0.40409591865E+01 -0.77795865984E+01  0.14632377497E+04  0.14632981800E+04  0.10000000000E+02 0. -1.
</event>
<event>
 5    1  0.1675361E-008  0.3847331E+03  0.7957747E-01  0.3430805E+00
         13   -1    0    0    0    0  0.00000000000E+00  0.00000000000E+00  0.14999999963E+04  0.15000000000E+04  0.10566000000E+00 0. -1.
        994   -1    0    0    0    0 -0.00000000000E+00 -0.00000000000E+00  0.11368683772E-12  0.17120000000E+03  0.17120000000E+03 0.  0.
         13    1    1    2    0    0 -0.11172489657E+02  0.16623311845E+02  0.10961542175E+03  0.11143029602E+03  0.10566000000E+00 0. -1.
        994    1    1    2    0    0  0.29093551936E+02 -0.22554425583E+01  0.45705373735E+01  0.17372924796E+03  0.17120000000E+03 0.  0.
        998    1    1    2    0    0 -0.17921062279E+02 -0.14367869287E+02  0.13858140372E+04  0.13860404560E+04  0.10000000000E+02 0. -1.
</event>
<event>
 5    1  0.1675361E-008  0.2867929E+03  0.7957747E-01  0.3995063E+00
         13   -1    0    0    0    0  0.00000000000E+00  0.00000000000E+00  0.14999999963E+04  0.15000000000E+04  0.10566000000E+00 0. -1.
        994   -1    0    0    0    0 -0.00000000000E+00 -0.00000000000E+00  0.11368683772E-12  0.17120000000E+03  0.17120000000E+03 0.  0.
         13    1    1    2    0    0  0.76282981818E+01 -0.17301898202E+03  0.54633978211E+03  0.57313255688E+03  0.10566000000E+00 0. -1.
        994    1    1    2    0    0 -0.49347513063E+02  0.18620156274E+03  0.16042839508E+03  0.30356697607E+03  0.17120000000E+03 0.  0.
        998    1    1    2    0    0  0.41719214882E+02 -0.13182580723E+02  0.79323181909E+03  0.79450046705E+03  0.10000000000E+02 0.  1.
</event>
<event>
 5    1  0.1675361E-008  0.3846207E+03  0.7957747E-01  0.3431282E+00
         13   -1    0    0    0    0  0.00000000000E+00  0.00000000000E+00  0.14999999963E+04  0.15000000000E+04  0.10566000000E+00 0. -1.
        994   -1    0    0    0    0 -0.00000000000E+00 -0.00000000000E+00  0.11368683772E-12  0.17120000000E+03  0.17120000000E+03 0.  0.
         13    1    1    2    0    0  0.17564025346E+02  0.42400957689E+01  0.90516218088E+02  0.92302060104E+02  0.10566000000E+00 0. -1.
        994    1    1    2    0    0 -0.98374222735E+01 -0.24969887512E+01  0.21578123624E+01  0.17151415680E+03  0.17120000000E+03 0.  0.
        998    1    1    2    0    0 -0.77266030721E+01 -0.17431070176E+01  0.14073259658E+04  0.14073837831E+04  0.10000000000E+02 0. -1.
</event>
<event>
 5    1  0.1675361E-008  0.3834762E+03  0.7957747E-01  0.3436161E+00
         13   -1    0    0    0    0  0.00000000000E+00  0.00000000000E+00  0.14999999963E+04  0.15000000000E+04  0.10566000000E+00 0.  1.
        994   -1    0    0    0    0 -0.00000000000E+00 -0.00000000000E+00  0.11368683772E-12  0.17120000000E+03  0.17120000000E+03 0.  0.
         13    1    1    2    0    0 -0.84829737144E+02  0.11904974966E+03  0.88106551062E+03  0.89310994417E+03  0.10566000000E+00 0.  1.
        994    1    1    2    0    0  0.87494504901E+02 -0.14570801105E+03  0.10456237715E+03  0.26292364592E+03  0.17120000000E+03 0.  0.
        998    1    1    2    0    0 -0.26647677575E+01  0.26658261384E+02  0.51437210851E+03  0.51516640991E+03  0.10000000000E+02 0.  1.
</event>
<event>
 5    1  0.1675361E-008  0.3856540E+03  0.7957747E-01  0.3426903E+00
         13   -1    0    0    0    0  0.00000000000E+00  0.00000000000E+00  0.14999999963E+04  0.15000000000E+04  0.10566000000E+00 0.  1.
        994   -1    0    0    0    0 -0.00000000000E+00 -0.00000000000E+00  0.11368683772E-12  0.17120000000E+03  0.17120000000E+03 0.  0.
         13    1    1    2    0    0  0.98794655101E+01  0.45429572029E+01  0.60261958708E+02  0.61235260515E+02  0.10566000000E+00 0.  1.
        994    1    1    2    0    0  0.13719036592E+02  0.42264458956E+02  0.78124668473E+01  0.17704511034E+03  0.17120000000E+03 0.  0.
        998    1    1    2    0    0 -0.23598502102E+02 -0.46807416159E+02  0.14319255707E+04  0.14329196291E+04  0.10000000000E+02 0.  1.
</event>
<event>
 5    1  0.1675361E-008  0.3771640E+03  0.7957747E-01  0.3463601E+00
         13   -1    0    0    0    0  0.00000000000E+00  0.00000000000E+00  0.14999999963E+04  0.15000000000E+04  0.10566000000E+00 0. -1.
        994   -1    0    0    0    0 -0.00000000000E+00 -0.00000000000E+00  0.11368683772E-12  0.17120000000E+03  0.17120000000E+03 0.  0.
         13    1    1    2    0    0  0.19164392781E+02  0.97599844237E+01  0.39630473172E+02  0.45090096634E+02  0.10566000000E+00 0. -1.
        994    1    1    2    0    0 -0.85099452946E+01 -0.88757363704E+01  0.60820342768E+01  0.17174873800E+03  0.17120000000E+03 0.  0.
        998    1    1    2    0    0 -0.10654447486E+02 -0.88424805334E+00  0.14542874888E+04  0.14543611654E+04  0.10000000000E+02 0. -1.
</event>
<event>
 5    1  0.1675361E-008  0.3746992E+03  0.7957747E-01  0.3474569E+00
         13   -1    0    0    0    0  0.00000000000E+00  0.00000000000E+00  0.14999999963E+04  0.15000000000E+04  0.10566000000E+00 0.  1.
        994   -1    0    0    0    0 -0.00000000000E+00 -0.00000000000E+00  0.11368683772E-12  0.17120000000E+03  0.17120000000E+03 0.  0.
         13    1    1    2    0    0 -0.14582392665E+02  0.24685628336E+02  0.61086333224E+02  0.67480202230E+02  0.10566000000E+00 0.  1.
        994    1    1    2    0    0  0.62692913474E+01  0.26112303348E+01  0.69902481191E+01  0.17147718830E+03  0.17120000000E+03 0.  0.
        998    1    1    2    0    0  0.83131013175E+01 -0.27296858671E+02  0.14319234149E+04  0.14322426095E+04  0.10000000000E+02 0.  1.
</event>
<event>
 5    1  0.1675361E-008  0.3856087E+03  0.7957747E-01  0.3427095E+00
         13   -1    0    0    0    0  0.00000000000E+00  0.00000000000E+00  0.14999999963E+04  0.15000000000E+04  0.10566000000E+00 0.  1.
        994   -1    0    0    0    0 -0.00000000000E+00 -0.00000000000E+00  0.11368683772E-12  0.17120000000E+03  0.17120000000E+03 0.  0.
         13    1    1    2    0    0  0.32203178951E+01  0.14241230500E+02  0.82410751201E+02  0.83694242162E+02  0.10566000000E+00 0.  1.
        994    1    1    2    0    0 -0.53579391087E+00 -0.70219381718E+01  0.14910112122E+01  0.17135127022E+03  0.17120000000E+03 0.  0.
        998    1    1    2    0    0 -0.26845239843E+01 -0.72192923279E+01  0.14160982339E+04  0.14161544876E+04  0.10000000000E+02 0.  1.
</event>
<event>
 5    1  0.1675361E-008  0.3837390E+03  0.7957747E-01  0.3435038E+00
         13   -1    0    0    0    0  0.00000000000E+00  0.00000000000E+00  0.14999999963E+04  0.15000000000E+04  0.10566000000E+00 0. -1.
        994   -1    0    0    0    0 -0.00000000000E+00 -0.00000000000E+00  0.11368683772E-12  0.17120000000E+03  0.17120000000E+03 0.  0.
         13    1    1    2    0    0 -0.16608425893E+02  0.46982520975E+01  0.70990054316E+02  0.73058280566E+02  0.10566000000E+00 0. -1.
        994    1    1    2    0    0 -0.82810565692E+01 -0.20522881277E+02  0.38764479034E+01  0.17266798025E+03  0.17120000000E+03 0.  0.
        998    1    1    2    0    0  0.24889482462E+02  0.15824629179E+02  0.14251334941E+04  0.14254737392E+04  0.10000000000E+02 0. -1.
</event>
<event>
 5    1  0.1675361E-008  0.3812802E+03  0.7957747E-01  0.3445603E+00
         13   -1    0    0    0    0  0.00000000000E+00  0.00000000000E+00  0.14999999963E+04  0.15000000000E+04  0.10566000000E+00 0.  1.
        994   -1    0    0    0    0 -0.00000000000E+00 -0.00000000000E+00  0.11368683772E-12  0.17120000000E+03  0.17120000000E+03 0.  0.
         13    1    1    2    0    0  0.12867516984E+02 -0.41646678081E+01  0.24821208751E+02  0.28266959850E+02  0.10566000000E+00 0.  1.
        994    1    1    2    0    0 -0.77831358203E+01  0.73905425284E+01  0.38718538161E+01  0.17157980235E+03  0.17120000000E+03 0.  0.
        998    1    1    2    0    0 -0.50843811637E+01 -0.32258747203E+01  0.14713069337E+04  0.14713532378E+04  0.10000000000E+02 0.  1.
</event>
<event>
 5    1  0.1675361E-008  0.3845022E+03  0.7957747E-01  0.3431786E+00
         13   -1    0    0    0    0  0.00000000000E+00  0.00000000000E+00  0.14999999963E+04  0.15000000000E+04  0.10566000000E+00 0.  1.
        994   -1    0    0    0    0 -0.00000000000E+00 -0.00000000000E+00  0.11368683772E-12  0.17120000000E+03  0.17120000000E+03 0.  0.
         13    1    1    2    0    0 -0.16964839016E+02  0.15428443187E+01  0.80735766442E+02  0.82513400599E+02  0.10566000000E+00 0.  1.
        994    1    1    2    0    0  0.40247099668E+01 -0.13385117723E+00  0.19309158735E+01  0.17125823963E+03  0.17120000000E+03 0.  0.
        998    1    1    2    0    0  0.12940129049E+02 -0.14089931415E+01  0.14173333140E+04  0.14174283598E+04  0.10000000000E+02 0.  1.
</event>
<event>
 5    1  0.1675361E-008  0.3758101E+03  0.7957747E-01  0.3469607E+00
         13   -1    0    0    0    0  0.00000000000E+00  0.00000000000E+00  0.14999999963E+04  0.15000000000E+04  0.10566000000E+00 0. -1.
        994   -1    0    0    0    0 -0.00000000000E+00 -0.00000000000E+00  0.11368683772E-12  0.17120000000E+03  0.17120000000E+03 0.  0.
         13    1    1    2    0    0  0.17327141104E+01 -0.17477244360E+02  0.21685724529E+02  0.27905880760E+02  0.10566000000E+00 0. -1.
        994    1    1    2    0    0 -0.30076602664E+01  0.17200026119E+02  0.72975165117E+01  0.17224279569E+03  0.17120000000E+03 0.  0.
        998    1    1    2    0    0  0.12749461560E+01  0.27721824085E+00  0.14710167552E+04  0.14710513236E+04  0.10000000000E+02 0. -1.
</event>
<event>
 5    1  0.1675361E-008  0.3845443E+03  0.7957747E-01  0.3431607E+00
         13   -1    0    0    0    0  0.00000000000E+00  0.00000000000E+00  0.14999999963E+04  0.15000000000E+04  0.10566000000E+00 0.  1.
        994   -1    0    0    0    0 -0.00000000000E+00 -0.00000000000E+00  0.11368683772E-12  0.17120000000E+03  0.17120000000E+03 0.  0.
         13    1    1    2    0    0 -0.13801311188E+02  0.87449892459E+01  0.76167547291E+02  0.77900304568E+02  0.10566000000E+00 0.  1.
        994    1    1    2    0    0 -0.11582949275E+02 -0.22245357059E+02  0.39310026686E+01  0.17307198909E+03  0.17120000000E+03 0.  0.
        998    1    1    2    0    0  0.25384260464E+02  0.13500367813E+02  0.14199014463E+04  0.14202277063E+04  0.10000000000E+02 0.  1.
</event>
<event>
 5    1  0.1675361E-008  0.3825506E+03  0.7957747E-01  0.3440127E+00
         13   -1    0    0    0    0  0.00000000000E+00  0.00000000000E+00  0.14999999963E+04  0.15000000000E+04  0.10566000000E+00 0.  1.
        994   -1    0    0    0    0 -0.00000000000E+00 -0.00000000000E+00  0.11368683772E-12  0.17120000000E+03  0.17120000000E+03 0.  0.
         13    1    1    2    0    0  0.14053401268E+01  0.15155188379E+02  0.38896753901E+02  0.41768688556E+02  0.10566000000E+00 0.  1.
        994    1    1    2    0    0 -0.32506051495E+01 -0.14997633836E+02  0.36321880970E+01  0.17192477496E+03  0.17120000000E+03 0.  0.
        998    1    1    2    0    0  0.18452650227E+01 -0.15755454321E+00  0.14574710543E+04  0.14575065365E+04  0.10000000000E+02 0.  1.
</event>
<event>
 5    1  0.1675361E-008  0.3852202E+03  0.7957747E-01  0.3428739E+00
         13   -1    0    0    0    0  0.00000000000E+00  0.00000000000E+00  0.14999999963E+04  0.15000000000E+04  0.10566000000E+00 0. -1.
        994   -1    0    0    0    0 -0.00000000000E+00 -0.00000000000E+00  0.11368683772E-12  0.17120000000E+03  0.17120000000E+03 0.  0.
         13    1    1    2    0    0  0.43314417318E+01  0.92225088184E+01  0.34428853796E+02  0.35905058058E+02  0.10566000000E+00 0. -1.
        994    1    1    2    0    0 -0.40390820570E+01 -0.31591067487E+01  0.16072569227E+01  0.17128431748E+03  0.17120000000E+03 0.  0.
        998    1    1    2    0    0 -0.29235967483E+00 -0.60634020697E+01  0.14639638856E+04  0.14640106245E+04  0.10000000000E+02 0. -1.
</event>
<event>
 5    1  0.1675361E-008  0.3701105E+03  0.7957747E-01  0.3495383E+00
         13   -1    0    0    0    0  0.00000000000E+00  0.00000000000E+00  0.14999999963E+04  0.15000000000E+04  0.10566000000E+00 0. -1.
        994   -1    0    0    0    0 -0.00000000000E+00 -0.00000000000E+00  0.11368683772E-12  0.17120000000E+03  0.17120000000E+03 0.  0.
         13    1    1    2    0    0  0.45552162774E+02  0.57014156698E+02  0.32313579281E+03  0.33127385251E+03  0.10566000000E+00 0. -1.
        994    1    1    2    0    0 -0.16521798246E+02 -0.18424438490E+02  0.11330967914E+02  0.17335010985E+03  0.17120000000E+03 0.  0.
        998    1    1    2    0    0 -0.29030364528E+02 -0.38589718207E+02  0.11655332356E+04  0.11665760376E+04  0.10000000000E+02 0. -1.
</event>
<event>
 5    1  0.1675361E-008  0.3820621E+03  0.7957747E-01  0.3442228E+00
         13   -1    0    0    0    0  0.00000000000E+00  0.00000000000E+00  0.14999999963E+04  0.15000000000E+04  0.10566000000E+00 0.  1.
        994   -1    0    0    0    0 -0.00000000000E+00 -0.00000000000E+00  0.11368683772E-12  0.17120000000E+03  0.17120000000E+03 0.  0.
         13    1    1    2    0    0  0.17322063744E+02 -0.55562994443E+01  0.50623812409E+02  0.53793195692E+02  0.10566000000E+00 0.  1.
        994    1    1    2    0    0 -0.19371308936E+02  0.53901840064E+01  0.44393442383E+01  0.17243389884E+03  0.17120000000E+03 0.  0.
        998    1    1    2    0    0  0.20492451920E+01  0.16611543788E+00  0.14449368396E+04  0.14449729055E+04  0.10000000000E+02 0.  1.
</event>
<event>
 5    1  0.1675361E-008  0.3705216E+03  0.7957747E-01  0.3493497E+00
         13   -1    0    0    0    0  0.00000000000E+00  0.00000000000E+00  0.14999999963E+04  0.15000000000E+04  0.10566000000E+00 0.  1.
        994   -1    0    0    0    0 -0.00000000000E+00 -0.00000000000E+00  0.11368683772E-12  0.17120000000E+03  0.17120000000E+03 0.  0.
         13    1    1    2    0    0  0.32571253899E+02 -0.51182830510E+02  0.14876330428E+03  0.16065833493E+03  0.10566000000E+00 0.  1.
        994    1    1    2    0    0 -0.25460586064E+02  0.49092880035E+02  0.22004481440E+02  0.18125117797E+03  0.17120000000E+03 0.  0.
        998    1    1    2    0    0 -0.71106678345E+01  0.20899504751E+01  0.13292322106E+04  0.13292904871E+04  0.10000000000E+02 0.  1.
</event>
<event>
 5    1  0.1675361E-008  0.3839463E+03  0.7957747E-01  0.3434153E+00
         13   -1    0    0    0    0  0.00000000000E+00  0.00000000000E+00  0.14999999963E+04  0.15000000000E+04  0.10566000000E+00 0.  1.
        994   -1    0    0    0    0 -0.00000000000E+00 -0.00000000000E+00  0.11368683772E-12  0.17120000000E+03  0.17120000000E+03 0.  0.
         13    1    1    2    0    0 -0.10900825431E+02  0.51524792331E+01  0.31940975430E+02  0.34141076620E+02  0.10566000000E+00 0.  1.
        994    1    1    2    0    0  0.15152413606E+02 -0.89262771094E+01  0.31754358311E+01  0.17213017590E+03  0.17120000000E+03 0.  0.
        998    1    1    2    0    0 -0.42515881750E+01  0.37737978763E+01  0.14648835850E+04  0.14649287475E+04  0.10000000000E+02 0.  1.
</event>
<event>
 5    1  0.1675361E-008  0.3950556E+03  0.7957747E-01  0.3388114E+00
         13   -1    0    0    0    0  0.00000000000E+00  0.00000000000E+00  0.14999999963E+04  0.15000000000E+04  0.10566000000E+00 0.  1.
        994   -1    0    0    0    0 -0.00000000000E+00 -0.00000000000E+00  0.11368683772E-12  0.17120000000E+03  0.17120000000E+03 0.  0.
         13    1    1    2    0    0  0.33820993089E+01  0.99391356186E+02  0.17033029502E+03  0.19723716902E+03  0.10566000000E+00 0.  1.
        994    1    1    2    0    0  0.23177679735E+02 -0.98699869074E+02  0.65496612922E+02  0.20947103689E+03  0.17120000000E+03 0.  0.
        998    1    1    2    0    0 -0.26559779044E+02 -0.69148711133E+00  0.12641730883E+04  0.12644917941E+04  0.10000000000E+02 0.  1.
</event>
<event>
 5    1  0.1675361E-008  0.3810869E+03  0.7957747E-01  0.3446439E+00
         13   -1    0    0    0    0  0.00000000000E+00  0.00000000000E+00  0.14999999963E+04  0.15000000000E+04  0.10566000000E+00 0. -1.
        994   -1    0    0    0    0 -0.00000000000E+00 -0.00000000000E+00  0.11368683772E-12  0.17120000000E+03  0.17120000000E+03 0.  0.
         13    1    1    2    0    0 -0.57303988498E+01  0.85575082137E+01  0.13349473679E+02  0.16860843079E+02  0.10566000000E+00 0. -1.
        994    1    1    2    0    0  0.47781565354E+00 -0.53619579542E+01  0.36820104405E+01  0.17132418423E+03  0.17120000000E+03 0.  0.
        998    1    1    2    0    0  0.52525831962E+01 -0.31955502595E+01  0.14829685122E+04  0.14830149727E+04  0.10000000000E+02 0. -1.
</event>
<event>
 5    1  0.1675361E-008  0.3853480E+03  0.7957747E-01  0.3428198E+00
         13   -1    0    0    0    0  0.00000000000E+00  0.00000000000E+00  0.14999999963E+04  0.15000000000E+04  0.10566000000E+00 0. -1.
        994   -1    0    0    0    0 -0.00000000000E+00 -0.00000000000E+00  0.11368683772E-12  0.17120000000E+03  0.17120000000E+03 0.  0.
         13    1    1    2    0    0  0.10481803388E+02 -0.10639596027E+02  0.82148986312E+02  0.83495726370E+02  0.10566000000E+00 0. -1.
        994    1    1    2    0    0 -0.12142028487E+02 -0.10140690120E+02  0.22800143362E+01  0.17194447045E+03  0.17120000000E+03 0.  0.
        998    1    1    2    0    0  0.16602250989E+01  0.20780286147E+02  0.14155709956E+04  0.14157598032E+04  0.10000000000E+02 0. -1.
</event>
<event>
 5    1  0.1675361E-008  0.3837965E+03  0.7957747E-01  0.3434792E+00
         13   -1    0    0    0    0  0.00000000000E+00  0.00000000000E+00  0.14999999963E+04  0.15000000000E+04  0.10566000000E+00 0. -1.
        994   -1    0    0    0    0 -0.00000000000E+00 -0.00000000000E+00  0.11368683772E-12  0.17120000000E+03  0.17120000000E+03 0.  0.
         13    1    1    2    0    0  0.10510076864E+02  0.84858105369E+01  0.41243747223E+02  0.43399637616E+02  0.10566000000E+00 0. -1.
        994    1    1    2    0    0 -0.23089743292E+01 -0.37718227915E+01  0.22933993761E+01  0.17127246624E+03  0.17120000000E+03 0.  0.
        998    1    1    2    0    0 -0.82011025347E+01 -0.47139877454E+01  0.14564628497E+04  0.14565278961E+04  0.10000000000E+02 0. -1.
</event>
<event>
 5    1  0.1675361E-008  0.3857310E+03  0.7957747E-01  0.3426578E+00
         13   -1    0    0    0    0  0.00000000000E+00  0.00000000000E+00  0.14999999963E+04  0.15000000000E+04  0.10566000000E+00 0. -1.
        994   -1    0    0    0    0 -0.00000000000E+00 -0.00000000000E+00  0.11368683772E-12  0.17120000000E+03  0.17120000000E+03 0.  0.
         13    1    1    2    0    0  0.50378724547E+01 -0.14860287257E+02  0.93884247067E+02  0.95186508013E+02  0.10566000000E+00 0. -1.
        994    1    1    2    0    0  0.49277800948E+01  0.17664175789E+02  0.23717853535E+01  0.17219573598E+03  0.17120000000E+03 0.  0.
        998    1    1    2    0    0 -0.99656525494E+01 -0.28038885322E+01  0.14037439639E+04  0.14038177560E+04  0.10000000000E+02 0. -1.
</event>
<event>
 5    1  0.1675361E-008  0.3737444E+03  0.7957747E-01  0.3478857E+00
         13   -1    0    0    0    0  0.00000000000E+00  0.00000000000E+00  0.14999999963E+04  0.15000000000E+04  0.10566000000E+00 0.  1.
        994   -1    0    0    0    0 -0.00000000000E+00 -0.00000000000E+00  0.11368683772E-12  0.17120000000E+03  0.17120000000E+03 0.  0.
         13    1    1    2    0    0  0.30319625368E+02 -0.22325477278E+02  0.92411038433E+02  0.99787362959E+02  0.10566000000E+00 0.  1.
        994    1    1    2    0    0 -0.20662097861E+02  0.19324040299E+02  0.10061869805E+02  0.17381318145E+03  0.17120000000E+03 0.  0.
        998    1    1    2    0    0 -0.96575275072E+01  0.30014369793E+01  0.13975270880E+04  0.13975994556E+04  0.10000000000E+02 0.  1.
</event>
<event>
 5    1  0.1675361E-008  0.3755596E+03  0.7957747E-01  0.3470724E+00
         13   -1    0    0    0    0  0.00000000000E+00  0.00000000000E+00  0.14999999963E+04  0.15000000000E+04  0.10566000000E+00 0. -1.
        994   -1    0    0    0    0 -0.00000000000E+00 -0.00000000000E+00  0.11368683772E-12  0.17120000000E+03  0.17120000000E+03 0.  0.
         13    1    1    2    0    0 -0.44810748315E+02  0.22332171832E+02  0.22198518439E+03  0.22756133748E+03  0.10566000000E+00 0. -1.
        994    1    1    2    0    0  0.17207826799E+01 -0.15946978724E+02  0.72649960848E+01  0.17210313010E+03  0.17120000000E+03 0.  0.
        998    1    1    2    0    0  0.43089965635E+02 -0.63851931082E+01  0.12707498158E+04  0.12715355324E+04  0.10000000000E+02 0. -1.
</event>
<event>
 5    1  0.1675361E-008  0.3800541E+03  0.7957747E-01  0.3450923E+00
         13   -1    0    0    0    0  0.00000000000E+00  0.00000000000E+00  0.14999999963E+04  0.15000000000E+04  0.10566000000E+00 0.  1.
        994   -1    0    0    0    0 -0.00000000000E+00 -0.00000000000E+00  0.11368683772E-12  0.17120000000E+03  0.17120000000E+03 0.  0.
         13    1    1    2    0    0 -0.15567006003E+02 -0.29649822004E+01  0.28909514781E+02  0.32968075532E+02  0.10566000000E+00 0.  1.
        994    1    1    2    0    0  0.10806585715E+02  0.33468396081E+01  0.45336917124E+01  0.17163326598E+03  0.17120000000E+03 0.  0.
        998    1    1    2    0    0  0.47604202882E+01 -0.38185740775E+00  0.14665567898E+04  0.14665986585E+04  0.10000000000E+02 0.  1.
</event>
<event>
 5    1  0.1675361E-008  0.3770860E+03  0.7957747E-01  0.3463946E+00
         13   -1    0    0    0    0  0.00000000000E+00  0.00000000000E+00  0.14999999963E+04  0.15000000000E+04  0.10566000000E+00 0.  1.
        994   -1    0    0    0    0 -0.00000000000E+00 -0.00000000000E+00  0.11368683772E-12  0.17120000000E+03  0.17120000000E+03 0.  0.
         13    1    1    2    0    0  0.92695811737E+01 -0.65945282422E+02  0.37647239655E+03  0.38231686064E+03  0.10566000000E+00 0.  1.
        994    1    1    2    0    0  0.12941409281E+02  0.45553756836E+02  0.13219013997E+02  0.17812020426E+03  0.17120000000E+03 0.  0.
        998    1    1    2    0    0 -0.22210990455E+02  0.20391525585E+02  0.11103085857E+04  0.11107629351E+04  0.10000000000E+02 0.  1.
</event>
<event>
 5    1  0.1675361E-008  0.3781738E+03  0.7957747E-01  0.3459149E+00
         13   -1    0    0    0    0  0.00000000000E+00  0.00000000000E+00  0.14999999963E+04  0.15000000000E+04  0.10566000000E+00 0.  1.
        994   -1    0    0    0    0 -0.00000000000E+00 -0.00000000000E+00  0.11368683772E-12  0.17120000000E+03  0.17120000000E+03 0.  0.
         13    1    1    2    0    0  0.24160933069E+02 -0.12862871680E+02  0.66250902223E+02  0.71682615494E+02  0.10566000000E+00 0.  1.
        994    1    1    2    0    0 -0.29880065716E+02  0.27527888343E+02  0.10629315059E+02  0.17627542456E+03  0.17120000000E+03 0.  0.
        998    1    1    2    0    0  0.57191326470E+01 -0.14665016663E+02  0.14231197790E+04  0.14232419600E+04  0.10000000000E+02 0.  1.
</event>
<event>
 5    1  0.1675361E-008  0.3832946E+03  0.7957747E-01  0.3436937E+00
         13   -1    0    0    0    0  0.00000000000E+00  0.00000000000E+00  0.14999999963E+04  0.15000000000E+04  0.10566000000E+00 0.  1.
        994   -1    0    0    0    0 -0.00000000000E+00 -0.00000000000E+00  0.11368683772E-12  0.17120000000E+03  0.17120000000E+03 0.  0.
         13    1    1    2    0    0  0.11521225384E+01 -0.13555187574E+02  0.38696992440E+02  0.41018762590E+02  0.10566000000E+00 0.  1.
        994    1    1    2    0    0  0.13158921220E+02 -0.32942010185E+01  0.30879394252E+01  0.17176432790E+03  0.17120000000E+03 0.  0.
        998    1    1    2    0    0 -0.14311043759E+02  0.16849388593E+02  0.14582150644E+04  0.14584169095E+04  0.10000000000E+02 0.  1.
</event>
<event>
 5    1  0.1675361E-008  0.3856331E+03  0.7957747E-01  0.3426992E+00
         13   -1    0    0    0    0  0.00000000000E+00  0.00000000000E+00  0.14999999963E+04  0.15000000000E+04  0.10566000000E+00 0.  1.
        994   -1    0    0    0    0 -0.00000000000E+00 -0.00000000000E+00  0.11368683772E-12  0.17120000000E+03  0.17120000000E+03 0.  0.
         13    1    1    2    0    0  0.59309847101E+01 -0.88325730252E+01  0.45878521145E+02  0.47096080436E+02  0.10566000000E+00 0.  1.
        994    1    1    2    0    0 -0.26059184949E+01 -0.50214943934E+01  0.14211834749E+01  0.17129934612E+03  0.17120000000E+03 0.  0.
        998    1    1    2    0    0 -0.33250662151E+01  0.13854067419E+02  0.14527002917E+04  0.14528045734E+04  0.10000000000E+02 0.  1.
</event>
<event>
 5    1  0.1675361E-008  0.3852634E+03  0.7957747E-01  0.3428556E+00
         13   -1    0    0    0    0  0.00000000000E+00  0.00000000000E+00  0.14999999963E+04  0.15000000000E+04  0.10566000000E+00 0.  1.
        994   -1    0    0    0    0 -0.00000000000E+00 -0.00000000000E+00  0.11368683772E-12  0.17120000000E+03  0.17120000000E+03 0.  0.
         13    1    1    2    0    0  0.11286977743E+02 -0.56691705603E+01  0.55499611408E+02  0.56918831610E+02  0.10566000000E+00 0.  1.
        994    1    1    2    0    0  0.15342919347E+01  0.73399379812E+01  0.16842191065E+01  0.17137241708E+03  0.17120000000E+03 0.  0.
        998    1    1    2    0    0 -0.12821269678E+02 -0.16707674209E+01  0.14428161658E+04  0.14429087513E+04  0.10000000000E+02 0.  1.
</event>
<event>
 5    1  0.1675361E-008  0.3826220E+03  0.7957747E-01  0.3439821E+00
         13   -1    0    0    0    0  0.00000000000E+00  0.00000000000E+00  0.14999999963E+04  0.15000000000E+04  0.10566000000E+00 0.  1.
        994   -1    0    0    0    0 -0.00000000000E+00 -0.00000000000E+00  0.11368683772E-12  0.17120000000E+03  0.17120000000E+03 0.  0.
         13    1    1    2    0    0 -0.15071405349E+02  0.47046114769E+01  0.44502921246E+02  0.47220777120E+02  0.10566000000E+00 0.  1.
        994    1    1    2    0    0  0.35183087573E+01 -0.29071311434E+01  0.28844383439E+01  0.17128511287E+03  0.17120000000E+03 0.  0.
        998    1    1    2    0    0  0.11553096591E+02 -0.17974803334E+01  0.14526126367E+04  0.14526941100E+04  0.10000000000E+02 0.  1.
</event>
<event>
 5    1  0.2640049E-008  0.3860633E+03  0.7957747E-01  0.3425175E+00
         13   -1    0    0    0    0  0.00000000000E+00  0.00000000000E+00  0.14999999963E+04  0.15000000000E+04  0.10566000000E+00 0. -1.
        994   -1    0    0    0    0 -0.00000000000E+00 -0.00000000000E+00  0.11368683772E-12  0.17120000000E+03  0.17120000000E+03 0.  0.
         13    1    1    2    0    0  0.11038996936E+02 -0.29673309627E+01  0.62568879318E+02  0.63604562175E+02  0.10566000000E+00 0. -1.
        994    1    1    2    0    0 -0.89867484708E+00  0.47274103038E+01  0.11790388643E+01  0.17127167354E+03  0.17120000000E+03 0.  0.
        998    1    1    2    0    0 -0.10140322089E+02 -0.17600793411E+01  0.14362520781E+04  0.14363237643E+04  0.10000000000E+02 0. -1.
</event>
<event>
 5    1  0.1675361E-008  0.3770461E+03  0.7957747E-01  0.3464122E+00
         13   -1    0    0    0    0  0.00000000000E+00  0.00000000000E+00  0.14999999963E+04  0.15000000000E+04  0.10566000000E+00 0. -1.
        994   -1    0    0    0    0 -0.00000000000E+00 -0.00000000000E+00  0.11368683772E-12  0.17120000000E+03  0.17120000000E+03 0.  0.
         13    1    1    2    0    0  0.23802385075E+02 -0.20250821976E+02  0.79843161890E+02  0.85741419341E+02  0.10566000000E+00 0. -1.
        994    1    1    2    0    0 -0.27066487787E+02  0.20404899269E+02  0.95202929787E+01  0.17478280995E+03  0.17120000000E+03 0.  0.
        998    1    1    2    0    0  0.32641027121E+01 -0.15407729266E+00  0.14106365414E+04  0.14106757707E+04  0.10000000000E+02 0. -1.
</event>
<event>
 5    1  0.1675361E-008  0.3732869E+03  0.7957747E-01  0.3480920E+00
         13   -1    0    0    0    0  0.00000000000E+00  0.00000000000E+00  0.14999999963E+04  0.15000000000E+04  0.10566000000E+00 0. -1.
        994   -1    0    0    0    0 -0.00000000000E+00 -0.00000000000E+00  0.11368683772E-12  0.17120000000E+03  0.17120000000E+03 0.  0.
         13    1    1    2    0    0  0.12837432796E+02  0.29245997632E+02  0.62313407534E+02  0.70022139219E+02  0.10566000000E+00 0. -1.
        994    1    1    2    0    0 -0.18954847495E+02 -0.26142038152E+02  0.11134339986E+02  0.17457407004E+03  0.17120000000E+03 0.  0.
        998    1    1    2    0    0  0.61174146989E+01 -0.31039594806E+01  0.14265522488E+04  0.14266037907E+04  0.10000000000E+02 0. -1.
</event>
<event>
 5    1  0.1675361E-008  0.3806437E+03  0.7957747E-01  0.3448360E+00
         13   -1    0    0    0    0  0.00000000000E+00  0.00000000000E+00  0.14999999963E+04  0.15000000000E+04  0.10566000000E+00 0.  1.
        994   -1    0    0    0    0 -0.00000000000E+00 -0.00000000000E+00  0.11368683772E-12  0.17120000000E+03  0.17120000000E+03 0.  0.
         13    1    1    2    0    0  0.32576180469E+01 -0.13917230143E+02  0.23830314223E+02  0.27788422233E+02  0.10566000000E+00 0.  1.
        994    1    1    2    0    0 -0.18419899238E+02  0.26640791467E+02  0.73158245079E+01  0.17439032584E+03  0.17120000000E+03 0.  0.
        998    1    1    2    0    0  0.15162281191E+02 -0.12723561324E+02  0.14688538575E+04  0.14690212519E+04  0.10000000000E+02 0.  1.
</event>
<event>
 5    1  0.1675361E-008  0.3720879E+03  0.7957747E-01  0.3486350E+00
         13   -1    0    0    0    0  0.00000000000E+00  0.00000000000E+00  0.14999999963E+04  0.15000000000E+04  0.10566000000E+00 0. -1.
        994   -1    0    0    0    0 -0.00000000000E+00 -0.00000000000E+00  0.11368683772E-12  0.17120000000E+03  0.17120000000E+03 0.  0.
         13    1    1    2    0    0 -0.10239906517E+02  0.43985531098E+02  0.10893409070E+03  0.11792467898E+03  0.10566000000E+00 0. -1.
        994    1    1    2    0    0  0.38081318905E+02 -0.47926197248E+02  0.21157071169E+02  0.18304144037E+03  0.17120000000E+03 0.  0.
        998    1    1    2    0    0 -0.27841412388E+02  0.39406661508E+01  0.13699088344E+04  0.13702338807E+04  0.10000000000E+02 0. -1.
</event>
<event>
 5    1  0.1675361E-008  0.3840582E+03  0.7957747E-01  0.3433676E+00
         13   -1    0    0    0    0  0.00000000000E+00  0.00000000000E+00  0.14999999963E+04  0.15000000000E+04  0.10566000000E+00 0. -1.
        994   -1    0    0    0    0 -0.00000000000E+00 -0.00000000000E+00  0.11368683772E-12  0.17120000000E+03  0.17120000000E+03 0.  0.
         13    1    1    2    0    0 -0.12968923435E+02 -0.13422725693E+02  0.77430562359E+02  0.79648387876E+02  0.10566000000E+00 0. -1.
        994    1    1    2    0    0  0.17579722144E+02  0.14467233609E+02  0.38101948520E+01  0.17274925489E+03  0.17120000000E+03 0.  0.
        998    1    1    2    0    0 -0.46107987099E+01 -0.10445079154E+01  0.14187592391E+04  0.14188023572E+04  0.10000000000E+02 0. -1.
</event>
<event>
 5    1  0.1675361E-008  0.3848404E+03  0.7957747E-01  0.3430349E+00
         13   -1    0    0    0    0  0.00000000000E+00  0.00000000000E+00  0.14999999963E+04  0.15000000000E+04  0.10566000000E+00 0. -1.
        994   -1    0    0    0    0 -0.00000000000E+00 -0.00000000000E+00  0.11368683772E-12  0.17120000000E+03  0.17120000000E+03 0.  0.
         13    1    1    2    0    0 -0.25732291703E+01 -0.16066080745E+02  0.86357223030E+02  0.87876740906E+02  0.10566000000E+00 0. -1.
        994    1    1    2    0    0 -0.30775279666E+01 -0.40536346121E+01  0.17946201064E+01  0.17128503669E+03  0.17120000000E+03 0.  0.
        998    1    1    2    0    0  0.56507571370E+01  0.20119715357E+02  0.14118481531E+04  0.14120382224E+04  0.10000000000E+02 0. -1.
</event>
<event>
 5    1  0.1675361E-008  0.3843500E+03  0.7957747E-01  0.3432434E+00
         13   -1    0    0    0    0  0.00000000000E+00  0.00000000000E+00  0.14999999963E+04  0.15000000000E+04  0.10566000000E+00 0. -1.
        994   -1    0    0    0    0 -0.00000000000E+00 -0.00000000000E+00  0.11368683772E-12  0.17120000000E+03  0.17120000000E+03 0.  0.
         13    1    1    2    0    0 -0.28254163148E+01  0.15441604417E+02  0.62020828017E+02  0.63976717611E+02  0.10566000000E+00 0. -1.
        994    1    1    2    0    0  0.38717498213E+01 -0.11948507920E+02  0.24732856636E+01  0.17167793810E+03  0.17120000000E+03 0.  0.
        998    1    1    2    0    0 -0.10463335064E+01 -0.34930964972E+01  0.14355058826E+04  0.14355453443E+04  0.10000000000E+02 0.  0.
</event>
<event>
 5    1  0.1675361E-008  0.3821946E+03  0.7957747E-01  0.3441658E+00
         13   -1    0    0    0    0  0.00000000000E+00  0.00000000000E+00  0.14999999963E+04  0.15000000000E+04  0.10566000000E+00 0. -1.
        994   -1    0    0    0    0 -0.00000000000E+00 -0.00000000000E+00  0.11368683772E-12  0.17120000000E+03  0.17120000000E+03 0.  0.
         13    1    1    2    0    0  0.17121387458E+02 -0.16880286356E+02  0.10215017792E+03  0.10494167899E+03  0.10566000000E+00 0. -1.
        994    1    1    2    0    0 -0.47756430183E+01 -0.21613073553E+01  0.31206104870E+01  0.17130865777E+03  0.17120000000E+03 0.  0.
        998    1    1    2    0    0 -0.12345744440E+02  0.19041593712E+02  0.13947292079E+04  0.13949496632E+04  0.10000000000E+02 0. -1.
</event>
<event>
 5    1  0.1675361E-008  0.3778446E+03  0.7957747E-01  0.3460598E+00
         13   -1    0    0    0    0  0.00000000000E+00  0.00000000000E+00  0.14999999963E+04  0.15000000000E+04  0.10566000000E+00 0.  1.
        994   -1    0    0    0    0 -0.00000000000E+00 -0.00000000000E+00  0.11368683772E-12  0.17120000000E+03  0.17120000000E+03 0.  0.
         13    1    1    2    0    0  0.27613922237E+02  0.86505075331E+01  0.75320636961E+02  0.80688100103E+02  0.10566000000E+00 0.  1.
        994    1    1    2    0    0 -0.25061949773E+02 -0.11463663225E+02  0.77866044925E+01  0.17357876630E+03  0.17120000000E+03 0.  0.
        998    1    1    2    0    0 -0.25519724639E+01  0.28131556920E+01  0.14168927548E+04  0.14169331336E+04  0.10000000000E+02 0.  1.
</event>
<event>
 5    1  0.1675361E-008  0.3789998E+03  0.7957747E-01  0.3455525E+00
         13   -1    0    0    0    0  0.00000000000E+00  0.00000000000E+00  0.14999999963E+04  0.15000000000E+04  0.10566000000E+00 0.  1.
        994   -1    0    0    0    0 -0.00000000000E+00 -0.00000000000E+00  0.11368683772E-12  0.17120000000E+03  0.17120000000E+03 0.  0.
         13    1    1    2    0    0  0.39854050170E+02 -0.32613937052E+02  0.77468606921E+02  0.93023708953E+02  0.10566000000E+00 0.  1.
        994    1    1    2    0    0 -0.32207826389E+02  0.23401687599E+02  0.21522870222E+02  0.17708093349E+03  0.17120000000E+03 0.  0.
        998    1    1    2    0    0 -0.76462237810E+01  0.92122494533E+01  0.14010085191E+04  0.14010953576E+04  0.10000000000E+02 0.  1.
</event>
<event>
 5    1  0.1675361E-008  0.3692973E+03  0.7957747E-01  0.3499127E+00
         13   -1    0    0    0    0  0.00000000000E+00  0.00000000000E+00  0.14999999963E+04  0.15000000000E+04  0.10566000000E+00 0.  1.
        994   -1    0    0    0    0 -0.00000000000E+00 -0.00000000000E+00  0.11368683772E-12  0.17120000000E+03  0.17120000000E+03 0.  0.
         13    1    1    2    0    0  0.81523043609E+02  0.44406339400E+01  0.28217386978E+03  0.29374790181E+03  0.10566000000E+00 0.  1.
        994    1    1    2    0    0 -0.78569371656E+02 -0.12506145643E+02  0.31907711331E+02  0.19146041858E+03  0.17120000000E+03 0.  0.
        998    1    1    2    0    0 -0.29536719522E+01  0.80655117030E+01  0.11859184152E+04  0.11859916796E+04  0.10000000000E+02 0.  1.
</event>
<event>
 5    1  0.1675361E-008  0.3781845E+03  0.7957747E-01  0.3459102E+00
         13   -1    0    0    0    0  0.00000000000E+00  0.00000000000E+00  0.14999999963E+04  0.15000000000E+04  0.10566000000E+00 0. -1.
        994   -1    0    0    0    0 -0.00000000000E+00 -0.00000000000E+00  0.11368683772E-12  0.17120000000E+03  0.17120000000E+03 0.  0.
         13    1    1    2    0    0  0.49911828874E+02  0.30985512374E+01  0.21406748545E+03  0.21983105142E+03  0.10566000000E+00 0. -1.
        994    1    1    2    0    0 -0.48094749841E+02 -0.36551588910E+02  0.17424512394E+02  0.18237921276E+03  0.17120000000E+03 0.  0.
        998    1    1    2    0    0 -0.18170790331E+01  0.33453037672E+02  0.12685079984E+04  0.12689897358E+04  0.10000000000E+02 0. -1.
</event>
<event>
 5    1  0.1675361E-008  0.3822799E+03  0.7957747E-01  0.3441291E+00
         13   -1    0    0    0    0  0.00000000000E+00  0.00000000000E+00  0.14999999963E+04  0.15000000000E+04  0.10566000000E+00 0.  1.
        994   -1    0    0    0    0 -0.00000000000E+00 -0.00000000000E+00  0.11368683772E-12  0.17120000000E+03  0.17120000000E+03 0.  0.
         13    1    1    2    0    0 -0.50406610077E+01  0.18177737010E+02  0.58587133402E+02  0.61549181558E+02  0.10566000000E+00 0.  1.
        994    1    1    2    0    0  0.79175600476E+01 -0.10562464783E+02  0.35650303260E+01  0.17174516838E+03  0.17120000000E+03 0.  0.
        998    1    1    2    0    0 -0.28768990399E+01 -0.76152722267E+01  0.14378478326E+04  0.14379056501E+04  0.10000000000E+02 0.  1.
</event>
<event>
 5    1  0.1675361E-008  0.3701093E+03  0.7957747E-01  0.3495389E+00
         13   -1    0    0    0    0  0.00000000000E+00  0.00000000000E+00  0.14999999963E+04  0.15000000000E+04  0.10566000000E+00 0. -1.
        994   -1    0    0    0    0 -0.00000000000E+00 -0.00000000000E+00  0.11368683772E-12  0.17120000000E+03  0.17120000000E+03 0.  0.
         13    1    1    2    0    0  0.98341500467E+02 -0.44687327124E+02  0.38366035897E+03  0.39857658000E+03  0.10566000000E+00 0. -1.
        994    1    1    2    0    0 -0.11563958073E+03  0.59625908065E+02  0.70215947626E+02  0.22620230070E+03  0.17120000000E+03 0.  0.
        998    1    1    2    0    0  0.17298080258E+02 -0.14938580942E+02  0.10461236897E+04  0.10464211193E+04  0.10000000000E+02 0. -1.
</event>
<event>
 5    1  0.1675361E-008  0.3825195E+03  0.7957747E-01  0.3440261E+00
         13   -1    0    0    0    0  0.00000000000E+00  0.00000000000E+00  0.14999999963E+04  0.15000000000E+04  0.10566000000E+00 0.  1.
        994   -1    0    0    0    0 -0.00000000000E+00 -0.00000000000E+00  0.11368683772E-12  0.17120000000E+03  0.17120000000E+03 0.  0.
         13    1    1    2    0    0 -0.19054570645E+02  0.27095317520E+01  0.63232074817E+02  0.66096328752E+02  0.10566000000E+00 0.  1.
        994    1    1    2    0    0  0.14513490610E+02  0.28013039676E+01  0.35913765859E+01  0.17187445040E+03  0.17120000000E+03 0.  0.
        998    1    1    2    0    0  0.45410800357E+01 -0.55108357197E+01  0.14331765449E+04  0.14332292209E+04  0.10000000000E+02 0.  1.
</event>
<event>
 5    1  0.1675361E-008  0.3773186E+03  0.7957747E-01  0.3462918E+00
         13   -1    0    0    0    0  0.00000000000E+00  0.00000000000E+00  0.14999999963E+04  0.15000000000E+04  0.10566000000E+00 0.  1.
        994   -1    0    0    0    0 -0.00000000000E+00 -0.00000000000E+00  0.11368683772E-12  0.17120000000E+03  0.17120000000E+03 0.  0.
         13    1    1    2    0    0  0.71297208250E+01  0.44825547319E+02  0.21282082989E+03  0.21760716765E+03  0.10566000000E+00 0.  1.
        994    1    1    2    0    0 -0.80164650152E+01 -0.52543793388E+01  0.58027786606E+01  0.17156626840E+03  0.17120000000E+03 0.  0.
        998    1    1    2    0    0  0.88674419013E+00 -0.39571167980E+02  0.12813763877E+04  0.12820265640E+04  0.10000000000E+02 0.  1.
</event>
<event>
 5    1  0.1675361E-008  0.3728962E+03  0.7957747E-01  0.3482685E+00
         13   -1    0    0    0    0  0.00000000000E+00  0.00000000000E+00  0.14999999963E+04  0.15000000000E+04  0.10566000000E+00 0. -1.
        994   -1    0    0    0    0 -0.00000000000E+00 -0.00000000000E+00  0.11368683772E-12  0.17120000000E+03  0.17120000000E+03 0.  0.
         13    1    1    2    0    0 -0.20821249581E+02 -0.15867330669E+02  0.39679957615E+02  0.47537425436E+02  0.10566000000E+00 0. -1.
        994    1    1    2    0    0  0.17189796277E+02  0.26295758187E+02  0.11149357672E+02  0.17441532092E+03  0.17120000000E+03 0.  0.
        998    1    1    2    0    0  0.36314533048E+01 -0.10428427517E+02  0.14491706810E+04  0.14492472536E+04  0.10000000000E+02 0. -1.
</event>
<event>
 5    1  0.1675361E-008  0.3836918E+03  0.7957747E-01  0.3435239E+00
         13   -1    0    0    0    0  0.00000000000E+00  0.00000000000E+00  0.14999999963E+04  0.15000000000E+04  0.10566000000E+00 0.  1.
        994   -1    0    0    0    0 -0.00000000000E+00 -0.00000000000E+00  0.11368683772E-12  0.17120000000E+03  0.17120000000E+03 0.  0.
         13    1    1    2    0    0 -0.58337337537E+00  0.15243577833E+02  0.51589911832E+02  0.53798114804E+02  0.10566000000E+00 0.  1.
        994    1    1    2    0    0  0.19312610270E+01 -0.53947060844E+01  0.23894717462E+01  0.17131252785E+03  0.17120000000E+03 0.  0.
        998    1    1    2    0    0 -0.13478876516E+01 -0.98488717482E+01  0.14460206127E+04  0.14460893573E+04  0.10000000000E+02 0.  1.
</event>
<event>
 5    1  0.1675361E-008  0.3855045E+03  0.7957747E-01  0.3427535E+00
         13   -1    0    0    0    0  0.00000000000E+00  0.00000000000E+00  0.14999999963E+04  0.15000000000E+04  0.10566000000E+00 0.  1.
        994   -1    0    0    0    0 -0.00000000000E+00 -0.00000000000E+00  0.11368683772E-12  0.17120000000E+03  0.17120000000E+03 0.  0.
         13    1    1    2    0    0 -0.12859656352E+02  0.39928650906E+01  0.63424662914E+02  0.64838358731E+02  0.10566000000E+00 0.  1.
        994    1    1    2    0    0  0.15192841521E+02 -0.14616021789E+01  0.21450880857E+01  0.17189240855E+03  0.17120000000E+03 0.  0.
        998    1    1    2    0    0 -0.23331851690E+01 -0.25312629117E+01  0.14344302453E+04  0.14344692327E+04  0.10000000000E+02 0.  1.
</event>
<event>
 5    1  0.1675361E-008  0.3706334E+03  0.7957747E-01  0.3492985E+00
         13   -1    0    0    0    0  0.00000000000E+00  0.00000000000E+00  0.14999999963E+04  0.15000000000E+04  0.10566000000E+00 0. -1.
        994   -1    0    0    0    0 -0.00000000000E+00 -0.00000000000E+00  0.11368683772E-12  0.17120000000E+03  0.17120000000E+03 0.  0.
         13    1    1    2    0    0 -0.98660615128E+01  0.70710887508E+01  0.44307101552E+01  0.12922144652E+02  0.10566000000E+00 0. -1.
        994    1    1    2    0    0  0.10659843073E+01  0.32703342099E+02  0.12641190073E+02  0.17475664392E+03  0.17120000000E+03 0.  0.
        998    1    1    2    0    0  0.88000772055E+01 -0.39774430849E+02  0.14829280961E+04  0.14835212114E+04  0.10000000000E+02 0. -1.
</event>
<event>
 5    1  0.1675361E-008  0.3844480E+03  0.7957747E-01  0.3432017E+00
         13   -1    0    0    0    0  0.00000000000E+00  0.00000000000E+00  0.14999999963E+04  0.15000000000E+04  0.10566000000E+00 0. -1.
        994   -1    0    0    0    0 -0.00000000000E+00 -0.00000000000E+00  0.11368683772E-12  0.17120000000E+03  0.17120000000E+03 0.  0.
         13    1    1    2    0    0  0.10240387664E+02  0.19364276650E+02  0.11377809376E+03  0.11586762505E+03  0.10566000000E+00 0. -1.
        994    1    1    2    0    0 -0.49897918646E+01 -0.27633942431E+02  0.45066333408E+01  0.17354619714E+03  0.17120000000E+03 0.  0.
        998    1    1    2    0    0 -0.52505957992E+01  0.82696657806E+01  0.13817152692E+04  0.13817861778E+04  0.10000000000E+02 0. -1.
</event>
<event>
 5    1  0.1675361E-008  0.3820849E+03  0.7957747E-01  0.3442130E+00
         13   -1    0    0    0    0  0.00000000000E+00  0.00000000000E+00  0.14999999963E+04  0.15000000000E+04  0.10566000000E+00 0. -1.
        994   -1    0    0    0    0 -0.00000000000E+00 -0.00000000000E+00  0.11368683772E-12  0.17120000000E+03  0.17120000000E+03 0.  0.
         13    1    1    2    0    0  0.21470205289E+02 -0.24518653222E+02  0.19480674689E+03  0.19751408524E+03  0.10566000000E+00 0. -1.
        994    1    1    2    0    0 -0.95422854915E+01 -0.29700534609E+01  0.34160301672E+01  0.17152546660E+03  0.17120000000E+03 0.  0.
        998    1    1    2    0    0 -0.11927919798E+02  0.27488706683E+02  0.13017772192E+04  0.13021604482E+04  0.10000000000E+02 0. -1.
</event>
<event>
 5    1  0.1675361E-008  0.3733713E+03  0.7957747E-01  0.3480539E+00
         13   -1    0    0    0    0  0.00000000000E+00  0.00000000000E+00  0.14999999963E+04  0.15000000000E+04  0.10566000000E+00 0. -1.
        994   -1    0    0    0    0 -0.00000000000E+00 -0.00000000000E+00  0.11368683772E-12  0.17120000000E+03  0.17120000000E+03 0.  0.
         13    1    1    2    0    0  0.43451216517E-01 -0.12646766141E+03  0.41505566680E+03  0.43389548162E+03  0.10566000000E+00 0. -1.
        994    1    1    2    0    0  0.62125473063E+02  0.13633093383E+03  0.97012277617E+02  0.24731866070E+03  0.17120000000E+03 0.  0.
        998    1    1    2    0    0 -0.62168924279E+02 -0.98632724257E+01  0.98793205187E+03  0.98998585767E+03  0.10000000000E+02 0. -1.
</event>
<event>
 5    1  0.1675361E-008  0.3813117E+03  0.7957747E-01  0.3445467E+00
         13   -1    0    0    0    0  0.00000000000E+00  0.00000000000E+00  0.14999999963E+04  0.15000000000E+04  0.10566000000E+00 0. -1.
        994   -1    0    0    0    0 -0.00000000000E+00 -0.00000000000E+00  0.11368683772E-12  0.17120000000E+03  0.17120000000E+03 0.  0.
         13    1    1    2    0    0  0.39413080206E+01 -0.14889567155E+02  0.34534265141E+02  0.37813486376E+02  0.10566000000E+00 0. -1.
        994    1    1    2    0    0 -0.27138439571E+01 -0.49101370391E+01  0.35772560607E+01  0.17132924781E+03  0.17120000000E+03 0.  0.
        998    1    1    2    0    0 -0.12274640635E+01  0.19799704195E+02  0.14618884751E+04  0.14620572658E+04  0.10000000000E+02 0. -1.
</event>
<event>
 5    1  0.1675361E-008  0.3769618E+03  0.7957747E-01  0.3464495E+00
         13   -1    0    0    0    0  0.00000000000E+00  0.00000000000E+00  0.14999999963E+04  0.15000000000E+04  0.10566000000E+00 0.  1.
        994   -1    0    0    0    0 -0.00000000000E+00 -0.00000000000E+00  0.11368683772E-12  0.17120000000E+03  0.17120000000E+03 0.  0.
         13    1    1    2    0    0  0.16167577727E+02 -0.56029071287E+01  0.25955301438E+02  0.31088132376E+02  0.10566000000E+00 0.  1.
        994    1    1    2    0    0  0.24590930097E+02 -0.12274666518E+02  0.82297511241E+01  0.17358729817E+03  0.17120000000E+03 0.  0.
        998    1    1    2    0    0 -0.40758507825E+02  0.17877573646E+02  0.14658149437E+04  0.14665245695E+04  0.10000000000E+02 0.  1.
</event>
<event>
 5    1  0.1675361E-008  0.3844070E+03  0.7957747E-01  0.3432191E+00
         13   -1    0    0    0    0  0.00000000000E+00  0.00000000000E+00  0.14999999963E+04  0.15000000000E+04  0.10566000000E+00 0. -1.
        994   -1    0    0    0    0 -0.00000000000E+00 -0.00000000000E+00  0.11368683772E-12  0.17120000000E+03  0.17120000000E+03 0.  0.
         13    1    1    2    0    0  0.12664604368E+02  0.32327708450E+01  0.42044597945E+02  0.44029562699E+02  0.10566000000E+00 0. -1.
        994    1    1    2    0    0 -0.17644940280E+02 -0.56074844923E+01  0.30551110919E+01  0.17222532190E+03  0.17120000000E+03 0.  0.
        998    1    1    2    0    0  0.49803359118E+01  0.23747136474E+01  0.14549002872E+04  0.14549451154E+04  0.10000000000E+02 0. -1.
</event>
<event>
 5    1  0.1675361E-008  0.3771466E+03  0.7957747E-01  0.3463678E+00
         13   -1    0    0    0    0  0.00000000000E+00  0.00000000000E+00  0.14999999963E+04  0.15000000000E+04  0.10566000000E+00 0. -1.
        994   -1    0    0    0    0 -0.00000000000E+00 -0.00000000000E+00  0.11368683772E-12  0.17120000000E+03  0.17120000000E+03 0.  0.
         13    1    1    2    0    0  0.16979627597E+02  0.48177867577E+01  0.23834092845E+02  0.29657949497E+02  0.10566000000E+00 0. -1.
        994    1    1    2    0    0 -0.35796487651E+02 -0.15580884625E+02  0.10741494867E+02  0.17592319974E+03  0.17120000000E+03 0.  0.
        998    1    1    2    0    0  0.18816860054E+02  0.10763097867E+02  0.14654244086E+04  0.14656188508E+04  0.10000000000E+02 0. -1.
</event>
<event>
 5    1  0.1675361E-008  0.3813763E+03  0.7957747E-01  0.3445188E+00
         13   -1    0    0    0    0  0.00000000000E+00  0.00000000000E+00  0.14999999963E+04  0.15000000000E+04  0.10566000000E+00 0.  1.
        994   -1    0    0    0    0 -0.00000000000E+00 -0.00000000000E+00  0.11368683772E-12  0.17120000000E+03  0.17120000000E+03 0.  0.
         13    1    1    2    0    0 -0.81151761577E+01 -0.33288459066E+02  0.15891024031E+03  0.16256215190E+03  0.10566000000E+00 0.  1.
        994    1    1    2    0    0 -0.64830964132E+00  0.30399493586E+02  0.65228131591E+01  0.17400154197E+03  0.17120000000E+03 0.  0.
        998    1    1    2    0    0  0.87634857991E+01  0.28889654800E+01  0.13345669428E+04  0.13346363061E+04  0.10000000000E+02 0.  1.
</event>
<event>
 5    1  0.1675361E-008  0.3718934E+03  0.7957747E-01  0.3487234E+00
         13   -1    0    0    0    0  0.00000000000E+00  0.00000000000E+00  0.14999999963E+04  0.15000000000E+04  0.10566000000E+00 0. -1.
        994   -1    0    0    0    0 -0.00000000000E+00 -0.00000000000E+00  0.11368683772E-12  0.17120000000E+03  0.17120000000E+03 0.  0.
         13    1    1    2    0    0 -0.90497427205E+02  0.10118380493E+03  0.61128104705E+03  0.62617288057E+03  0.10566000000E+00 0. -1.
        994    1    1    2    0    0  0.95717723207E+02 -0.97731669556E+02  0.75588620262E+02  0.23181121906E+03  0.17120000000E+03 0.  0.
        998    1    1    2    0    0 -0.52202960021E+01 -0.34521353784E+01  0.81313032896E+03  0.81321590037E+03  0.10000000000E+02 0. -1.
</event>
<event>
 5    1  0.1675361E-008  0.3848610E+03  0.7957747E-01  0.3430262E+00
         13   -1    0    0    0    0  0.00000000000E+00  0.00000000000E+00  0.14999999963E+04  0.15000000000E+04  0.10566000000E+00 0.  1.
        994   -1    0    0    0    0 -0.00000000000E+00 -0.00000000000E+00  0.11368683772E-12  0.17120000000E+03  0.17120000000E+03 0.  0.
         13    1    1    2    0    0 -0.97307410209E+01  0.10793695358E+02  0.60738045897E+02  0.62452482447E+02  0.10566000000E+00 0.  1.
        994    1    1    2    0    0  0.61538222828E+01 -0.12293611839E+02  0.23212546304E+01  0.17176679145E+03  0.17120000000E+03 0.  0.
        998    1    1    2    0    0  0.35769187381E+01  0.14999164808E+01  0.14369406958E+04  0.14369807261E+04  0.10000000000E+02 0.  1.
</event>
<event>
 5    1  0.2175391E-008  0.3858775E+03  0.7957747E-01  0.3425959E+00
         13   -1    0    0    0    0  0.00000000000E+00  0.00000000000E+00  0.14999999963E+04  0.15000000000E+04  0.10566000000E+00 0.  1.
        994   -1    0    0    0    0 -0.00000000000E+00 -0.00000000000E+00  0.11368683772E-12  0.17120000000E+03  0.17120000000E+03 0.  0.
         13    1    1    2    0    0 -0.88270268470E+01 -0.99186587752E+01  0.77566510036E+02  0.78694795495E+02  0.10566000000E+00 0.  1.
        994    1    1    2    0    0  0.43851750018E+01  0.10933660571E+01  0.12620988602E+01  0.17126429313E+03  0.17120000000E+03 0.  0.
        998    1    1    2    0    0  0.44418518452E+01  0.88252927181E+01  0.14211713874E+04  0.14212409114E+04  0.10000000000E+02 0.  1.
</event>
<event>
 5    1  0.1675361E-008  0.3761539E+03  0.7957747E-01  0.3468078E+00
         13   -1    0    0    0    0  0.00000000000E+00  0.00000000000E+00  0.14999999963E+04  0.15000000000E+04  0.10566000000E+00 0.  1.
        994   -1    0    0    0    0 -0.00000000000E+00 -0.00000000000E+00  0.11368683772E-12  0.17120000000E+03  0.17120000000E+03 0.  0.
         13    1    1    2    0    0 -0.51335263055E+02  0.59465325374E+01  0.18514711483E+03  0.19222418104E+03  0.10566000000E+00 0.  1.
        994    1    1    2    0    0  0.56731929765E+02 -0.85539759003E+01  0.17315639101E+02  0.18138620046E+03  0.17120000000E+03 0.  0.
        998    1    1    2    0    0 -0.53966667099E+01  0.26074433629E+01  0.12975372423E+04  0.12975896185E+04  0.10000000000E+02 0.  1.
</event>
<event>
 5    1  0.1675361E-008  0.3826223E+03  0.7957747E-01  0.3439819E+00
         13   -1    0    0    0    0  0.00000000000E+00  0.00000000000E+00  0.14999999963E+04  0.15000000000E+04  0.10566000000E+00 0.  1.
        994   -1    0    0    0    0 -0.00000000000E+00 -0.00000000000E+00  0.11368683772E-12  0.17120000000E+03  0.17120000000E+03 0.  0.
         13    1    1    2    0    0 -0.22620435555E+02  0.21820205199E+02  0.16197513718E+03  0.16499624750E+03  0.10566000000E+00 0.  1.
        994    1    1    2    0    0  0.22574098138E+02 -0.17241754948E+02  0.54939449380E+01  0.17362745017E+03  0.17120000000E+03 0.  0.
        998    1    1    2    0    0  0.46337416635E-01 -0.45784502511E+01  0.13325309142E+04  0.13325763023E+04  0.10000000000E+02 0.  1.
</event>
<event>
 5    1  0.1675361E-008  0.3798092E+03  0.7957747E-01  0.3451990E+00
         13   -1    0    0    0    0  0.00000000000E+00  0.00000000000E+00  0.14999999963E+04  0.15000000000E+04  0.10566000000E+00 0. -1.
        994   -1    0    0    0    0 -0.00000000000E+00 -0.00000000000E+00  0.11368683772E-12  0.17120000000E+03  0.17120000000E+03 0.  0.
         13    1    1    2    0    0 -0.23585779297E+02 -0.33684411694E+02  0.45308672687E+02  0.61186726999E+02  0.10566000000E+00 0. -1.
        994    1    1    2    0    0  0.22987246159E+01  0.41232473667E+02  0.22423093516E+02  0.17753207074E+03  0.17120000000E+03 0.  0.
        998    1    1    2    0    0  0.21287054681E+02 -0.75480619722E+01  0.14322682301E+04  0.14324812023E+04  0.10000000000E+02 0. -1.
</event>
<event>
 5    1  0.1675361E-008  0.3832866E+03  0.7957747E-01  0.3436972E+00
         13   -1    0    0    0    0  0.00000000000E+00  0.00000000000E+00  0.14999999963E+04  0.15000000000E+04  0.10566000000E+00 0.  1.
        994   -1    0    0    0    0 -0.00000000000E+00 -0.00000000000E+00  0.11368683772E-12  0.17120000000E+03  0.17120000000E+03 0.  0.
         13    1    1    2    0    0  0.13319960921E+02  0.75143031487E+01  0.48963827454E+02  0.51296721861E+02  0.10566000000E+00 0.  1.
        994    1    1    2    0    0 -0.33604380249E-01  0.33352658850E+01  0.25199992493E+01  0.17125103072E+03  0.17120000000E+03 0.  0.
        998    1    1    2    0    0 -0.13286356541E+02 -0.10849569034E+02  0.14485161696E+04  0.14486522474E+04  0.10000000000E+02 0.  1.
</event>
<event>
 5    1  0.1675361E-008  0.3837939E+03  0.7957747E-01  0.3434804E+00
         13   -1    0    0    0    0  0.00000000000E+00  0.00000000000E+00  0.14999999963E+04  0.15000000000E+04  0.10566000000E+00 0.  1.
        994   -1    0    0    0    0 -0.00000000000E+00 -0.00000000000E+00  0.11368683772E-12  0.17120000000E+03  0.17120000000E+03 0.  0.
         13    1    1    2    0    0 -0.11159374511E+02  0.35428618508E+01  0.31874955811E+02  0.33957436322E+02  0.10566000000E+00 0.  1.
        994    1    1    2    0    0 -0.84225618995E+01 -0.50222391863E+01  0.25476926192E+01  0.17149954278E+03  0.17120000000E+03 0.  0.
        998    1    1    2    0    0  0.19581936410E+02  0.14793773355E+01  0.14655773478E+04  0.14657430209E+04  0.10000000000E+02 0.  1.
</event>
<event>
 5    1  0.1675361E-008  0.3827344E+03  0.7957747E-01  0.3439338E+00
         13   -1    0    0    0    0  0.00000000000E+00  0.00000000000E+00  0.14999999963E+04  0.15000000000E+04  0.10566000000E+00 0. -1.
        994   -1    0    0    0    0 -0.00000000000E+00 -0.00000000000E+00  0.11368683772E-12  0.17120000000E+03  0.17120000000E+03 0.  0.
         13    1    1    2    0    0  0.64858493810E+01  0.11939489648E+02  0.32831770539E+02  0.35532435548E+02  0.10566000000E+00 0. -1.
        994    1    1    2    0    0  0.15313909078E+01 -0.83240879394E+01  0.29965005616E+01  0.17143527821E+03  0.17120000000E+03 0.  0.
        998    1    1    2    0    0 -0.80172402888E+01 -0.36154017086E+01  0.14641717252E+04  0.14642322862E+04  0.10000000000E+02 0. -1.
</event>
<event>
 5    1  0.1675361E-008  0.3775481E+03  0.7957747E-01  0.3461905E+00
         13   -1    0    0    0    0  0.00000000000E+00  0.00000000000E+00  0.14999999963E+04  0.15000000000E+04  0.10566000000E+00 0. -1.
        994   -1    0    0    0    0 -0.00000000000E+00 -0.00000000000E+00  0.11368683772E-12  0.17120000000E+03  0.17120000000E+03 0.  0.
         13    1    1    2    0    0  0.92824264334E+01 -0.40441456140E+02  0.53506341029E+02  0.67709781491E+02  0.10566000000E+00 0. -1.
        994    1    1    2    0    0  0.12460674957E+02  0.20447891256E+02  0.17048728550E+02  0.17370516349E+03  0.17120000000E+03 0.  0.
        998    1    1    2    0    0 -0.21743101390E+02  0.19993564884E+02  0.14294449267E+04  0.14297850550E+04  0.10000000000E+02 0. -1.
</event>
<event>
 5    1  0.1675361E-008  0.3869787E+03  0.7957747E-01  0.3421323E+00
         13   -1    0    0    0    0  0.00000000000E+00  0.00000000000E+00  0.14999999963E+04  0.15000000000E+04  0.10566000000E+00 0.  1.
        994   -1    0    0    0    0 -0.00000000000E+00 -0.00000000000E+00  0.11368683772E-12  0.17120000000E+03  0.17120000000E+03 0.  0.
         13    1    1    2    0    0  0.35751580300E+01  0.87731954336E+02  0.16699529253E+03  0.18867198111E+03  0.10566000000E+00 0.  1.
        994    1    1    2    0    0 -0.10695502867E+02 -0.82988788288E+02  0.46749144921E+02  0.19620513580E+03  0.17120000000E+03 0.  0.
        998    1    1    2    0    0  0.71203448366E+01 -0.47431660484E+01  0.12862555588E+04  0.12863228831E+04  0.10000000000E+02 0.  1.
</event>
<event>
 5    1  0.1675361E-008  0.4129991E+03  0.7957747E-01  0.3318963E+00
         13   -1    0    0    0    0  0.00000000000E+00  0.00000000000E+00  0.14999999963E+04  0.15000000000E+04  0.10566000000E+00 0.  1.
        994   -1    0    0    0    0 -0.00000000000E+00 -0.00000000000E+00  0.11368683772E-12  0.17120000000E+03  0.17120000000E+03 0.  0.
         13    1    1    2    0    0  0.26650934050E+02  0.51426162077E+01 -0.46956435366E+01  0.27545943793E+02  0.10566000000E+00 0.  1.
        994    1    1    2    0    0 -0.20475546010E+02 -0.64170883431E+01  0.37699238733E+02  0.17661002126E+03  0.17120000000E+03 0.  0.
        998    1    1    2    0    0 -0.61753880399E+01  0.12744721354E+01  0.14669964011E+04  0.14670440350E+04  0.10000000000E+02 0.  1.
</event>
<event>
 5    1  0.1675361E-008  0.3856046E+03  0.7957747E-01  0.3427112E+00
         13   -1    0    0    0    0  0.00000000000E+00  0.00000000000E+00  0.14999999963E+04  0.15000000000E+04  0.10566000000E+00 0.  1.
        994   -1    0    0    0    0 -0.00000000000E+00 -0.00000000000E+00  0.11368683772E-12  0.17120000000E+03  0.17120000000E+03 0.  0.
         13    1    1    2    0    0 -0.44673228206E+01  0.10153794299E+02  0.45735944327E+02  0.47062132117E+02  0.10566000000E+00 0.  1.
        994    1    1    2    0    0  0.26473970015E+01 -0.10098657390E+02  0.16880743455E+01  0.17152632797E+03  0.17120000000E+03 0.  0.
        998    1    1    2    0    0  0.18199258191E+01 -0.55136909784E-01  0.14525759776E+04  0.14526115399E+04  0.10000000000E+02 0.  1.
</event>
<event>
 5    1  0.1675361E-008  0.3700428E+03  0.7957747E-01  0.3495694E+00
         13   -1    0    0    0    0  0.00000000000E+00  0.00000000000E+00  0.14999999963E+04  0.15000000000E+04  0.10566000000E+00 0.  1.
        994   -1    0    0    0    0 -0.00000000000E+00 -0.00000000000E+00  0.11368683772E-12  0.17120000000E+03  0.17120000000E+03 0.  0.
         13    1    1    2    0    0 -0.79104004445E+02 -0.29404695472E+02  0.31141139228E+03  0.32264399273E+03  0.10566000000E+00 0.  1.
        994    1    1    2    0    0  0.74804232398E+02  0.27710542983E+02  0.31579888070E+02  0.19149484773E+03  0.17120000000E+03 0.  0.
        998    1    1    2    0    0  0.42997720464E+01  0.16941524891E+01  0.11570087159E+04  0.11570611595E+04  0.10000000000E+02 0.  1.
</event>
<event>
 5    1  0.1844180E-008  0.3853182E+03  0.7957747E-01  0.3428324E+00
         13   -1    0    0    0    0  0.00000000000E+00  0.00000000000E+00  0.14999999963E+04  0.15000000000E+04  0.10566000000E+00 0. -1.
        994   -1    0    0    0    0 -0.00000000000E+00 -0.00000000000E+00  0.11368683772E-12  0.17120000000E+03  0.17120000000E+03 0.  0.
         13    1    1    2    0    0  0.11915152784E+02 -0.53770364492E+01  0.56543136670E+02  0.58034652194E+02  0.10566000000E+00 0. -1.
        994    1    1    2    0    0 -0.11186941240E+02  0.77706162608E+01  0.20819883802E+01  0.17175361658E+03  0.17120000000E+03 0.  0.
        998    1    1    2    0    0 -0.72821154375E+00 -0.23935798117E+01  0.14413748712E+04  0.14414117312E+04  0.10000000000E+02 0. -1.
</event>
<event>
 5    1  0.1675361E-008  0.3779930E+03  0.7957747E-01  0.3459944E+00
         13   -1    0    0    0    0  0.00000000000E+00  0.00000000000E+00  0.14999999963E+04  0.15000000000E+04  0.10566000000E+00 0.  1.
        994   -1    0    0    0    0 -0.00000000000E+00 -0.00000000000E+00  0.11368683772E-12  0.17120000000E+03  0.17120000000E+03 0.  0.
         13    1    1    2    0    0  0.45884756792E+01 -0.27589046020E+02  0.75472205217E+02  0.80487728840E+02  0.10566000000E+00 0.  1.
        994    1    1    2    0    0 -0.43538707768E+02  0.65951205137E+01  0.11703200832E+02  0.17715958794E+03  0.17120000000E+03 0.  0.
        998    1    1    2    0    0  0.38950232089E+02  0.20993925506E+02  0.14128245902E+04  0.14135526832E+04  0.10000000000E+02 0.  1.
</event>
<event>
 5    1  0.1675361E-008  0.3762026E+03  0.7957747E-01  0.3467862E+00
         13   -1    0    0    0    0  0.00000000000E+00  0.00000000000E+00  0.14999999963E+04  0.15000000000E+04  0.10566000000E+00 0.  1.
        994   -1    0    0    0    0 -0.00000000000E+00 -0.00000000000E+00  0.11368683772E-12  0.17120000000E+03  0.17120000000E+03 0.  0.
         13    1    1    2    0    0 -0.12763445727E+02  0.61517056805E+01  0.14035353731E+02  0.19943704470E+02  0.10566000000E+00 0.  1.
        994    1    1    2    0    0  0.61661594870E+01 -0.30903870919E+00  0.61915124610E+01  0.17142313687E+03  0.17120000000E+03 0.  0.
        998    1    1    2    0    0  0.65972862400E+01 -0.58426669713E+01  0.14797731301E+04  0.14798331587E+04  0.10000000000E+02 0.  1.
</event>
<event>
 5    1  0.1675361E-008  0.3742696E+03  0.7957747E-01  0.3476496E+00
         13   -1    0    0    0    0  0.00000000000E+00  0.00000000000E+00  0.14999999963E+04  0.15000000000E+04  0.10566000000E+00 0.  1.
        994   -1    0    0    0    0 -0.00000000000E+00 -0.00000000000E+00  0.11368683772E-12  0.17120000000E+03  0.17120000000E+03 0.  0.
         13    1    1    2    0    0  0.14873953970E+02  0.13879831596E+02  0.25930463552E+02  0.32958827890E+02  0.10566000000E+00 0.  1.
        994    1    1    2    0    0 -0.23010708807E+01 -0.27954542723E+02  0.97398515570E+01  0.17375573687E+03  0.17120000000E+03 0.  0.
        998    1    1    2    0    0 -0.12572883089E+02  0.14074711127E+02  0.14643296812E+04  0.14644854352E+04  0.10000000000E+02 0.  1.
</event>
<event>
 5    1  0.1675361E-008  0.3283898E+03  0.7957747E-01  0.3712107E+00
         13   -1    0    0    0    0  0.00000000000E+00  0.00000000000E+00  0.14999999963E+04  0.15000000000E+04  0.10566000000E+00 0.  1.
        994   -1    0    0    0    0 -0.00000000000E+00 -0.00000000000E+00  0.11368683772E-12  0.17120000000E+03  0.17120000000E+03 0.  0.
         13    1    1    2    0    0  0.12357105448E+03  0.21147208193E+03  0.77475224730E+03  0.81254618503E+03  0.10566000000E+00 0.  1.
        994    1    1    2    0    0 -0.95127897912E+02 -0.20097087790E+03  0.23125430161E+03  0.36362976053E+03  0.17120000000E+03 0.  0.
        998    1    1    2    0    0 -0.28443156567E+02 -0.10501204032E+02  0.49399344737E+03  0.49502405445E+03  0.10000000000E+02 0.  1.
</event>
<event>
 5    1  0.1675361E-008  0.3845030E+03  0.7957747E-01  0.3431783E+00
         13   -1    0    0    0    0  0.00000000000E+00  0.00000000000E+00  0.14999999963E+04  0.15000000000E+04  0.10566000000E+00 0. -1.
        994   -1    0    0    0    0 -0.00000000000E+00 -0.00000000000E+00  0.11368683772E-12  0.17120000000E+03  0.17120000000E+03 0.  0.
         13    1    1    2    0    0 -0.96556776975E+01 -0.52255104317E+01  0.31869356040E+02  0.33707641412E+02  0.10566000000E+00 0. -1.
        994    1    1    2    0    0  0.49580099830E+01  0.39828199148E+01  0.20103123416E+01  0.17132987502E+03  0.17120000000E+03 0.  0.
        998    1    1    2    0    0  0.46976677145E+01  0.12426905170E+01  0.14661203279E+04  0.14661624836E+04  0.10000000000E+02 0. -1.
</event>
<event>
 5    1  0.1675361E-008  0.3850205E+03  0.7957747E-01  0.3429585E+00
         13   -1    0    0    0    0  0.00000000000E+00  0.00000000000E+00  0.14999999963E+04  0.15000000000E+04  0.10566000000E+00 0. -1.
        994   -1    0    0    0    0 -0.00000000000E+00 -0.00000000000E+00  0.11368683772E-12  0.17120000000E+03  0.17120000000E+03 0.  0.
         13    1    1    2    0    0 -0.10792594973E+02  0.18053581360E+02  0.12247605694E+03  0.12426909348E+03  0.10566000000E+00 0. -1.
        994    1    1    2    0    0  0.12158378956E+02 -0.22864168410E+02  0.38282900826E+01  0.17318975773E+03  0.17120000000E+03 0.  0.
        998    1    1    2    0    0 -0.13657839828E+01  0.48105870493E+01  0.13736956493E+04  0.13737411488E+04  0.10000000000E+02 0. -1.
</event>
<event>
 5    1  0.1675361E-008  0.3844986E+03  0.7957747E-01  0.3431802E+00
         13   -1    0    0    0    0  0.00000000000E+00  0.00000000000E+00  0.14999999963E+04  0.15000000000E+04  0.10566000000E+00 0.  1.
        994   -1    0    0    0    0 -0.00000000000E+00 -0.00000000000E+00  0.11368683772E-12  0.17120000000E+03  0.17120000000E+03 0.  0.
         13    1    1    2    0    0  0.17068333678E+01 -0.17924842744E+02  0.83294628778E+02  0.85218657669E+02  0.10566000000E+00 0.  1.
        994    1    1    2    0    0  0.10968895667E+01  0.16629379226E+02  0.27947049664E+01  0.17203194412E+03  0.17120000000E+03 0.  0.
        998    1    1    2    0    0 -0.28037229345E+01  0.12954635178E+01  0.14139106625E+04  0.14139493982E+04  0.10000000000E+02 0.  1.
</event>
<event>
 5    1  0.1675361E-008  0.3813157E+03  0.7957747E-01  0.3445450E+00
         13   -1    0    0    0    0  0.00000000000E+00  0.00000000000E+00  0.14999999963E+04  0.15000000000E+04  0.10566000000E+00 0. -1.
        994   -1    0    0    0    0 -0.00000000000E+00 -0.00000000000E+00  0.11368683772E-12  0.17120000000E+03  0.17120000000E+03 0.  0.
         13    1    1    2    0    0  0.63796578617E+01 -0.17779729400E+02  0.51587930334E+02  0.54937642215E+02  0.10566000000E+00 0. -1.
        994    1    1    2    0    0  0.47777631851E-01  0.59223287003E+01  0.35872309295E+01  0.17133996757E+03  0.17120000000E+03 0.  0.
        998    1    1    2    0    0 -0.64274354935E+01  0.11857400699E+02  0.14448248350E+04  0.14449223902E+04  0.10000000000E+02 0. -1.
</event>
<event>
 5    1  0.1675361E-008  0.3850181E+03  0.7957747E-01  0.3429595E+00
         13   -1    0    0    0    0  0.00000000000E+00  0.00000000000E+00  0.14999999963E+04  0.15000000000E+04  0.10566000000E+00 0. -1.
        994   -1    0    0    0    0 -0.00000000000E+00 -0.00000000000E+00  0.11368683772E-12  0.17120000000E+03  0.17120000000E+03 0.  0.
         13    1    1    2    0    0  0.13899019722E+02  0.93219526199E+01  0.83323413589E+02  0.84987551830E+02  0.10566000000E+00 0. -1.
        994    1    1    2    0    0 -0.17104555490E+02 -0.33276657110E+01  0.26202911400E+01  0.17210445986E+03  0.17120000000E+03 0.  0.
        998    1    1    2    0    0  0.32055357687E+01 -0.59942869089E+01  0.14140562915E+04  0.14141079883E+04  0.10000000000E+02 0. -1.
</event>
<event>
 5    1  0.1675361E-008  0.3835748E+03  0.7957747E-01  0.3435739E+00
         13   -1    0    0    0    0  0.00000000000E+00  0.00000000000E+00  0.14999999963E+04  0.15000000000E+04  0.10566000000E+00 0. -1.
        994   -1    0    0    0    0 -0.00000000000E+00 -0.00000000000E+00  0.11368683772E-12  0.17120000000E+03  0.17120000000E+03 0.  0.
         13    1    1    2    0    0  0.17143782269E+01 -0.11018816186E+02  0.26825971223E+02  0.29051631606E+02  0.10566000000E+00 0. -1.
        994    1    1    2    0    0 -0.30443266353E+01 -0.33343277663E+01  0.24067232359E+01  0.17127643733E+03  0.17120000000E+03 0.  0.
        998    1    1    2    0    0  0.13299484084E+01  0.14353143952E+02  0.14707673018E+04  0.14708719311E+04  0.10000000000E+02 0. -1.
</event>
<event>
 5    1  0.1675361E-008  0.3850887E+03  0.7957747E-01  0.3429296E+00
         13   -1    0    0    0    0  0.00000000000E+00  0.00000000000E+00  0.14999999963E+04  0.15000000000E+04  0.10566000000E+00 0. -1.
        994   -1    0    0    0    0 -0.00000000000E+00 -0.00000000000E+00  0.11368683772E-12  0.17120000000E+03  0.17120000000E+03 0.  0.
         13    1    1    2    0    0  0.11748600123E+02  0.42778903890E+01  0.48220118985E+02  0.49814867158E+02  0.10566000000E+00 0. -1.
        994    1    1    2    0    0 -0.99708527649E+01 -0.84617668348E+01  0.21485516213E+01  0.17171218849E+03  0.17120000000E+03 0.  0.
        998    1    1    2    0    0 -0.17777473579E+01  0.41838764459E+01  0.14496313257E+04  0.14496729443E+04  0.10000000000E+02 0. -1.
</event>
<event>
 5    1  0.1675361E-008  0.3806634E+03  0.7957747E-01  0.3448275E+00
         13   -1    0    0    0    0  0.00000000000E+00  0.00000000000E+00  0.14999999963E+04  0.15000000000E+04  0.10566000000E+00 0. -1.
        994   -1    0    0    0    0 -0.00000000000E+00 -0.00000000000E+00  0.11368683772E-12  0.17120000000E+03  0.17120000000E+03 0.  0.
         13    1    1    2    0    0  0.11693356921E+02 -0.15177743885E+02  0.47064975654E+02  0.50815564573E+02  0.10566000000E+00 0. -1.
        994    1    1    2    0    0 -0.93039576663E+01  0.77010307130E+01  0.42853482978E+01  0.17167898448E+03  0.17120000000E+03 0.  0.
        998    1    1    2    0    0 -0.23893992549E+01  0.74767131722E+01  0.14486496723E+04  0.14487054509E+04  0.10000000000E+02 0. -1.
</event>
<event>
 5    1  0.1675361E-008  0.3858118E+03  0.7957747E-01  0.3426236E+00
         13   -1    0    0    0    0  0.00000000000E+00  0.00000000000E+00  0.14999999963E+04  0.15000000000E+04  0.10566000000E+00 0.  1.
        994   -1    0    0    0    0 -0.00000000000E+00 -0.00000000000E+00  0.11368683772E-12  0.17120000000E+03  0.17120000000E+03 0.  0.
         13    1    1    2    0    0  0.36739256457E+01 -0.11416524624E+02  0.61900033866E+02  0.63051249954E+02  0.10566000000E+00 0.  1.
        994    1    1    2    0    0  0.44827520552E+01  0.31038975806E+01  0.13251399378E+01  0.17129192988E+03  0.17120000000E+03 0.  0.
        998    1    1    2    0    0 -0.81566777009E+01  0.83126270430E+01  0.14367748225E+04  0.14368568202E+04  0.10000000000E+02 0.  1.
</event>
<event>
 5    1  0.1675361E-008  0.3816348E+03  0.7957747E-01  0.3444071E+00
         13   -1    0    0    0    0  0.00000000000E+00  0.00000000000E+00  0.14999999963E+04  0.15000000000E+04  0.10566000000E+00 0. -1.
        994   -1    0    0    0    0 -0.00000000000E+00 -0.00000000000E+00  0.11368683772E-12  0.17120000000E+03  0.17120000000E+03 0.  0.
         13    1    1    2    0    0 -0.14205166041E+02  0.11031736694E+01  0.30738050646E+02  0.33879826681E+02  0.10566000000E+00 0. -1.
        994    1    1    2    0    0 -0.34970549728E+01 -0.10885420255E+01  0.33547917425E+01  0.17127203200E+03  0.17120000000E+03 0.  0.
        998    1    1    2    0    0  0.17702221013E+02 -0.14631643897E-01  0.14659071539E+04  0.14660481413E+04  0.10000000000E+02 0. -1.
</event>
<event>
 5    1  0.1675361E-008  0.3812964E+03  0.7957747E-01  0.3445533E+00
         13   -1    0    0    0    0  0.00000000000E+00  0.00000000000E+00  0.14999999963E+04  0.15000000000E+04  0.10566000000E+00 0.  1.
        994   -1    0    0    0    0 -0.00000000000E+00 -0.00000000000E+00  0.11368683772E-12  0.17120000000E+03  0.17120000000E+03 0.  0.
         13    1    1    2    0    0  0.24856913745E+02 -0.15762770234E+02  0.11080645457E+03  0.11464908471E+03  0.10566000000E+00 0.  1.
        994    1    1    2    0    0 -0.27054710796E+02  0.25247427924E+02  0.80518492971E+01  0.17533870728E+03  0.17120000000E+03 0.  0.
        998    1    1    2    0    0  0.21977970513E+01 -0.94846576903E+01  0.13811416924E+04  0.13812122080E+04  0.10000000000E+02 0.  1.
</event>
<event>
 5    1  0.1675361E-008  0.3821058E+03  0.7957747E-01  0.3442040E+00
         13   -1    0    0    0    0  0.00000000000E+00  0.00000000000E+00  0.14999999963E+04  0.15000000000E+04  0.10566000000E+00 0.  1.
        994   -1    0    0    0    0 -0.00000000000E+00 -0.00000000000E+00  0.11368683772E-12  0.17120000000E+03  0.17120000000E+03 0.  0.
         13    1    1    2    0    0  0.75109058136E+01 -0.20203524382E+02  0.68156820005E+02  0.71483979889E+02  0.10566000000E+00 0.  1.
        994    1    1    2    0    0 -0.20687655951E+02  0.26897005975E+02  0.69058816068E+01  0.17466699528E+03  0.17120000000E+03 0.  0.
        998    1    1    2    0    0  0.13176750138E+02 -0.66934815934E+01  0.14249372947E+04  0.14250490248E+04  0.10000000000E+02 0.  1.
</event>
<event>
 5    1  0.1675361E-008  0.3758920E+03  0.7957747E-01  0.3469243E+00
         13   -1    0    0    0    0  0.00000000000E+00  0.00000000000E+00  0.14999999963E+04  0.15000000000E+04  0.10566000000E+00 0. -1.
        994   -1    0    0    0    0 -0.00000000000E+00 -0.00000000000E+00  0.11368683772E-12  0.17120000000E+03  0.17120000000E+03 0.  0.
         13    1    1    2    0    0 -0.49091103516E+02  0.17021253215E+02  0.20125731527E+03  0.20785614645E+03  0.10566000000E+00 0. -1.
        994    1    1    2    0    0  0.38754858707E+02 -0.12576196891E+02  0.11868257568E+02  0.17638139170E+03  0.17120000000E+03 0.  0.
        998    1    1    2    0    0  0.10336244809E+02 -0.44450563241E+01  0.12868744234E+04  0.12869624618E+04  0.10000000000E+02 0. -1.
</event>
<event>
 5    1  0.1675361E-008  0.3725228E+03  0.7957747E-01  0.3484376E+00
         13   -1    0    0    0    0  0.00000000000E+00  0.00000000000E+00  0.14999999963E+04  0.15000000000E+04  0.10566000000E+00 0.  1.
        994   -1    0    0    0    0 -0.00000000000E+00 -0.00000000000E+00  0.11368683772E-12  0.17120000000E+03  0.17120000000E+03 0.  0.
         13    1    1    2    0    0 -0.27264929546E+02  0.58957583933E+02  0.24043881730E+03  0.24905864593E+03  0.10566000000E+00 0.  1.
        994    1    1    2    0    0  0.32972858808E+02 -0.42221361971E+02  0.17858625616E+02  0.18027263612E+03  0.17120000000E+03 0.  0.
        998    1    1    2    0    0 -0.57079292619E+01 -0.16736221962E+02  0.12417025534E+04  0.12418687179E+04  0.10000000000E+02 0.  1.
</event>
<event>
 5    1  0.1675361E-008  0.3795852E+03  0.7957747E-01  0.3452967E+00
         13   -1    0    0    0    0  0.00000000000E+00  0.00000000000E+00  0.14999999963E+04  0.15000000000E+04  0.10566000000E+00 0.  1.
        994   -1    0    0    0    0 -0.00000000000E+00 -0.00000000000E+00  0.11368683772E-12  0.17120000000E+03  0.17120000000E+03 0.  0.
         13    1    1    2    0    0 -0.43314120746E+02  0.74547026078E+01  0.19797309444E+03  0.20279310376E+03  0.10566000000E+00 0.  1.
        994    1    1    2    0    0  0.40606899659E+02 -0.50210500184E+01  0.99673153145E+01  0.17630348442E+03  0.17120000000E+03 0.  0.
        998    1    1    2    0    0  0.27072210871E+01 -0.24336525894E+01  0.12920595865E+04  0.12921034118E+04  0.10000000000E+02 0.  1.
</event>
<event>
 5    1  0.1675361E-008  0.3808712E+03  0.7957747E-01  0.3447374E+00
         13   -1    0    0    0    0  0.00000000000E+00  0.00000000000E+00  0.14999999963E+04  0.15000000000E+04  0.10566000000E+00 0. -1.
        994   -1    0    0    0    0 -0.00000000000E+00 -0.00000000000E+00  0.11368683772E-12  0.17120000000E+03  0.17120000000E+03 0.  0.
         13    1    1    2    0    0 -0.57999539015E+01 -0.18713046682E+02  0.55156194696E+02  0.58532337718E+02  0.10566000000E+00 0. -1.
        994    1    1    2    0    0 -0.30517988868E+01 -0.75111796863E+01  0.39131611673E+01  0.17143653090E+03  0.17120000000E+03 0.  0.
        998    1    1    2    0    0  0.88517527883E+01  0.26224226368E+02  0.14409306404E+04  0.14412311314E+04  0.10000000000E+02 0. -1.
</event>
<event>
 5    1  0.1675361E-008  0.3710971E+03  0.7957747E-01  0.3490864E+00
         13   -1    0    0    0    0  0.00000000000E+00  0.00000000000E+00  0.14999999963E+04  0.15000000000E+04  0.10566000000E+00 0. -1.
        994   -1    0    0    0    0 -0.00000000000E+00 -0.00000000000E+00  0.11368683772E-12  0.17120000000E+03  0.17120000000E+03 0.  0.
         13    1    1    2    0    0  0.31026257712E+02 -0.13786887744E+02  0.40460489573E+02  0.52818266932E+02  0.10566000000E+00 0. -1.
        994    1    1    2    0    0 -0.44224475594E+02  0.63699488635E+02  0.32934278216E+02  0.19080758836E+03  0.17120000000E+03 0.  0.
        998    1    1    2    0    0  0.13198217882E+02 -0.49912600891E+02  0.14266052285E+04  0.14275741447E+04  0.10000000000E+02 0. -1.
</event>
<event>
 5    1  0.1675361E-008  0.3749192E+03  0.7957747E-01  0.3473584E+00
         13   -1    0    0    0    0  0.00000000000E+00  0.00000000000E+00  0.14999999963E+04  0.15000000000E+04  0.10566000000E+00 0.  1.
        994   -1    0    0    0    0 -0.00000000000E+00 -0.00000000000E+00  0.11368683772E-12  0.17120000000E+03  0.17120000000E+03 0.  0.
         13    1    1    2    0    0 -0.59333968817E+02 -0.59767361671E+01  0.22721627325E+03  0.23491165834E+03  0.10566000000E+00 0.  1.
        994    1    1    2    0    0  0.55877767124E+02  0.17820312322E+02  0.18507600607E+02  0.18191168096E+03  0.17120000000E+03 0.  0.
        998    1    1    2    0    0  0.34562016933E+01 -0.11843576155E+02  0.12542761224E+04  0.12543766607E+04  0.10000000000E+02 0.  1.
</event>
<event>
 5    1  0.1675361E-008  0.3854784E+03  0.7957747E-01  0.3427646E+00
         13   -1    0    0    0    0  0.00000000000E+00  0.00000000000E+00  0.14999999963E+04  0.15000000000E+04  0.10566000000E+00 0.  1.
        994   -1    0    0    0    0 -0.00000000000E+00 -0.00000000000E+00  0.11368683772E-12  0.17120000000E+03  0.17120000000E+03 0.  0.
         13    1    1    2    0    0 -0.50400940443E+01 -0.14192765057E+02  0.82372699825E+02  0.83738342283E+02  0.10566000000E+00 0.  1.
        994    1    1    2    0    0  0.48738968555E+01  0.77783595221E+01  0.16695201657E+01  0.17145403187E+03  0.17120000000E+03 0.  0.
        998    1    1    2    0    0  0.16619718879E+00  0.64144055351E+01  0.14159577763E+04  0.14160076258E+04  0.10000000000E+02 0.  1.
</event>
<event>
 5    1  0.1675361E-008  0.3819380E+03  0.7957747E-01  0.3442763E+00
         13   -1    0    0    0    0  0.00000000000E+00  0.00000000000E+00  0.14999999963E+04  0.15000000000E+04  0.10566000000E+00 0.  1.
        994   -1    0    0    0    0 -0.00000000000E+00 -0.00000000000E+00  0.11368683772E-12  0.17120000000E+03  0.17120000000E+03 0.  0.
         13    1    1    2    0    0  0.16038696118E+02 -0.28895819100E+02  0.13141996823E+03  0.13551172402E+03  0.10566000000E+00 0.  1.
        994    1    1    2    0    0 -0.41202197841E+02  0.47756936430E+02  0.16487213969E+02  0.18319283367E+03  0.17120000000E+03 0.  0.
        998    1    1    2    0    0  0.25163501722E+02 -0.18861117330E+02  0.13520928141E+04  0.13524954423E+04  0.10000000000E+02 0.  1.
</event>
<event>
 5    1  0.1675361E-008  0.3813712E+03  0.7957747E-01  0.3445210E+00
         13   -1    0    0    0    0  0.00000000000E+00  0.00000000000E+00  0.14999999963E+04  0.15000000000E+04  0.10566000000E+00 0. -1.
        994   -1    0    0    0    0 -0.00000000000E+00 -0.00000000000E+00  0.11368683772E-12  0.17120000000E+03  0.17120000000E+03 0.  0.
         13    1    1    2    0    0  0.35196330177E+01  0.16580560659E+02  0.41114761563E+02  0.44471761723E+02  0.10566000000E+00 0. -1.
        994    1    1    2    0    0  0.60771341173E+01 -0.85209671140E+01  0.38071878926E+01  0.17156186383E+03  0.17120000000E+03 0.  0.
        998    1    1    2    0    0 -0.95967671350E+01 -0.80595935448E+01  0.14550780468E+04  0.14551663745E+04  0.10000000000E+02 0. -1.
</event>
<event>
 5    1  0.1675361E-008  0.3702434E+03  0.7957747E-01  0.3494773E+00
         13   -1    0    0    0    0  0.00000000000E+00  0.00000000000E+00  0.14999999963E+04  0.15000000000E+04  0.10566000000E+00 0. -1.
        994   -1    0    0    0    0 -0.00000000000E+00 -0.00000000000E+00  0.11368683772E-12  0.17120000000E+03  0.17120000000E+03 0.  0.
         13    1    1    2    0    0 -0.16305328381E+02  0.25028043460E+02  0.35956584432E+02  0.46745628898E+02  0.10566000000E+00 0. -1.
        994    1    1    2    0    0  0.40047513261E+01 -0.21389875824E+02  0.12726307743E+02  0.17304613180E+03  0.17120000000E+03 0.  0.
        998    1    1    2    0    0  0.12300577055E+02 -0.36381676357E+01  0.14513171041E+04  0.14514082393E+04  0.10000000000E+02 0. -1.
</event>
<event>
 5    1  0.1675361E-008  0.3707111E+03  0.7957747E-01  0.3492629E+00
         13   -1    0    0    0    0  0.00000000000E+00  0.00000000000E+00  0.14999999963E+04  0.15000000000E+04  0.10566000000E+00 0. -1.
        994   -1    0    0    0    0 -0.00000000000E+00 -0.00000000000E+00  0.11368683772E-12  0.17120000000E+03  0.17120000000E+03 0.  0.
         13    1    1    2    0    0 -0.43743151350E-01  0.30107772702E+02  0.51303531972E+02  0.59485657493E+02  0.10566000000E+00 0. -1.
        994    1    1    2    0    0 -0.10058540378E+02  0.64880689560E+01  0.93921876064E+01  0.17187472898E+03  0.17120000000E+03 0.  0.
        998    1    1    2    0    0  0.10102283529E+02 -0.36595841658E+02  0.14393042767E+04  0.14398396135E+04  0.10000000000E+02 0. -1.
</event>
<event>
 5    1  0.1675361E-008  0.3938755E+03  0.7957747E-01  0.3392881E+00
         13   -1    0    0    0    0  0.00000000000E+00  0.00000000000E+00  0.14999999963E+04  0.15000000000E+04  0.10566000000E+00 0. -1.
        994   -1    0    0    0    0 -0.00000000000E+00 -0.00000000000E+00  0.11368683772E-12  0.17120000000E+03  0.17120000000E+03 0.  0.
         13    1    1    2    0    0 -0.88757072604E+01  0.15404278330E+03  0.32823027873E+03  0.36268868786E+03  0.10566000000E+00 0. -1.
        994    1    1    2    0    0  0.16958679670E+01 -0.16841471408E+03  0.14287843692E+03  0.27944602274E+03  0.17120000000E+03 0.  0.
        998    1    1    2    0    0  0.71798392934E+01  0.14371930786E+02  0.10288912806E+04  0.10290652894E+04  0.10000000000E+02 0. -1.
</event>
<event>
 5    1  0.1675361E-008  0.3787544E+03  0.7957747E-01  0.3456600E+00
         13   -1    0    0    0    0  0.00000000000E+00  0.00000000000E+00  0.14999999963E+04  0.15000000000E+04  0.10566000000E+00 0.  1.
        994   -1    0    0    0    0 -0.00000000000E+00 -0.00000000000E+00  0.11368683772E-12  0.17120000000E+03  0.17120000000E+03 0.  0.
         13    1    1    2    0    0  0.10430018215E+02 -0.50350543242E+00  0.98294432992E+01  0.14341126779E+02  0.10566000000E+00 0.  1.
        994    1    1    2    0    0  0.16684591106E+02  0.79259201422E+00  0.57003377647E+01  0.17210734334E+03  0.17120000000E+03 0.  0.
        998    1    1    2    0    0 -0.27114609322E+02 -0.28908658180E+00  0.14844702152E+04  0.14847515299E+04  0.10000000000E+02 0.  1.
</event>
<event>
 5    1  0.1675361E-008  0.3834262E+03  0.7957747E-01  0.3436374E+00
         13   -1    0    0    0    0  0.00000000000E+00  0.00000000000E+00  0.14999999963E+04  0.15000000000E+04  0.10566000000E+00 0.  1.
        994   -1    0    0    0    0 -0.00000000000E+00 -0.00000000000E+00  0.11368683772E-12  0.17120000000E+03  0.17120000000E+03 0.  0.
         13    1    1    2    0    0  0.83951471070E+01 -0.88733379045E+01  0.29895326727E+02  0.32294834644E+02  0.10566000000E+00 0.  1.
        994    1    1    2    0    0 -0.46416194016E+01  0.10192890369E+02  0.28282478837E+01  0.17158927306E+03  0.17120000000E+03 0.  0.
        998    1    1    2    0    0 -0.37535277055E+01 -0.13195524641E+01  0.14672764217E+04  0.14673158923E+04  0.10000000000E+02 0.  1.
</event>
<event>
 5    1  0.1675361E-008  0.3842720E+03  0.7957747E-01  0.3432766E+00
         13   -1    0    0    0    0  0.00000000000E+00  0.00000000000E+00  0.14999999963E+04  0.15000000000E+04  0.10566000000E+00 0.  1.
        994   -1    0    0    0    0 -0.00000000000E+00 -0.00000000000E+00  0.11368683772E-12  0.17120000000E+03  0.17120000000E+03 0.  0.
         13    1    1    2    0    0 -0.84717824807E+01 -0.15393037879E+02  0.81792688469E+02  0.83658662221E+02  0.10566000000E+00 0.  1.
        994    1    1    2    0    0 -0.31134148439E+00  0.29276493558E+01  0.20206039211E+01  0.17123723574E+03  0.17120000000E+03 0.  0.
        998    1    1    2    0    0  0.87831239651E+01  0.12465388523E+02  0.14161867039E+04  0.14163041020E+04  0.10000000000E+02 0.  1.
</event>
<event>
 5    1  0.1675361E-008  0.4203983E+03  0.7957747E-01  0.3292148E+00
         13   -1    0    0    0    0  0.00000000000E+00  0.00000000000E+00  0.14999999963E+04  0.15000000000E+04  0.10566000000E+00 0. -1.
        994   -1    0    0    0    0 -0.00000000000E+00 -0.00000000000E+00  0.11368683772E-12  0.17120000000E+03  0.17120000000E+03 0.  0.
         13    1    1    2    0    0 -0.78074338245E+02  0.23478154309E+02  0.68768722285E+02  0.10665821277E+03  0.10566000000E+00 0. -1.
        994    1    1    2    0    0  0.70477276961E+02 -0.52468374278E+01  0.62269301237E+02  0.19540082330E+03  0.17120000000E+03 0.  0.
        998    1    1    2    0    0  0.75970612846E+01 -0.18231316881E+02  0.13689619728E+04  0.13691409639E+04  0.10000000000E+02 0. -1.
</event>
<event>
 5    1  0.1675361E-008  0.3836541E+03  0.7957747E-01  0.3435400E+00
         13   -1    0    0    0    0  0.00000000000E+00  0.00000000000E+00  0.14999999963E+04  0.15000000000E+04  0.10566000000E+00 0.  1.
        994   -1    0    0    0    0 -0.00000000000E+00 -0.00000000000E+00  0.11368683772E-12  0.17120000000E+03  0.17120000000E+03 0.  0.
         13    1    1    2    0    0 -0.11690541356E+02 -0.14898108731E+02  0.80181923203E+02  0.82387950415E+02  0.10566000000E+00 0.  1.
        994    1    1    2    0    0  0.19549005268E+02 -0.68100132696E+01  0.37165864795E+01  0.17248708039E+03  0.17120000000E+03 0.  0.
        998    1    1    2    0    0 -0.78584639127E+01  0.21708122001E+02  0.14161014866E+04  0.14163249692E+04  0.10000000000E+02 0.  1.
</event>
<event>
 5    1  0.1675361E-008  0.3861236E+03  0.7957747E-01  0.3424921E+00
         13   -1    0    0    0    0  0.00000000000E+00  0.00000000000E+00  0.14999999963E+04  0.15000000000E+04  0.10566000000E+00 0.  1.
        994   -1    0    0    0    0 -0.00000000000E+00 -0.00000000000E+00  0.11368683772E-12  0.17120000000E+03  0.17120000000E+03 0.  0.
         13    1    1    2    0    0  0.37002293465E+02  0.17749802890E+02  0.32039080535E+02  0.52064758426E+02  0.10566000000E+00 0.  1.
        994    1    1    2    0    0 -0.75101641114E+02  0.77471326917E+01  0.41184875329E+02  0.19158786109E+03  0.17120000000E+03 0.  0.
        998    1    1    2    0    0  0.38099347649E+02 -0.25496935582E+02  0.14267760404E+04  0.14275473805E+04  0.10000000000E+02 0.  1.
</event>
<event>
 5    1  0.1675361E-008  0.3821846E+03  0.7957747E-01  0.3441701E+00
         13   -1    0    0    0    0  0.00000000000E+00  0.00000000000E+00  0.14999999963E+04  0.15000000000E+04  0.10566000000E+00 0. -1.
        994   -1    0    0    0    0 -0.00000000000E+00 -0.00000000000E+00  0.11368683772E-12  0.17120000000E+03  0.17120000000E+03 0.  0.
         13    1    1    2    0    0 -0.10402326759E+02 -0.12345435177E+02  0.40529082867E+02  0.43626091892E+02  0.10566000000E+00 0. -1.
        994    1    1    2    0    0  0.11369437831E+02  0.15722098956E+02  0.42848076004E+01  0.17234920391E+03  0.17120000000E+03 0.  0.
        998    1    1    2    0    0 -0.96711107201E+00 -0.33766637792E+01  0.14551861058E+04  0.14552247042E+04  0.10000000000E+02 0. -1.
</event>
<event>
 5    1  0.1675361E-008  0.3838683E+03  0.7957747E-01  0.3434486E+00
         13   -1    0    0    0    0  0.00000000000E+00  0.00000000000E+00  0.14999999963E+04  0.15000000000E+04  0.10566000000E+00 0. -1.
        994   -1    0    0    0    0 -0.00000000000E+00 -0.00000000000E+00  0.11368683772E-12  0.17120000000E+03  0.17120000000E+03 0.  0.
         13    1    1    2    0    0  0.12285255096E+02  0.98870394732E+00  0.34726046472E+02  0.36848534515E+02  0.10566000000E+00 0. -1.
        994    1    1    2    0    0 -0.34967549639E+01 -0.35021140633E+00  0.22338289589E+01  0.17125063485E+03  0.17120000000E+03 0.  0.
        998    1    1    2    0    0 -0.87885001324E+01 -0.63849254100E+00  0.14630401208E+04  0.14631008306E+04  0.10000000000E+02 0. -1.
</event>
<event>
 5    1  0.1675361E-008  0.3891255E+03  0.7957747E-01  0.3412362E+00
         13   -1    0    0    0    0  0.00000000000E+00  0.00000000000E+00  0.14999999963E+04  0.15000000000E+04  0.10566000000E+00 0.  1.
        994   -1    0    0    0    0 -0.00000000000E+00 -0.00000000000E+00  0.11368683772E-12  0.17120000000E+03  0.17120000000E+03 0.  0.
         13    1    1    2    0    0 -0.45046128390E+02  0.10188760109E+03  0.24958907791E+03  0.27332207360E+03  0.10566000000E+00 0.  1.
        994    1    1    2    0    0  0.16846532069E+02 -0.99376104623E+02  0.60623196077E+02  0.20771140488E+03  0.17120000000E+03 0.  0.
        998    1    1    2    0    0  0.28199596321E+02 -0.25114964710E+01  0.11897877223E+04  0.11901665215E+04  0.10000000000E+02 0.  1.
</event>
<event>
 5    1  0.1675361E-008  0.3792221E+03  0.7957747E-01  0.3454553E+00
         13   -1    0    0    0    0  0.00000000000E+00  0.00000000000E+00  0.14999999963E+04  0.15000000000E+04  0.10566000000E+00 0.  1.
        994   -1    0    0    0    0 -0.00000000000E+00 -0.00000000000E+00  0.11368683772E-12  0.17120000000E+03  0.17120000000E+03 0.  0.
         13    1    1    2    0    0  0.38934991227E+02  0.16314138723E+01  0.20591441174E+03  0.20956944238E+03  0.10566000000E+00 0.  1.
        994    1    1    2    0    0  0.63169744979E+01 -0.11295789990E+02  0.50879359468E+01  0.17176386736E+03  0.17120000000E+03 0.  0.
        998    1    1    2    0    0 -0.45251965725E+02  0.96643761173E+01  0.12889976486E+04  0.12898666903E+04  0.10000000000E+02 0.  1.
</event>
<event>
 5    1  0.1675361E-008  0.3833921E+03  0.7957747E-01  0.3436520E+00
         13   -1    0    0    0    0  0.00000000000E+00  0.00000000000E+00  0.14999999963E+04  0.15000000000E+04  0.10566000000E+00 0. -1.
        994   -1    0    0    0    0 -0.00000000000E+00 -0.00000000000E+00  0.11368683772E-12  0.17120000000E+03  0.17120000000E+03 0.  0.
         13    1    1    2    0    0  0.16413391207E+02  0.15225526783E+02  0.10150451101E+03  0.10394418212E+03  0.10566000000E+00 0. -1.
        994    1    1    2    0    0 -0.10183164166E+02 -0.11610790382E+02  0.32194024564E+01  0.17192530889E+03  0.17120000000E+03 0.  0.
        998    1    1    2    0    0 -0.62302270418E+01 -0.36147364015E+01  0.13952760828E+04  0.13953305090E+04  0.10000000000E+02 0. -1.
</event>
<event>
 5    1  0.1675361E-008  0.3857654E+03  0.7957747E-01  0.3426432E+00
         13   -1    0    0    0    0  0.00000000000E+00  0.00000000000E+00  0.14999999963E+04  0.15000000000E+04  0.10566000000E+00 0.  1.
        994   -1    0    0    0    0 -0.00000000000E+00 -0.00000000000E+00  0.11368683772E-12  0.17120000000E+03  0.17120000000E+03 0.  0.
         13    1    1    2    0    0 -0.29598092506E+01 -0.17473120891E+02  0.10584255513E+03  0.10731601961E+03  0.10566000000E+00 0.  1.
        994    1    1    2    0    0 -0.20201361552E+02  0.36524386836E+02  0.69866354114E+01  0.17635299520E+03  0.17120000000E+03 0.  0.
        998    1    1    2    0    0  0.23161170802E+02 -0.19051265944E+02  0.13871708057E+04  0.13875309852E+04  0.10000000000E+02 0.  1.
</event>
<event>
 5    1  0.1675361E-008  0.3708878E+03  0.7957747E-01  0.3491820E+00
         13   -1    0    0    0    0  0.00000000000E+00  0.00000000000E+00  0.14999999963E+04  0.15000000000E+04  0.10566000000E+00 0. -1.
        994   -1    0    0    0    0 -0.00000000000E+00 -0.00000000000E+00  0.11368683772E-12  0.17120000000E+03  0.17120000000E+03 0.  0.
         13    1    1    2    0    0  0.96310764107E+02 -0.15599133463E+02  0.52048747243E+03  0.52955294010E+03  0.10566000000E+00 0. -1.
        994    1    1    2    0    0 -0.62288481431E+02 -0.64990305388E+01  0.22449397721E+02  0.18367228363E+03  0.17120000000E+03 0.  0.
        998    1    1    2    0    0 -0.34022282677E+02  0.22098164002E+02  0.95706312613E+03  0.95797477627E+03  0.10000000000E+02 0. -1.
</event>
<event>
 5    1  0.1675361E-008  0.3813639E+03  0.7957747E-01  0.3445241E+00
         13   -1    0    0    0    0  0.00000000000E+00  0.00000000000E+00  0.14999999963E+04  0.15000000000E+04  0.10566000000E+00 0. -1.
        994   -1    0    0    0    0 -0.00000000000E+00 -0.00000000000E+00  0.11368683772E-12  0.17120000000E+03  0.17120000000E+03 0.  0.
         13    1    1    2    0    0  0.12413676884E+02 -0.13717645743E+01  0.21188002614E+02  0.24595197308E+02  0.10566000000E+00 0. -1.
        994    1    1    2    0    0 -0.10016444252E+02 -0.22534376562E+01  0.37970906496E+01  0.17154959934E+03  0.17120000000E+03 0.  0.
        998    1    1    2    0    0 -0.23972326318E+01  0.36252022304E+01  0.14750149030E+04  0.14750552034E+04  0.10000000000E+02 0. -1.
</event>
<event>
 5    1  0.1675361E-008  0.3802927E+03  0.7957747E-01  0.3449885E+00
         13   -1    0    0    0    0  0.00000000000E+00  0.00000000000E+00  0.14999999963E+04  0.15000000000E+04  0.10566000000E+00 0. -1.
        994   -1    0    0    0    0 -0.00000000000E+00 -0.00000000000E+00  0.11368683772E-12  0.17120000000E+03  0.17120000000E+03 0.  0.
         13    1    1    2    0    0 -0.59839218789E+01  0.14925271482E+02  0.27315539343E+02  0.31697332750E+02  0.10566000000E+00 0. -1.
        994    1    1    2    0    0 -0.57599791890E+02 -0.76294008723E+02  0.35134386809E+02  0.19920435971E+03  0.17120000000E+03 0.  0.
        998    1    1    2    0    0  0.63583713769E+02  0.61368737241E+02  0.14375500701E+04  0.14402983075E+04  0.10000000000E+02 0. -1.
</event>
<event>
 5    1  0.1675361E-008  0.3859045E+03  0.7957747E-01  0.3425845E+00
         13   -1    0    0    0    0  0.00000000000E+00  0.00000000000E+00  0.14999999963E+04  0.15000000000E+04  0.10566000000E+00 0. -1.
        994   -1    0    0    0    0 -0.00000000000E+00 -0.00000000000E+00  0.11368683772E-12  0.17120000000E+03  0.17120000000E+03 0.  0.
         13    1    1    2    0    0  0.84524976252E+01 -0.84058034454E+01  0.64082970437E+02  0.65182363502E+02  0.10566000000E+00 0. -1.
        994    1    1    2    0    0 -0.88874646992E+01 -0.75997571542E+01  0.16302618629E+01  0.17160664641E+03  0.17120000000E+03 0.  0.
        998    1    1    2    0    0  0.43496707396E+00  0.16005560600E+02  0.14342867640E+04  0.14344109901E+04  0.10000000000E+02 0. -1.
</event>
<event>
 5    1  0.1675361E-008  0.3768274E+03  0.7957747E-01  0.3465090E+00
         13   -1    0    0    0    0  0.00000000000E+00  0.00000000000E+00  0.14999999963E+04  0.15000000000E+04  0.10566000000E+00 0. -1.
        994   -1    0    0    0    0 -0.00000000000E+00 -0.00000000000E+00  0.11368683772E-12  0.17120000000E+03  0.17120000000E+03 0.  0.
         13    1    1    2    0    0  0.31207607164E+02  0.31171534180E+02  0.18447775374E+03  0.18967770580E+03  0.10566000000E+00 0. -1.
        994    1    1    2    0    0 -0.15792475729E+02  0.13979394813E+01  0.65929091536E+01  0.17205889392E+03  0.17120000000E+03 0.  0.
        998    1    1    2    0    0 -0.15415131435E+02 -0.32569473661E+02  0.13089293334E+04  0.13094634003E+04  0.10000000000E+02 0. -1.
</event>
<event>
 5    1  0.1675361E-008  0.3790827E+03  0.7957747E-01  0.3455162E+00
         13   -1    0    0    0    0  0.00000000000E+00  0.00000000000E+00  0.14999999963E+04  0.15000000000E+04  0.10566000000E+00 0.  1.
        994   -1    0    0    0    0 -0.00000000000E+00 -0.00000000000E+00  0.11368683772E-12  0.17120000000E+03  0.17120000000E+03 0.  0.
         13    1    1    2    0    0  0.56227378901E+01 -0.13384015108E+02  0.20216433842E+02  0.24889001650E+02  0.10566000000E+00 0.  1.
        994    1    1    2    0    0 -0.23278729720E+01  0.25421474791E+02  0.67850899802E+01  0.17322571350E+03  0.17120000000E+03 0.  0.
        998    1    1    2    0    0 -0.32948649180E+01 -0.12037459683E+02  0.14729984725E+04  0.14730852848E+04  0.10000000000E+02 0.  1.
</event>
<event>
 5    1  0.1675361E-008  0.3792068E+03  0.7957747E-01  0.3454620E+00
         13   -1    0    0    0    0  0.00000000000E+00  0.00000000000E+00  0.14999999963E+04  0.15000000000E+04  0.10566000000E+00 0.  1.
        994   -1    0    0    0    0 -0.00000000000E+00 -0.00000000000E+00  0.11368683772E-12  0.17120000000E+03  0.17120000000E+03 0.  0.
         13    1    1    2    0    0  0.16651272734E+02  0.30232240145E+01  0.29328642202E+02  0.33861263777E+02  0.10566000000E+00 0.  1.
        994    1    1    2    0    0 -0.16800056849E+02  0.56387731178E+00  0.54817133358E+01  0.17211057216E+03  0.17120000000E+03 0.  0.
        998    1    1    2    0    0  0.14878411492E+00 -0.35871013263E+01  0.14651896407E+04  0.14652281641E+04  0.10000000000E+02 0.  1.
</event>
<event>
 5    1  0.1675361E-008  0.3770314E+03  0.7957747E-01  0.3464187E+00
         13   -1    0    0    0    0  0.00000000000E+00  0.00000000000E+00  0.14999999963E+04  0.15000000000E+04  0.10566000000E+00 0.  1.
        994   -1    0    0    0    0 -0.00000000000E+00 -0.00000000000E+00  0.11368683772E-12  0.17120000000E+03  0.17120000000E+03 0.  0.
         13    1    1    2    0    0 -0.37625701702E+01  0.21688172164E+02  0.36856683074E+02  0.42929709961E+02  0.10566000000E+00 0.  1.
        994    1    1    2    0    0  0.15287436840E+02 -0.45600421859E+02  0.13488644815E+02  0.17833812755E+03  0.17120000000E+03 0.  0.
        998    1    1    2    0    0 -0.11524866670E+02  0.23912249695E+02  0.14496546684E+04  0.14499321625E+04  0.10000000000E+02 0.  1.
</event>
<event>
 5    1  0.1675361E-008  0.3809268E+03  0.7957747E-01  0.3447133E+00
         13   -1    0    0    0    0  0.00000000000E+00  0.00000000000E+00  0.14999999963E+04  0.15000000000E+04  0.10566000000E+00 0.  1.
        994   -1    0    0    0    0 -0.00000000000E+00 -0.00000000000E+00  0.11368683772E-12  0.17120000000E+03  0.17120000000E+03 0.  0.
         13    1    1    2    0    0  0.31765026685E+02  0.29661859726E+02  0.21642970636E+03  0.22075024757E+03  0.10566000000E+00 0.  1.
        994    1    1    2    0    0 -0.33775758336E+02 -0.31714397567E+02  0.10853359381E+02  0.17769029313E+03  0.17120000000E+03 0.  0.
        998    1    1    2    0    0  0.20107316503E+01  0.20525378415E+01  0.12727169305E+04  0.12727594593E+04  0.10000000000E+02 0.  1.
</event>
<event>
 5    1  0.1675361E-008  0.3801529E+03  0.7957747E-01  0.3450493E+00
         13   -1    0    0    0    0  0.00000000000E+00  0.00000000000E+00  0.14999999963E+04  0.15000000000E+04  0.10566000000E+00 0. -1.
        994   -1    0    0    0    0 -0.00000000000E+00 -0.00000000000E+00  0.11368683772E-12  0.17120000000E+03  0.17120000000E+03 0.  0.
         13    1    1    2    0    0  0.51178068989E+01 -0.88009476836E+01  0.10881601628E+02  0.14901981265E+02  0.10566000000E+00 0. -1.
        994    1    1    2    0    0 -0.30389499407E+01  0.11760273089E+02  0.45490933841E+01  0.17169063309E+03  0.17120000000E+03 0.  0.
        998    1    1    2    0    0 -0.20788569582E+01 -0.29593254059E+01  0.14845693013E+04  0.14846073856E+04  0.10000000000E+02 0. -1.
</event>
<event>
 5    1  0.1675361E-008  0.3785849E+03  0.7957747E-01  0.3457343E+00
         13   -1    0    0    0    0  0.00000000000E+00  0.00000000000E+00  0.14999999963E+04  0.15000000000E+04  0.10566000000E+00 0. -1.
        994   -1    0    0    0    0 -0.00000000000E+00 -0.00000000000E+00  0.11368683772E-12  0.17120000000E+03  0.17120000000E+03 0.  0.
         13    1    1    2    0    0 -0.49271343340E+01 -0.10862660636E+02  0.12826064199E+02  0.17515511289E+02  0.10566000000E+00 0. -1.
        994    1    1    2    0    0  0.36519766901E+01 -0.29557414191E+01  0.49233380280E+01  0.17133520537E+03  0.17120000000E+03 0.  0.
        998    1    1    2    0    0  0.12751576438E+01  0.13818402055E+02  0.14822505941E+04  0.14823492833E+04  0.10000000000E+02 0. -1.
</event>
<event>
 5    1  0.1675361E-008  0.3817725E+03  0.7957747E-01  0.3443477E+00
         13   -1    0    0    0    0  0.00000000000E+00  0.00000000000E+00  0.14999999963E+04  0.15000000000E+04  0.10566000000E+00 0. -1.
        994   -1    0    0    0    0 -0.00000000000E+00 -0.00000000000E+00  0.11368683772E-12  0.17120000000E+03  0.17120000000E+03 0.  0.
         13    1    1    2    0    0  0.67482530132E+01 -0.93064503039E+01  0.19285094997E+02  0.22451614398E+02  0.10566000000E+00 0. -1.
        994    1    1    2    0    0  0.93945918554E+00  0.61725369614E+01  0.33706554777E+01  0.17134696996E+03  0.17120000000E+03 0.  0.
        998    1    1    2    0    0 -0.76877121988E+01  0.31339133425E+01  0.14773442458E+04  0.14774014156E+04  0.10000000000E+02 0. -1.
</event>
<event>
 5    1  0.1675361E-008  0.3827191E+03  0.7957747E-01  0.3439404E+00
         13   -1    0    0    0    0  0.00000000000E+00  0.00000000000E+00  0.14999999963E+04  0.15000000000E+04  0.10566000000E+00 0.  1.
        994   -1    0    0    0    0 -0.00000000000E+00 -0.00000000000E+00  0.11368683772E-12  0.17120000000E+03  0.17120000000E+03 0.  0.
         13    1    1    2    0    0 -0.53987537514E+01  0.90542089212E+01  0.19329702928E+02  0.22017579808E+02  0.10566000000E+00 0.  1.
        994    1    1    2    0    0  0.18010878485E+01 -0.13488705837E+01  0.27835832010E+01  0.17123741327E+03  0.17120000000E+03 0.  0.
        998    1    1    2    0    0  0.35976659029E+01 -0.77053383375E+01  0.14778867101E+04  0.14779450069E+04  0.10000000000E+02 0.  1.
</event>
<event>
 5    1  0.1675361E-008  0.3814930E+03  0.7957747E-01  0.3444683E+00
         13   -1    0    0    0    0  0.00000000000E+00  0.00000000000E+00  0.14999999963E+04  0.15000000000E+04  0.10566000000E+00 0. -1.
        994   -1    0    0    0    0 -0.00000000000E+00 -0.00000000000E+00  0.11368683772E-12  0.17120000000E+03  0.17120000000E+03 0.  0.
         13    1    1    2    0    0 -0.12802868220E+02 -0.10983057211E+02  0.42396226522E+02  0.45628852360E+02  0.10566000000E+00 0. -1.
        994    1    1    2    0    0  0.63375765780E+02 -0.67814906318E+02  0.32591607784E+02  0.19745126514E+03  0.17120000000E+03 0.  0.
        998    1    1    2    0    0 -0.50572897560E+02  0.78797963529E+02  0.14250121620E+04  0.14281198825E+04  0.10000000000E+02 0. -1.
</event>
<event>
 5    1  0.1675361E-008  0.3816315E+03  0.7957747E-01  0.3444085E+00
         13   -1    0    0    0    0  0.00000000000E+00  0.00000000000E+00  0.14999999963E+04  0.15000000000E+04  0.10566000000E+00 0. -1.
        994   -1    0    0    0    0 -0.00000000000E+00 -0.00000000000E+00  0.11368683772E-12  0.17120000000E+03  0.17120000000E+03 0.  0.
         13    1    1    2    0    0 -0.17043238018E+02  0.89410619927E+01  0.51728083419E+02  0.55192574953E+02  0.10566000000E+00 0. -1.
        994    1    1    2    0    0  0.29198993450E+02 -0.11918482726E+01  0.61565476523E+01  0.17378534115E+03  0.17120000000E+03 0.  0.
        998    1    1    2    0    0 -0.12155755432E+02 -0.77492137201E+01  0.14421153652E+04  0.14422220839E+04  0.10000000000E+02 0. -1.
</event>
<event>
 5    1  0.1675361E-008  0.3812380E+03  0.7957747E-01  0.3445786E+00
         13   -1    0    0    0    0  0.00000000000E+00  0.00000000000E+00  0.14999999963E+04  0.15000000000E+04  0.10566000000E+00 0.  1.
        994   -1    0    0    0    0 -0.00000000000E+00 -0.00000000000E+00  0.11368683772E-12  0.17120000000E+03  0.17120000000E+03 0.  0.
         13    1    1    2    0    0  0.26321080261E+02  0.37637937480E+02  0.27768964208E+03  0.28146218589E+03  0.10566000000E+00 0.  1.
        994    1    1    2    0    0 -0.32739789641E+01 -0.40396469088E+02  0.89975780365E+01  0.17616182919E+03  0.17120000000E+03 0.  0.
        998    1    1    2    0    0 -0.23047101297E+02  0.27585316079E+01  0.12133127762E+04  0.12135759849E+04  0.10000000000E+02 0.  1.
</event>
<event>
 5    1  0.1675361E-008  0.3721597E+03  0.7957747E-01  0.3486024E+00
         13   -1    0    0    0    0  0.00000000000E+00  0.00000000000E+00  0.14999999963E+04  0.15000000000E+04  0.10566000000E+00 0.  1.
        994   -1    0    0    0    0 -0.00000000000E+00 -0.00000000000E+00  0.11368683772E-12  0.17120000000E+03  0.17120000000E+03 0.  0.
         13    1    1    2    0    0 -0.27761433110E+01  0.23905038454E+02  0.33497753008E+02  0.41246435674E+02  0.10566000000E+00 0.  1.
        994    1    1    2    0    0  0.88254142141E+01 -0.80072221788E+00  0.84141147777E+01  0.17163556281E+03  0.17120000000E+03 0.  0.
        998    1    1    2    0    0 -0.60492709030E+01 -0.23104316236E+02  0.14580881285E+04  0.14583180015E+04  0.10000000000E+02 0.  1.
</event>
<event>
 5    1  0.1675361E-008  0.3733632E+03  0.7957747E-01  0.3480575E+00
         13   -1    0    0    0    0  0.00000000000E+00  0.00000000000E+00  0.14999999963E+04  0.15000000000E+04  0.10566000000E+00 0.  1.
        994   -1    0    0    0    0 -0.00000000000E+00 -0.00000000000E+00  0.11368683772E-12  0.17120000000E+03  0.17120000000E+03 0.  0.
         13    1    1    2    0    0 -0.18669761153E+03  0.23021419656E+03  0.10768494317E+04  0.11168971681E+04  0.10566000000E+00 0.  1.
        994    1    1    2    0    0  0.19050421628E+03 -0.20147243385E+03  0.37092954769E+03  0.49374200487E+03  0.17120000000E+03 0.  0.
        998    1    1    2    0    0 -0.38066047554E+01 -0.28741762712E+02  0.52221016929E+02  0.60560827047E+02  0.10000000000E+02 0. -1.
</event>
<event>
 5    1  0.1675361E-008  0.3740342E+03  0.7957747E-01  0.3477554E+00
         13   -1    0    0    0    0  0.00000000000E+00  0.00000000000E+00  0.14999999963E+04  0.15000000000E+04  0.10566000000E+00 0.  1.
        994   -1    0    0    0    0 -0.00000000000E+00 -0.00000000000E+00  0.11368683772E-12  0.17120000000E+03  0.17120000000E+03 0.  0.
         13    1    1    2    0    0 -0.44027144199E+02  0.18279127074E+02  0.18778501356E+03  0.19374142148E+03  0.10566000000E+00 0.  1.
        994    1    1    2    0    0 -0.26758906970E+00  0.10512647951E+02  0.75527599194E+01  0.17168888011E+03  0.17120000000E+03 0.  0.
        998    1    1    2    0    0  0.44294733269E+02 -0.28791775025E+02  0.13046622228E+04  0.13057696984E+04  0.10000000000E+02 0.  1.
</event>
<event>
 5    1  0.1675361E-008  0.3769382E+03  0.7957747E-01  0.3464599E+00
         13   -1    0    0    0    0  0.00000000000E+00  0.00000000000E+00  0.14999999963E+04  0.15000000000E+04  0.10566000000E+00 0. -1.
        994   -1    0    0    0    0 -0.00000000000E+00 -0.00000000000E+00  0.11368683772E-12  0.17120000000E+03  0.17120000000E+03 0.  0.
         13    1    1    2    0    0  0.18721594554E+02 -0.15721483257E+02  0.50834744506E+02  0.56407850087E+02  0.10566000000E+00 0. -1.
        994    1    1    2    0    0 -0.10088629736E+02  0.84148889633E+01  0.62698348861E+01  0.17181775704E+03  0.17120000000E+03 0.  0.
        998    1    1    2    0    0 -0.86329648181E+01  0.73065942939E+01  0.14428954169E+04  0.14429743929E+04  0.10000000000E+02 0. -1.
</event>
<event>
 5    1  0.1675361E-008  0.3849439E+03  0.7957747E-01  0.3429910E+00
         13   -1    0    0    0    0  0.00000000000E+00  0.00000000000E+00  0.14999999963E+04  0.15000000000E+04  0.10566000000E+00 0. -1.
        994   -1    0    0    0    0 -0.00000000000E+00 -0.00000000000E+00  0.11368683772E-12  0.17120000000E+03  0.17120000000E+03 0.  0.
         13    1    1    2    0    0  0.13415085160E+02  0.29758859226E+01  0.58557741395E+02  0.60148488328E+02  0.10566000000E+00 0. -1.
        994    1    1    2    0    0 -0.39855838253E+01 -0.20087999543E+01  0.17235154989E+01  0.17126684052E+03  0.17120000000E+03 0.  0.
        998    1    1    2    0    0 -0.94295013342E+01 -0.96708596830E+00  0.14397187394E+04  0.14397846712E+04  0.10000000000E+02 0. -1.
</event>
<event>
 5    1  0.1675361E-008  0.3856448E+03  0.7957747E-01  0.3426942E+00
         13   -1    0    0    0    0  0.00000000000E+00  0.00000000000E+00  0.14999999963E+04  0.15000000000E+04  0.10566000000E+00 0. -1.
        994   -1    0    0    0    0 -0.00000000000E+00 -0.00000000000E+00  0.11368683772E-12  0.17120000000E+03  0.17120000000E+03 0.  0.
         13    1    1    2    0    0  0.95066504439E+01 -0.54517774450E+01  0.45177629093E+02  0.46487929772E+02  0.10566000000E+00 0. -1.
        994    1    1    2    0    0 -0.10672059303E+02  0.31634744715E+01  0.17170439153E+01  0.17157006924E+03  0.17120000000E+03 0.  0.
        998    1    1    2    0    0  0.11654088594E+01  0.22883029735E+01  0.14531053233E+04  0.14531420010E+04  0.10000000000E+02 0. -1.
</event>
<event>
 5    1  0.1675361E-008  0.3843530E+03  0.7957747E-01  0.3432421E+00
         13   -1    0    0    0    0  0.00000000000E+00  0.00000000000E+00  0.14999999963E+04  0.15000000000E+04  0.10566000000E+00 0.  1.
        994   -1    0    0    0    0 -0.00000000000E+00 -0.00000000000E+00  0.11368683772E-12  0.17120000000E+03  0.17120000000E+03 0.  0.
         13    1    1    2    0    0 -0.15086750482E+02 -0.20795656109E+01  0.61618434402E+02  0.63472649664E+02  0.10566000000E+00 0.  1.
        994    1    1    2    0    0  0.28790473103E+01 -0.67994259736E+00  0.19805548564E+01  0.17123701070E+03  0.17120000000E+03 0.  0.
        998    1    1    2    0    0  0.12207703172E+02  0.27595082082E+01  0.14364010070E+04  0.14364903396E+04  0.10000000000E+02 0.  1.
</event>
<event>
 5    1  0.1675361E-008  0.3838673E+03  0.7957747E-01  0.3434490E+00
         13   -1    0    0    0    0  0.00000000000E+00  0.00000000000E+00  0.14999999963E+04  0.15000000000E+04  0.10566000000E+00 0.  1.
        994   -1    0    0    0    0 -0.00000000000E+00 -0.00000000000E+00  0.11368683772E-12  0.17120000000E+03  0.17120000000E+03 0.  0.
         13    1    1    2    0    0 -0.11278606094E+02 -0.79588633290E+00  0.28275467795E+02  0.30452481566E+02  0.10566000000E+00 0.  1.
        994    1    1    2    0    0  0.97874428558E+01  0.21497071224E+00  0.25099600609E+01  0.17149804707E+03  0.17120000000E+03 0.  0.
        998    1    1    2    0    0  0.14911632383E+01  0.58091562066E+00  0.14692145684E+04  0.14692494714E+04  0.10000000000E+02 0.  1.
</event>
<event>
 5    1  0.2887281E-008  0.3863245E+03  0.7957747E-01  0.3424074E+00
         13   -1    0    0    0    0  0.00000000000E+00  0.00000000000E+00  0.14999999963E+04  0.15000000000E+04  0.10566000000E+00 0.  1.
        994   -1    0    0    0    0 -0.00000000000E+00 -0.00000000000E+00  0.11368683772E-12  0.17120000000E+03  0.17120000000E+03 0.  0.
         13    1    1    2    0    0  0.13551527397E+01 -0.10255193728E+02  0.55933110766E+02  0.56881714825E+02  0.10566000000E+00 0.  1.
        994    1    1    2    0    0 -0.35714785601E+01  0.65271916989E+01  0.11552692749E+01  0.17136549926E+03  0.17120000000E+03 0.  0.
        998    1    1    2    0    0  0.22163258203E+01  0.37280020295E+01  0.14429116162E+04  0.14429527859E+04  0.10000000000E+02 0.  1.
</event>
<event>
 5    1  0.1675361E-008  0.3838985E+03  0.7957747E-01  0.3434357E+00
         13   -1    0    0    0    0  0.00000000000E+00  0.00000000000E+00  0.14999999963E+04  0.15000000000E+04  0.10566000000E+00 0. -1.
        994   -1    0    0    0    0 -0.00000000000E+00 -0.00000000000E+00  0.11368683772E-12  0.17120000000E+03  0.17120000000E+03 0.  0.
         13    1    1    2    0    0 -0.58064118046E+02 -0.13013535333E+03  0.76259049820E+03  0.77579052011E+03  0.10566000000E+00 0. -1.
        994    1    1    2    0    0  0.73343893948E+02  0.17033177843E+03  0.12543278539E+03  0.28184227002E+03  0.17120000000E+03 0.  0.
        998    1    1    2    0    0 -0.15279775902E+02 -0.40196425101E+02  0.61197671269E+03  0.61356720987E+03  0.10000000000E+02 0. -1.
</event>
<event>
 5    1  0.1675361E-008  0.4475675E+03  0.7957747E-01  0.3201127E+00
         13   -1    0    0    0    0  0.00000000000E+00  0.00000000000E+00  0.14999999963E+04  0.15000000000E+04  0.10566000000E+00 0. -1.
        994   -1    0    0    0    0 -0.00000000000E+00 -0.00000000000E+00  0.11368683772E-12  0.17120000000E+03  0.17120000000E+03 0.  0.
         13    1    1    2    0    0  0.42952435482E+02 -0.34973685216E+02  0.44365887999E+01  0.55567660160E+02  0.10566000000E+00 0. -1.
        994    1    1    2    0    0 -0.64452424545E+02 -0.71509890637E+01  0.80909113660E+02  0.20015238282E+03  0.17120000000E+03 0.  0.
        998    1    1    2    0    0  0.21499989063E+02  0.42124674279E+02  0.14146542938E+04  0.14154799570E+04  0.10000000000E+02 0. -1.
</event>
<event>
 5    1  0.1675361E-008  0.3829813E+03  0.7957747E-01  0.3438279E+00
         13   -1    0    0    0    0  0.00000000000E+00  0.00000000000E+00  0.14999999963E+04  0.15000000000E+04  0.10566000000E+00 0.  1.
        994   -1    0    0    0    0 -0.00000000000E+00 -0.00000000000E+00  0.11368683772E-12  0.17120000000E+03  0.17120000000E+03 0.  0.
         13    1    1    2    0    0  0.10230083858E+02  0.14567147683E+02  0.61587568993E+02  0.64108472341E+02  0.10566000000E+00 0.  1.
        994    1    1    2    0    0 -0.11483682859E+02  0.29434066827E+01  0.31010657874E+01  0.17163797722E+03  0.17120000000E+03 0.  0.
        998    1    1    2    0    0  0.12535990009E+01 -0.17510554366E+02  0.14353113615E+04  0.14354535504E+04  0.10000000000E+02 0.  1.
</event>
<event>
 5    1  0.1675361E-008  0.3826527E+03  0.7957747E-01  0.3439689E+00
         13   -1    0    0    0    0  0.00000000000E+00  0.00000000000E+00  0.14999999963E+04  0.15000000000E+04  0.10566000000E+00 0. -1.
        994   -1    0    0    0    0 -0.00000000000E+00 -0.00000000000E+00  0.11368683772E-12  0.17120000000E+03  0.17120000000E+03 0.  0.
         13    1    1    2    0    0  0.15564174064E+02  0.24742372280E+02  0.16084089052E+03  0.16347547745E+03  0.10566000000E+00 0. -1.
        994    1    1    2    0    0 -0.36249626420E+02  0.85844084658E+01  0.74124342231E+01  0.17536280012E+03  0.17120000000E+03 0.  0.
        998    1    1    2    0    0  0.20685452356E+02 -0.33326780746E+02  0.13317466715E+04  0.13323617224E+04  0.10000000000E+02 0. -1.
</event>
<event>
 5    1  0.1675361E-008  0.3732673E+03  0.7957747E-01  0.3481009E+00
         13   -1    0    0    0    0  0.00000000000E+00  0.00000000000E+00  0.14999999963E+04  0.15000000000E+04  0.10566000000E+00 0. -1.
        994   -1    0    0    0    0 -0.00000000000E+00 -0.00000000000E+00  0.11368683772E-12  0.17120000000E+03  0.17120000000E+03 0.  0.
         13    1    1    2    0    0 -0.38080734958E+02  0.20471918868E+01  0.87093594852E+02  0.95077015087E+02  0.10566000000E+00 0. -1.
        994    1    1    2    0    0  0.42753648613E+02  0.12094751609E+02  0.14351454655E+02  0.17745298458E+03  0.17120000000E+03 0.  0.
        998    1    1    2    0    0 -0.46729136546E+01 -0.14141943496E+02  0.13985549468E+04  0.13986700003E+04  0.10000000000E+02 0. -1.
</event>
<event>
 5    1  0.1675361E-008  0.3860004E+03  0.7957747E-01  0.3425440E+00
         13   -1    0    0    0    0  0.00000000000E+00  0.00000000000E+00  0.14999999963E+04  0.15000000000E+04  0.10566000000E+00 0. -1.
        994   -1    0    0    0    0 -0.00000000000E+00 -0.00000000000E+00  0.11368683772E-12  0.17120000000E+03  0.17120000000E+03 0.  0.
         13    1    1    2    0    0  0.99785580313E+01 -0.73596016305E+01  0.73940075648E+02  0.74972537021E+02  0.10566000000E+00 0. -1.
        994    1    1    2    0    0 -0.18490899314E+01 -0.41885534941E+01  0.12029718540E+01  0.17126543801E+03  0.17120000000E+03 0.  0.
        998    1    1    2    0    0 -0.81294680999E+01  0.11548155125E+02  0.14248569488E+04  0.14249620250E+04  0.10000000000E+02 0.  1.
</event>
<event>
 5    1  0.1675361E-008  0.2892165E+03  0.7957747E-01  0.3976144E+00
         13   -1    0    0    0    0  0.00000000000E+00  0.00000000000E+00  0.14999999963E+04  0.15000000000E+04  0.10566000000E+00 0.  1.
        994   -1    0    0    0    0 -0.00000000000E+00 -0.00000000000E+00  0.11368683772E-12  0.17120000000E+03  0.17120000000E+03 0.  0.
         13    1    1    2    0    0  0.46798095215E+02 -0.14878299692E+03  0.77570583301E+03  0.79123068218E+03  0.10566000000E+00 0.  1.
        994    1    1    2    0    0 -0.43530128321E+02  0.28683296310E+02  0.37723019470E+02  0.18289360229E+03  0.17120000000E+03 0.  0.
        998    1    1    2    0    0 -0.32679668935E+01  0.12009970061E+03  0.68657114380E+03  0.69707571554E+03  0.10000000000E+02 0.  1.
</event>
<event>
 5    1  0.1675361E-008  0.3847357E+03  0.7957747E-01  0.3430794E+00
         13   -1    0    0    0    0  0.00000000000E+00  0.00000000000E+00  0.14999999963E+04  0.15000000000E+04  0.10566000000E+00 0.  1.
        994   -1    0    0    0    0 -0.00000000000E+00 -0.00000000000E+00  0.11368683772E-12  0.17120000000E+03  0.17120000000E+03 0.  0.
         13    1    1    2    0    0 -0.50559552167E+01  0.14817274660E+02  0.68440050487E+02  0.70208019387E+02  0.10566000000E+00 0.  1.
        994    1    1    2    0    0  0.35340429819E+01 -0.12138425575E+02  0.22876716408E+01  0.17168140341E+03  0.17120000000E+03 0.  0.
        998    1    1    2    0    0  0.15219122348E+01 -0.26788490846E+01  0.14292722742E+04  0.14293105772E+04  0.10000000000E+02 0.  1.
</event>
<event>
 5    1  0.1675361E-008  0.3808562E+03  0.7957747E-01  0.3447439E+00
         13   -1    0    0    0    0  0.00000000000E+00  0.00000000000E+00  0.14999999963E+04  0.15000000000E+04  0.10566000000E+00 0. -1.
        994   -1    0    0    0    0 -0.00000000000E+00 -0.00000000000E+00  0.11368683772E-12  0.17120000000E+03  0.17120000000E+03 0.  0.
         13    1    1    2    0    0 -0.68635537193E+01  0.14659233496E+02  0.12013599844E+00  0.16187250941E+02  0.10566000000E+00 0. -1.
        994    1    1    2    0    0  0.12494394967E+01 -0.19560941238E+02  0.18196048330E+02  0.17327644876E+03  0.17120000000E+03 0.  0.
        998    1    1    2    0    0  0.56141142226E+01  0.49017077421E+01  0.14816838120E+04  0.14817363003E+04  0.10000000000E+02 0. -1.
</event>
<event>
 5    1  0.1675361E-008  0.3712218E+03  0.7957747E-01  0.3490294E+00
         13   -1    0    0    0    0  0.00000000000E+00  0.00000000000E+00  0.14999999963E+04  0.15000000000E+04  0.10566000000E+00 0. -1.
        994   -1    0    0    0    0 -0.00000000000E+00 -0.00000000000E+00  0.11368683772E-12  0.17120000000E+03  0.17120000000E+03 0.  0.
         13    1    1    2    0    0  0.42164447087E+02  0.26241185058E+02  0.14225465641E+03  0.15067461242E+03  0.10566000000E+00 0. -1.
        994    1    1    2    0    0 -0.21948560828E+02 -0.14560785041E+02  0.11024212789E+02  0.17356476904E+03  0.17120000000E+03 0.  0.
        998    1    1    2    0    0 -0.20215886258E+02 -0.11680400018E+02  0.13467211271E+04  0.13469606185E+04  0.10000000000E+02 0. -1.
</event>
<event>
 5    1  0.1675361E-008  0.3820474E+03  0.7957747E-01  0.3442292E+00
         13   -1    0    0    0    0  0.00000000000E+00  0.00000000000E+00  0.14999999963E+04  0.15000000000E+04  0.10566000000E+00 0. -1.
        994   -1    0    0    0    0 -0.00000000000E+00 -0.00000000000E+00  0.11368683772E-12  0.17120000000E+03  0.17120000000E+03 0.  0.
         13    1    1    2    0    0  0.10491249167E+03 -0.48198871800E+02  0.37451449450E+03  0.39190672348E+03  0.10566000000E+00 0. -1.
        994    1    1    2    0    0 -0.64213603002E+02  0.26922615322E+02  0.35378578576E+02  0.18817358435E+03  0.17120000000E+03 0.  0.
        998    1    1    2    0    0 -0.40698888666E+02  0.21276256478E+02  0.10901069232E+04  0.10911196922E+04  0.10000000000E+02 0. -1.
</event>
<event>
 5    1  0.1675361E-008  0.3764432E+03  0.7957747E-01  0.3466793E+00
         13   -1    0    0    0    0  0.00000000000E+00  0.00000000000E+00  0.14999999963E+04  0.15000000000E+04  0.10566000000E+00 0.  1.
        994   -1    0    0    0    0 -0.00000000000E+00 -0.00000000000E+00  0.11368683772E-12  0.17120000000E+03  0.17120000000E+03 0.  0.
         13    1    1    2    0    0  0.42967797902E+02  0.34016272218E+02  0.32718963706E+03  0.33174750670E+03  0.10566000000E+00 0.  1.
        994    1    1    2    0    0 -0.16805428397E+02  0.17746218407E+02  0.79627560502E+01  0.17311902315E+03  0.17120000000E+03 0.  0.
        998    1    1    2    0    0 -0.26162369506E+02 -0.51762490625E+02  0.11648476032E+04  0.11663334702E+04  0.10000000000E+02 0.  1.
</event>
<event>
 5    1  0.1675361E-008  0.3725922E+03  0.7957747E-01  0.3484062E+00
         13   -1    0    0    0    0  0.00000000000E+00  0.00000000000E+00  0.14999999963E+04  0.15000000000E+04  0.10566000000E+00 0. -1.
        994   -1    0    0    0    0 -0.00000000000E+00 -0.00000000000E+00  0.11368683772E-12  0.17120000000E+03  0.17120000000E+03 0.  0.
         13    1    1    2    0    0  0.17947245074E+02  0.68555825961E+02  0.41596675083E+03  0.42196013299E+03  0.10566000000E+00 0. -1.
        994    1    1    2    0    0 -0.11352891164E+02 -0.73279544126E+01  0.85463843070E+01  0.17194495555E+03  0.17120000000E+03 0.  0.
        998    1    1    2    0    0 -0.65943539095E+01 -0.61227871549E+02  0.10754868611E+04  0.10772949115E+04  0.10000000000E+02 0. -1.
</event>
<event>
 5    1  0.1675361E-008  0.3616941E+03  0.7957747E-01  0.3534956E+00
         13   -1    0    0    0    0  0.00000000000E+00  0.00000000000E+00  0.14999999963E+04  0.15000000000E+04  0.10566000000E+00 0. -1.
        994   -1    0    0    0    0 -0.00000000000E+00 -0.00000000000E+00  0.11368683772E-12  0.17120000000E+03  0.17120000000E+03 0.  0.
         13    1    1    2    0    0 -0.89165733398E+02 -0.30273178978E+03  0.60347465350E+03  0.68101301981E+03  0.10566000000E+00 0. -1.
        994    1    1    2    0    0  0.75526244879E+02  0.31319075003E+03  0.67084995155E+03  0.76363718942E+03  0.17120000000E+03 0.  0.
        998    1    1    2    0    0  0.13639488519E+02 -0.10458960243E+02  0.22567539122E+03  0.22654979077E+03  0.10000000000E+02 0. -1.
</event>
<event>
 5    1  0.1675361E-008  0.3785998E+03  0.7957747E-01  0.3457278E+00
         13   -1    0    0    0    0  0.00000000000E+00  0.00000000000E+00  0.14999999963E+04  0.15000000000E+04  0.10566000000E+00 0. -1.
        994   -1    0    0    0    0 -0.00000000000E+00 -0.00000000000E+00  0.11368683772E-12  0.17120000000E+03  0.17120000000E+03 0.  0.
         13    1    1    2    0    0 -0.22769474392E+02  0.11092779917E+02  0.67044923466E+02  0.71669600648E+02  0.10566000000E+00 0. -1.
        994    1    1    2    0    0  0.43993528149E+01 -0.53080865915E+01  0.50012940421E+01  0.17141173539E+03  0.17120000000E+03 0.  0.
        998    1    1    2    0    0  0.18370121577E+02 -0.57846933250E+01  0.14279537788E+04  0.14281186640E+04  0.10000000000E+02 0. -1.
</event>
<event>
 5    1  0.1675361E-008  0.3732962E+03  0.7957747E-01  0.3480878E+00
         13   -1    0    0    0    0  0.00000000000E+00  0.00000000000E+00  0.14999999963E+04  0.15000000000E+04  0.10566000000E+00 0. -1.
        994   -1    0    0    0    0 -0.00000000000E+00 -0.00000000000E+00  0.11368683772E-12  0.17120000000E+03  0.17120000000E+03 0.  0.
         13    1    1    2    0    0 -0.15817656797E+02  0.18046841803E+02  0.33682805603E+02  0.41357336991E+02  0.10566000000E+00 0. -1.
        994    1    1    2    0    0  0.84274842623E+01 -0.33583159225E+02  0.11666016285E+02  0.17505538270E+03  0.17120000000E+03 0.  0.
        998    1    1    2    0    0  0.73901725348E+01  0.15536317422E+02  0.14546511744E+04  0.14547872803E+04  0.10000000000E+02 0. -1.
</event>
<event>
 5    1  0.1675361E-008  0.3803091E+03  0.7957747E-01  0.3449814E+00
         13   -1    0    0    0    0  0.00000000000E+00  0.00000000000E+00  0.14999999963E+04  0.15000000000E+04  0.10566000000E+00 0.  1.
        994   -1    0    0    0    0 -0.00000000000E+00 -0.00000000000E+00  0.11368683772E-12  0.17120000000E+03  0.17120000000E+03 0.  0.
         13    1    1    2    0    0  0.34002890637E+01 -0.13403554325E+02  0.22216382960E+02  0.26168608486E+02  0.10566000000E+00 0.  1.
        994    1    1    2    0    0 -0.63758168120E+01  0.11522551042E+02  0.45565513362E+01  0.17176618521E+03  0.17120000000E+03 0.  0.
        998    1    1    2    0    0  0.29755277484E+01  0.18810032822E+01  0.14732270620E+04  0.14732652063E+04  0.10000000000E+02 0.  1.
</event>
<event>
 5    1  0.1675361E-008  0.3833904E+03  0.7957747E-01  0.3436528E+00
         13   -1    0    0    0    0  0.00000000000E+00  0.00000000000E+00  0.14999999963E+04  0.15000000000E+04  0.10566000000E+00 0. -1.
        994   -1    0    0    0    0 -0.00000000000E+00 -0.00000000000E+00  0.11368683772E-12  0.17120000000E+03  0.17120000000E+03 0.  0.
         13    1    1    2    0    0  0.10854392570E+01  0.21997978958E+02  0.10510174755E+03  0.10738471846E+03  0.10566000000E+00 0. -1.
        994    1    1    2    0    0 -0.77781249909E+01 -0.47194137216E+01  0.27050923182E+01  0.17146291033E+03  0.17120000000E+03 0.  0.
        998    1    1    2    0    0  0.66926857339E+01 -0.17278565237E+02  0.13921931564E+04  0.13923523712E+04  0.10000000000E+02 0. -1.
</event>
<event>
 5    1  0.1675361E-008  0.3856495E+03  0.7957747E-01  0.3426922E+00
         13   -1    0    0    0    0  0.00000000000E+00  0.00000000000E+00  0.14999999963E+04  0.15000000000E+04  0.10566000000E+00 0. -1.
        994   -1    0    0    0    0 -0.00000000000E+00 -0.00000000000E+00  0.11368683772E-12  0.17120000000E+03  0.17120000000E+03 0.  0.
         13    1    1    2    0    0 -0.91229561348E+01  0.10210040217E+02  0.80018143222E+02  0.81181202619E+02  0.10566000000E+00 0. -1.
        994    1    1    2    0    0 -0.16747999095E+01  0.38307228207E+01  0.13653562513E+01  0.17125648481E+03  0.17120000000E+03 0.  0.
        998    1    1    2    0    0  0.10797756044E+02 -0.14040763038E+02  0.14186164968E+04  0.14187623126E+04  0.10000000000E+02 0. -1.
</event>
<event>
 5    1  0.1675361E-008  0.3792352E+03  0.7957747E-01  0.3454495E+00
         13   -1    0    0    0    0  0.00000000000E+00  0.00000000000E+00  0.14999999963E+04  0.15000000000E+04  0.10566000000E+00 0. -1.
        994   -1    0    0    0    0 -0.00000000000E+00 -0.00000000000E+00  0.11368683772E-12  0.17120000000E+03  0.17120000000E+03 0.  0.
         13    1    1    2    0    0 -0.34921880077E+02  0.85463989203E+01  0.14945175131E+03  0.15371537261E+03  0.10566000000E+00 0. -1.
        994    1    1    2    0    0  0.10935118437E+02 -0.65849913440E+01  0.50659408176E+01  0.17174994231E+03  0.17120000000E+03 0.  0.
        998    1    1    2    0    0  0.23986761640E+02 -0.19614075763E+01  0.13454823042E+04  0.13457346851E+04  0.10000000000E+02 0. -1.
</event>
<event>
 5    1  0.1675361E-008  0.3748651E+03  0.7957747E-01  0.3473826E+00
         13   -1    0    0    0    0  0.00000000000E+00  0.00000000000E+00  0.14999999963E+04  0.15000000000E+04  0.10566000000E+00 0. -1.
        994   -1    0    0    0    0 -0.00000000000E+00 -0.00000000000E+00  0.11368683772E-12  0.17120000000E+03  0.17120000000E+03 0.  0.
         13    1    1    2    0    0  0.71612578945E+01 -0.96794724673E+01  0.76465335641E+01  0.14263815810E+02  0.10566000000E+00 0. -1.
        994    1    1    2    0    0 -0.62811402372E+01  0.81533149336E+01  0.71083229768E+01  0.17165633552E+03  0.17120000000E+03 0.  0.
        998    1    1    2    0    0 -0.88011765734E+00  0.15261575337E+01  0.14852451397E+04  0.14852798487E+04  0.10000000000E+02 0. -1.
</event>
<event>
 5    1  0.1675361E-008  0.3838566E+03  0.7957747E-01  0.3434536E+00
         13   -1    0    0    0    0  0.00000000000E+00  0.00000000000E+00  0.14999999963E+04  0.15000000000E+04  0.10566000000E+00 0.  1.
        994   -1    0    0    0    0 -0.00000000000E+00 -0.00000000000E+00  0.11368683772E-12  0.17120000000E+03  0.17120000000E+03 0.  0.
         13    1    1    2    0    0 -0.46339751463E+01  0.15105687911E+02  0.59200166246E+02  0.61272558136E+02  0.10566000000E+00 0.  1.
        994    1    1    2    0    0  0.12489315573E+02  0.28087023474E+01  0.27399790486E+01  0.17169979411E+03  0.17120000000E+03 0.  0.
        998    1    1    2    0    0 -0.78553404262E+01 -0.17914390258E+02  0.14380598510E+04  0.14382276478E+04  0.10000000000E+02 0.  1.
</event>
<event>
 5    1  0.1675361E-008  0.3839840E+03  0.7957747E-01  0.3433993E+00
         13   -1    0    0    0    0  0.00000000000E+00  0.00000000000E+00  0.14999999963E+04  0.15000000000E+04  0.10566000000E+00 0.  1.
        994   -1    0    0    0    0 -0.00000000000E+00 -0.00000000000E+00  0.11368683772E-12  0.17120000000E+03  0.17120000000E+03 0.  0.
         13    1    1    2    0    0 -0.10699986127E+02  0.95271204077E+01  0.47075719523E+02  0.49207623993E+02  0.10566000000E+00 0.  1.
        994    1    1    2    0    0  0.76300431511E+01 -0.90882531275E+01  0.26001504959E+01  0.17163045967E+03  0.17120000000E+03 0.  0.
        998    1    1    2    0    0  0.30699429760E+01 -0.43886728016E+00  0.14503241263E+04  0.14503619163E+04  0.10000000000E+02 0.  1.
</event>
<event>
 5    1  0.1675361E-008  0.3812863E+03  0.7957747E-01  0.3445577E+00
         13   -1    0    0    0    0  0.00000000000E+00  0.00000000000E+00  0.14999999963E+04  0.15000000000E+04  0.10566000000E+00 0. -1.
        994   -1    0    0    0    0 -0.00000000000E+00 -0.00000000000E+00  0.11368683772E-12  0.17120000000E+03  0.17120000000E+03 0.  0.
         13    1    1    2    0    0  0.10469481545E+02  0.25531139259E+02  0.10703618553E+03  0.11053599094E+03  0.10566000000E+00 0. -1.
        994    1    1    2    0    0  0.27781266297E+01 -0.21198112022E+02  0.50082422076E+01  0.17260243460E+03  0.17120000000E+03 0.  0.
        998    1    1    2    0    0 -0.13247608175E+02 -0.43330272370E+01  0.13879555685E+04  0.13880615745E+04  0.10000000000E+02 0. -1.
</event>
<event>
 5    1  0.1675361E-008  0.3806567E+03  0.7957747E-01  0.3448304E+00
         13   -1    0    0    0    0  0.00000000000E+00  0.00000000000E+00  0.14999999963E+04  0.15000000000E+04  0.10566000000E+00 0. -1.
        994   -1    0    0    0    0 -0.00000000000E+00 -0.00000000000E+00  0.11368683772E-12  0.17120000000E+03  0.17120000000E+03 0.  0.
         13    1    1    2    0    0  0.10256701025E+02 -0.57506096030E+02  0.33281060743E+03  0.33789800617E+03  0.10566000000E+00 0. -1.
        994    1    1    2    0    0 -0.10698721247E+02  0.62396410060E+02  0.17288298058E+02  0.18334693855E+03  0.17120000000E+03 0.  0.
        998    1    1    2    0    0  0.44202022206E+00 -0.48903140305E+01  0.11499010908E+04  0.11499550553E+04  0.10000000000E+02 0. -1.
</event>
<event>
 5    1  0.1675361E-008  0.3838055E+03  0.7957747E-01  0.3434754E+00
         13   -1    0    0    0    0  0.00000000000E+00  0.00000000000E+00  0.14999999963E+04  0.15000000000E+04  0.10566000000E+00 0. -1.
        994   -1    0    0    0    0 -0.00000000000E+00 -0.00000000000E+00  0.11368683772E-12  0.17120000000E+03  0.17120000000E+03 0.  0.
         13    1    1    2    0    0 -0.11130410812E+02  0.11672841417E+02  0.59666251270E+02  0.61807879564E+02  0.10566000000E+00 0. -1.
        994    1    1    2    0    0  0.70435043725E+01 -0.35533502205E+00  0.23885864786E+01  0.17136184687E+03  0.17120000000E+03 0.  0.
        998    1    1    2    0    0  0.40869064400E+01 -0.11317506395E+02  0.14379451585E+04  0.14380302736E+04  0.10000000000E+02 0. -1.
</event>
<event>
 5    1  0.1675361E-008  0.3817620E+03  0.7957747E-01  0.3443522E+00
         13   -1    0    0    0    0  0.00000000000E+00  0.00000000000E+00  0.14999999963E+04  0.15000000000E+04  0.10566000000E+00 0.  1.
        994   -1    0    0    0    0 -0.00000000000E+00 -0.00000000000E+00  0.11368683772E-12  0.17120000000E+03  0.17120000000E+03 0.  0.
         13    1    1    2    0    0 -0.92467699119E+01 -0.34646824588E+02  0.16966850548E+03  0.17341660279E+03  0.10566000000E+00 0.  1.
        994    1    1    2    0    0  0.10580610560E+02  0.39866165638E+02  0.89213008063E+01  0.17632438881E+03  0.17120000000E+03 0.  0.
        998    1    1    2    0    0 -0.13338406481E+01 -0.52193410507E+01  0.13214101900E+04  0.13214590084E+04  0.10000000000E+02 0.  1.
</event>
<event>
 5    1  0.1675361E-008  0.3810760E+03  0.7957747E-01  0.3446487E+00
         13   -1    0    0    0    0  0.00000000000E+00  0.00000000000E+00  0.14999999963E+04  0.15000000000E+04  0.10566000000E+00 0.  1.
        994   -1    0    0    0    0 -0.00000000000E+00 -0.00000000000E+00  0.11368683772E-12  0.17120000000E+03  0.17120000000E+03 0.  0.
         13    1    1    2    0    0 -0.17524202090E+02  0.21008647294E+02  0.12754818914E+03  0.13044927227E+03  0.10566000000E+00 0.  1.
        994    1    1    2    0    0 -0.10926803778E+02  0.12732659584E+02  0.45292674468E+01  0.17207983590E+03  0.17120000000E+03 0.  0.
        998    1    1    2    0    0  0.28451005867E+02 -0.33741306877E+02  0.13679225397E+04  0.13686708918E+04  0.10000000000E+02 0.  1.
</event>
<event>
 5    1  0.1675361E-008  0.3821517E+03  0.7957747E-01  0.3441843E+00
         13   -1    0    0    0    0  0.00000000000E+00  0.00000000000E+00  0.14999999963E+04  0.15000000000E+04  0.10566000000E+00 0.  1.
        994   -1    0    0    0    0 -0.00000000000E+00 -0.00000000000E+00  0.11368683772E-12  0.17120000000E+03  0.17120000000E+03 0.  0.
         13    1    1    2    0    0 -0.92786125729E+01 -0.14163172737E+02  0.47678701793E+02  0.50596026345E+02  0.10566000000E+00 0.  1.
        994    1    1    2    0    0  0.30063649893E+01  0.79580708225E+00  0.30830364149E+01  0.17125599742E+03  0.17120000000E+03 0.  0.
        998    1    1    2    0    0  0.62722475836E+01  0.13367365654E+02  0.14492382581E+04  0.14493479762E+04  0.10000000000E+02 0.  1.
</event>
<event>
 5    1  0.1675361E-008  0.3774792E+03  0.7957747E-01  0.3462208E+00
         13   -1    0    0    0    0  0.00000000000E+00  0.00000000000E+00  0.14999999963E+04  0.15000000000E+04  0.10566000000E+00 0.  1.
        994   -1    0    0    0    0 -0.00000000000E+00 -0.00000000000E+00  0.11368683772E-12  0.17120000000E+03  0.17120000000E+03 0.  0.
         13    1    1    2    0    0 -0.15948617278E+02 -0.14972642541E+01  0.21707609761E+02  0.26978355749E+02  0.10566000000E+00 0.  1.
        994    1    1    2    0    0  0.63347760791E+01 -0.25894558702E+01  0.55689493767E+01  0.17142720865E+03  0.17120000000E+03 0.  0.
        998    1    1    2    0    0  0.96138411984E+01  0.40867201242E+01  0.14727234371E+04  0.14727944356E+04  0.10000000000E+02 0.  1.
</event>
<event>
 5    1  0.1675361E-008  0.3841745E+03  0.7957747E-01  0.3433181E+00
         13   -1    0    0    0    0  0.00000000000E+00  0.00000000000E+00  0.14999999963E+04  0.15000000000E+04  0.10566000000E+00 0. -1.
        994   -1    0    0    0    0 -0.00000000000E+00 -0.00000000000E+00  0.11368683772E-12  0.17120000000E+03  0.17120000000E+03 0.  0.
         13    1    1    2    0    0  0.83693548745E+01  0.17773809758E+02  0.98970051744E+02  0.10090112349E+03  0.10566000000E+00 0. -1.
        994    1    1    2    0    0  0.49832843137E+01 -0.85076002607E+01  0.23611758303E+01  0.17149993451E+03  0.17120000000E+03 0.  0.
        998    1    1    2    0    0 -0.13352639188E+02 -0.92662094977E+01  0.13986687687E+04  0.13987989420E+04  0.10000000000E+02 0. -1.
</event>
<event>
 5    1  0.1675361E-008  0.4291132E+03  0.7957747E-01  0.3261728E+00
         13   -1    0    0    0    0  0.00000000000E+00  0.00000000000E+00  0.14999999963E+04  0.15000000000E+04  0.10566000000E+00 0.  1.
        994   -1    0    0    0    0 -0.00000000000E+00 -0.00000000000E+00  0.11368683772E-12  0.17120000000E+03  0.17120000000E+03 0.  0.
         13    1    1    2    0    0  0.12762639675E+01 -0.13583563272E+02 -0.18016812116E+02  0.22599971764E+02  0.10566000000E+00 0.  1.
        994    1    1    2    0    0 -0.33384265185E+02  0.22080941383E+02  0.53646684232E+02  0.18381916076E+03  0.17120000000E+03 0.  0.
        998    1    1    2    0    0  0.32108001218E+02 -0.84973781113E+01  0.14643701242E+04  0.14647808675E+04  0.10000000000E+02 0.  1.
</event>
<event>
 5    1  0.1675361E-008  0.3836257E+03  0.7957747E-01  0.3435522E+00
         13   -1    0    0    0    0  0.00000000000E+00  0.00000000000E+00  0.14999999963E+04  0.15000000000E+04  0.10566000000E+00 0. -1.
        994   -1    0    0    0    0 -0.00000000000E+00 -0.00000000000E+00  0.11368683772E-12  0.17120000000E+03  0.17120000000E+03 0.  0.
         13    1    1    2    0    0 -0.11448361589E+02  0.64848896899E+01  0.35666554912E+02  0.38016221284E+02  0.10566000000E+00 0. -1.
        994    1    1    2    0    0  0.24089031961E+02  0.93782749316E+01  0.45245469735E+01  0.17319972583E+03  0.17120000000E+03 0.  0.
        998    1    1    2    0    0 -0.12640670372E+02 -0.15863164621E+02  0.14598088944E+04  0.14599840529E+04  0.10000000000E+02 0. -1.
</event>
<event>
 5    1  0.1675361E-008  0.3837581E+03  0.7957747E-01  0.3434956E+00
         13   -1    0    0    0    0  0.00000000000E+00  0.00000000000E+00  0.14999999963E+04  0.15000000000E+04  0.10566000000E+00 0.  1.
        994   -1    0    0    0    0 -0.00000000000E+00 -0.00000000000E+00  0.11368683772E-12  0.17120000000E+03  0.17120000000E+03 0.  0.
         13    1    1    2    0    0 -0.12600558935E+02 -0.10276508462E+02  0.58492225710E+02  0.60710232615E+02  0.10566000000E+00 0.  1.
        994    1    1    2    0    0  0.52191922924E+01  0.93479589175E+01  0.26265320671E+01  0.17155454810E+03  0.17120000000E+03 0.  0.
        998    1    1    2    0    0  0.73813666429E+01  0.92854954465E+00  0.14388812385E+04  0.14389352193E+04  0.10000000000E+02 0.  1.
</event>
<event>
 5    1  0.1675361E-008  0.3846140E+03  0.7957747E-01  0.3431311E+00
         13   -1    0    0    0    0  0.00000000000E+00  0.00000000000E+00  0.14999999963E+04  0.15000000000E+04  0.10566000000E+00 0. -1.
        994   -1    0    0    0    0 -0.00000000000E+00 -0.00000000000E+00  0.11368683772E-12  0.17120000000E+03  0.17120000000E+03 0.  0.
         13    1    1    2    0    0 -0.20013415139E+02 -0.10494505938E+02  0.13495489667E+03  0.13683386547E+03  0.10566000000E+00 0. -1.
        994    1    1    2    0    0  0.23130798666E+02 -0.42382581101E+01  0.36449222983E+01  0.17284594915E+03  0.17120000000E+03 0.  0.
        998    1    1    2    0    0 -0.31173835261E+01  0.14732764048E+02  0.13614001773E+04  0.13615201854E+04  0.10000000000E+02 0. -1.
</event>
<event>
 5    1  0.1675361E-008  0.3843672E+03  0.7957747E-01  0.3432360E+00
         13   -1    0    0    0    0  0.00000000000E+00  0.00000000000E+00  0.14999999963E+04  0.15000000000E+04  0.10566000000E+00 0. -1.
        994   -1    0    0    0    0 -0.00000000000E+00 -0.00000000000E+00  0.11368683772E-12  0.17120000000E+03  0.17120000000E+03 0.  0.
         13    1    1    2    0    0 -0.10592089721E+02  0.34319531139E+01  0.31439323301E+02  0.33352854158E+02  0.10566000000E+00 0. -1.
        994    1    1    2    0    0  0.76281007977E+01 -0.59532669800E+00  0.21375843439E+01  0.17138422215E+03  0.17120000000E+03 0.  0.
        998    1    1    2    0    0  0.29639889237E+01 -0.28366264159E+01  0.14664230886E+04  0.14664629237E+04  0.10000000000E+02 0. -1.
</event>
<event>
 5    1  0.1675361E-008  0.3664654E+03  0.7957747E-01  0.3512295E+00
         13   -1    0    0    0    0  0.00000000000E+00  0.00000000000E+00  0.14999999963E+04  0.15000000000E+04  0.10566000000E+00 0. -1.
        994   -1    0    0    0    0 -0.00000000000E+00 -0.00000000000E+00  0.11368683772E-12  0.17120000000E+03  0.17120000000E+03 0.  0.
         13    1    1    2    0    0 -0.64479925049E+02 -0.29999703375E+03  0.91793186138E+03  0.96786093748E+03  0.10566000000E+00 0. -1.
        994    1    1    2    0    0  0.66108666199E+02  0.27822368118E+03  0.40437260901E+03  0.52402807123E+03  0.17120000000E+03 0.  0.
        998    1    1    2    0    0 -0.16287411496E+01  0.21773352565E+02  0.17769552588E+03  0.17931099129E+03  0.10000000000E+02 0.  1.
</event>
<event>
 5    1  0.1675361E-008  0.3709576E+03  0.7957747E-01  0.3491501E+00
         13   -1    0    0    0    0  0.00000000000E+00  0.00000000000E+00  0.14999999963E+04  0.15000000000E+04  0.10566000000E+00 0. -1.
        994   -1    0    0    0    0 -0.00000000000E+00 -0.00000000000E+00  0.11368683772E-12  0.17120000000E+03  0.17120000000E+03 0.  0.
         13    1    1    2    0    0 -0.24251843465E+01 -0.42098591291E+02  0.10189177310E+03  0.11027292278E+03  0.10566000000E+00 0. -1.
        994    1    1    2    0    0 -0.22541445182E+01  0.17101227760E+02  0.97954279273E+01  0.17234536131E+03  0.17120000000E+03 0.  0.
        998    1    1    2    0    0  0.46793288647E+01  0.24997363531E+02  0.13883127953E+04  0.13885817159E+04  0.10000000000E+02 0. -1.
</event>
<event>
 5    1  0.1675361E-008  0.3723726E+03  0.7957747E-01  0.3485057E+00
         13   -1    0    0    0    0  0.00000000000E+00  0.00000000000E+00  0.14999999963E+04  0.15000000000E+04  0.10566000000E+00 0.  1.
        994   -1    0    0    0    0 -0.00000000000E+00 -0.00000000000E+00  0.11368683772E-12  0.17120000000E+03  0.17120000000E+03 0.  0.
         13    1    1    2    0    0 -0.41861512332E+02  0.33128875429E+02  0.20654293626E+03  0.21333050481E+03  0.10566000000E+00 0.  1.
        994    1    1    2    0    0  0.28050398094E+00 -0.31060865317E+01  0.80675499597E+01  0.17141835321E+03  0.17120000000E+03 0.  0.
        998    1    1    2    0    0  0.41581008351E+02 -0.30022788897E+02  0.12853895101E+04  0.12864511420E+04  0.10000000000E+02 0.  1.
</event>
<event>
 5    1  0.1675361E-008  0.3749041E+03  0.7957747E-01  0.3473652E+00
         13   -1    0    0    0    0  0.00000000000E+00  0.00000000000E+00  0.14999999963E+04  0.15000000000E+04  0.10566000000E+00 0.  1.
        994   -1    0    0    0    0 -0.00000000000E+00 -0.00000000000E+00  0.11368683772E-12  0.17120000000E+03  0.17120000000E+03 0.  0.
         13    1    1    2    0    0 -0.30989657571E+02  0.30327924986E+02  0.14937131508E+03  0.15553759302E+03  0.10566000000E+00 0.  1.
        994    1    1    2    0    0  0.24899654733E+02  0.11021945115E+02  0.92533233255E+01  0.17359879053E+03  0.17120000000E+03 0.  0.
        998    1    1    2    0    0  0.60900028377E+01 -0.41349870101E+02  0.13413753579E+04  0.13420636165E+04  0.10000000000E+02 0.  1.
</event>
<event>
 5    1  0.1675361E-008  0.3838196E+03  0.7957747E-01  0.3434694E+00
         13   -1    0    0    0    0  0.00000000000E+00  0.00000000000E+00  0.14999999963E+04  0.15000000000E+04  0.10566000000E+00 0. -1.
        994   -1    0    0    0    0 -0.00000000000E+00 -0.00000000000E+00  0.11368683772E-12  0.17120000000E+03  0.17120000000E+03 0.  0.
         13    1    1    2    0    0  0.72255979618E+01 -0.11009088589E+02  0.37842511982E+02  0.40068393712E+02  0.10566000000E+00 0. -1.
        994    1    1    2    0    0 -0.45488112375E+01  0.12568506602E+02  0.28073657533E+01  0.17174393830E+03  0.17120000000E+03 0.  0.
        998    1    1    2    0    0 -0.26767867243E+01 -0.15594180125E+01  0.14593501185E+04  0.14593876680E+04  0.10000000000E+02 0. -1.
</event>
<event>
 5    1  0.1675361E-008  0.3841526E+03  0.7957747E-01  0.3433274E+00
         13   -1    0    0    0    0  0.00000000000E+00  0.00000000000E+00  0.14999999963E+04  0.15000000000E+04  0.10566000000E+00 0. -1.
        994   -1    0    0    0    0 -0.00000000000E+00 -0.00000000000E+00  0.11368683772E-12  0.17120000000E+03  0.17120000000E+03 0.  0.
         13    1    1    2    0    0  0.17658295052E+01 -0.18153607650E+02  0.79565384652E+02  0.81629242453E+02  0.10566000000E+00 0. -1.
        994    1    1    2    0    0  0.10021865993E+00  0.14085533500E+02  0.27059957091E+01  0.17179980998E+03  0.17120000000E+03 0.  0.
        998    1    1    2    0    0 -0.18660481651E+01  0.40680741505E+01  0.14177286159E+04  0.14177709476E+04  0.10000000000E+02 0. -1.
</event>
<event>
 5    1  0.1675361E-008  0.3796461E+03  0.7957747E-01  0.3452701E+00
         13   -1    0    0    0    0  0.00000000000E+00  0.00000000000E+00  0.14999999963E+04  0.15000000000E+04  0.10566000000E+00 0. -1.
        994   -1    0    0    0    0 -0.00000000000E+00 -0.00000000000E+00  0.11368683772E-12  0.17120000000E+03  0.17120000000E+03 0.  0.
         13    1    1    2    0    0 -0.33586416904E+02 -0.81065406554E+01  0.14977824558E+03  0.15371173480E+03  0.10566000000E+00 0. -1.
        994    1    1    2    0    0  0.51811652568E+01  0.47543615182E+01  0.44773986477E+01  0.17140284573E+03  0.17120000000E+03 0.  0.
        998    1    1    2    0    0  0.28405251647E+02  0.33521791371E+01  0.13457443521E+04  0.13460854195E+04  0.10000000000E+02 0. -1.
</event>
<event>
 5    1  0.1675361E-008  0.3789905E+03  0.7957747E-01  0.3455566E+00
         13   -1    0    0    0    0  0.00000000000E+00  0.00000000000E+00  0.14999999963E+04  0.15000000000E+04  0.10566000000E+00 0. -1.
        994   -1    0    0    0    0 -0.00000000000E+00 -0.00000000000E+00  0.11368683772E-12  0.17120000000E+03  0.17120000000E+03 0.  0.
         13    1    1    2    0    0  0.60094218219E+01 -0.10895179707E+02  0.14504247500E+02  0.19110270826E+02  0.10566000000E+00 0. -1.
        994    1    1    2    0    0 -0.26476068588E+01  0.13529334486E+02  0.52813017126E+01  0.17183534229E+03  0.17120000000E+03 0.  0.
        998    1    1    2    0    0 -0.33618149630E+01 -0.26341547790E+01  0.14802144471E+04  0.14802543869E+04  0.10000000000E+02 0. -1.
</event>
<event>
 5    1  0.1675361E-008  0.3832042E+03  0.7957747E-01  0.3437324E+00
         13   -1    0    0    0    0  0.00000000000E+00  0.00000000000E+00  0.14999999963E+04  0.15000000000E+04  0.10566000000E+00 0.  1.
        994   -1    0    0    0    0 -0.00000000000E+00 -0.00000000000E+00  0.11368683772E-12  0.17120000000E+03  0.17120000000E+03 0.  0.
         13    1    1    2    0    0  0.14763155125E+02  0.45904397691E+01  0.44275760314E+02  0.46897515946E+02  0.10566000000E+00 0.  1.
        994    1    1    2    0    0 -0.19486869395E+02 -0.11791179109E+02  0.42422942344E+01  0.17276054829E+03  0.17120000000E+03 0.  0.
        998    1    1    2    0    0  0.47237142703E+01  0.72007393401E+01  0.14514819417E+04  0.14515419358E+04  0.10000000000E+02 0.  1.
</event>
<event>
 5    1  0.2000544E-008  0.3858443E+03  0.7957747E-01  0.3426099E+00
         13   -1    0    0    0    0  0.00000000000E+00  0.00000000000E+00  0.14999999963E+04  0.15000000000E+04  0.10566000000E+00 0.  1.
        994   -1    0    0    0    0 -0.00000000000E+00 -0.00000000000E+00  0.11368683772E-12  0.17120000000E+03  0.17120000000E+03 0.  0.
         13    1    1    2    0    0  0.10700685937E+02 -0.12098234899E+01  0.50272186123E+02  0.51412763143E+02  0.10566000000E+00 0.  1.
        994    1    1    2    0    0 -0.15732827263E+01 -0.42449367924E+01  0.12787398813E+01  0.17126461947E+03  0.17120000000E+03 0.  0.
        998    1    1    2    0    0 -0.91274032108E+01  0.54547602824E+01  0.14484490703E+04  0.14485226174E+04  0.10000000000E+02 0.  1.
</event>
<event>
 5    1  0.1675361E-008  0.3739791E+03  0.7957747E-01  0.3477801E+00
         13   -1    0    0    0    0  0.00000000000E+00  0.00000000000E+00  0.14999999963E+04  0.15000000000E+04  0.10566000000E+00 0. -1.
        994   -1    0    0    0    0 -0.00000000000E+00 -0.00000000000E+00  0.11368683772E-12  0.17120000000E+03  0.17120000000E+03 0.  0.
         13    1    1    2    0    0  0.62281623977E+02 -0.28039985207E+02  0.28046298656E+03  0.28866024917E+03  0.10566000000E+00 0. -1.
        994    1    1    2    0    0 -0.55001305381E+02  0.21408475495E+02  0.19180356949E+02  0.18210105027E+03  0.17120000000E+03 0.  0.
        998    1    1    2    0    0 -0.72803185967E+01  0.66315097121E+01  0.12003566528E+04  0.12004387006E+04  0.10000000000E+02 0. -1.
</event>
<event>
 5    1  0.1675361E-008  0.2964118E+03  0.7957747E-01  0.3921973E+00
         13   -1    0    0    0    0  0.00000000000E+00  0.00000000000E+00  0.14999999963E+04  0.15000000000E+04  0.10566000000E+00 0.  1.
        994   -1    0    0    0    0 -0.00000000000E+00 -0.00000000000E+00  0.11368683772E-12  0.17120000000E+03  0.17120000000E+03 0.  0.
         13    1    1    2    0    0 -0.38503909143E+02 -0.20624944226E+03  0.57445539958E+03  0.61157207320E+03  0.10566000000E+00 0.  1.
        994    1    1    2    0    0  0.35812163223E+02  0.19406362414E+03  0.18789018975E+03  0.32180019368E+03  0.17120000000E+03 0.  0.
        998    1    1    2    0    0  0.26917459201E+01  0.12185818114E+02  0.73765440695E+03  0.73782773311E+03  0.10000000000E+02 0. -1.
</event>
<event>
 5    1  0.1675361E-008  0.3757583E+03  0.7957747E-01  0.3469838E+00
         13   -1    0    0    0    0  0.00000000000E+00  0.00000000000E+00  0.14999999963E+04  0.15000000000E+04  0.10566000000E+00 0.  1.
        994   -1    0    0    0    0 -0.00000000000E+00 -0.00000000000E+00  0.11368683772E-12  0.17120000000E+03  0.17120000000E+03 0.  0.
         13    1    1    2    0    0 -0.11479145140E+02  0.31846202215E+02  0.34747118299E+02  0.48511078763E+02  0.10566000000E+00 0.  1.
        994    1    1    2    0    0 -0.42426326816E+01 -0.34484973836E+02  0.18336174887E+02  0.17564984675E+03  0.17120000000E+03 0.  0.
        998    1    1    2    0    0  0.15721777821E+02  0.26387716208E+01  0.14469167031E+04  0.14470390745E+04  0.10000000000E+02 0.  1.
</event>
<event>
 5    1  0.1675361E-008  0.3690090E+03  0.7957747E-01  0.3500458E+00
         13   -1    0    0    0    0  0.00000000000E+00  0.00000000000E+00  0.14999999963E+04  0.15000000000E+04  0.10566000000E+00 0. -1.
        994   -1    0    0    0    0 -0.00000000000E+00 -0.00000000000E+00  0.11368683772E-12  0.17120000000E+03  0.17120000000E+03 0.  0.
         13    1    1    2    0    0  0.19250710711E+03  0.10638727272E+03  0.79325027380E+03  0.82317874495E+03  0.10566000000E+00 0. -1.
        994    1    1    2    0    0 -0.18641748403E+03 -0.12712983381E+03  0.21474682415E+03  0.35544213520E+03  0.17120000000E+03 0.  0.
        998    1    1    2    0    0 -0.60896230818E+01  0.20742561084E+02  0.49200289833E+03  0.49257911985E+03  0.10000000000E+02 0. -1.
</event>
<event>
 5    1  0.1675361E-008  0.3042824E+03  0.7957747E-01  0.3865913E+00
         13   -1    0    0    0    0  0.00000000000E+00  0.00000000000E+00  0.14999999963E+04  0.15000000000E+04  0.10566000000E+00 0. -1.
        994   -1    0    0    0    0 -0.00000000000E+00 -0.00000000000E+00  0.11368683772E-12  0.17120000000E+03  0.17120000000E+03 0.  0.
         13    1    1    2    0    0 -0.13545960004E+03 -0.16594794954E+03  0.98145989043E+03  0.10045653552E+04  0.10566000000E+00 0. -1.
        994    1    1    2    0    0  0.34356599617E+02  0.56110867539E+02  0.74318016358E+02  0.19789242772E+03  0.17120000000E+03 0.  0.
        998    1    1    2    0    0  0.10110300042E+03  0.10983708200E+03  0.44422208949E+03  0.46874221707E+03  0.10000000000E+02 0. -1.
</event>
<event>
 5    1  0.1675361E-008  0.3708045E+03  0.7957747E-01  0.3492202E+00
         13   -1    0    0    0    0  0.00000000000E+00  0.00000000000E+00  0.14999999963E+04  0.15000000000E+04  0.10566000000E+00 0.  1.
        994   -1    0    0    0    0 -0.00000000000E+00 -0.00000000000E+00  0.11368683772E-12  0.17120000000E+03  0.17120000000E+03 0.  0.
         13    1    1    2    0    0 -0.17408241993E+02  0.35545237708E+02  0.78643703248E+02  0.88041774389E+02  0.10566000000E+00 0.  1.
        994    1    1    2    0    0  0.35791119295E+02 -0.36701002943E+02  0.17965739401E+02  0.17961117902E+03  0.17120000000E+03 0.  0.
        998    1    1    2    0    0 -0.18382877302E+02  0.11557652343E+01  0.14033905536E+04  0.14035470466E+04  0.10000000000E+02 0.  1.
</event>
<event>
 5    1  0.1675361E-008  0.3843409E+03  0.7957747E-01  0.3432472E+00
         13   -1    0    0    0    0  0.00000000000E+00  0.00000000000E+00  0.14999999963E+04  0.15000000000E+04  0.10566000000E+00 0.  1.
        994   -1    0    0    0    0 -0.00000000000E+00 -0.00000000000E+00  0.11368683772E-12  0.17120000000E+03  0.17120000000E+03 0.  0.
         13    1    1    2    0    0 -0.19968564134E+02 -0.81446283595E+00  0.11773302580E+03  0.11941726605E+03  0.10566000000E+00 0.  1.
        994    1    1    2    0    0 -0.56108816367E+01  0.94341254192E+00  0.20644335554E+01  0.17130695814E+03  0.17120000000E+03 0.  0.
        998    1    1    2    0    0  0.25579445770E+02 -0.12894970597E+00  0.13802025369E+04  0.13804757758E+04  0.10000000000E+02 0.  1.
</event>
<event>
 5    1  0.1884578E-008  0.3863634E+03  0.7957747E-01  0.3423911E+00
         13   -1    0    0    0    0  0.00000000000E+00  0.00000000000E+00  0.14999999963E+04  0.15000000000E+04  0.10566000000E+00 0. -1.
        994   -1    0    0    0    0 -0.00000000000E+00 -0.00000000000E+00  0.11368683772E-12  0.17120000000E+03  0.17120000000E+03 0.  0.
         13    1    1    2    0    0  0.10676831953E+02 -0.25139856983E+01  0.59228655672E+02  0.60235867068E+02  0.10566000000E+00 0. -1.
        994    1    1    2    0    0 -0.22756944761E+02 -0.16045358199E+02  0.34974562267E+01  0.17348488192E+03  0.17120000000E+03 0.  0.
        998    1    1    2    0    0  0.12080112808E+02  0.18559343898E+02  0.14372738844E+04  0.14374792510E+04  0.10000000000E+02 0. -1.
</event>
<event>
 5    1  0.1675361E-008  0.4077192E+03  0.7957747E-01  0.3338685E+00
         13   -1    0    0    0    0  0.00000000000E+00  0.00000000000E+00  0.14999999963E+04  0.15000000000E+04  0.10566000000E+00 0. -1.
        994   -1    0    0    0    0 -0.00000000000E+00 -0.00000000000E+00  0.11368683772E-12  0.17120000000E+03  0.17120000000E+03 0.  0.
         13    1    1    2    0    0  0.25875446627E+02  0.21355715432E+02  0.39098615974E+01  0.33777263084E+02  0.10566000000E+00 0. -1.
        994    1    1    2    0    0 -0.20869042589E+02 -0.27609617091E+02  0.37331965353E+02  0.17860829637E+03  0.17120000000E+03 0.  0.
        998    1    1    2    0    0 -0.50064040381E+01  0.62539016599E+01  0.14587581693E+04  0.14588144405E+04  0.10000000000E+02 0. -1.
</event>
<event>
 5    1  0.1675361E-008  0.3796468E+03  0.7957747E-01  0.3452698E+00
         13   -1    0    0    0    0  0.00000000000E+00  0.00000000000E+00  0.14999999963E+04  0.15000000000E+04  0.10566000000E+00 0.  1.
        994   -1    0    0    0    0 -0.00000000000E+00 -0.00000000000E+00  0.11368683772E-12  0.17120000000E+03  0.17120000000E+03 0.  0.
         13    1    1    2    0    0 -0.21358854208E+02  0.29312783112E+02  0.12863369840E+03  0.13364909066E+03  0.10566000000E+00 0.  1.
        994    1    1    2    0    0  0.38190487506E+02 -0.34286147293E+02  0.13178200566E+02  0.17921260615E+03  0.17120000000E+03 0.  0.
        998    1    1    2    0    0 -0.16831633299E+02  0.49733641812E+01  0.13581880973E+04  0.13583383032E+04  0.10000000000E+02 0.  1.
</event>
<event>
 5    1  0.1675361E-008  0.3826123E+03  0.7957747E-01  0.3439862E+00
         13   -1    0    0    0    0  0.00000000000E+00  0.00000000000E+00  0.14999999963E+04  0.15000000000E+04  0.10566000000E+00 0. -1.
        994   -1    0    0    0    0 -0.00000000000E+00 -0.00000000000E+00  0.11368683772E-12  0.17120000000E+03  0.17120000000E+03 0.  0.
         13    1    1    2    0    0  0.28876279530E+02 -0.44387861807E+01  0.16848336067E+03  0.17099765007E+03  0.10566000000E+00 0. -1.
        994    1    1    2    0    0 -0.67907489931E+01 -0.17473026082E+02  0.39858418200E+01  0.17226940485E+03  0.17120000000E+03 0.  0.
        998    1    1    2    0    0 -0.22085530537E+02  0.21911812262E+02  0.13275307938E+04  0.13279329451E+04  0.10000000000E+02 0. -1.
</event>
<event>
 5    1  0.1675361E-008  0.3804839E+03  0.7957747E-01  0.3449054E+00
         13   -1    0    0    0    0  0.00000000000E+00  0.00000000000E+00  0.14999999963E+04  0.15000000000E+04  0.10566000000E+00 0. -1.
        994   -1    0    0    0    0 -0.00000000000E+00 -0.00000000000E+00  0.11368683772E-12  0.17120000000E+03  0.17120000000E+03 0.  0.
         13    1    1    2    0    0 -0.15111216145E+01 -0.13842201981E+02  0.23885547079E+02  0.27648156675E+02  0.10566000000E+00 0. -1.
        994    1    1    2    0    0 -0.77957228542E+01  0.26954018195E+01  0.41162106359E+01  0.17144801450E+03  0.17120000000E+03 0.  0.
        998    1    1    2    0    0  0.93068444687E+01  0.11146800162E+02  0.14719982386E+04  0.14721038288E+04  0.10000000000E+02 0. -1.
</event>
<event>
 5    1  0.1675361E-008  0.3716135E+03  0.7957747E-01  0.3488508E+00
         13   -1    0    0    0    0  0.00000000000E+00  0.00000000000E+00  0.14999999963E+04  0.15000000000E+04  0.10566000000E+00 0.  1.
        994   -1    0    0    0    0 -0.00000000000E+00 -0.00000000000E+00  0.11368683772E-12  0.17120000000E+03  0.17120000000E+03 0.  0.
         13    1    1    2    0    0 -0.64451976496E+02  0.61670303155E+02  0.27197999433E+03  0.28623488963E+03  0.10566000000E+00 0.  1.
        994    1    1    2    0    0  0.66435404786E+02 -0.59296296146E+02  0.40222891805E+02  0.19712187796E+03  0.17120000000E+03 0.  0.
        998    1    1    2    0    0 -0.19834282901E+01 -0.23740070084E+01  0.11877971101E+04  0.11878432324E+04  0.10000000000E+02 0.  1.
</event>
<event>
 5    1  0.1675361E-008  0.3822134E+03  0.7957747E-01  0.3441577E+00
         13   -1    0    0    0    0  0.00000000000E+00  0.00000000000E+00  0.14999999963E+04  0.15000000000E+04  0.10566000000E+00 0.  1.
        994   -1    0    0    0    0 -0.00000000000E+00 -0.00000000000E+00  0.11368683772E-12  0.17120000000E+03  0.17120000000E+03 0.  0.
         13    1    1    2    0    0 -0.29152293455E+01 -0.10780384087E+02  0.19289392404E+02  0.22289169265E+02  0.10566000000E+00 0.  1.
        994    1    1    2    0    0  0.90970323105E+00  0.11028143931E+02  0.34264577630E+01  0.17159145705E+03  0.17120000000E+03 0.  0.
        998    1    1    2    0    0  0.20055261144E+01 -0.24775984369E+00  0.14772841461E+04  0.14773193737E+04  0.10000000000E+02 0.  1.
</event>
<event>
 5    1  0.1675361E-008  0.3812409E+03  0.7957747E-01  0.3445773E+00
         13   -1    0    0    0    0  0.00000000000E+00  0.00000000000E+00  0.14999999963E+04  0.15000000000E+04  0.10566000000E+00 0. -1.
        994   -1    0    0    0    0 -0.00000000000E+00 -0.00000000000E+00  0.11368683772E-12  0.17120000000E+03  0.17120000000E+03 0.  0.
         13    1    1    2    0    0 -0.20580975013E+02  0.10787071665E+02  0.68160941499E+02  0.72012933266E+02  0.10566000000E+00 0. -1.
        994    1    1    2    0    0  0.38948779216E+02 -0.73560784893E+01  0.87564698340E+01  0.17594668243E+03  0.17120000000E+03 0.  0.
        998    1    1    2    0    0 -0.18367804203E+02 -0.34309931756E+01  0.14230825849E+04  0.14232403843E+04  0.10000000000E+02 0. -1.
</event>
<event>
 5    1  0.1675361E-008  0.3759998E+03  0.7957747E-01  0.3468763E+00
         13   -1    0    0    0    0  0.00000000000E+00  0.00000000000E+00  0.14999999963E+04  0.15000000000E+04  0.10566000000E+00 0. -1.
        994   -1    0    0    0    0 -0.00000000000E+00 -0.00000000000E+00  0.11368683772E-12  0.17120000000E+03  0.17120000000E+03 0.  0.
         13    1    1    2    0    0  0.33235434847E+02 -0.44090253475E+02  0.24417087061E+03  0.25033571419E+03  0.10566000000E+00 0. -1.
        994    1    1    2    0    0 -0.18462206472E+02  0.26457323254E+02  0.97004481683E+01  0.17448318462E+03  0.17120000000E+03 0.  0.
        998    1    1    2    0    0 -0.14773228375E+02  0.17632930221E+02  0.12461286775E+04  0.12463811012E+04  0.10000000000E+02 0. -1.
</event>
<event>
 5    1  0.1675361E-008  0.3770069E+03  0.7957747E-01  0.3464296E+00
         13   -1    0    0    0    0  0.00000000000E+00  0.00000000000E+00  0.14999999963E+04  0.15000000000E+04  0.10566000000E+00 0. -1.
        994   -1    0    0    0    0 -0.00000000000E+00 -0.00000000000E+00  0.11368683772E-12  0.17120000000E+03  0.17120000000E+03 0.  0.
         13    1    1    2    0    0 -0.10897668430E+02 -0.14307497245E+02  0.25710929227E+02  0.31377168458E+02  0.10566000000E+00 0. -1.
        994    1    1    2    0    0  0.75954360503E+01  0.19811587860E+02  0.71732245925E+01  0.17265886833E+03  0.17120000000E+03 0.  0.
        998    1    1    2    0    0  0.33022323801E+01 -0.55040906148E+01  0.14671158425E+04  0.14671639632E+04  0.10000000000E+02 0. -1.
</event>
<event>
 5    1  0.1675361E-008  0.3847429E+03  0.7957747E-01  0.3430763E+00
         13   -1    0    0    0    0  0.00000000000E+00  0.00000000000E+00  0.14999999963E+04  0.15000000000E+04  0.10566000000E+00 0.  1.
        994   -1    0    0    0    0 -0.00000000000E+00 -0.00000000000E+00  0.11368683772E-12  0.17120000000E+03  0.17120000000E+03 0.  0.
         13    1    1    2    0    0 -0.10319142480E+02  0.46838402908E+01  0.37088626239E+02  0.38781444297E+02  0.10566000000E+00 0.  1.
        994    1    1    2    0    0  0.31845477164E+01  0.86302721460E-01  0.17912455274E+01  0.17123900652E+03  0.17120000000E+03 0.  0.
        998    1    1    2    0    0  0.71345947637E+01 -0.47701430122E+01  0.14611201245E+04  0.14611795492E+04  0.10000000000E+02 0.  1.
</event>
<event>
 5    1  0.1675361E-008  0.3814502E+03  0.7957747E-01  0.3444868E+00
         13   -1    0    0    0    0  0.00000000000E+00  0.00000000000E+00  0.14999999963E+04  0.15000000000E+04  0.10566000000E+00 0. -1.
        994   -1    0    0    0    0 -0.00000000000E+00 -0.00000000000E+00  0.11368683772E-12  0.17120000000E+03  0.17120000000E+03 0.  0.
         13    1    1    2    0    0  0.10974280142E+02  0.12861135005E+01  0.16503669603E+02  0.19861298723E+02  0.10566000000E+00 0. -1.
        994    1    1    2    0    0 -0.86220398675E+01  0.64763504176E+00  0.36516343676E+01  0.17145708920E+03  0.17120000000E+03 0.  0.
        998    1    1    2    0    0 -0.23522402742E+01 -0.19337485423E+01  0.14798446923E+04  0.14798816121E+04  0.10000000000E+02 0. -1.
</event>
<event>
 5    1  0.1675361E-008  0.3804020E+03  0.7957747E-01  0.3449410E+00
         13   -1    0    0    0    0  0.00000000000E+00  0.00000000000E+00  0.14999999963E+04  0.15000000000E+04  0.10566000000E+00 0. -1.
        994   -1    0    0    0    0 -0.00000000000E+00 -0.00000000000E+00  0.11368683772E-12  0.17120000000E+03  0.17120000000E+03 0.  0.
         13    1    1    2    0    0  0.14528795030E+01 -0.11780444174E+02  0.16154218361E+02  0.20046437556E+02  0.10566000000E+00 0. -1.
        994    1    1    2    0    0  0.11867832485E+01  0.11181983045E+02  0.43525817568E+01  0.17162409553E+03  0.17120000000E+03 0.  0.
        998    1    1    2    0    0 -0.26396627516E+01  0.59846112888E+00  0.14794931962E+04  0.14795294669E+04  0.10000000000E+02 0. -1.
</event>
<event>
 5    1  0.1675361E-008  0.3847328E+03  0.7957747E-01  0.3430806E+00
         13   -1    0    0    0    0  0.00000000000E+00  0.00000000000E+00  0.14999999963E+04  0.15000000000E+04  0.10566000000E+00 0. -1.
        994   -1    0    0    0    0 -0.00000000000E+00 -0.00000000000E+00  0.11368683772E-12  0.17120000000E+03  0.17120000000E+03 0.  0.
         13    1    1    2    0    0 -0.13444695734E+02 -0.11230015189E+02  0.92104031554E+02  0.93755196533E+02  0.10566000000E+00 0. -1.
        994    1    1    2    0    0 -0.26700031527E+01  0.86542453994E+01  0.20328810286E+01  0.17145144352E+03  0.17120000000E+03 0.  0.
        998    1    1    2    0    0  0.16114698887E+02  0.25757697892E+01  0.14058630837E+04  0.14059933599E+04  0.10000000000E+02 0. -1.
</event>
<event>
 5    1  0.1675361E-008  0.3717833E+03  0.7957747E-01  0.3487735E+00
         13   -1    0    0    0    0  0.00000000000E+00  0.00000000000E+00  0.14999999963E+04  0.15000000000E+04  0.10566000000E+00 0.  1.
        994   -1    0    0    0    0 -0.00000000000E+00 -0.00000000000E+00  0.11368683772E-12  0.17120000000E+03  0.17120000000E+03 0.  0.
         13    1    1    2    0    0  0.87429354131E+01 -0.50488694246E+01  0.22293739667E+01  0.10339790831E+02  0.10566000000E+00 0.  1.
        994    1    1    2    0    0 -0.24476324039E+01  0.76274703097E+01  0.85604906811E+01  0.17160096506E+03  0.17120000000E+03 0.  0.
        998    1    1    2    0    0 -0.62953030092E+01 -0.25786008851E+01  0.14892101316E+04  0.14892592441E+04  0.10000000000E+02 0.  1.
</event>
<event>
 5    1  0.1675361E-008  0.3693333E+03  0.7957747E-01  0.3498960E+00
         13   -1    0    0    0    0  0.00000000000E+00  0.00000000000E+00  0.14999999963E+04  0.15000000000E+04  0.10566000000E+00 0.  1.
        994   -1    0    0    0    0 -0.00000000000E+00 -0.00000000000E+00  0.11368683772E-12  0.17120000000E+03  0.17120000000E+03 0.  0.
         13    1    1    2    0    0 -0.64433294011E+02 -0.53661256351E+02  0.46547320091E+03  0.47296563484E+03  0.10566000000E+00 0.  1.
        994    1    1    2    0    0 -0.22569048976E+01  0.37410796347E+02  0.14501654324E+02  0.17585334595E+03  0.17120000000E+03 0.  0.
        998    1    1    2    0    0  0.66690198909E+02  0.16250460004E+02  0.10200251410E+04  0.10223810192E+04  0.10000000000E+02 0.  1.
</event>
<event>
 5    1  0.1675361E-008  0.3725346E+03  0.7957747E-01  0.3484323E+00
         13   -1    0    0    0    0  0.00000000000E+00  0.00000000000E+00  0.14999999963E+04  0.15000000000E+04  0.10566000000E+00 0.  1.
        994   -1    0    0    0    0 -0.00000000000E+00 -0.00000000000E+00  0.11368683772E-12  0.17120000000E+03  0.17120000000E+03 0.  0.
         13    1    1    2    0    0  0.63596875494E+02 -0.31968846335E+02  0.17311578248E+03  0.18717813712E+03  0.10566000000E+00 0.  1.
        994    1    1    2    0    0 -0.79460379693E+02  0.17627703146E+02  0.36036034835E+02  0.19295782872E+03  0.17120000000E+03 0.  0.
        998    1    1    2    0    0  0.15863504199E+02  0.14341143190E+02  0.12908481790E+04  0.12910640342E+04  0.10000000000E+02 0.  1.
</event>
<event>
 5    1  0.1675361E-008  0.3826374E+03  0.7957747E-01  0.3439754E+00
         13   -1    0    0    0    0  0.00000000000E+00  0.00000000000E+00  0.14999999963E+04  0.15000000000E+04  0.10566000000E+00 0. -1.
        994   -1    0    0    0    0 -0.00000000000E+00 -0.00000000000E+00  0.11368683772E-12  0.17120000000E+03  0.17120000000E+03 0.  0.
         13    1    1    2    0    0 -0.68155957719E+01 -0.18010965896E+02  0.61557731253E+02  0.64499710692E+02  0.10566000000E+00 0. -1.
        994    1    1    2    0    0  0.41501522979E+01  0.24456120809E+02  0.48495423447E+01  0.17305572418E+03  0.17120000000E+03 0.  0.
        998    1    1    2    0    0  0.26654434740E+01 -0.64451549131E+01  0.14335927227E+04  0.14336445651E+04  0.10000000000E+02 0. -1.
</event>
<event>
 5    1  0.1675361E-008  0.3712678E+03  0.7957747E-01  0.3490085E+00
         13   -1    0    0    0    0  0.00000000000E+00  0.00000000000E+00  0.14999999963E+04  0.15000000000E+04  0.10566000000E+00 0.  1.
        994   -1    0    0    0    0 -0.00000000000E+00 -0.00000000000E+00  0.11368683772E-12  0.17120000000E+03  0.17120000000E+03 0.  0.
         13    1    1    2    0    0  0.44611951426E+02 -0.10418087495E+01  0.11890548541E+03  0.12700329602E+03  0.10566000000E+00 0.  1.
        994    1    1    2    0    0 -0.14271997292E+02  0.10448597671E+02  0.96857065763E+01  0.17238363035E+03  0.17120000000E+03 0.  0.
        998    1    1    2    0    0 -0.30339954134E+02 -0.94067889211E+01  0.13714088043E+04  0.13718130736E+04  0.10000000000E+02 0.  1.
</event>
<event>
 5    1  0.1675361E-008  0.3835213E+03  0.7957747E-01  0.3435968E+00
         13   -1    0    0    0    0  0.00000000000E+00  0.00000000000E+00  0.14999999963E+04  0.15000000000E+04  0.10566000000E+00 0. -1.
        994   -1    0    0    0    0 -0.00000000000E+00 -0.00000000000E+00  0.11368683772E-12  0.17120000000E+03  0.17120000000E+03 0.  0.
         13    1    1    2    0    0  0.10672014603E+02  0.23497885306E+02  0.14892273389E+03  0.15114243065E+03  0.10566000000E+00 0. -1.
        994    1    1    2    0    0  0.14893204125E+02 -0.16524801589E+02  0.40030902084E+01  0.17268567204E+03  0.17120000000E+03 0.  0.
        998    1    1    2    0    0 -0.25565218728E+02 -0.69730837176E+01  0.13470741722E+04  0.13473718973E+04  0.10000000000E+02 0. -1.
</event>
<event>
 5    1  0.1675361E-008  0.3857933E+03  0.7957747E-01  0.3426315E+00
         13   -1    0    0    0    0  0.00000000000E+00  0.00000000000E+00  0.14999999963E+04  0.15000000000E+04  0.10566000000E+00 0. -1.
        994   -1    0    0    0    0 -0.00000000000E+00 -0.00000000000E+00  0.11368683772E-12  0.17120000000E+03  0.17120000000E+03 0.  0.
         13    1    1    2    0    0  0.10866572337E+02 -0.43084569494E+01  0.57436970070E+02  0.58614519451E+02  0.10566000000E+00 0. -1.
        994    1    1    2    0    0 -0.31085354179E+01  0.13452690577E+01  0.12744072143E+01  0.17123824589E+03  0.17120000000E+03 0.  0.
        998    1    1    2    0    0 -0.77580369195E+01  0.29631878916E+01  0.14412886190E+04  0.14413472347E+04  0.10000000000E+02 0. -1.
</event>
<event>
 5    1  0.1675361E-008  0.3796069E+03  0.7957747E-01  0.3452872E+00
         13   -1    0    0    0    0  0.00000000000E+00  0.00000000000E+00  0.14999999963E+04  0.15000000000E+04  0.10566000000E+00 0. -1.
        994   -1    0    0    0    0 -0.00000000000E+00 -0.00000000000E+00  0.11368683772E-12  0.17120000000E+03  0.17120000000E+03 0.  0.
         13    1    1    2    0    0 -0.21824045204E+02  0.11622415690E+02  0.68234973320E+02  0.72576802379E+02  0.10566000000E+00 0. -1.
        994    1    1    2    0    0  0.20123406622E+02 -0.11471213817E+01  0.56927916202E+01  0.17247641943E+03  0.17120000000E+03 0.  0.
        998    1    1    2    0    0  0.17006385813E+01 -0.10475294308E+02  0.14260722313E+04  0.14261467782E+04  0.10000000000E+02 0. -1.
</event>
<event>
 5    1  0.1675361E-008  0.3802613E+03  0.7957747E-01  0.3450022E+00
         13   -1    0    0    0    0  0.00000000000E+00  0.00000000000E+00  0.14999999963E+04  0.15000000000E+04  0.10566000000E+00 0. -1.
        994   -1    0    0    0    0 -0.00000000000E+00 -0.00000000000E+00  0.11368683772E-12  0.17120000000E+03  0.17120000000E+03 0.  0.
         13    1    1    2    0    0 -0.33561615356E+02 -0.52626963218E+01  0.15530132914E+03  0.15897355754E+03  0.10566000000E+00 0. -1.
        994    1    1    2    0    0  0.58762978197E+01  0.10978183702E+02  0.45193627896E+01  0.17171172363E+03  0.17120000000E+03 0.  0.
        998    1    1    2    0    0  0.27685317536E+02 -0.57154873798E+01  0.13401793043E+04  0.13405147188E+04  0.10000000000E+02 0. -1.
</event>
<event>
 5    1  0.1675361E-008  0.3758616E+03  0.7957747E-01  0.3469378E+00
         13   -1    0    0    0    0  0.00000000000E+00  0.00000000000E+00  0.14999999963E+04  0.15000000000E+04  0.10566000000E+00 0.  1.
        994   -1    0    0    0    0 -0.00000000000E+00 -0.00000000000E+00  0.11368683772E-12  0.17120000000E+03  0.17120000000E+03 0.  0.
         13    1    1    2    0    0 -0.82209734930E+02 -0.78071525802E+01  0.38650353888E+03  0.39522700930E+03  0.10566000000E+00 0.  1.
        994    1    1    2    0    0  0.86270492959E+02  0.84526813617E+01  0.32145871065E+02  0.19456834995E+03  0.17120000000E+03 0.  0.
        998    1    1    2    0    0 -0.40607580285E+01 -0.64552878156E+00  0.10813505863E+04  0.10814046407E+04  0.10000000000E+02 0.  0.
</event>
<event>
 5    1  0.1675361E-008  0.3735132E+03  0.7957747E-01  0.3479899E+00
         13   -1    0    0    0    0  0.00000000000E+00  0.00000000000E+00  0.14999999963E+04  0.15000000000E+04  0.10566000000E+00 0.  1.
        994   -1    0    0    0    0 -0.00000000000E+00 -0.00000000000E+00  0.11368683772E-12  0.17120000000E+03  0.17120000000E+03 0.  0.
         13    1    1    2    0    0 -0.87884589969E+01 -0.47780881343E+02  0.14311215930E+03  0.15113355331E+03  0.10566000000E+00 0.  1.
        994    1    1    2    0    0  0.11144849114E+02  0.45748088282E+02  0.15056642881E+02  0.17819438189E+03  0.17120000000E+03 0.  0.
        998    1    1    2    0    0 -0.23563901170E+01  0.20327930604E+01  0.13418311941E+04  0.13418720648E+04  0.10000000000E+02 0.  0.
</event>
<event>
 5    1  0.1675361E-008  0.3759237E+03  0.7957747E-01  0.3469102E+00
         13   -1    0    0    0    0  0.00000000000E+00  0.00000000000E+00  0.14999999963E+04  0.15000000000E+04  0.10566000000E+00 0. -1.
        994   -1    0    0    0    0 -0.00000000000E+00 -0.00000000000E+00  0.11368683772E-12  0.17120000000E+03  0.17120000000E+03 0.  0.
         13    1    1    2    0    0 -0.54769017679E+01 -0.11953240055E+02  0.11139058212E+02  0.17232706771E+02  0.10566000000E+00 0. -1.
        994    1    1    2    0    0 -0.69038433708E+01  0.14374637789E+02  0.70673448841E+01  0.17208625927E+03  0.17120000000E+03 0.  0.
        998    1    1    2    0    0  0.12380745139E+02 -0.24213977344E+01  0.14817935932E+04  0.14818810340E+04  0.10000000000E+02 0. -1.
</event>
<event>
 5    1  0.1675361E-008  0.3807374E+03  0.7957747E-01  0.3447954E+00
         13   -1    0    0    0    0  0.00000000000E+00  0.00000000000E+00  0.14999999963E+04  0.15000000000E+04  0.10566000000E+00 0. -1.
        994   -1    0    0    0    0 -0.00000000000E+00 -0.00000000000E+00  0.11368683772E-12  0.17120000000E+03  0.17120000000E+03 0.  0.
         13    1    1    2    0    0 -0.27846484917E+02 -0.20727477921E+02  0.15926917037E+03  0.16300838892E+03  0.10566000000E+00 0. -1.
        994    1    1    2    0    0  0.22123656411E+02  0.40488861431E+01  0.54501142868E+01  0.17275703574E+03  0.17120000000E+03 0.  0.
        998    1    1    2    0    0  0.57228285061E+01  0.16678591778E+02  0.13352807116E+04  0.13354345753E+04  0.10000000000E+02 0. -1.
</event>
<event>
 5    1  0.1675361E-008  0.3853426E+03  0.7957747E-01  0.3428221E+00
         13   -1    0    0    0    0  0.00000000000E+00  0.00000000000E+00  0.14999999963E+04  0.15000000000E+04  0.10566000000E+00 0.  1.
        994   -1    0    0    0    0 -0.00000000000E+00 -0.00000000000E+00  0.11368683772E-12  0.17120000000E+03  0.17120000000E+03 0.  0.
         13    1    1    2    0    0  0.11531395911E+02 -0.85750358533E+01  0.68513041632E+02  0.70003945383E+02  0.10566000000E+00 0.  1.
        994    1    1    2    0    0 -0.15652786145E+02  0.35482568420E+01  0.23068302462E+01  0.17196616326E+03  0.17120000000E+03 0.  0.
        998    1    1    2    0    0  0.41213902331E+01  0.50267790113E+01  0.14291801244E+04  0.14292298914E+04  0.10000000000E+02 0.  1.
</event>
<event>
 5    1  0.1675361E-008  0.3777746E+03  0.7957747E-01  0.3460906E+00
         13   -1    0    0    0    0  0.00000000000E+00  0.00000000000E+00  0.14999999963E+04  0.15000000000E+04  0.10566000000E+00 0.  1.
        994   -1    0    0    0    0 -0.00000000000E+00 -0.00000000000E+00  0.11368683772E-12  0.17120000000E+03  0.17120000000E+03 0.  0.
         13    1    1    2    0    0 -0.70775931497E+02 -0.11144268640E+03  0.77120714385E+03  0.78242518794E+03  0.10566000000E+00 0.  1.
        994    1    1    2    0    0  0.72936566896E+02  0.10834101032E+03  0.65043165846E+02  0.22493903781E+03  0.17120000000E+03 0.  0.
        998    1    1    2    0    0 -0.21606353985E+01  0.31016760849E+01  0.66374968658E+03  0.66383577425E+03  0.10000000000E+02 0.  0.
</event>
<event>
 5    1  0.1675361E-008  0.3841994E+03  0.7957747E-01  0.3433075E+00
         13   -1    0    0    0    0  0.00000000000E+00  0.00000000000E+00  0.14999999963E+04  0.15000000000E+04  0.10566000000E+00 0. -1.
        994   -1    0    0    0    0 -0.00000000000E+00 -0.00000000000E+00  0.11368683772E-12  0.17120000000E+03  0.17120000000E+03 0.  0.
         13    1    1    2    0    0 -0.18348950314E+02 -0.81026369586E+00  0.84514006869E+02  0.86486814174E+02  0.10566000000E+00 0. -1.
        994    1    1    2    0    0  0.85388960170E+01  0.32281897530E+01  0.23029774391E+01  0.17145867624E+03  0.17120000000E+03 0.  0.
        998    1    1    2    0    0  0.98100542968E+01 -0.24179260572E+01  0.14131830120E+04  0.14132545096E+04  0.10000000000E+02 0. -1.
</event>
<event>
 5    1  0.1675361E-008  0.3866011E+03  0.7957747E-01  0.3422910E+00
         13   -1    0    0    0    0  0.00000000000E+00  0.00000000000E+00  0.14999999963E+04  0.15000000000E+04  0.10566000000E+00 0.  1.
        994   -1    0    0    0    0 -0.00000000000E+00 -0.00000000000E+00  0.11368683772E-12  0.17120000000E+03  0.17120000000E+03 0.  0.
         13    1    1    2    0    0  0.55674350197E+01  0.10746459577E+02  0.72495309400E+02  0.73498733153E+02  0.10566000000E+00 0.  1.
        994    1    1    2    0    0 -0.19113103461E+02 -0.25961095738E+02  0.42448968438E+01  0.17426057605E+03  0.17120000000E+03 0.  0.
        998    1    1    2    0    0  0.13545668441E+02  0.15214636161E+02  0.14232597900E+04  0.14234406908E+04  0.10000000000E+02 0.  1.
</event>
<event>
 5    1  0.1675361E-008  0.3706076E+03  0.7957747E-01  0.3493103E+00
         13   -1    0    0    0    0  0.00000000000E+00  0.00000000000E+00  0.14999999963E+04  0.15000000000E+04  0.10566000000E+00 0.  1.
        994   -1    0    0    0    0 -0.00000000000E+00 -0.00000000000E+00  0.11368683772E-12  0.17120000000E+03  0.17120000000E+03 0.  0.
         13    1    1    2    0    0  0.53868921802E+02  0.54395246285E+02  0.29335214957E+03  0.30317684340E+03  0.10566000000E+00 0.  1.
        994    1    1    2    0    0 -0.57753740974E+02 -0.27517488078E+02  0.23208752798E+02  0.18423027154E+03  0.17120000000E+03 0.  0.
        998    1    1    2    0    0  0.38848191726E+01 -0.26877758207E+02  0.11834390939E+04  0.11837928851E+04  0.10000000000E+02 0.  1.
</event>
<event>
 5    1  0.1675361E-008  0.3850792E+03  0.7957747E-01  0.3429336E+00
         13   -1    0    0    0    0  0.00000000000E+00  0.00000000000E+00  0.14999999963E+04  0.15000000000E+04  0.10566000000E+00 0. -1.
        994   -1    0    0    0    0 -0.00000000000E+00 -0.00000000000E+00  0.11368683772E-12  0.17120000000E+03  0.17120000000E+03 0.  0.
         13    1    1    2    0    0 -0.17136402908E+02 -0.79866399017E+01  0.11406817872E+03  0.11562440608E+03  0.10566000000E+00 0. -1.
        994    1    1    2    0    0  0.10490489555E+02  0.18956549188E+01  0.19645430137E+01  0.17154283228E+03  0.17120000000E+03 0.  0.
        998    1    1    2    0    0  0.66459133539E+01  0.60909849829E+01  0.13839672745E+04  0.13840327616E+04  0.10000000000E+02 0. -1.
</event>
<event>
 5    1  0.1675361E-008  0.3749706E+03  0.7957747E-01  0.3473354E+00
         13   -1    0    0    0    0  0.00000000000E+00  0.00000000000E+00  0.14999999963E+04  0.15000000000E+04  0.10566000000E+00 0.  1.
        994   -1    0    0    0    0 -0.00000000000E+00 -0.00000000000E+00  0.11368683772E-12  0.17120000000E+03  0.17120000000E+03 0.  0.
         13    1    1    2    0    0 -0.65983607493E+01 -0.25650668014E+02  0.50759775804E+02  0.57254354750E+02  0.10566000000E+00 0.  1.
        994    1    1    2    0    0  0.85035625259E+01  0.95729862784E+01  0.72513730578E+01  0.17183124004E+03  0.17120000000E+03 0.  0.
        998    1    1    2    0    0 -0.19052017766E+01  0.16077681736E+02  0.14419888474E+04  0.14421144052E+04  0.10000000000E+02 0.  1.
</event>
<event>
 5    1  0.1675361E-008  0.3732620E+03  0.7957747E-01  0.3481032E+00
         13   -1    0    0    0    0  0.00000000000E+00  0.00000000000E+00  0.14999999963E+04  0.15000000000E+04  0.10566000000E+00 0. -1.
        994   -1    0    0    0    0 -0.00000000000E+00 -0.00000000000E+00  0.11368683772E-12  0.17120000000E+03  0.17120000000E+03 0.  0.
         13    1    1    2    0    0  0.67846713226E+02 -0.48775202572E+02  0.35434473279E+03  0.36406372753E+03  0.10566000000E+00 0. -1.
        994    1    1    2    0    0 -0.63050920605E+02  0.51890738346E+02  0.30728892224E+02  0.19215038936E+03  0.17120000000E+03 0.  0.
        998    1    1    2    0    0 -0.47957926203E+01 -0.31155357736E+01  0.11149263713E+04  0.11149858831E+04  0.10000000000E+02 0.  1.
</event>
<event>
 5    1  0.1675361E-008  0.3826275E+03  0.7957747E-01  0.3439797E+00
         13   -1    0    0    0    0  0.00000000000E+00  0.00000000000E+00  0.14999999963E+04  0.15000000000E+04  0.10566000000E+00 0.  1.
        994   -1    0    0    0    0 -0.00000000000E+00 -0.00000000000E+00  0.11368683772E-12  0.17120000000E+03  0.17120000000E+03 0.  0.
         13    1    1    2    0    0  0.13733390186E+02 -0.19812020398E+02  0.97911138610E+02  0.10083513468E+03  0.10566000000E+00 0.  1.
        994    1    1    2    0    0 -0.68166608318E+01  0.22655797032E+02  0.46699217697E+01  0.17289013903E+03  0.17120000000E+03 0.  0.
        998    1    1    2    0    0 -0.69167293543E+01 -0.28437766341E+01  0.13974189359E+04  0.13974747263E+04  0.10000000000E+02 0.  1.
</event>
<event>
 5    1  0.1675361E-008  0.3785640E+03  0.7957747E-01  0.3457435E+00
         13   -1    0    0    0    0  0.00000000000E+00  0.00000000000E+00  0.14999999963E+04  0.15000000000E+04  0.10566000000E+00 0. -1.
        994   -1    0    0    0    0 -0.00000000000E+00 -0.00000000000E+00  0.11368683772E-12  0.17120000000E+03  0.17120000000E+03 0.  0.
         13    1    1    2    0    0 -0.41255358185E+01  0.16539473123E+02  0.28684474742E+02  0.33367416325E+02  0.10566000000E+00 0. -1.
        994    1    1    2    0    0  0.17379388519E+02  0.21723787077E+01  0.58908223581E+01  0.17219437901E+03  0.17120000000E+03 0.  0.
        998    1    1    2    0    0 -0.13253852701E+02 -0.18711851831E+02  0.14654246992E+04  0.14656382047E+04  0.10000000000E+02 0. -1.
</event>
<event>
 5    1  0.1675361E-008  0.3773956E+03  0.7957747E-01  0.3462578E+00
         13   -1    0    0    0    0  0.00000000000E+00  0.00000000000E+00  0.14999999963E+04  0.15000000000E+04  0.10566000000E+00 0. -1.
        994   -1    0    0    0    0 -0.00000000000E+00 -0.00000000000E+00  0.11368683772E-12  0.17120000000E+03  0.17120000000E+03 0.  0.
         13    1    1    2    0    0  0.12065192470E+02  0.16465000686E+02  0.35081159074E+02  0.40587732173E+02  0.10566000000E+00 0. -1.
        994    1    1    2    0    0  0.12425175367E+02 -0.36766163629E+02  0.10549128203E+02  0.17586034197E+03  0.17120000000E+03 0.  0.
        998    1    1    2    0    0 -0.24490367837E+02  0.20301162943E+02  0.14543697090E+04  0.14547519259E+04  0.10000000000E+02 0. -1.
</event>
<event>
 5    1  0.1675361E-008  0.3807076E+03  0.7957747E-01  0.3448083E+00
         13   -1    0    0    0    0  0.00000000000E+00  0.00000000000E+00  0.14999999963E+04  0.15000000000E+04  0.10566000000E+00 0. -1.
        994   -1    0    0    0    0 -0.00000000000E+00 -0.00000000000E+00  0.11368683772E-12  0.17120000000E+03  0.17120000000E+03 0.  0.
         13    1    1    2    0    0 -0.64341175023E+01 -0.11908553783E+02  0.22844638711E+02  0.26553722961E+02  0.10566000000E+00 0. -1.
        994    1    1    2    0    0  0.67299774431E+01  0.50621473365E+01  0.40129228835E+01  0.17145396316E+03  0.17120000000E+03 0.  0.
        998    1    1    2    0    0 -0.29585994075E+00  0.68464064463E+01  0.14731424347E+04  0.14731923139E+04  0.10000000000E+02 0. -1.
</event>
<event>
 5    1  0.1675361E-008  0.3814748E+03  0.7957747E-01  0.3444762E+00
         13   -1    0    0    0    0  0.00000000000E+00  0.00000000000E+00  0.14999999963E+04  0.15000000000E+04  0.10566000000E+00 0.  1.
        994   -1    0    0    0    0 -0.00000000000E+00 -0.00000000000E+00  0.11368683772E-12  0.17120000000E+03  0.17120000000E+03 0.  0.
         13    1    1    2    0    0  0.19369779521E+02 -0.19121573840E+02  0.10028061822E+03  0.10390878933E+03  0.10566000000E+00 0.  1.
        994    1    1    2    0    0 -0.24428679821E+02  0.18178565269E+02  0.64812211542E+01  0.17400766322E+03  0.17120000000E+03 0.  0.
        998    1    1    2    0    0  0.50589002997E+01  0.94300857074E+00  0.13932381569E+04  0.13932835474E+04  0.10000000000E+02 0.  1.
</event>
<event>
 5    1  0.1675361E-008  0.3818397E+03  0.7957747E-01  0.3443187E+00
         13   -1    0    0    0    0  0.00000000000E+00  0.00000000000E+00  0.14999999963E+04  0.15000000000E+04  0.10566000000E+00 0.  1.
        994   -1    0    0    0    0 -0.00000000000E+00 -0.00000000000E+00  0.11368683772E-12  0.17120000000E+03  0.17120000000E+03 0.  0.
         13    1    1    2    0    0 -0.18004533049E+03  0.43432548579E+02  0.10299184640E+04  0.10464390861E+04  0.10566000000E+00 0.  1.
        994    1    1    2    0    0  0.18745867555E+03 -0.37930414816E+02  0.13616681160E+03  0.29056894532E+03  0.17120000000E+03 0.  0.
        998    1    1    2    0    0 -0.74133450570E+01 -0.55021337627E+01  0.33391472069E+03  0.33419196856E+03  0.10000000000E+02 0.  1.
</event>
<event>
 5    1  0.1675361E-008  0.3716443E+03  0.7957747E-01  0.3488368E+00
         13   -1    0    0    0    0  0.00000000000E+00  0.00000000000E+00  0.14999999963E+04  0.15000000000E+04  0.10566000000E+00 0. -1.
        994   -1    0    0    0    0 -0.00000000000E+00 -0.00000000000E+00  0.11368683772E-12  0.17120000000E+03  0.17120000000E+03 0.  0.
         13    1    1    2    0    0 -0.23738318054E+02  0.30165414363E+02  0.60597074730E+02  0.71731977511E+02  0.10566000000E+00 0. -1.
        994    1    1    2    0    0  0.14067307361E+02 -0.21835967901E+01  0.12523791195E+02  0.17224674910E+03  0.17120000000E+03 0.  0.
        998    1    1    2    0    0  0.96710106936E+01 -0.27981817573E+02  0.14268791304E+04  0.14272212734E+04  0.10000000000E+02 0. -1.
</event>
<event>
 5    1  0.1675361E-008  0.3796415E+03  0.7957747E-01  0.3452721E+00
         13   -1    0    0    0    0  0.00000000000E+00  0.00000000000E+00  0.14999999963E+04  0.15000000000E+04  0.10566000000E+00 0. -1.
        994   -1    0    0    0    0 -0.00000000000E+00 -0.00000000000E+00  0.11368683772E-12  0.17120000000E+03  0.17120000000E+03 0.  0.
         13    1    1    2    0    0  0.89516793169E+01  0.63234101505E+01  0.12030888432E+02  0.16274873856E+02  0.10566000000E+00 0. -1.
        994    1    1    2    0    0 -0.85094872240E+01 -0.15308351508E+01  0.45644412777E+01  0.17147894609E+03  0.17120000000E+03 0.  0.
        998    1    1    2    0    0 -0.44219209292E+00 -0.47925749997E+01  0.14834046666E+04  0.14834461801E+04  0.10000000000E+02 0. -1.
</event>
<event>
 5    1  0.1675361E-008  0.3761913E+03  0.7957747E-01  0.3467912E+00
         13   -1    0    0    0    0  0.00000000000E+00  0.00000000000E+00  0.14999999963E+04  0.15000000000E+04  0.10566000000E+00 0. -1.
        994   -1    0    0    0    0 -0.00000000000E+00 -0.00000000000E+00  0.11368683772E-12  0.17120000000E+03  0.17120000000E+03 0.  0.
         13    1    1    2    0    0 -0.12554405743E+02 -0.26541415996E+01  0.10757145324E+02  0.16744697989E+02  0.10566000000E+00 0. -1.
        994    1    1    2    0    0  0.12884836102E+02  0.29284859109E+01  0.66595885567E+01  0.17183825287E+03  0.17120000000E+03 0.  0.
        998    1    1    2    0    0 -0.33043035911E+00 -0.27434431138E+00  0.14825832624E+04  0.14826170491E+04  0.10000000000E+02 0. -1.
</event>
<event>
 5    1  0.1675361E-008  0.3843537E+03  0.7957747E-01  0.3432418E+00
         13   -1    0    0    0    0  0.00000000000E+00  0.00000000000E+00  0.14999999963E+04  0.15000000000E+04  0.10566000000E+00 0.  1.
        994   -1    0    0    0    0 -0.00000000000E+00 -0.00000000000E+00  0.11368683772E-12  0.17120000000E+03  0.17120000000E+03 0.  0.
         13    1    1    2    0    0  0.81424205188E+01 -0.96951935763E+01  0.40490166359E+02  0.42423584551E+02  0.10566000000E+00 0.  1.
        994    1    1    2    0    0 -0.10046942536E+02  0.40549223540E+01  0.23383062673E+01  0.17155841899E+03  0.17120000000E+03 0.  0.
        998    1    1    2    0    0  0.19045220170E+01  0.56402712223E+01  0.14571715237E+04  0.14572179965E+04  0.10000000000E+02 0.  1.
</event>
<event>
 5    1  0.1675361E-008  0.3843299E+03  0.7957747E-01  0.3432519E+00
         13   -1    0    0    0    0  0.00000000000E+00  0.00000000000E+00  0.14999999963E+04  0.15000000000E+04  0.10566000000E+00 0.  1.
        994   -1    0    0    0    0 -0.00000000000E+00 -0.00000000000E+00  0.11368683772E-12  0.17120000000E+03  0.17120000000E+03 0.  0.
         13    1    1    2    0    0 -0.53163585062E+01  0.11125472667E+02  0.38783054452E+02  0.40696145843E+02  0.10566000000E+00 0.  1.
        994    1    1    2    0    0  0.50631845491E+01 -0.38351575923E+01  0.20961996493E+01  0.17133061117E+03  0.17120000000E+03 0.  0.
        998    1    1    2    0    0  0.25317395706E+00 -0.72903150749E+01  0.14591207422E+04  0.14591732430E+04  0.10000000000E+02 0.  1.
</event>
<event>
 5    1  0.1675361E-008  0.3801606E+03  0.7957747E-01  0.3450460E+00
         13   -1    0    0    0    0  0.00000000000E+00  0.00000000000E+00  0.14999999963E+04  0.15000000000E+04  0.10566000000E+00 0.  1.
        994   -1    0    0    0    0 -0.00000000000E+00 -0.00000000000E+00  0.11368683772E-12  0.17120000000E+03  0.17120000000E+03 0.  0.
         13    1    1    2    0    0 -0.55158078645E+01  0.15907766188E+02  0.32571576291E+02  0.36666059341E+02  0.10566000000E+00 0.  1.
        994    1    1    2    0    0  0.60876070456E+01 -0.18224616891E+02  0.52866025320E+01  0.17235597984E+03  0.17120000000E+03 0.  0.
        998    1    1    2    0    0 -0.57179918114E+00  0.23168507028E+01  0.14621418175E+04  0.14621779608E+04  0.10000000000E+02 0.  1.
</event>
<event>
 5    1  0.1675361E-008  0.3838875E+03  0.7957747E-01  0.3434404E+00
         13   -1    0    0    0    0  0.00000000000E+00  0.00000000000E+00  0.14999999963E+04  0.15000000000E+04  0.10566000000E+00 0. -1.
        994   -1    0    0    0    0 -0.00000000000E+00 -0.00000000000E+00  0.11368683772E-12  0.17120000000E+03  0.17120000000E+03 0.  0.
         13    1    1    2    0    0 -0.12996310833E+02  0.28270132660E+00  0.37306659281E+02  0.39506733680E+02  0.10566000000E+00 0. -1.
        994    1    1    2    0    0  0.13784985531E+02 -0.39652022915E+01  0.28628809056E+01  0.17182370250E+03  0.17120000000E+03 0.  0.
        998    1    1    2    0    0 -0.78867469778E+00  0.36825009649E+01  0.14598304561E+04  0.14598695638E+04  0.10000000000E+02 0. -1.
</event>
<event>
 5    1  0.1675361E-008  0.3685013E+03  0.7957747E-01  0.3502807E+00
         13   -1    0    0    0    0  0.00000000000E+00  0.00000000000E+00  0.14999999963E+04  0.15000000000E+04  0.10566000000E+00 0.  1.
        994   -1    0    0    0    0 -0.00000000000E+00 -0.00000000000E+00  0.11368683772E-12  0.17120000000E+03  0.17120000000E+03 0.  0.
         13    1    1    2    0    0 -0.89624181156E+02 -0.81399424359E+02  0.50507898881E+03  0.51938728926E+03  0.10566000000E+00 0.  1.
        994    1    1    2    0    0  0.89108563813E+02  0.69282885068E+02  0.55741652011E+02  0.21250182606E+03  0.17120000000E+03 0.  0.
        998    1    1    2    0    0  0.51561734305E+00  0.12116539291E+02  0.93917935545E+03  0.93931088469E+03  0.10000000000E+02 0.  0.
</event>
<event>
 5    1  0.1675361E-008  0.3849359E+03  0.7957747E-01  0.3429944E+00
         13   -1    0    0    0    0  0.00000000000E+00  0.00000000000E+00  0.14999999963E+04  0.15000000000E+04  0.10566000000E+00 0.  1.
        994   -1    0    0    0    0 -0.00000000000E+00 -0.00000000000E+00  0.11368683772E-12  0.17120000000E+03  0.17120000000E+03 0.  0.
         13    1    1    2    0    0  0.16603489144E+02  0.72027408422E+01  0.86966334270E+02  0.88829667272E+02  0.10566000000E+00 0.  1.
        994    1    1    2    0    0 -0.25997091883E+02 -0.13639358708E+02  0.45021284104E+01  0.17375727338E+03  0.17120000000E+03 0.  0.
        998    1    1    2    0    0  0.93936027396E+01  0.64366178658E+01  0.14085315336E+04  0.14086130593E+04  0.10000000000E+02 0.  1.
</event>
<event>
 5    1  0.1675361E-008  0.3837744E+03  0.7957747E-01  0.3434887E+00
         13   -1    0    0    0    0  0.00000000000E+00  0.00000000000E+00  0.14999999963E+04  0.15000000000E+04  0.10566000000E+00 0. -1.
        994   -1    0    0    0    0 -0.00000000000E+00 -0.00000000000E+00  0.11368683772E-12  0.17120000000E+03  0.17120000000E+03 0.  0.
         13    1    1    2    0    0  0.22134171233E+02 -0.81527626566E+01  0.13449669268E+03  0.13654948034E+03  0.10566000000E+00 0. -1.
        994    1    1    2    0    0 -0.50459662401E+01 -0.21335544284E+01  0.23389707311E+01  0.17130360362E+03  0.17120000000E+03 0.  0.
        998    1    1    2    0    0 -0.17088204993E+02  0.10286317085E+02  0.13631643329E+04  0.13633469160E+04  0.10000000000E+02 0. -1.
</event>
<event>
 5    1  0.1675361E-008  0.3796758E+03  0.7957747E-01  0.3452571E+00
         13   -1    0    0    0    0  0.00000000000E+00  0.00000000000E+00  0.14999999963E+04  0.15000000000E+04  0.10566000000E+00 0. -1.
        994   -1    0    0    0    0 -0.00000000000E+00 -0.00000000000E+00  0.11368683772E-12  0.17120000000E+03  0.17120000000E+03 0.  0.
         13    1    1    2    0    0  0.13528110664E+02 -0.22378232713E+02  0.80202119989E+02  0.84357491027E+02  0.10566000000E+00 0. -1.
        994    1    1    2    0    0 -0.82419599059E+01  0.70666814809E+01  0.46914382695E+01  0.17160803444E+03  0.17120000000E+03 0.  0.
        998    1    1    2    0    0 -0.52861507581E+01  0.15311551233E+02  0.14151064380E+04  0.14152344745E+04  0.10000000000E+02 0.  1.
</event>
<event>
 5    1  0.1675361E-008  0.3853522E+03  0.7957747E-01  0.3428180E+00
         13   -1    0    0    0    0  0.00000000000E+00  0.00000000000E+00  0.14999999963E+04  0.15000000000E+04  0.10566000000E+00 0. -1.
        994   -1    0    0    0    0 -0.00000000000E+00 -0.00000000000E+00  0.11368683772E-12  0.17120000000E+03  0.17120000000E+03 0.  0.
         13    1    1    2    0    0 -0.84883653338E+01  0.13481919641E+02  0.88015531237E+02  0.89445846221E+02  0.10566000000E+00 0. -1.
        994    1    1    2    0    0  0.71290694090E+01 -0.68407496488E+01  0.17761233176E+01  0.17149406433E+03  0.17120000000E+03 0.  0.
        998    1    1    2    0    0  0.13592959248E+01 -0.66411699920E+01  0.14102083417E+04  0.14102600894E+04  0.10000000000E+02 0. -1.
</event>
<event>
 5    1  0.1675361E-008  0.3846100E+03  0.7957747E-01  0.3431328E+00
         13   -1    0    0    0    0  0.00000000000E+00  0.00000000000E+00  0.14999999963E+04  0.15000000000E+04  0.10566000000E+00 0. -1.
        994   -1    0    0    0    0 -0.00000000000E+00 -0.00000000000E+00  0.11368683772E-12  0.17120000000E+03  0.17120000000E+03 0.  0.
         13    1    1    2    0    0  0.89204424235E+01 -0.12913940683E+02  0.72765343367E+02  0.74438904588E+02  0.10566000000E+00 0. -1.
        994    1    1    2    0    0  0.48008871613E+01  0.12422532800E+01  0.19048627567E+01  0.17128239902E+03  0.17120000000E+03 0.  0.
        998    1    1    2    0    0 -0.13721329585E+02  0.11671687403E+02  0.14253297902E+04  0.14254786964E+04  0.10000000000E+02 0. -1.
</event>
<event>
 5    1  0.1675361E-008  0.3783284E+03  0.7957747E-01  0.3458469E+00
         13   -1    0    0    0    0  0.00000000000E+00  0.00000000000E+00  0.14999999963E+04  0.15000000000E+04  0.10566000000E+00 0.  1.
        994   -1    0    0    0    0 -0.00000000000E+00 -0.00000000000E+00  0.11368683772E-12  0.17120000000E+03  0.17120000000E+03 0.  0.
         13    1    1    2    0    0  0.42767231584E+02 -0.48679778503E+02  0.30860734406E+03  0.31533674208E+03  0.10566000000E+00 0.  1.
        994    1    1    2    0    0 -0.71885457707E+02  0.37110002342E+02  0.27304231119E+02  0.19131030380E+03  0.17120000000E+03 0.  0.
        998    1    1    2    0    0  0.29118226124E+02  0.11569776161E+02  0.11640884211E+04  0.11645529541E+04  0.10000000000E+02 0.  1.
</event>
<event>
 5    1  0.1675361E-008  0.3706996E+03  0.7957747E-01  0.3492682E+00
         13   -1    0    0    0    0  0.00000000000E+00  0.00000000000E+00  0.14999999963E+04  0.15000000000E+04  0.10566000000E+00 0.  1.
        994   -1    0    0    0    0 -0.00000000000E+00 -0.00000000000E+00  0.11368683772E-12  0.17120000000E+03  0.17120000000E+03 0.  0.
         13    1    1    2    0    0  0.15989537031E+03  0.84696830924E+02  0.78823543444E+03  0.80873678900E+03  0.10566000000E+00 0.  1.
        994    1    1    2    0    0 -0.15540758094E+03 -0.83560979995E+02  0.12538422781E+03  0.27597934375E+03  0.17120000000E+03 0.  0.
        998    1    1    2    0    0 -0.44877893689E+01 -0.11358509291E+01  0.58638033403E+03  0.58648386725E+03  0.10000000000E+02 0.  0.
</event>
<event>
 5    1  0.1675361E-008  0.3781847E+03  0.7957747E-01  0.3459101E+00
         13   -1    0    0    0    0  0.00000000000E+00  0.00000000000E+00  0.14999999963E+04  0.15000000000E+04  0.10566000000E+00 0.  1.
        994   -1    0    0    0    0 -0.00000000000E+00 -0.00000000000E+00  0.11368683772E-12  0.17120000000E+03  0.17120000000E+03 0.  0.
         13    1    1    2    0    0  0.15534166195E+02 -0.28018510985E+02  0.10342726056E+03  0.10827537425E+03  0.10566000000E+00 0.  1.
        994    1    1    2    0    0 -0.18025937776E+02  0.39200114440E+01  0.61976243463E+01  0.17230249989E+03  0.17120000000E+03 0.  0.
        998    1    1    2    0    0  0.24917715801E+01  0.24098499541E+02  0.13903751114E+04  0.13906221259E+04  0.10000000000E+02 0.  1.
</event>
<event>
 5    1  0.1675361E-008  0.3829637E+03  0.7957747E-01  0.3438354E+00
         13   -1    0    0    0    0  0.00000000000E+00  0.00000000000E+00  0.14999999963E+04  0.15000000000E+04  0.10566000000E+00 0.  1.
        994   -1    0    0    0    0 -0.00000000000E+00 -0.00000000000E+00  0.11368683772E-12  0.17120000000E+03  0.17120000000E+03 0.  0.
         13    1    1    2    0    0 -0.11385623965E+02  0.11567495643E+02  0.47990586349E+02  0.50661098791E+02  0.10566000000E+00 0.  1.
        994    1    1    2    0    0  0.12414897967E+02 -0.94831205132E+01  0.34528752795E+01  0.17194598458E+03  0.17120000000E+03 0.  0.
        998    1    1    2    0    0 -0.10292740018E+01 -0.20843751297E+01  0.14485565347E+04  0.14485929166E+04  0.10000000000E+02 0.  1.
</event>
<event>
 5    1  0.1675361E-008  0.3769554E+03  0.7957747E-01  0.3464523E+00
         13   -1    0    0    0    0  0.00000000000E+00  0.00000000000E+00  0.14999999963E+04  0.15000000000E+04  0.10566000000E+00 0. -1.
        994   -1    0    0    0    0 -0.00000000000E+00 -0.00000000000E+00  0.11368683772E-12  0.17120000000E+03  0.17120000000E+03 0.  0.
         13    1    1    2    0    0  0.23088444120E+02 -0.20848734384E+02  0.90631726045E+02  0.95822058563E+02  0.10566000000E+00 0. -1.
        994    1    1    2    0    0 -0.50482879352E+01 -0.64339266918E+01  0.59038884012E+01  0.17149687030E+03  0.17120000000E+03 0.  0.
        998    1    1    2    0    0 -0.18040156185E+02  0.27282661075E+02  0.14034643818E+04  0.14038810711E+04  0.10000000000E+02 0. -1.
</event>
<event>
 5    1  0.1675361E-008  0.3816009E+03  0.7957747E-01  0.3444217E+00
         13   -1    0    0    0    0  0.00000000000E+00  0.00000000000E+00  0.14999999963E+04  0.15000000000E+04  0.10566000000E+00 0.  1.
        994   -1    0    0    0    0 -0.00000000000E+00 -0.00000000000E+00  0.11368683772E-12  0.17120000000E+03  0.17120000000E+03 0.  0.
         13    1    1    2    0    0  0.11996439024E+02 -0.10040286343E+02  0.33323098026E+02  0.36812524026E+02  0.10566000000E+00 0.  1.
        994    1    1    2    0    0 -0.57027231294E+01  0.38850100271E+02  0.84713788299E+01  0.17584952545E+03  0.17120000000E+03 0.  0.
        998    1    1    2    0    0 -0.62937158946E+01 -0.28809813928E+02  0.14582055194E+04  0.14585379505E+04  0.10000000000E+02 0.  1.
</event>
<event>
 5    1  0.1675361E-008  0.3857874E+03  0.7957747E-01  0.3426339E+00
         13   -1    0    0    0    0  0.00000000000E+00  0.00000000000E+00  0.14999999963E+04  0.15000000000E+04  0.10566000000E+00 0. -1.
        994   -1    0    0    0    0 -0.00000000000E+00 -0.00000000000E+00  0.11368683772E-12  0.17120000000E+03  0.17120000000E+03 0.  0.
         13    1    1    2    0    0 -0.45727003018E+00  0.12288534837E+02  0.66247117904E+02  0.67378846672E+02  0.10566000000E+00 0. -1.
        994    1    1    2    0    0  0.16878846888E+02  0.20237050269E+01  0.21882291971E+01  0.17205586070E+03  0.17120000000E+03 0.  0.
        998    1    1    2    0    0 -0.16421576858E+02 -0.14312239864E+02  0.14315646492E+04  0.14317652926E+04  0.10000000000E+02 0. -1.
</event>
<event>
 5    1  0.1675361E-008  0.3830136E+03  0.7957747E-01  0.3438141E+00
         13   -1    0    0    0    0  0.00000000000E+00  0.00000000000E+00  0.14999999963E+04  0.15000000000E+04  0.10566000000E+00 0.  1.
        994   -1    0    0    0    0 -0.00000000000E+00 -0.00000000000E+00  0.11368683772E-12  0.17120000000E+03  0.17120000000E+03 0.  0.
         13    1    1    2    0    0  0.20036657737E+02  0.15842882575E+01  0.84629430121E+02  0.86983499752E+02  0.10566000000E+00 0.  1.
        994    1    1    2    0    0  0.55033544935E+01 -0.12212869209E+02  0.32137315935E+01  0.17175333812E+03  0.17120000000E+03 0.  0.
        998    1    1    2    0    0 -0.25540012230E+02  0.10628580951E+02  0.14121568346E+04  0.14124631621E+04  0.10000000000E+02 0.  1.
</event>
<event>
 5    1  0.1675361E-008  0.3845175E+03  0.7957747E-01  0.3431721E+00
         13   -1    0    0    0    0  0.00000000000E+00  0.00000000000E+00  0.14999999963E+04  0.15000000000E+04  0.10566000000E+00 0.  1.
        994   -1    0    0    0    0 -0.00000000000E+00 -0.00000000000E+00  0.11368683772E-12  0.17120000000E+03  0.17120000000E+03 0.  0.
         13    1    1    2    0    0 -0.44191392100E+01  0.17437248197E+02  0.87092126100E+02  0.88930512248E+02  0.10566000000E+00 0.  1.
        994    1    1    2    0    0  0.64203291465E+01 -0.89617744461E+01  0.22703089155E+01  0.17156960200E+03  0.17120000000E+03 0.  0.
        998    1    1    2    0    0 -0.20011899364E+01 -0.84754737511E+01  0.14106375613E+04  0.14106998858E+04  0.10000000000E+02 0.  1.
</event>
<event>
 5    1  0.1675361E-008  0.3822137E+03  0.7957747E-01  0.3441576E+00
         13   -1    0    0    0    0  0.00000000000E+00  0.00000000000E+00  0.14999999963E+04  0.15000000000E+04  0.10566000000E+00 0. -1.
        994   -1    0    0    0    0 -0.00000000000E+00 -0.00000000000E+00  0.11368683772E-12  0.17120000000E+03  0.17120000000E+03 0.  0.
         13    1    1    2    0    0 -0.20238184501E+02 -0.15196692323E+02  0.10011860202E+03  0.10326794858E+03  0.10566000000E+00 0. -1.
        994    1    1    2    0    0  0.15041496378E+02  0.19678814755E+02  0.50585091746E+01  0.17305643842E+03  0.17120000000E+03 0.  0.
        998    1    1    2    0    0  0.51966881229E+01 -0.44821224318E+01  0.13948228851E+04  0.13948756130E+04  0.10000000000E+02 0. -1.
</event>
<event>
 5    1  0.1675361E-008  0.3838655E+03  0.7957747E-01  0.3434498E+00
         13   -1    0    0    0    0  0.00000000000E+00  0.00000000000E+00  0.14999999963E+04  0.15000000000E+04  0.10566000000E+00 0. -1.
        994   -1    0    0    0    0 -0.00000000000E+00 -0.00000000000E+00  0.11368683772E-12  0.17120000000E+03  0.17120000000E+03 0.  0.
         13    1    1    2    0    0 -0.28375110626E+01  0.11093199245E+02  0.30322523087E+02  0.32412607253E+02  0.10566000000E+00 0. -1.
        994    1    1    2    0    0  0.63773523813E+01  0.31391804906E+01  0.23612126923E+01  0.17136376631E+03  0.17120000000E+03 0.  0.
        998    1    1    2    0    0 -0.35398413187E+01 -0.14232379736E+02  0.14673162605E+04  0.14674236264E+04  0.10000000000E+02 0. -1.
</event>
<event>
 5    1  0.1675361E-008  0.3692061E+03  0.7957747E-01  0.3499548E+00
         13   -1    0    0    0    0  0.00000000000E+00  0.00000000000E+00  0.14999999963E+04  0.15000000000E+04  0.10566000000E+00 0.  1.
        994   -1    0    0    0    0 -0.00000000000E+00 -0.00000000000E+00  0.11368683772E-12  0.17120000000E+03  0.17120000000E+03 0.  0.
         13    1    1    2    0    0  0.55725106854E+02 -0.37835844938E+02  0.21082131119E+03  0.22131984799E+03  0.10566000000E+00 0.  1.
        994    1    1    2    0    0 -0.38570848187E+02  0.16654043253E+02  0.16698469961E+02  0.17706876174E+03  0.17120000000E+03 0.  0.
        998    1    1    2    0    0 -0.17154258667E+02  0.21181801684E+02  0.12724802151E+04  0.12728113903E+04  0.10000000000E+02 0.  1.
</event>
<event>
 5    1  0.1675361E-008  0.3832586E+03  0.7957747E-01  0.3437091E+00
         13   -1    0    0    0    0  0.00000000000E+00  0.00000000000E+00  0.14999999963E+04  0.15000000000E+04  0.10566000000E+00 0. -1.
        994   -1    0    0    0    0 -0.00000000000E+00 -0.00000000000E+00  0.11368683772E-12  0.17120000000E+03  0.17120000000E+03 0.  0.
         13    1    1    2    0    0  0.14117510843E+02  0.80675270171E+01  0.50898914193E+02  0.53433133304E+02  0.10566000000E+00 0. -1.
        994    1    1    2    0    0 -0.12585895975E+02 -0.10794417701E+02  0.34069815172E+01  0.17203479809E+03  0.17120000000E+03 0.  0.
        998    1    1    2    0    0 -0.15316148684E+01  0.27268906834E+01  0.14456941006E+04  0.14457320686E+04  0.10000000000E+02 0. -1.
</event>
<event>
 5    1  0.1675361E-008  0.3838925E+03  0.7957747E-01  0.3434383E+00
         13   -1    0    0    0    0  0.00000000000E+00  0.00000000000E+00  0.14999999963E+04  0.15000000000E+04  0.10566000000E+00 0.  1.
        994   -1    0    0    0    0 -0.00000000000E+00 -0.00000000000E+00  0.11368683772E-12  0.17120000000E+03  0.17120000000E+03 0.  0.
         13    1    1    2    0    0  0.11973641014E+02  0.55879467851E+01  0.39953448457E+02  0.42081854000E+02  0.10566000000E+00 0.  1.
        994    1    1    2    0    0 -0.88017687189E+01  0.42586547314E+01  0.24965879090E+01  0.17149717264E+03  0.17120000000E+03 0.  0.
        998    1    1    2    0    0 -0.31718722952E+01 -0.98466015165E+01  0.14575499599E+04  0.14576209734E+04  0.10000000000E+02 0.  1.
</event>
<event>
 5    1  0.1675361E-008  0.3826972E+03  0.7957747E-01  0.3439498E+00
         13   -1    0    0    0    0  0.00000000000E+00  0.00000000000E+00  0.14999999963E+04  0.15000000000E+04  0.10566000000E+00 0.  1.
        994   -1    0    0    0    0 -0.00000000000E+00 -0.00000000000E+00  0.11368683772E-12  0.17120000000E+03  0.17120000000E+03 0.  0.
         13    1    1    2    0    0  0.18362796152E+02  0.47873600811E+01  0.65392978863E+02  0.68090850690E+02  0.10566000000E+00 0.  1.
        994    1    1    2    0    0 -0.62828030326E+01 -0.70613367457E+01  0.30738311436E+01  0.17148826353E+03  0.17120000000E+03 0.  0.
        998    1    1    2    0    0 -0.12079993120E+02  0.22739766646E+01  0.14315331863E+04  0.14316208858E+04  0.10000000000E+02 0.  1.
</event>
<event>
 5    1  0.1675361E-008  0.3791576E+03  0.7957747E-01  0.3454835E+00
         13   -1    0    0    0    0  0.00000000000E+00  0.00000000000E+00  0.14999999963E+04  0.15000000000E+04  0.10566000000E+00 0. -1.
        994   -1    0    0    0    0 -0.00000000000E+00 -0.00000000000E+00  0.11368683772E-12  0.17120000000E+03  0.17120000000E+03 0.  0.
         13    1    1    2    0    0  0.28175367126E+02 -0.15815837394E+01  0.91740987833E+02  0.95983189842E+02  0.10566000000E+00 0. -1.
        994    1    1    2    0    0 -0.25351259152E+01  0.12970845544E+02  0.51447252431E+01  0.17178643106E+03  0.17120000000E+03 0.  0.
        998    1    1    2    0    0 -0.25640241210E+02 -0.11389261804E+02  0.14031142832E+04  0.14034303791E+04  0.10000000000E+02 0. -1.
</event>
<event>
 5    1  0.1675361E-008  0.3802323E+03  0.7957747E-01  0.3450148E+00
         13   -1    0    0    0    0  0.00000000000E+00  0.00000000000E+00  0.14999999963E+04  0.15000000000E+04  0.10566000000E+00 0.  1.
        994   -1    0    0    0    0 -0.00000000000E+00 -0.00000000000E+00  0.11368683772E-12  0.17120000000E+03  0.17120000000E+03 0.  0.
         13    1    1    2    0    0  0.40510369867E+02  0.13528444549E+02  0.21763762119E+03  0.22178876031E+03  0.10566000000E+00 0.  1.
        994    1    1    2    0    0 -0.25365724372E+02 -0.16603292162E+02  0.70920924823E+01  0.17400812354E+03  0.17120000000E+03 0.  0.
        998    1    1    2    0    0 -0.15144645495E+02  0.30748476126E+01  0.12752702826E+04  0.12754031161E+04  0.10000000000E+02 0.  1.
</event>
<event>
 5    1  0.1675361E-008  0.3703609E+03  0.7957747E-01  0.3494234E+00
         13   -1    0    0    0    0  0.00000000000E+00  0.00000000000E+00  0.14999999963E+04  0.15000000000E+04  0.10566000000E+00 0. -1.
        994   -1    0    0    0    0 -0.00000000000E+00 -0.00000000000E+00  0.11368683772E-12  0.17120000000E+03  0.17120000000E+03 0.  0.
         13    1    1    2    0    0  0.46971950246E+01  0.10875829257E+02  0.12319000180E+01  0.11911173108E+02  0.10566000000E+00 0. -1.
        994    1    1    2    0    0  0.47092619040E+02 -0.11968799552E+02  0.19440197189E+02  0.17902046866E+03  0.17120000000E+03 0.  0.
        998    1    1    2    0    0 -0.51789814065E+02  0.10929702951E+01  0.14793278991E+04  0.14802683582E+04  0.10000000000E+02 0. -1.
</event>
<event>
 5    1  0.1675361E-008  0.3844241E+03  0.7957747E-01  0.3432118E+00
         13   -1    0    0    0    0  0.00000000000E+00  0.00000000000E+00  0.14999999963E+04  0.15000000000E+04  0.10566000000E+00 0.  1.
        994   -1    0    0    0    0 -0.00000000000E+00 -0.00000000000E+00  0.11368683772E-12  0.17120000000E+03  0.17120000000E+03 0.  0.
         13    1    1    2    0    0  0.68358340561E+01 -0.16569944583E+02  0.86170281940E+02  0.88014887061E+02  0.10566000000E+00 0.  1.
        994    1    1    2    0    0 -0.20011667896E+01  0.67593782521E+01  0.20800804087E+01  0.17135769781E+03  0.17120000000E+03 0.  0.
        998    1    1    2    0    0 -0.48346672665E+01  0.98105663310E+01  0.14117496339E+04  0.14118274151E+04  0.10000000000E+02 0.  1.
</event>
<event>
 5    1  0.1675361E-008  0.3817519E+03  0.7957747E-01  0.3443566E+00
         13   -1    0    0    0    0  0.00000000000E+00  0.00000000000E+00  0.14999999963E+04  0.15000000000E+04  0.10566000000E+00 0. -1.
        994   -1    0    0    0    0 -0.00000000000E+00 -0.00000000000E+00  0.11368683772E-12  0.17120000000E+03  0.17120000000E+03 0.  0.
         13    1    1    2    0    0  0.13642193199E+01 -0.15054653191E+02  0.33741982531E+02  0.36973452992E+02  0.10566000000E+00 0. -1.
        994    1    1    2    0    0 -0.61051922092E+01  0.11440017607E+02  0.38104685109E+01  0.17173266156E+03  0.17120000000E+03 0.  0.
        998    1    1    2    0    0  0.47409728893E+01  0.36146355833E+01  0.14624475452E+04  0.14624938855E+04  0.10000000000E+02 0. -1.
</event>
<event>
 5    1  0.1675361E-008  0.3715795E+03  0.7957747E-01  0.3488663E+00
         13   -1    0    0    0    0  0.00000000000E+00  0.00000000000E+00  0.14999999963E+04  0.15000000000E+04  0.10566000000E+00 0.  1.
        994   -1    0    0    0    0 -0.00000000000E+00 -0.00000000000E+00  0.11368683772E-12  0.17120000000E+03  0.17120000000E+03 0.  0.
         13    1    1    2    0    0 -0.48731018155E+02 -0.54969049517E+02  0.24451438020E+03  0.25531079457E+03  0.10566000000E+00 0.  1.
        994    1    1    2    0    0  0.44138215086E+02  0.76487099549E+02  0.35761240997E+02  0.19592540618E+03  0.17120000000E+03 0.  0.
        998    1    1    2    0    0  0.45928030697E+01 -0.21518050032E+02  0.12197243751E+04  0.12199637993E+04  0.10000000000E+02 0.  1.
</event>
<event>
 5    1  0.1675361E-008  0.3835931E+03  0.7957747E-01  0.3435661E+00
         13   -1    0    0    0    0  0.00000000000E+00  0.00000000000E+00  0.14999999963E+04  0.15000000000E+04  0.10566000000E+00 0.  1.
        994   -1    0    0    0    0 -0.00000000000E+00 -0.00000000000E+00  0.11368683772E-12  0.17120000000E+03  0.17120000000E+03 0.  0.
         13    1    1    2    0    0 -0.40656974015E+01  0.18809919516E+02  0.90116258815E+02  0.92148218835E+02  0.10566000000E+00 0.  1.
        994    1    1    2    0    0  0.48220581391E+01  0.95276840584E+01  0.27070499455E+01  0.17155406474E+03  0.17120000000E+03 0.  0.
        998    1    1    2    0    0 -0.75636073761E+00 -0.28337603574E+02  0.14071766875E+04  0.14074977164E+04  0.10000000000E+02 0.  1.
</event>
<event>
 5    1  0.1675361E-008  0.3850952E+03  0.7957747E-01  0.3429269E+00
         13   -1    0    0    0    0  0.00000000000E+00  0.00000000000E+00  0.14999999963E+04  0.15000000000E+04  0.10566000000E+00 0.  1.
        994   -1    0    0    0    0 -0.00000000000E+00 -0.00000000000E+00  0.11368683772E-12  0.17120000000E+03  0.17120000000E+03 0.  0.
         13    1    1    2    0    0  0.21142464253E+01  0.14267533748E+02  0.64787007454E+02  0.66373187780E+02  0.10566000000E+00 0.  1.
        994    1    1    2    0    0 -0.14830905614E+01 -0.11810049837E+02  0.20488164021E+01  0.17162550651E+03  0.17120000000E+03 0.  0.
        998    1    1    2    0    0 -0.63115586388E+00 -0.24574839114E+01  0.14331641724E+04  0.14332013057E+04  0.10000000000E+02 0.  1.
</event>
<event>
 5    1  0.1675361E-008  0.3836408E+03  0.7957747E-01  0.3435457E+00
         13   -1    0    0    0    0  0.00000000000E+00  0.00000000000E+00  0.14999999963E+04  0.15000000000E+04  0.10566000000E+00 0. -1.
        994   -1    0    0    0    0 -0.00000000000E+00 -0.00000000000E+00  0.11368683772E-12  0.17120000000E+03  0.17120000000E+03 0.  0.
         13    1    1    2    0    0 -0.92598622669E+01 -0.21474753305E+02  0.13083301353E+03  0.13290672922E+03  0.10566000000E+00 0. -1.
        994    1    1    2    0    0  0.33666201356E+01 -0.19610116698E+00  0.23440289341E+01  0.17124925418E+03  0.17120000000E+03 0.  0.
        998    1    1    2    0    0  0.58932421313E+01  0.21670854472E+02  0.13668229538E+04  0.13670440166E+04  0.10000000000E+02 0. -1.
</event>
<event>
 5    1  0.1675361E-008  0.3760034E+03  0.7957747E-01  0.3468747E+00
         13   -1    0    0    0    0  0.00000000000E+00  0.00000000000E+00  0.14999999963E+04  0.15000000000E+04  0.10566000000E+00 0. -1.
        994   -1    0    0    0    0 -0.00000000000E+00 -0.00000000000E+00  0.11368683772E-12  0.17120000000E+03  0.17120000000E+03 0.  0.
         13    1    1    2    0    0  0.60583008106E+02  0.36252279933E+02  0.28945050281E+03  0.29793645869E+03  0.10566000000E+00 0. -1.
        994    1    1    2    0    0 -0.73277315465E+02 -0.43628597356E+02  0.31215704392E+02  0.19379597434E+03  0.17120000000E+03 0.  0.
        998    1    1    2    0    0  0.12694307359E+02  0.73763174227E+01  0.11793337891E+04  0.11794675670E+04  0.10000000000E+02 0.  1.
</event>
<event>
 5    1  0.1675361E-008  0.3794528E+03  0.7957747E-01  0.3453544E+00
         13   -1    0    0    0    0  0.00000000000E+00  0.00000000000E+00  0.14999999963E+04  0.15000000000E+04  0.10566000000E+00 0. -1.
        994   -1    0    0    0    0 -0.00000000000E+00 -0.00000000000E+00  0.11368683772E-12  0.17120000000E+03  0.17120000000E+03 0.  0.
         13    1    1    2    0    0 -0.76765365402E+02  0.52518747390E+01  0.40670010419E+03  0.41391483354E+03  0.10566000000E+00 0. -1.
        994    1    1    2    0    0  0.92477706555E+02 -0.14661345877E+02  0.34353247312E+02  0.19813295252E+03  0.17120000000E+03 0.  0.
        998    1    1    2    0    0 -0.15712341153E+02  0.94094711382E+01  0.10589466448E+04  0.10591522139E+04  0.10000000000E+02 0. -1.
</event>
<event>
 5    1  0.1675361E-008  0.3844816E+03  0.7957747E-01  0.3431874E+00
         13   -1    0    0    0    0  0.00000000000E+00  0.00000000000E+00  0.14999999963E+04  0.15000000000E+04  0.10566000000E+00 0. -1.
        994   -1    0    0    0    0 -0.00000000000E+00 -0.00000000000E+00  0.11368683772E-12  0.17120000000E+03  0.17120000000E+03 0.  0.
         13    1    1    2    0    0 -0.44422465354E+01  0.13781397425E+02  0.58438330577E+02  0.60205565473E+02  0.10566000000E+00 0. -1.
        994    1    1    2    0    0 -0.34537061024E+01 -0.85848849583E+00  0.19294679384E+01  0.17124785527E+03  0.17120000000E+03 0.  0.
        998    1    1    2    0    0  0.78959526378E+01 -0.12922908929E+02  0.14396321978E+04  0.14397465793E+04  0.10000000000E+02 0. -1.
</event>
<event>
 5    1  0.1675361E-008  0.3852310E+03  0.7957747E-01  0.3428693E+00
         13   -1    0    0    0    0  0.00000000000E+00  0.00000000000E+00  0.14999999963E+04  0.15000000000E+04  0.10566000000E+00 0. -1.
        994   -1    0    0    0    0 -0.00000000000E+00 -0.00000000000E+00  0.11368683772E-12  0.17120000000E+03  0.17120000000E+03 0.  0.
         13    1    1    2    0    0  0.10607723214E+02 -0.97687001342E+00  0.35693950748E+02  0.37249796655E+02  0.10566000000E+00 0. -1.
        994    1    1    2    0    0 -0.16824834657E+02 -0.79027383204E+00  0.24483210386E+01  0.17204398818E+03  0.17120000000E+03 0.  0.
        998    1    1    2    0    0  0.62171114424E+01  0.17671438455E+01  0.14618577245E+04  0.14619062152E+04  0.10000000000E+02 0. -1.
</event>
<event>
 5    1  0.1675361E-008  0.3854512E+03  0.7957747E-01  0.3427761E+00
         13   -1    0    0    0    0  0.00000000000E+00  0.00000000000E+00  0.14999999963E+04  0.15000000000E+04  0.10566000000E+00 0.  1.
        994   -1    0    0    0    0 -0.00000000000E+00 -0.00000000000E+00  0.11368683772E-12  0.17120000000E+03  0.17120000000E+03 0.  0.
         13    1    1    2    0    0  0.90332580371E+01  0.10578111645E+02  0.66797467932E+02  0.68230558278E+02  0.10566000000E+00 0.  1.
        994    1    1    2    0    0 -0.86194210360E+01 -0.11269224353E+02  0.20675652881E+01  0.17179931508E+03  0.17120000000E+03 0.  0.
        998    1    1    2    0    0 -0.41383700114E+00  0.69111270745E+00  0.14311349631E+04  0.14311701266E+04  0.10000000000E+02 0.  1.
</event>
<event>
 5    1  0.1675361E-008  0.3341361E+03  0.7957747E-01  0.3678913E+00
         13   -1    0    0    0    0  0.00000000000E+00  0.00000000000E+00  0.14999999963E+04  0.15000000000E+04  0.10566000000E+00 0.  1.
        994   -1    0    0    0    0 -0.00000000000E+00 -0.00000000000E+00  0.11368683772E-12  0.17120000000E+03  0.17120000000E+03 0.  0.
         13    1    1    2    0    0  0.16778753571E+03  0.10858201435E+03  0.11222170909E+04  0.11398745200E+04  0.10566000000E+00 0.  1.
        994    1    1    2    0    0 -0.81969401540E+02 -0.58652147441E+02  0.74714707628E+02  0.21225170135E+03  0.17120000000E+03 0.  0.
        998    1    1    2    0    0 -0.85818134174E+02 -0.49929866905E+02  0.30306819771E+03  0.31907377866E+03  0.10000000000E+02 0.  1.
</event>
<event>
 5    1  0.1675361E-008  0.3836006E+03  0.7957747E-01  0.3435629E+00
         13   -1    0    0    0    0  0.00000000000E+00  0.00000000000E+00  0.14999999963E+04  0.15000000000E+04  0.10566000000E+00 0. -1.
        994   -1    0    0    0    0 -0.00000000000E+00 -0.00000000000E+00  0.11368683772E-12  0.17120000000E+03  0.17120000000E+03 0.  0.
         13    1    1    2    0    0  0.10119960813E+02 -0.76617654210E+01  0.34205933296E+02  0.36485247606E+02  0.10566000000E+00 0. -1.
        994    1    1    2    0    0 -0.87147034603E+00  0.99522764762E+01  0.26563218193E+01  0.17151181683E+03  0.17120000000E+03 0.  0.
        998    1    1    2    0    0 -0.92484904673E+01 -0.22905110551E+01  0.14631377412E+04  0.14632029356E+04  0.10000000000E+02 0. -1.
</event>
<event>
 5    1  0.1675361E-008  0.3828259E+03  0.7957747E-01  0.3438945E+00
         13   -1    0    0    0    0  0.00000000000E+00  0.00000000000E+00  0.14999999963E+04  0.15000000000E+04  0.10566000000E+00 0. -1.
        994   -1    0    0    0    0 -0.00000000000E+00 -0.00000000000E+00  0.11368683772E-12  0.17120000000E+03  0.17120000000E+03 0.  0.
         13    1    1    2    0    0 -0.27076561087E+02 -0.19749815009E+02  0.17846278422E+03  0.18158241068E+03  0.10566000000E+00 0. -1.
        994    1    1    2    0    0  0.30349410317E+02  0.21520886901E+02  0.73115427196E+01  0.17534860689E+03  0.17120000000E+03 0.  0.
        998    1    1    2    0    0 -0.32728492298E+01 -0.17710718921E+01  0.13142256693E+04  0.13142689824E+04  0.10000000000E+02 0. -1.
</event>
<event>
 5    1  0.1675361E-008  0.3763236E+03  0.7957747E-01  0.3467324E+00
         13   -1    0    0    0    0  0.00000000000E+00  0.00000000000E+00  0.14999999963E+04  0.15000000000E+04  0.10566000000E+00 0. -1.
        994   -1    0    0    0    0 -0.00000000000E+00 -0.00000000000E+00  0.11368683772E-12  0.17120000000E+03  0.17120000000E+03 0.  0.
         13    1    1    2    0    0 -0.19099252349E+02 -0.26584080650E+02  0.30439801652E+02  0.44699971733E+02  0.10566000000E+00 0. -1.
        994    1    1    2    0    0  0.22676119856E+02  0.32972345572E+02  0.20069682675E+02  0.17695653180E+03  0.17120000000E+03 0.  0.
        998    1    1    2    0    0 -0.35768675071E+01 -0.63882649221E+01  0.14494905120E+04  0.14495434965E+04  0.10000000000E+02 0. -1.
</event>
<event>
 5    1  0.1675361E-008  0.3823089E+03  0.7957747E-01  0.3441166E+00
         13   -1    0    0    0    0  0.00000000000E+00  0.00000000000E+00  0.14999999963E+04  0.15000000000E+04  0.10566000000E+00 0. -1.
        994   -1    0    0    0    0 -0.00000000000E+00 -0.00000000000E+00  0.11368683772E-12  0.17120000000E+03  0.17120000000E+03 0.  0.
         13    1    1    2    0    0  0.90685173981E+01  0.17288397964E+02  0.68748892136E+02  0.71467111638E+02  0.10566000000E+00 0. -1.
        994    1    1    2    0    0  0.60190030432E+01  0.17423049953E+01  0.31024210775E+01  0.17134272392E+03  0.17120000000E+03 0.  0.
        998    1    1    2    0    0 -0.15087520441E+02 -0.19030702960E+02  0.14281486831E+04  0.14283901644E+04  0.10000000000E+02 0. -1.
</event>
<event>
 5    1  0.1675361E-008  0.3782370E+03  0.7957747E-01  0.3458871E+00
         13   -1    0    0    0    0  0.00000000000E+00  0.00000000000E+00  0.14999999963E+04  0.15000000000E+04  0.10566000000E+00 0.  1.
        994   -1    0    0    0    0 -0.00000000000E+00 -0.00000000000E+00  0.11368683772E-12  0.17120000000E+03  0.17120000000E+03 0.  0.
         13    1    1    2    0    0 -0.47120091266E+02  0.13961815031E+02  0.21667369531E+03  0.22217726411E+03  0.10566000000E+00 0.  1.
        994    1    1    2    0    0  0.42667208731E+02 -0.42358220252E+01  0.11232526683E+02  0.17684468481E+03  0.17120000000E+03 0.  0.
        998    1    1    2    0    0  0.44528825352E+01 -0.97259930055E+01  0.12720937743E+04  0.12721780511E+04  0.10000000000E+02 0.  1.
</event>
<event>
 5    1  0.1675361E-008  0.4024501E+03  0.7957747E-01  0.3358876E+00
         13   -1    0    0    0    0  0.00000000000E+00  0.00000000000E+00  0.14999999963E+04  0.15000000000E+04  0.10566000000E+00 0. -1.
        994   -1    0    0    0    0 -0.00000000000E+00 -0.00000000000E+00  0.11368683772E-12  0.17120000000E+03  0.17120000000E+03 0.  0.
         13    1    1    2    0    0 -0.10605688464E+03  0.11185228303E+03  0.47761323527E+03  0.50186991309E+03  0.10566000000E+00 0. -1.
        994    1    1    2    0    0  0.19648352647E+02 -0.70933285715E+02  0.51008497469E+02  0.19320687254E+03  0.17120000000E+03 0.  0.
        998    1    1    2    0    0  0.86408531997E+02 -0.40918997311E+02  0.97137826354E+03  0.97612321436E+03  0.10000000000E+02 0. -1.
</event>
<event>
 5    1  0.1675361E-008  0.3792703E+03  0.7957747E-01  0.3454342E+00
         13   -1    0    0    0    0  0.00000000000E+00  0.00000000000E+00  0.14999999963E+04  0.15000000000E+04  0.10566000000E+00 0.  1.
        994   -1    0    0    0    0 -0.00000000000E+00 -0.00000000000E+00  0.11368683772E-12  0.17120000000E+03  0.17120000000E+03 0.  0.
         13    1    1    2    0    0  0.53068073160E+02 -0.14140441571E+02  0.30445982961E+03  0.30937351452E+03  0.10566000000E+00 0.  1.
        994    1    1    2    0    0 -0.53806054206E+02 -0.28404052533E+02  0.17008530675E+02  0.18248455218E+03  0.17120000000E+03 0.  0.
        998    1    1    2    0    0  0.73798104607E+00  0.42544494104E+02  0.11785316360E+04  0.11793419333E+04  0.10000000000E+02 0.  1.
</event>
<event>
 5    1  0.1675361E-008  0.3848635E+03  0.7957747E-01  0.3430251E+00
         13   -1    0    0    0    0  0.00000000000E+00  0.00000000000E+00  0.14999999963E+04  0.15000000000E+04  0.10566000000E+00 0. -1.
        994   -1    0    0    0    0 -0.00000000000E+00 -0.00000000000E+00  0.11368683772E-12  0.17120000000E+03  0.17120000000E+03 0.  0.
         13    1    1    2    0    0 -0.74998187932E+01 -0.83034867628E+01  0.36334225933E+02  0.38018183972E+02  0.10566000000E+00 0. -1.
        994    1    1    2    0    0  0.50447576298E+01  0.81068132595E+01  0.19979368470E+01  0.17147770045E+03  0.17120000000E+03 0.  0.
        998    1    1    2    0    0  0.24550611634E+01  0.19667350331E+00  0.14616678335E+04  0.14617041156E+04  0.10000000000E+02 0.  0.
</event>
<event>
 5    1  0.1675361E-008  0.3749057E+03  0.7957747E-01  0.3473645E+00
         13   -1    0    0    0    0  0.00000000000E+00  0.00000000000E+00  0.14999999963E+04  0.15000000000E+04  0.10566000000E+00 0.  1.
        994   -1    0    0    0    0 -0.00000000000E+00 -0.00000000000E+00  0.11368683772E-12  0.17120000000E+03  0.17120000000E+03 0.  0.
         13    1    1    2    0    0 -0.14071302677E+02  0.11611780825E+02  0.21507236064E+02  0.28202967576E+02  0.10566000000E+00 0.  1.
        994    1    1    2    0    0  0.14868082919E+02 -0.12946942435E+02  0.80498967518E+01  0.17251934398E+03  0.17120000000E+03 0.  0.
        998    1    1    2    0    0 -0.79678024247E+00  0.13351616102E+01  0.14704428635E+04  0.14704776884E+04  0.10000000000E+02 0.  1.
</event>
<event>
 5    1  0.1675361E-008  0.3826134E+03  0.7957747E-01  0.3439857E+00
         13   -1    0    0    0    0  0.00000000000E+00  0.00000000000E+00  0.14999999963E+04  0.15000000000E+04  0.10566000000E+00 0. -1.
        994   -1    0    0    0    0 -0.00000000000E+00 -0.00000000000E+00  0.11368683772E-12  0.17120000000E+03  0.17120000000E+03 0.  0.
         13    1    1    2    0    0 -0.16981814847E+02 -0.94140975821E+01  0.84044001284E+02  0.86257826223E+02  0.10566000000E+00 0. -1.
        994    1    1    2    0    0 -0.29885865407E+02 -0.60607616560E+01  0.59077531659E+01  0.17399494053E+03  0.17120000000E+03 0.  0.
        998    1    1    2    0    0  0.46867680254E+02  0.15474859238E+02  0.14100482418E+04  0.14109472332E+04  0.10000000000E+02 0. -1.
</event>
<event>
 5    1  0.1675361E-008  0.3827713E+03  0.7957747E-01  0.3439180E+00
         13   -1    0    0    0    0  0.00000000000E+00  0.00000000000E+00  0.14999999963E+04  0.15000000000E+04  0.10566000000E+00 0.  1.
        994   -1    0    0    0    0 -0.00000000000E+00 -0.00000000000E+00  0.11368683772E-12  0.17120000000E+03  0.17120000000E+03 0.  0.
         13    1    1    2    0    0  0.61708563605E+01 -0.18950642175E+02  0.72442023629E+02  0.75133642655E+02  0.10566000000E+00 0.  1.
        994    1    1    2    0    0 -0.83174300274E+01  0.84913503117E+01  0.32088631247E+01  0.17164212617E+03  0.17120000000E+03 0.  0.
        998    1    1    2    0    0  0.21465736668E+01  0.10459291864E+02  0.14243491095E+04  0.14244242312E+04  0.10000000000E+02 0.  1.
</event>
<event>
 5    1  0.1675361E-008  0.3830958E+03  0.7957747E-01  0.3437788E+00
         13   -1    0    0    0    0  0.00000000000E+00  0.00000000000E+00  0.14999999963E+04  0.15000000000E+04  0.10566000000E+00 0.  1.
        994   -1    0    0    0    0 -0.00000000000E+00 -0.00000000000E+00  0.11368683772E-12  0.17120000000E+03  0.17120000000E+03 0.  0.
         13    1    1    2    0    0 -0.72303888382E+01  0.13745150453E+02  0.47755824120E+02  0.50217901043E+02  0.10566000000E+00 0.  1.
        994    1    1    2    0    0  0.22821153618E+01 -0.98536879448E+00  0.25989308836E+01  0.17123776874E+03  0.17120000000E+03 0.  0.
        998    1    1    2    0    0  0.49482734764E+01 -0.12759781658E+02  0.14496452413E+04  0.14497443302E+04  0.10000000000E+02 0.  1.
</event>
<event>
 5    1  0.1675361E-008  0.3864084E+03  0.7957747E-01  0.3423721E+00
         13   -1    0    0    0    0  0.00000000000E+00  0.00000000000E+00  0.14999999963E+04  0.15000000000E+04  0.10566000000E+00 0. -1.
        994   -1    0    0    0    0 -0.00000000000E+00 -0.00000000000E+00  0.11368683772E-12  0.17120000000E+03  0.17120000000E+03 0.  0.
         13    1    1    2    0    0  0.71791135144E+01  0.80748535509E+01  0.63771837089E+02  0.64680764533E+02  0.10566000000E+00 0. -1.
        994    1    1    2    0    0  0.24433027349E+01 -0.12216726406E+02  0.14407869068E+01  0.17165877198E+03  0.17120000000E+03 0.  0.
        998    1    1    2    0    0 -0.96224162492E+01  0.41418728547E+01  0.14347873723E+04  0.14348604635E+04  0.10000000000E+02 0. -1.
</event>
<event>
 5    1  0.1675361E-008  0.3762728E+03  0.7957747E-01  0.3467550E+00
         13   -1    0    0    0    0  0.00000000000E+00  0.00000000000E+00  0.14999999963E+04  0.15000000000E+04  0.10566000000E+00 0.  1.
        994   -1    0    0    0    0 -0.00000000000E+00 -0.00000000000E+00  0.11368683772E-12  0.17120000000E+03  0.17120000000E+03 0.  0.
         13    1    1    2    0    0 -0.74449847085E+02 -0.14685195577E+03  0.83169042975E+03  0.84783091401E+03  0.10566000000E+00 0.  1.
        994    1    1    2    0    0  0.69269327301E+02  0.15193351104E+03  0.10711792982E+03  0.26204145163E+03  0.17120000000E+03 0.  0.
        998    1    1    2    0    0  0.51805197832E+01 -0.50815552771E+01  0.56119163671E+03  0.56132763436E+03  0.10000000000E+02 0.  0.
</event>
<event>
 5    1  0.1675361E-008  0.3844811E+03  0.7957747E-01  0.3431876E+00
         13   -1    0    0    0    0  0.00000000000E+00  0.00000000000E+00  0.14999999963E+04  0.15000000000E+04  0.10566000000E+00 0. -1.
        994   -1    0    0    0    0 -0.00000000000E+00 -0.00000000000E+00  0.11368683772E-12  0.17120000000E+03  0.17120000000E+03 0.  0.
         13    1    1    2    0    0 -0.96408626568E+01 -0.13692087989E+02  0.71631542838E+02  0.73562956708E+02  0.10566000000E+00 0. -1.
        994    1    1    2    0    0  0.10942634816E+02  0.12158056539E+02  0.27698549564E+01  0.17200195258E+03  0.17120000000E+03 0.  0.
        998    1    1    2    0    0 -0.13017721590E+01  0.15340314493E+01  0.14255985985E+04  0.14256350907E+04  0.10000000000E+02 0. -1.
</event>
<event>
 5    1  0.1675361E-008  0.3205271E+03  0.7957747E-01  0.3759563E+00
         13   -1    0    0    0    0  0.00000000000E+00  0.00000000000E+00  0.14999999963E+04  0.15000000000E+04  0.10566000000E+00 0. -1.
        994   -1    0    0    0    0 -0.00000000000E+00 -0.00000000000E+00  0.11368683772E-12  0.17120000000E+03  0.17120000000E+03 0.  0.
         13    1    1    2    0    0 -0.22936184926E+03 -0.12173985199E+03  0.66597833972E+03  0.71481089080E+03  0.10566000000E+00 0. -1.
        994    1    1    2    0    0  0.21383925427E+03  0.89397116161E+02  0.28221945264E+03  0.40333153918E+03  0.17120000000E+03 0.  0.
        998    1    1    2    0    0  0.15522594988E+02  0.32342735832E+02  0.55180220392E+03  0.55305757003E+03  0.10000000000E+02 0. -1.
</event>
<event>
 5    1  0.1675361E-008  0.3840134E+03  0.7957747E-01  0.3433867E+00
         13   -1    0    0    0    0  0.00000000000E+00  0.00000000000E+00  0.14999999963E+04  0.15000000000E+04  0.10566000000E+00 0.  1.
        994   -1    0    0    0    0 -0.00000000000E+00 -0.00000000000E+00  0.11368683772E-12  0.17120000000E+03  0.17120000000E+03 0.  0.
         13    1    1    2    0    0 -0.16551660510E+02  0.26362084864E+01  0.69451713214E+02  0.71445494562E+02  0.10566000000E+00 0.  1.
        994    1    1    2    0    0  0.20258197287E+01  0.21190245092E+01  0.21491362511E+01  0.17123858501E+03  0.17120000000E+03 0.  0.
        998    1    1    2    0    0  0.14525840781E+02 -0.47552329956E+01  0.14283991468E+04  0.14285159204E+04  0.10000000000E+02 0.  1.
</event>
<event>
 5    1  0.1675361E-008  0.3843785E+03  0.7957747E-01  0.3432312E+00
         13   -1    0    0    0    0  0.00000000000E+00  0.00000000000E+00  0.14999999963E+04  0.15000000000E+04  0.10566000000E+00 0. -1.
        994   -1    0    0    0    0 -0.00000000000E+00 -0.00000000000E+00  0.11368683772E-12  0.17120000000E+03  0.17120000000E+03 0.  0.
         13    1    1    2    0    0 -0.91497041040E+01 -0.47351198638E+01  0.26397948400E+02  0.28337277376E+02  0.10566000000E+00 0. -1.
        994    1    1    2    0    0  0.11550266967E+02  0.30533433839E+01  0.24094943715E+01  0.17163326378E+03  0.17120000000E+03 0.  0.
        998    1    1    2    0    0 -0.24005628632E+01  0.16817764799E+01  0.14711925535E+04  0.14712294588E+04  0.10000000000E+02 0. -1.
</event>
<event>
 5    1  0.1675361E-008  0.3801418E+03  0.7957747E-01  0.3450541E+00
         13   -1    0    0    0    0  0.00000000000E+00  0.00000000000E+00  0.14999999963E+04  0.15000000000E+04  0.10566000000E+00 0. -1.
        994   -1    0    0    0    0 -0.00000000000E+00 -0.00000000000E+00  0.11368683772E-12  0.17120000000E+03  0.17120000000E+03 0.  0.
         13    1    1    2    0    0  0.15436459210E+02  0.19351218695E+02  0.68735925261E+02  0.73057460423E+02  0.10566000000E+00 0. -1.
        994    1    1    2    0    0 -0.15780083683E+02 -0.29150094843E+02  0.77415919242E+01  0.17455117105E+03  0.17120000000E+03 0.  0.
        998    1    1    2    0    0  0.34362447283E+00  0.97988761480E+01  0.14235224791E+04  0.14235913685E+04  0.10000000000E+02 0. -1.
</event>
<event>
 5    1  0.1675361E-008  0.3847388E+03  0.7957747E-01  0.3430781E+00
         13   -1    0    0    0    0  0.00000000000E+00  0.00000000000E+00  0.14999999963E+04  0.15000000000E+04  0.10566000000E+00 0. -1.
        994   -1    0    0    0    0 -0.00000000000E+00 -0.00000000000E+00  0.11368683772E-12  0.17120000000E+03  0.17120000000E+03 0.  0.
         13    1    1    2    0    0  0.15519359150E+02  0.26889699763E+01  0.68410218112E+02  0.70200072465E+02  0.10566000000E+00 0. -1.
        994    1    1    2    0    0 -0.14331566470E+02 -0.42341989256E+01  0.24952694993E+01  0.17186910312E+03  0.17120000000E+03 0.  0.
        998    1    1    2    0    0 -0.11877926802E+01  0.15452289493E+01  0.14290945087E+04  0.14291308244E+04  0.10000000000E+02 0. -1.
</event>
<event>
 5    1  0.1675361E-008  0.3845594E+03  0.7957747E-01  0.3431543E+00
         13   -1    0    0    0    0  0.00000000000E+00  0.00000000000E+00  0.14999999963E+04  0.15000000000E+04  0.10566000000E+00 0.  1.
        994   -1    0    0    0    0 -0.00000000000E+00 -0.00000000000E+00  0.11368683772E-12  0.17120000000E+03  0.17120000000E+03 0.  0.
         13    1    1    2    0    0  0.46619689240E+01 -0.10253865132E+02  0.34068257690E+02  0.35882210780E+02  0.10566000000E+00 0.  1.
        994    1    1    2    0    0 -0.64782110140E+01  0.45664692419E+01  0.20559822358E+01  0.17139570275E+03  0.17120000000E+03 0.  0.
        998    1    1    2    0    0  0.18162420900E+01  0.56873958905E+01  0.14638757564E+04  0.14639220865E+04  0.10000000000E+02 0.  1.
</event>
<event>
 5    1  0.1675361E-008  0.3854708E+03  0.7957747E-01  0.3427678E+00
         13   -1    0    0    0    0  0.00000000000E+00  0.00000000000E+00  0.14999999963E+04  0.15000000000E+04  0.10566000000E+00 0. -1.
        994   -1    0    0    0    0 -0.00000000000E+00 -0.00000000000E+00  0.11368683772E-12  0.17120000000E+03  0.17120000000E+03 0.  0.
         13    1    1    2    0    0 -0.12119931543E+02  0.89918694833E+01  0.84811390712E+02  0.86143656852E+02  0.10566000000E+00 0. -1.
        994    1    1    2    0    0  0.87560836184E+01  0.25671689625E+01  0.16700222522E+01  0.17145112520E+03  0.17120000000E+03 0.  0.
        998    1    1    2    0    0  0.33638479247E+01 -0.11559038446E+02  0.14135185833E+04  0.14136052180E+04  0.10000000000E+02 0. -1.
</event>
<event>
 5    1  0.1675361E-008  0.3741478E+03  0.7957747E-01  0.3477043E+00
         13   -1    0    0    0    0  0.00000000000E+00  0.00000000000E+00  0.14999999963E+04  0.15000000000E+04  0.10566000000E+00 0.  1.
        994   -1    0    0    0    0 -0.00000000000E+00 -0.00000000000E+00  0.11368683772E-12  0.17120000000E+03  0.17120000000E+03 0.  0.
         13    1    1    2    0    0  0.60911302147E+01 -0.13728903396E+02  0.12524915951E+02  0.19556823345E+02  0.10566000000E+00 0.  1.
        994    1    1    2    0    0 -0.38393955686E+01  0.16560441668E+02  0.81027699524E+01  0.17223264519E+03  0.17120000000E+03 0.  0.
        998    1    1    2    0    0 -0.22517346461E+01 -0.28315382721E+01  0.14793723104E+04  0.14794105315E+04  0.10000000000E+02 0.  1.
</event>
<event>
 5    1  0.1675361E-008  0.3807750E+03  0.7957747E-01  0.3447791E+00
         13   -1    0    0    0    0  0.00000000000E+00  0.00000000000E+00  0.14999999963E+04  0.15000000000E+04  0.10566000000E+00 0.  1.
        994   -1    0    0    0    0 -0.00000000000E+00 -0.00000000000E+00  0.11368683772E-12  0.17120000000E+03  0.17120000000E+03 0.  0.
         13    1    1    2    0    0 -0.71239018503E+02  0.69653826857E+02  0.25496749566E+03  0.27374274121E+03  0.10566000000E+00 0.  1.
        994    1    1    2    0    0  0.14141299623E+02 -0.11414658354E+03  0.66563109234E+02  0.21672449423E+03  0.17120000000E+03 0.  0.
        998    1    1    2    0    0  0.57097718880E+02  0.44492756680E+02  0.11784693914E+04  0.11807327646E+04  0.10000000000E+02 0.  1.
</event>
<event>
 5    1  0.1675361E-008  0.3838493E+03  0.7957747E-01  0.3434567E+00
         13   -1    0    0    0    0  0.00000000000E+00  0.00000000000E+00  0.14999999963E+04  0.15000000000E+04  0.10566000000E+00 0. -1.
        994   -1    0    0    0    0 -0.00000000000E+00 -0.00000000000E+00  0.11368683772E-12  0.17120000000E+03  0.17120000000E+03 0.  0.
         13    1    1    2    0    0 -0.44810762258E+01  0.17480748926E+02  0.80739867781E+02  0.82732061744E+02  0.10566000000E+00 0. -1.
        994    1    1    2    0    0 -0.85055247367E+00  0.34950281648E+01  0.22452448708E+01  0.17125250301E+03  0.17120000000E+03 0.  0.
        998    1    1    2    0    0  0.53316286994E+01 -0.20975777090E+02  0.14170148836E+04  0.14172154352E+04  0.10000000000E+02 0. -1.
</event>
<event>
 5    1  0.1675361E-008  0.3777831E+03  0.7957747E-01  0.3460868E+00
         13   -1    0    0    0    0  0.00000000000E+00  0.00000000000E+00  0.14999999963E+04  0.15000000000E+04  0.10566000000E+00 0. -1.
        994   -1    0    0    0    0 -0.00000000000E+00 -0.00000000000E+00  0.11368683772E-12  0.17120000000E+03  0.17120000000E+03 0.  0.
         13    1    1    2    0    0  0.21137957531E+02 -0.20677549667E+02  0.22408215538E+02  0.37101396153E+02  0.10566000000E+00 0. -1.
        994    1    1    2    0    0 -0.35179515233E+02  0.24992867014E+01  0.19598680166E+02  0.17589028680E+03  0.17120000000E+03 0.  0.
        998    1    1    2    0    0  0.14041557702E+02  0.18178262966E+02  0.14579931006E+04  0.14582083170E+04  0.10000000000E+02 0. -1.
</event>
<event>
 5    1  0.1675361E-008  0.3826970E+03  0.7957747E-01  0.3439499E+00
         13   -1    0    0    0    0  0.00000000000E+00  0.00000000000E+00  0.14999999963E+04  0.15000000000E+04  0.10566000000E+00 0. -1.
        994   -1    0    0    0    0 -0.00000000000E+00 -0.00000000000E+00  0.11368683772E-12  0.17120000000E+03  0.17120000000E+03 0.  0.
         13    1    1    2    0    0  0.10596129207E+02  0.12312179755E+02  0.48365977463E+02  0.51021041390E+02  0.10566000000E+00 0. -1.
        994    1    1    2    0    0 -0.91737824802E+00 -0.21878837026E+01  0.27965437774E+01  0.17123927434E+03  0.17120000000E+03 0.  0.
        998    1    1    2    0    0 -0.96787509585E+01 -0.10124296053E+02  0.14488374750E+04  0.14489396843E+04  0.10000000000E+02 0. -1.
</event>
<event>
 5    1  0.1675361E-008  0.3832184E+03  0.7957747E-01  0.3437264E+00
         13   -1    0    0    0    0  0.00000000000E+00  0.00000000000E+00  0.14999999963E+04  0.15000000000E+04  0.10566000000E+00 0. -1.
        994   -1    0    0    0    0 -0.00000000000E+00 -0.00000000000E+00  0.11368683772E-12  0.17120000000E+03  0.17120000000E+03 0.  0.
         13    1    1    2    0    0  0.84053092268E+01  0.15864612585E+02  0.64780762937E+02  0.67222716149E+02  0.10566000000E+00 0. -1.
        994    1    1    2    0    0 -0.71174622906E+00 -0.78599457899E+01  0.27233237735E+01  0.17140344752E+03  0.17120000000E+03 0.  0.
        998    1    1    2    0    0 -0.76935629977E+01 -0.80046667950E+01  0.14324959096E+04  0.14325738363E+04  0.10000000000E+02 0. -1.
</event>
<event>
 5    1  0.1675361E-008  0.3835996E+03  0.7957747E-01  0.3435633E+00
         13   -1    0    0    0    0  0.00000000000E+00  0.00000000000E+00  0.14999999963E+04  0.15000000000E+04  0.10566000000E+00 0.  1.
        994   -1    0    0    0    0 -0.00000000000E+00 -0.00000000000E+00  0.11368683772E-12  0.17120000000E+03  0.17120000000E+03 0.  0.
         13    1    1    2    0    0  0.81543531111E+00  0.17083228974E+02  0.62750511708E+02  0.65039522835E+02  0.10566000000E+00 0.  1.
        994    1    1    2    0    0 -0.26155461751E+01 -0.95820718229E+01  0.26530123647E+01  0.17150841279E+03  0.17120000000E+03 0.  0.
        998    1    1    2    0    0  0.18001108640E+01 -0.75011571516E+01  0.14345964722E+04  0.14346520644E+04  0.10000000000E+02 0.  1.
</event>
<event>
 5    1  0.1675361E-008  0.3768671E+03  0.7957747E-01  0.3464914E+00
         13   -1    0    0    0    0  0.00000000000E+00  0.00000000000E+00  0.14999999963E+04  0.15000000000E+04  0.10566000000E+00 0. -1.
        994   -1    0    0    0    0 -0.00000000000E+00 -0.00000000000E+00  0.11368683772E-12  0.17120000000E+03  0.17120000000E+03 0.  0.
         13    1    1    2    0    0  0.32758876457E+02 -0.35485661656E+02  0.20036735584E+03  0.20610546965E+03  0.10566000000E+00 0. -1.
        994    1    1    2    0    0 -0.43009171543E+02  0.13254084405E+01  0.12003119703E+02  0.17693236116E+03  0.17120000000E+03 0.  0.
        998    1    1    2    0    0  0.10250295086E+02  0.34160253216E+02  0.12876295207E+04  0.12881621692E+04  0.10000000000E+02 0. -1.
</event>
<event>
 5    1  0.1675361E-008  0.3725364E+03  0.7957747E-01  0.3484314E+00
         13   -1    0    0    0    0  0.00000000000E+00  0.00000000000E+00  0.14999999963E+04  0.15000000000E+04  0.10566000000E+00 0.  1.
        994   -1    0    0    0    0 -0.00000000000E+00 -0.00000000000E+00  0.11368683772E-12  0.17120000000E+03  0.17120000000E+03 0.  0.
         13    1    1    2    0    0 -0.14582351009E+02  0.13238523388E+01  0.10580389916E+02  0.18065252857E+02  0.10566000000E+00 0.  1.
        994    1    1    2    0    0 -0.20522031989E+02 -0.19648132764E+02  0.10721118696E+02  0.17387232472E+03  0.17120000000E+03 0.  0.
        998    1    1    2    0    0  0.35104382999E+02  0.18324280425E+02  0.14786984877E+04  0.14792624224E+04  0.10000000000E+02 0.  1.
</event>
<event>
 5    1  0.1675361E-008  0.3826944E+03  0.7957747E-01  0.3439510E+00
         13   -1    0    0    0    0  0.00000000000E+00  0.00000000000E+00  0.14999999963E+04  0.15000000000E+04  0.10566000000E+00 0. -1.
        994   -1    0    0    0    0 -0.00000000000E+00 -0.00000000000E+00  0.11368683772E-12  0.17120000000E+03  0.17120000000E+03 0.  0.
         13    1    1    2    0    0 -0.22566488559E+02  0.18322586899E+02  0.12230906600E+03  0.12571587961E+03  0.10566000000E+00 0. -1.
        994    1    1    2    0    0  0.13078104348E+02 -0.66374822950E+02  0.18094465471E+02  0.18496892608E+03  0.17120000000E+03 0.  0.
        998    1    1    2    0    0  0.94883842108E+01  0.48052236051E+02  0.13595964648E+04  0.13605151943E+04  0.10000000000E+02 0. -1.
</event>
<event>
 5    1  0.1675361E-008  0.3842747E+03  0.7957747E-01  0.3432754E+00
         13   -1    0    0    0    0  0.00000000000E+00  0.00000000000E+00  0.14999999963E+04  0.15000000000E+04  0.10566000000E+00 0. -1.
        994   -1    0    0    0    0 -0.00000000000E+00 -0.00000000000E+00  0.11368683772E-12  0.17120000000E+03  0.17120000000E+03 0.  0.
         13    1    1    2    0    0  0.49501552220E+01 -0.17921364783E+02  0.94167314843E+02  0.95985278565E+02  0.10566000000E+00 0. -1.
        994    1    1    2    0    0 -0.40454579161E+01 -0.12782693092E+01  0.20499874416E+01  0.17126483045E+03  0.17120000000E+03 0.  0.
        998    1    1    2    0    0 -0.90469730582E+00  0.19199634092E+02  0.14037826940E+04  0.14039498910E+04  0.10000000000E+02 0. -1.
</event>
<event>
 5    1  0.1675361E-008  0.3790644E+03  0.7957747E-01  0.3455243E+00
         13   -1    0    0    0    0  0.00000000000E+00  0.00000000000E+00  0.14999999963E+04  0.15000000000E+04  0.10566000000E+00 0.  1.
        994   -1    0    0    0    0 -0.00000000000E+00 -0.00000000000E+00  0.11368683772E-12  0.17120000000E+03  0.17120000000E+03 0.  0.
         13    1    1    2    0    0 -0.48685789802E+02 -0.14744287899E+02  0.22078279408E+03  0.22656732660E+03  0.10566000000E+00 0.  1.
        994    1    1    2    0    0  0.57470978618E+02  0.24056607547E+02  0.17734428152E+02  0.18304530503E+03  0.17120000000E+03 0.  0.
        998    1    1    2    0    0 -0.87851888153E+01 -0.93123196480E+01  0.12614827740E+04  0.12615873684E+04  0.10000000000E+02 0.  1.
</event>
<event>
 5    1  0.1675361E-008  0.3831674E+03  0.7957747E-01  0.3437482E+00
         13   -1    0    0    0    0  0.00000000000E+00  0.00000000000E+00  0.14999999963E+04  0.15000000000E+04  0.10566000000E+00 0. -1.
        994   -1    0    0    0    0 -0.00000000000E+00 -0.00000000000E+00  0.11368683772E-12  0.17120000000E+03  0.17120000000E+03 0.  0.
         13    1    1    2    0    0  0.22197386905E+01 -0.13594012763E+02  0.37903130091E+02  0.40328437332E+02  0.10566000000E+00 0. -1.
        994    1    1    2    0    0  0.86262944834E+01  0.15150192525E+01  0.27965515560E+01  0.17144669417E+03  0.17120000000E+03 0.  0.
        998    1    1    2    0    0 -0.10846033174E+02  0.12078993511E+02  0.14593003146E+04  0.14594248685E+04  0.10000000000E+02 0. -1.
</event>
<event>
 5    1  0.1675361E-008  0.3789602E+03  0.7957747E-01  0.3455698E+00
         13   -1    0    0    0    0  0.00000000000E+00  0.00000000000E+00  0.14999999963E+04  0.15000000000E+04  0.10566000000E+00 0. -1.
        994   -1    0    0    0    0 -0.00000000000E+00 -0.00000000000E+00  0.11368683772E-12  0.17120000000E+03  0.17120000000E+03 0.  0.
         13    1    1    2    0    0  0.36561084757E+01 -0.18844341589E+02  0.36842234609E+02  0.41543203465E+02  0.10566000000E+00 0. -1.
        994    1    1    2    0    0 -0.58065817146E+01  0.19428754161E+02  0.60394702380E+01  0.17250248717E+03  0.17120000000E+03 0.  0.
        998    1    1    2    0    0  0.21504732389E+01 -0.58441257166E+00  0.14571182914E+04  0.14571543094E+04  0.10000000000E+02 0. -1.
</event>
<event>
 5    1  0.1675361E-008  0.3838545E+03  0.7957747E-01  0.3434545E+00
         13   -1    0    0    0    0  0.00000000000E+00  0.00000000000E+00  0.14999999963E+04  0.15000000000E+04  0.10566000000E+00 0.  1.
        994   -1    0    0    0    0 -0.00000000000E+00 -0.00000000000E+00  0.11368683772E-12  0.17120000000E+03  0.17120000000E+03 0.  0.
         13    1    1    2    0    0 -0.88562486177E+00  0.12468193357E+02  0.35043782965E+02  0.37206425057E+02  0.10566000000E+00 0.  1.
        994    1    1    2    0    0 -0.23691235917E+01 -0.77572090794E+01  0.24171040820E+01  0.17140907045E+03  0.17120000000E+03 0.  0.
        998    1    1    2    0    0  0.32547484534E+01 -0.47109842775E+01  0.14625391092E+04  0.14625845045E+04  0.10000000000E+02 0.  1.
</event>
<event>
 5    1  0.1675361E-008  0.3839925E+03  0.7957747E-01  0.3433956E+00
         13   -1    0    0    0    0  0.00000000000E+00  0.00000000000E+00  0.14999999963E+04  0.15000000000E+04  0.10566000000E+00 0. -1.
        994   -1    0    0    0    0 -0.00000000000E+00 -0.00000000000E+00  0.11368683772E-12  0.17120000000E+03  0.17120000000E+03 0.  0.
         13    1    1    2    0    0 -0.14817825672E+02  0.31058205038E+01  0.55247203835E+02  0.57284193057E+02  0.10566000000E+00 0. -1.
        994    1    1    2    0    0  0.27765536569E+01 -0.22229959408E+01  0.21728974988E+01  0.17125072976E+03  0.17120000000E+03 0.  0.
        998    1    1    2    0    0  0.12041272015E+02 -0.88282456300E+00  0.14425798949E+04  0.14426650772E+04  0.10000000000E+02 0. -1.
</event>
<event>
 5    1  0.1675361E-008  0.3782610E+03  0.7957747E-01  0.3458766E+00
         13   -1    0    0    0    0  0.00000000000E+00  0.00000000000E+00  0.14999999963E+04  0.15000000000E+04  0.10566000000E+00 0. -1.
        994   -1    0    0    0    0 -0.00000000000E+00 -0.00000000000E+00  0.11368683772E-12  0.17120000000E+03  0.17120000000E+03 0.  0.
         13    1    1    2    0    0  0.28951408305E+02 -0.39876883447E+01  0.80908295637E+02  0.86024700918E+02  0.10566000000E+00 0. -1.
        994    1    1    2    0    0 -0.25152268975E+02  0.14905822390E+01  0.71510370733E+01  0.17319190455E+03  0.17120000000E+03 0.  0.
        998    1    1    2    0    0 -0.37991393301E+01  0.24971061057E+01  0.14119406636E+04  0.14119833945E+04  0.10000000000E+02 0. -1.
</event>
<event>
 5    1  0.1675361E-008  0.3843342E+03  0.7957747E-01  0.3432501E+00
         13   -1    0    0    0    0  0.00000000000E+00  0.00000000000E+00  0.14999999963E+04  0.15000000000E+04  0.10566000000E+00 0. -1.
        994   -1    0    0    0    0 -0.00000000000E+00 -0.00000000000E+00  0.11368683772E-12  0.17120000000E+03  0.17120000000E+03 0.  0.
         13    1    1    2    0    0  0.96267792014E+01  0.46950777665E+01  0.28597780198E+02  0.30537891698E+02  0.10566000000E+00 0. -1.
        994    1    1    2    0    0 -0.89122201119E+01 -0.16206749204E+01  0.22315302496E+01  0.17145399961E+03  0.17120000000E+03 0.  0.
        998    1    1    2    0    0 -0.71455908949E+00 -0.30744028460E+01  0.14691706858E+04  0.14692081087E+04  0.10000000000E+02 0. -1.
</event>
<event>
 5    1  0.1675361E-008  0.3819404E+03  0.7957747E-01  0.3442753E+00
         13   -1    0    0    0    0  0.00000000000E+00  0.00000000000E+00  0.14999999963E+04  0.15000000000E+04  0.10566000000E+00 0.  1.
        994   -1    0    0    0    0 -0.00000000000E+00 -0.00000000000E+00  0.11368683772E-12  0.17120000000E+03  0.17120000000E+03 0.  0.
         13    1    1    2    0    0  0.21368571587E+02  0.10577393706E+02  0.80883711376E+02  0.84324866079E+02  0.10566000000E+00 0.  1.
        994    1    1    2    0    0 -0.27625884692E+02 -0.19620584231E+02  0.69799506562E+01  0.17466057524E+03  0.17120000000E+03 0.  0.
        998    1    1    2    0    0  0.62573131050E+01  0.90431905251E+01  0.14121363342E+04  0.14122145587E+04  0.10000000000E+02 0.  1.
</event>
<event>
 5    1  0.1675361E-008  0.3849303E+03  0.7957747E-01  0.3429968E+00
         13   -1    0    0    0    0  0.00000000000E+00  0.00000000000E+00  0.14999999963E+04  0.15000000000E+04  0.10566000000E+00 0.  1.
        994   -1    0    0    0    0 -0.00000000000E+00 -0.00000000000E+00  0.11368683772E-12  0.17120000000E+03  0.17120000000E+03 0.  0.
         13    1    1    2    0    0 -0.10391812251E+02  0.95501266288E+01  0.61942882302E+02  0.63530516387E+02  0.10566000000E+00 0.  1.
        994    1    1    2    0    0  0.94451831118E+00 -0.42880249366E+01  0.17281640103E+01  0.17126501634E+03  0.17120000000E+03 0.  0.
        998    1    1    2    0    0  0.94472939395E+01 -0.52621016922E+01  0.14363289500E+04  0.14364044673E+04  0.10000000000E+02 0.  1.
</event>
<event>
 5    1  0.1675361E-008  0.3804480E+03  0.7957747E-01  0.3449210E+00
         13   -1    0    0    0    0  0.00000000000E+00  0.00000000000E+00  0.14999999963E+04  0.15000000000E+04  0.10566000000E+00 0.  1.
        994   -1    0    0    0    0 -0.00000000000E+00 -0.00000000000E+00  0.11368683772E-12  0.17120000000E+03  0.17120000000E+03 0.  0.
         13    1    1    2    0    0 -0.27863088502E+02 -0.23650393544E+00  0.99565102472E+02  0.10339065929E+03  0.10566000000E+00 0.  1.
        994    1    1    2    0    0  0.14028154779E+02  0.10336528539E+02  0.49213542359E+01  0.17215485086E+03  0.17120000000E+03 0.  0.
        998    1    1    2    0    0  0.13834933723E+02 -0.10100024603E+02  0.13955135396E+04  0.13956544898E+04  0.10000000000E+02 0.  1.
</event>
<event>
 5    1  0.1675361E-008  0.3763629E+03  0.7957747E-01  0.3467150E+00
         13   -1    0    0    0    0  0.00000000000E+00  0.00000000000E+00  0.14999999963E+04  0.15000000000E+04  0.10566000000E+00 0.  1.
        994   -1    0    0    0    0 -0.00000000000E+00 -0.00000000000E+00  0.11368683772E-12  0.17120000000E+03  0.17120000000E+03 0.  0.
         13    1    1    2    0    0 -0.34878754330E+02  0.37899289631E+02  0.20801982796E+03  0.21430152507E+03  0.10566000000E+00 0.  1.
        994    1    1    2    0    0  0.31061318507E+02 -0.23632433073E+02  0.11152194884E+02  0.17594632378E+03  0.17120000000E+03 0.  0.
        998    1    1    2    0    0  0.38174358228E+01 -0.14266856558E+02  0.12808279734E+04  0.12809521512E+04  0.10000000000E+02 0.  1.
</event>
<event>
 5    1  0.1675361E-008  0.3833579E+03  0.7957747E-01  0.3436667E+00
         13   -1    0    0    0    0  0.00000000000E+00  0.00000000000E+00  0.14999999963E+04  0.15000000000E+04  0.10566000000E+00 0.  1.
        994   -1    0    0    0    0 -0.00000000000E+00 -0.00000000000E+00  0.11368683772E-12  0.17120000000E+03  0.17120000000E+03 0.  0.
         13    1    1    2    0    0 -0.17275267756E+02 -0.15857255322E+02  0.12458694528E+03  0.12677462491E+03  0.10566000000E+00 0.  1.
        994    1    1    2    0    0  0.28835207161E+01 -0.35950756515E+01  0.25178403322E+01  0.17128052657E+03  0.17120000000E+03 0.  0.
        998    1    1    2    0    0  0.14391747039E+02  0.19452330974E+02  0.13728952107E+04  0.13731448485E+04  0.10000000000E+02 0.  1.
</event>
<event>
 5    1  0.1675361E-008  0.3712968E+03  0.7957747E-01  0.3489952E+00
         13   -1    0    0    0    0  0.00000000000E+00  0.00000000000E+00  0.14999999963E+04  0.15000000000E+04  0.10566000000E+00 0.  1.
        994   -1    0    0    0    0 -0.00000000000E+00 -0.00000000000E+00  0.11368683772E-12  0.17120000000E+03  0.17120000000E+03 0.  0.
         13    1    1    2    0    0  0.74940190266E+02 -0.39635103883E+02  0.23637263122E+03  0.25111552228E+03  0.10566000000E+00 0.  1.
        994    1    1    2    0    0 -0.92052007604E+02  0.38561841754E+02  0.47480211890E+02  0.20377536226E+03  0.17120000000E+03 0.  0.
        998    1    1    2    0    0  0.17111817338E+02  0.10732621291E+01  0.12161471532E+04  0.12163091155E+04  0.10000000000E+02 0.  1.
</event>
<event>
 5    1  0.1675361E-008  0.3805692E+03  0.7957747E-01  0.3448684E+00
         13   -1    0    0    0    0  0.00000000000E+00  0.00000000000E+00  0.14999999963E+04  0.15000000000E+04  0.10566000000E+00 0.  1.
        994   -1    0    0    0    0 -0.00000000000E+00 -0.00000000000E+00  0.11368683772E-12  0.17120000000E+03  0.17120000000E+03 0.  0.
         13    1    1    2    0    0  0.44011301360E+01 -0.15490913521E+02  0.34647239281E+02  0.38207076596E+02  0.10566000000E+00 0.  1.
        994    1    1    2    0    0  0.40390955795E+01 -0.10181830823E+02  0.42465637381E+01  0.17160261442E+03  0.17120000000E+03 0.  0.
        998    1    1    2    0    0 -0.84402257155E+01  0.25672744344E+02  0.14611061933E+04  0.14613903090E+04  0.10000000000E+02 0.  1.
</event>
<event>
 5    1  0.1675361E-008  0.4396383E+03  0.7957747E-01  0.3226560E+00
         13   -1    0    0    0    0  0.00000000000E+00  0.00000000000E+00  0.14999999963E+04  0.15000000000E+04  0.10566000000E+00 0. -1.
        994   -1    0    0    0    0 -0.00000000000E+00 -0.00000000000E+00  0.11368683772E-12  0.17120000000E+03  0.17120000000E+03 0.  0.
         13    1    1    2    0    0  0.45416603399E+02 -0.37890140906E+02  0.14209496149E+02  0.60829693300E+02  0.10566000000E+00 0. -1.
        994    1    1    2    0    0 -0.41108752562E+02  0.21813337648E+02  0.64236415761E+02  0.18868361971E+03  0.17120000000E+03 0.  0.
        998    1    1    2    0    0 -0.43078508372E+01  0.16076803257E+02  0.14215540844E+04  0.14216866870E+04  0.10000000000E+02 0. -1.
</event>
<event>
 5    1  0.1675361E-008  0.3848214E+03  0.7957747E-01  0.3430430E+00
         13   -1    0    0    0    0  0.00000000000E+00  0.00000000000E+00  0.14999999963E+04  0.15000000000E+04  0.10566000000E+00 0. -1.
        994   -1    0    0    0    0 -0.00000000000E+00 -0.00000000000E+00  0.11368683772E-12  0.17120000000E+03  0.17120000000E+03 0.  0.
         13    1    1    2    0    0 -0.13885899426E+02  0.61688516301E+01  0.69640035638E+02  0.71278458604E+02  0.10566000000E+00 0. -1.
        994    1    1    2    0    0  0.27115846088E+01 -0.41609522624E+01  0.18000141360E+01  0.17128148255E+03  0.17120000000E+03 0.  0.
        998    1    1    2    0    0  0.11174314817E+02 -0.20078993677E+01  0.14285599465E+04  0.14286400588E+04  0.10000000000E+02 0. -1.
</event>
<event>
 5    1  0.1675361E-008  0.3834661E+03  0.7957747E-01  0.3436204E+00
         13   -1    0    0    0    0  0.00000000000E+00  0.00000000000E+00  0.14999999963E+04  0.15000000000E+04  0.10566000000E+00 0. -1.
        994   -1    0    0    0    0 -0.00000000000E+00 -0.00000000000E+00  0.11368683772E-12  0.17120000000E+03  0.17120000000E+03 0.  0.
         13    1    1    2    0    0 -0.12201778747E+02 -0.88009691992E+01  0.47270029281E+02  0.49606524729E+02  0.10566000000E+00 0. -1.
        994    1    1    2    0    0  0.50673391533E+01  0.49141484380E+01  0.25582854330E+01  0.17136455761E+03  0.17120000000E+03 0.  0.
        998    1    1    2    0    0  0.71344395938E+01  0.38868207613E+01  0.14501716816E+04  0.14502289177E+04  0.10000000000E+02 0. -1.
</event>
<event>
 5    1  0.1675361E-008  0.3830095E+03  0.7957747E-01  0.3438158E+00
         13   -1    0    0    0    0  0.00000000000E+00  0.00000000000E+00  0.14999999963E+04  0.15000000000E+04  0.10566000000E+00 0.  1.
        994   -1    0    0    0    0 -0.00000000000E+00 -0.00000000000E+00  0.11368683772E-12  0.17120000000E+03  0.17120000000E+03 0.  0.
         13    1    1    2    0    0  0.71574843060E+01 -0.17613044079E+02  0.71874448736E+02  0.74346462246E+02  0.10566000000E+00 0.  1.
        994    1    1    2    0    0 -0.17894970034E+01  0.18945532857E+01  0.26440980810E+01  0.17124024903E+03  0.17120000000E+03 0.  0.
        998    1    1    2    0    0 -0.53679873026E+01  0.15718490793E+02  0.14254814495E+04  0.14256132887E+04  0.10000000000E+02 0.  1.
</event>
<event>
 5    1  0.1675361E-008  0.3703807E+03  0.7957747E-01  0.3494143E+00
         13   -1    0    0    0    0  0.00000000000E+00  0.00000000000E+00  0.14999999963E+04  0.15000000000E+04  0.10566000000E+00 0.  1.
        994   -1    0    0    0    0 -0.00000000000E+00 -0.00000000000E+00  0.11368683772E-12  0.17120000000E+03  0.17120000000E+03 0.  0.
         13    1    1    2    0    0 -0.59227764202E+02  0.27383676747E+02  0.20004445547E+03  0.21041765404E+03  0.10566000000E+00 0.  1.
        994    1    1    2    0    0  0.68681770274E+02 -0.10603410401E+02  0.25937209053E+02  0.18657919684E+03  0.17120000000E+03 0.  0.
        998    1    1    2    0    0 -0.94540060722E+01 -0.16780266346E+02  0.12740183318E+04  0.12742031491E+04  0.10000000000E+02 0.  1.
</event>
<event>
 5    1  0.1675361E-008  0.3825422E+03  0.7957747E-01  0.3440163E+00
         13   -1    0    0    0    0  0.00000000000E+00  0.00000000000E+00  0.14999999963E+04  0.15000000000E+04  0.10566000000E+00 0.  1.
        994   -1    0    0    0    0 -0.00000000000E+00 -0.00000000000E+00  0.11368683772E-12  0.17120000000E+03  0.17120000000E+03 0.  0.
         13    1    1    2    0    0 -0.23762032841E+01 -0.31029830806E+02  0.17085821433E+03  0.17366933325E+03  0.10566000000E+00 0.  1.
        994    1    1    2    0    0 -0.15810707967E+02  0.18505833566E+02  0.48217776423E+01  0.17298882595E+03  0.17120000000E+03 0.  0.
        998    1    1    2    0    0  0.18186911251E+02  0.12523997239E+02  0.13243200043E+04  0.13245418408E+04  0.10000000000E+02 0. -1.
</event>
<event>
 5    1  0.1675361E-008  0.3839269E+03  0.7957747E-01  0.3434236E+00
         13   -1    0    0    0    0  0.00000000000E+00  0.00000000000E+00  0.14999999963E+04  0.15000000000E+04  0.10566000000E+00 0. -1.
        994   -1    0    0    0    0 -0.00000000000E+00 -0.00000000000E+00  0.11368683772E-12  0.17120000000E+03  0.17120000000E+03 0.  0.
         13    1    1    2    0    0 -0.79948157512E+01 -0.11503156086E+02  0.41197669310E+02  0.43514351649E+02  0.10566000000E+00 0. -1.
        994    1    1    2    0    0  0.14509031588E+02  0.24369021130E+02  0.48228707878E+01  0.17360029168E+03  0.17120000000E+03 0.  0.
        998    1    1    2    0    0 -0.65142158365E+01 -0.12865865044E+02  0.14539794562E+04  0.14540853567E+04  0.10000000000E+02 0. -1.
</event>
<event>
 5    1  0.1675361E-008  0.3858146E+03  0.7957747E-01  0.3426225E+00
         13   -1    0    0    0    0  0.00000000000E+00  0.00000000000E+00  0.14999999963E+04  0.15000000000E+04  0.10566000000E+00 0.  1.
        994   -1    0    0    0    0 -0.00000000000E+00 -0.00000000000E+00  0.11368683772E-12  0.17120000000E+03  0.17120000000E+03 0.  0.
         13    1    1    2    0    0  0.11190048296E+02  0.79572558084E+01  0.80131306179E+02  0.81299277333E+02  0.10566000000E+00 0.  1.
        994    1    1    2    0    0 -0.26219714062E+01 -0.49272303419E+01  0.13284347727E+01  0.17129610933E+03  0.17120000000E+03 0.  0.
        998    1    1    2    0    0 -0.85680768901E+01 -0.30300254665E+01  0.14185402553E+04  0.14186046133E+04  0.10000000000E+02 0.  1.
</event>
<event>
 5    1  0.1675361E-008  0.3778888E+03  0.7957747E-01  0.3460403E+00
         13   -1    0    0    0    0  0.00000000000E+00  0.00000000000E+00  0.14999999963E+04  0.15000000000E+04  0.10566000000E+00 0. -1.
        994   -1    0    0    0    0 -0.00000000000E+00 -0.00000000000E+00  0.11368683772E-12  0.17120000000E+03  0.17120000000E+03 0.  0.
         13    1    1    2    0    0 -0.32376453219E+02 -0.62585561169E+01  0.98965359409E+02  0.10431470546E+03  0.10566000000E+00 0. -1.
        994    1    1    2    0    0  0.28004535156E+02  0.25942609895E+01  0.78700566885E+01  0.17367314695E+03  0.17120000000E+03 0.  0.
        998    1    1    2    0    0  0.43719180636E+01  0.36642951274E+01  0.13931645802E+04  0.13932121476E+04  0.10000000000E+02 0. -1.
</event>
<event>
 5    1  0.1675361E-008  0.3708697E+03  0.7957747E-01  0.3491903E+00
         13   -1    0    0    0    0  0.00000000000E+00  0.00000000000E+00  0.14999999963E+04  0.15000000000E+04  0.10566000000E+00 0. -1.
        994   -1    0    0    0    0 -0.00000000000E+00 -0.00000000000E+00  0.11368683772E-12  0.17120000000E+03  0.17120000000E+03 0.  0.
         13    1    1    2    0    0  0.18614532647E+02  0.88925818611E+01  0.13965549344E+02  0.24912377854E+02  0.10566000000E+00 0. -1.
        994    1    1    2    0    0 -0.15720095432E+02  0.17373298610E+02  0.13326783811E+02  0.17330896131E+03  0.17120000000E+03 0.  0.
        998    1    1    2    0    0 -0.28944372143E+01 -0.26265880471E+02  0.14727076631E+04  0.14729786608E+04  0.10000000000E+02 0. -1.
</event>
<event>
 5    1  0.1675361E-008  0.3715287E+03  0.7957747E-01  0.3488895E+00
         13   -1    0    0    0    0  0.00000000000E+00  0.00000000000E+00  0.14999999963E+04  0.15000000000E+04  0.10566000000E+00 0.  1.
        994   -1    0    0    0    0 -0.00000000000E+00 -0.00000000000E+00  0.11368683772E-12  0.17120000000E+03  0.17120000000E+03 0.  0.
         13    1    1    2    0    0  0.85267386217E+02  0.76306332342E+02  0.51814815859E+03  0.53063236701E+03  0.10566000000E+00 0.  1.
        994    1    1    2    0    0 -0.61402994109E+02 -0.97404005766E+02  0.55552090719E+02  0.21366642883E+03  0.17120000000E+03 0.  0.
        998    1    1    2    0    0 -0.23864392109E+02  0.21097673424E+02  0.92629974697E+03  0.92690120416E+03  0.10000000000E+02 0.  1.
</event>
<event>
 5    1  0.1675361E-008  0.3700743E+03  0.7957747E-01  0.3495550E+00
         13   -1    0    0    0    0  0.00000000000E+00  0.00000000000E+00  0.14999999963E+04  0.15000000000E+04  0.10566000000E+00 0.  1.
        994   -1    0    0    0    0 -0.00000000000E+00 -0.00000000000E+00  0.11368683772E-12  0.17120000000E+03  0.17120000000E+03 0.  0.
         13    1    1    2    0    0  0.16126348306E+02 -0.20625625395E+02  0.33309034667E+02  0.42367186443E+02  0.10566000000E+00 0.  1.
        994    1    1    2    0    0 -0.10534741064E+02  0.15922444199E+02  0.10491263295E+02  0.17258044966E+03  0.17120000000E+03 0.  0.
        998    1    1    2    0    0 -0.55916072418E+01  0.47031811963E+01  0.14561996983E+04  0.14562523639E+04  0.10000000000E+02 0.  1.
</event>
<event>
 5    1  0.1675361E-008  0.3845064E+03  0.7957747E-01  0.3431768E+00
         13   -1    0    0    0    0  0.00000000000E+00  0.00000000000E+00  0.14999999963E+04  0.15000000000E+04  0.10566000000E+00 0.  1.
        994   -1    0    0    0    0 -0.00000000000E+00 -0.00000000000E+00  0.11368683772E-12  0.17120000000E+03  0.17120000000E+03 0.  0.
         13    1    1    2    0    0  0.12057678126E+02  0.12093914597E+02  0.75235127277E+02  0.77149114788E+02  0.10566000000E+00 0.  1.
        994    1    1    2    0    0 -0.10090968760E+02 -0.12294533236E+02  0.27091249210E+01  0.17195860710E+03  0.17120000000E+03 0.  0.
        998    1    1    2    0    0 -0.19667093666E+01  0.20061863893E+00  0.14220557441E+04  0.14220922781E+04  0.10000000000E+02 0.  1.
</event>
<event>
 5    1  0.1675361E-008  0.3797497E+03  0.7957747E-01  0.3452249E+00
         13   -1    0    0    0    0  0.00000000000E+00  0.00000000000E+00  0.14999999963E+04  0.15000000000E+04  0.10566000000E+00 0.  1.
        994   -1    0    0    0    0 -0.00000000000E+00 -0.00000000000E+00  0.11368683772E-12  0.17120000000E+03  0.17120000000E+03 0.  0.
         13    1    1    2    0    0  0.19248023013E+02 -0.52735886670E+00  0.40642625654E+02  0.44973310767E+02  0.10566000000E+00 0.  1.
        994    1    1    2    0    0 -0.21592357901E+02  0.14617637917E+01  0.58281344606E+01  0.17266086362E+03  0.17120000000E+03 0.  0.
        998    1    1    2    0    0  0.23443348873E+01 -0.93440492505E+00  0.14535292362E+04  0.14535658256E+04  0.10000000000E+02 0.  1.
</event>
<event>
 5    1  0.1675361E-008  0.3718368E+03  0.7957747E-01  0.3487492E+00
         13   -1    0    0    0    0  0.00000000000E+00  0.00000000000E+00  0.14999999963E+04  0.15000000000E+04  0.10566000000E+00 0.  1.
        994   -1    0    0    0    0 -0.00000000000E+00 -0.00000000000E+00  0.11368683772E-12  0.17120000000E+03  0.17120000000E+03 0.  0.
         13    1    1    2    0    0  0.13481577040E+03  0.13682762211E+03  0.80419518917E+03  0.82681739433E+03  0.10566000000E+00 0.  1.
        994    1    1    2    0    0 -0.12949175989E+03 -0.14480429605E+03  0.15169281951E+03  0.30009423774E+03  0.17120000000E+03 0.  0.
        998    1    1    2    0    0 -0.53240105069E+01  0.79766739363E+01  0.54411198760E+03  0.54428836793E+03  0.10000000000E+02 0.  0.
</event>
<event>
 5    1  0.1675361E-008  0.3813781E+03  0.7957747E-01  0.3445180E+00
         13   -1    0    0    0    0  0.00000000000E+00  0.00000000000E+00  0.14999999963E+04  0.15000000000E+04  0.10566000000E+00 0. -1.
        994   -1    0    0    0    0 -0.00000000000E+00 -0.00000000000E+00  0.11368683772E-12  0.17120000000E+03  0.17120000000E+03 0.  0.
         13    1    1    2    0    0  0.23240664804E+02 -0.33608947499E+02  0.21580833985E+03  0.21964275669E+03  0.10566000000E+00 0. -1.
        994    1    1    2    0    0 -0.11769567151E+02  0.37419409956E+02  0.85766418839E+01  0.17584576690E+03  0.17120000000E+03 0.  0.
        998    1    1    2    0    0 -0.11471097653E+02 -0.38104624571E+01  0.12756150145E+04  0.12757114764E+04  0.10000000000E+02 0. -1.
</event>
<event>
 5    1  0.1675361E-008  0.3831744E+03  0.7957747E-01  0.3437452E+00
         13   -1    0    0    0    0  0.00000000000E+00  0.00000000000E+00  0.14999999963E+04  0.15000000000E+04  0.10566000000E+00 0.  1.
        994   -1    0    0    0    0 -0.00000000000E+00 -0.00000000000E+00  0.11368683772E-12  0.17120000000E+03  0.17120000000E+03 0.  0.
         13    1    1    2    0    0 -0.51482952835E+02 -0.19855656558E+02  0.72990360950E+02  0.91500521778E+02  0.10566000000E+00 0.  1.
        994    1    1    2    0    0  0.50824432431E+02  0.38378781503E+02  0.33107630425E+02  0.18563838233E+03  0.17120000000E+03 0.  0.
        998    1    1    2    0    0  0.65852040307E+00 -0.18523124945E+02  0.13939020049E+04  0.13940610959E+04  0.10000000000E+02 0.  1.
</event>
<event>
 5    1  0.1675361E-008  0.3691272E+03  0.7957747E-01  0.3499912E+00
         13   -1    0    0    0    0  0.00000000000E+00  0.00000000000E+00  0.14999999963E+04  0.15000000000E+04  0.10566000000E+00 0. -1.
        994   -1    0    0    0    0 -0.00000000000E+00 -0.00000000000E+00  0.11368683772E-12  0.17120000000E+03  0.17120000000E+03 0.  0.
         13    1    1    2    0    0 -0.47210633627E+02 -0.35137572801E+02  0.15142665130E+03  0.16246087171E+03  0.10566000000E+00 0. -1.
        994    1    1    2    0    0  0.31811254251E+02  0.42933118807E+02  0.20496494011E+02  0.18051247839E+03  0.17120000000E+03 0.  0.
        998    1    1    2    0    0  0.15399379376E+02 -0.77955460055E+01  0.13280768510E+04  0.13282266499E+04  0.10000000000E+02 0. -1.
</event>
<event>
 5    1  0.1675361E-008  0.3809983E+03  0.7957747E-01  0.3446823E+00
         13   -1    0    0    0    0  0.00000000000E+00  0.00000000000E+00  0.14999999963E+04  0.15000000000E+04  0.10566000000E+00 0. -1.
        994   -1    0    0    0    0 -0.00000000000E+00 -0.00000000000E+00  0.11368683772E-12  0.17120000000E+03  0.17120000000E+03 0.  0.
         13    1    1    2    0    0  0.16378667823E+00  0.13832184020E+02  0.24999557966E+02  0.28571755343E+02  0.10566000000E+00 0. -1.
        994    1    1    2    0    0  0.19517511388E+00 -0.84581096136E+01  0.38686103194E+01  0.17145257029E+03  0.17120000000E+03 0.  0.
        998    1    1    2    0    0 -0.35896179211E+00 -0.53740744064E+01  0.14711318280E+04  0.14711756744E+04  0.10000000000E+02 0. -1.
</event>
<event>
 5    1  0.1675361E-008  0.3848784E+03  0.7957747E-01  0.3430188E+00
         13   -1    0    0    0    0  0.00000000000E+00  0.00000000000E+00  0.14999999963E+04  0.15000000000E+04  0.10566000000E+00 0. -1.
        994   -1    0    0    0    0 -0.00000000000E+00 -0.00000000000E+00  0.11368683772E-12  0.17120000000E+03  0.17120000000E+03 0.  0.
         13    1    1    2    0    0  0.13114752355E+02  0.22478754718E+01  0.51121890811E+02  0.52825264387E+02  0.10566000000E+00 0. -1.
        994    1    1    2    0    0 -0.11954199214E+02 -0.65352686529E+01  0.23014093376E+01  0.17175665664E+03  0.17120000000E+03 0.  0.
        998    1    1    2    0    0 -0.11605531413E+01  0.42873931812E+01  0.14465766961E+04  0.14466180790E+04  0.10000000000E+02 0. -1.
</event>
<event>
 5    1  0.1675361E-008  0.3780909E+03  0.7957747E-01  0.3459514E+00
         13   -1    0    0    0    0  0.00000000000E+00  0.00000000000E+00  0.14999999963E+04  0.15000000000E+04  0.10566000000E+00 0.  1.
        994   -1    0    0    0    0 -0.00000000000E+00 -0.00000000000E+00  0.11368683772E-12  0.17120000000E+03  0.17120000000E+03 0.  0.
         13    1    1    2    0    0  0.74335827633E+01 -0.62956705326E+02  0.10426634194E+03  0.12202576009E+03  0.10566000000E+00 0.  1.
        994    1    1    2    0    0 -0.27502011099E+02  0.95568809562E+02  0.51791971395E+02  0.20464996036E+03  0.17120000000E+03 0.  0.
        998    1    1    2    0    0  0.20068428336E+02 -0.32612104236E+02  0.13439416829E+04  0.13445242796E+04  0.10000000000E+02 0.  1.
</event>
<event>
 5    1  0.1866197E-008  0.3855485E+03  0.7957747E-01  0.3427349E+00
         13   -1    0    0    0    0  0.00000000000E+00  0.00000000000E+00  0.14999999963E+04  0.15000000000E+04  0.10566000000E+00 0.  1.
        994   -1    0    0    0    0 -0.00000000000E+00 -0.00000000000E+00  0.11368683772E-12  0.17120000000E+03  0.17120000000E+03 0.  0.
         13    1    1    2    0    0  0.54078212201E+01  0.10417739948E+02  0.49698433710E+02  0.51065833129E+02  0.10566000000E+00 0.  1.
        994    1    1    2    0    0 -0.70983271302E+01 -0.99563238665E+01  0.18490456051E+01  0.17164607075E+03  0.17120000000E+03 0.  0.
        998    1    1    2    0    0  0.16905059101E+01 -0.46141608120E+00  0.14484525170E+04  0.14484880961E+04  0.10000000000E+02 0.  1.
</event>
<event>
 5    1  0.1675361E-008  0.3853670E+03  0.7957747E-01  0.3428117E+00
         13   -1    0    0    0    0  0.00000000000E+00  0.00000000000E+00  0.14999999963E+04  0.15000000000E+04  0.10566000000E+00 0. -1.
        994   -1    0    0    0    0 -0.00000000000E+00 -0.00000000000E+00  0.11368683772E-12  0.17120000000E+03  0.17120000000E+03 0.  0.
         13    1    1    2    0    0  0.42274977709E+01 -0.99937971086E+01  0.40108306732E+02  0.41550392910E+02  0.10566000000E+00 0. -1.
        994    1    1    2    0    0 -0.51939880131E+01  0.88211881134E+01  0.17923050134E+01  0.17151513994E+03  0.17120000000E+03 0.  0.
        998    1    1    2    0    0  0.96649024219E+00  0.11726089952E+01  0.14580993845E+04  0.14581344672E+04  0.10000000000E+02 0. -1.
</event>
<event>
 5    1  0.1675361E-008  0.3818137E+03  0.7957747E-01  0.3443299E+00
         13   -1    0    0    0    0  0.00000000000E+00  0.00000000000E+00  0.14999999963E+04  0.15000000000E+04  0.10566000000E+00 0.  1.
        994   -1    0    0    0    0 -0.00000000000E+00 -0.00000000000E+00  0.11368683772E-12  0.17120000000E+03  0.17120000000E+03 0.  0.
         13    1    1    2    0    0  0.30972486334E+02 -0.27870711885E+02  0.23959442208E+03  0.24319039814E+03  0.10566000000E+00 0.  1.
        994    1    1    2    0    0 -0.39804276831E+02  0.11382645819E+02  0.89368319606E+01  0.17636114097E+03  0.17120000000E+03 0.  0.
        998    1    1    2    0    0  0.88317904972E+01  0.16488066066E+02  0.12514687422E+04  0.12516484609E+04  0.10000000000E+02 0.  1.
</event>
<event>
 5    1  0.1675361E-008  0.3835471E+03  0.7957747E-01  0.3435858E+00
         13   -1    0    0    0    0  0.00000000000E+00  0.00000000000E+00  0.14999999963E+04  0.15000000000E+04  0.10566000000E+00 0.  1.
        994   -1    0    0    0    0 -0.00000000000E+00 -0.00000000000E+00  0.11368683772E-12  0.17120000000E+03  0.17120000000E+03 0.  0.
         13    1    1    2    0    0 -0.40412322775E+01  0.35392449751E+02  0.20216127030E+03  0.20527578384E+03  0.10566000000E+00 0.  1.
        994    1    1    2    0    0 -0.16618030214E+02 -0.55303676018E+02  0.13450627005E+02  0.18117675037E+03  0.17120000000E+03 0.  0.
        998    1    1    2    0    0  0.20659262492E+02  0.19911226268E+02  0.12843880990E+04  0.12847474658E+04  0.10000000000E+02 0.  1.
</event>
<event>
 5    1  0.1675361E-008  0.3854782E+03  0.7957747E-01  0.3427646E+00
         13   -1    0    0    0    0  0.00000000000E+00  0.00000000000E+00  0.14999999963E+04  0.15000000000E+04  0.10566000000E+00 0. -1.
        994   -1    0    0    0    0 -0.00000000000E+00 -0.00000000000E+00  0.11368683772E-12  0.17120000000E+03  0.17120000000E+03 0.  0.
         13    1    1    2    0    0  0.64388973659E+01 -0.14985919150E+02  0.95599697664E+02  0.96981186472E+02  0.10566000000E+00 0. -1.
        994    1    1    2    0    0 -0.10064910230E+02  0.76510919008E+01  0.19179082896E+01  0.17167690584E+03  0.17120000000E+03 0.  0.
        998    1    1    2    0    0  0.36260128646E+01  0.73348272491E+01  0.14024823903E+04  0.14025419077E+04  0.10000000000E+02 0. -1.
</event>
<event>
 5    1  0.1675361E-008  0.3800325E+03  0.7957747E-01  0.3451017E+00
         13   -1    0    0    0    0  0.00000000000E+00  0.00000000000E+00  0.14999999963E+04  0.15000000000E+04  0.10566000000E+00 0. -1.
        994   -1    0    0    0    0 -0.00000000000E+00 -0.00000000000E+00  0.11368683772E-12  0.17120000000E+03  0.17120000000E+03 0.  0.
         13    1    1    2    0    0  0.88862487163E+01 -0.13283811248E+02  0.28903713959E+02  0.33028183452E+02  0.10566000000E+00 0. -1.
        994    1    1    2    0    0 -0.10858048800E+02  0.12380032142E+02  0.50236497608E+01  0.17206347514E+03  0.17120000000E+03 0.  0.
        998    1    1    2    0    0  0.19718000839E+01  0.90377910629E+00  0.14660726326E+04  0.14661083414E+04  0.10000000000E+02 0. -1.
</event>
<event>
 5    1  0.1675361E-008  0.3875233E+03  0.7957747E-01  0.3419041E+00
         13   -1    0    0    0    0  0.00000000000E+00  0.00000000000E+00  0.14999999963E+04  0.15000000000E+04  0.10566000000E+00 0. -1.
        994   -1    0    0    0    0 -0.00000000000E+00 -0.00000000000E+00  0.11368683772E-12  0.17120000000E+03  0.17120000000E+03 0.  0.
         13    1    1    2    0    0  0.52773704894E+02 -0.10788005489E+03  0.33166645475E+03  0.35274044075E+03  0.10566000000E+00 0. -1.
        994    1    1    2    0    0 -0.29268418199E+02  0.75339442696E+02  0.45300006541E+02  0.19466433295E+03  0.17120000000E+03 0.  0.
        998    1    1    2    0    0 -0.23505286695E+02  0.32540612196E+02  0.11230335350E+04  0.11237952263E+04  0.10000000000E+02 0. -1.
</event>
<event>
 5    1  0.1675361E-008  0.3851836E+03  0.7957747E-01  0.3428894E+00
         13   -1    0    0    0    0  0.00000000000E+00  0.00000000000E+00  0.14999999963E+04  0.15000000000E+04  0.10566000000E+00 0. -1.
        994   -1    0    0    0    0 -0.00000000000E+00 -0.00000000000E+00  0.11368683772E-12  0.17120000000E+03  0.17120000000E+03 0.  0.
         13    1    1    2    0    0 -0.94688258932E+01 -0.99763483570E+01  0.60610436894E+02  0.62151608305E+02  0.10566000000E+00 0. -1.
        994    1    1    2    0    0  0.85998469352E+01  0.78535461910E+01  0.19849369761E+01  0.17160715466E+03  0.17120000000E+03 0.  0.
        998    1    1    2    0    0  0.86897895802E+00  0.21228021659E+01  0.14374046224E+04  0.14374412370E+04  0.10000000000E+02 0.  0.
</event>
<event>
 5    1  0.1675361E-008  0.3779165E+03  0.7957747E-01  0.3460281E+00
         13   -1    0    0    0    0  0.00000000000E+00  0.00000000000E+00  0.14999999963E+04  0.15000000000E+04  0.10566000000E+00 0.  1.
        994   -1    0    0    0    0 -0.00000000000E+00 -0.00000000000E+00  0.11368683772E-12  0.17120000000E+03  0.17120000000E+03 0.  0.
         13    1    1    2    0    0  0.90864077396E+02  0.10637143821E+03  0.79815504602E+03  0.81032256051E+03  0.10566000000E+00 0.  1.
        994    1    1    2    0    0 -0.91253549826E+02 -0.10690539513E+03  0.74863760972E+02  0.23381615977E+03  0.17120000000E+03 0.  0.
        998    1    1    2    0    0  0.38947242994E+00  0.53395691937E+00  0.62698118929E+03  0.62706127972E+03  0.10000000000E+02 0.  0.
</event>
<event>
 5    1  0.1675361E-008  0.3841837E+03  0.7957747E-01  0.3433142E+00
         13   -1    0    0    0    0  0.00000000000E+00  0.00000000000E+00  0.14999999963E+04  0.15000000000E+04  0.10566000000E+00 0. -1.
        994   -1    0    0    0    0 -0.00000000000E+00 -0.00000000000E+00  0.11368683772E-12  0.17120000000E+03  0.17120000000E+03 0.  0.
         13    1    1    2    0    0 -0.14606470687E+02  0.62652404878E+01  0.61385457119E+02  0.63409681706E+02  0.10566000000E+00 0. -1.
        994    1    1    2    0    0  0.77539582091E+01 -0.10547556377E+02  0.26012576984E+01  0.17171948449E+03  0.17120000000E+03 0.  0.
        998    1    1    2    0    0  0.68525124780E+01  0.42823158892E+01  0.14360132815E+04  0.14360708338E+04  0.10000000000E+02 0.  0.
</event>
<event>
 5    1  0.1675361E-008  0.3748264E+03  0.7957747E-01  0.3474000E+00
         13   -1    0    0    0    0  0.00000000000E+00  0.00000000000E+00  0.14999999963E+04  0.15000000000E+04  0.10566000000E+00 0. -1.
        994   -1    0    0    0    0 -0.00000000000E+00 -0.00000000000E+00  0.11368683772E-12  0.17120000000E+03  0.17120000000E+03 0.  0.
         13    1    1    2    0    0 -0.30258384489E+01  0.10993963595E+02  0.65010377148E+01  0.13126217629E+02  0.10566000000E+00 0. -1.
        994    1    1    2    0    0  0.15546095340E+01 -0.86865876349E+01  0.70328154309E+01  0.17157148396E+03  0.17120000000E+03 0.  0.
        998    1    1    2    0    0  0.14712289149E+01 -0.23073759600E+01  0.14864661431E+04  0.14865022984E+04  0.10000000000E+02 0. -1.
</event>
<event>
 5    1  0.1675361E-008  0.3780010E+03  0.7957747E-01  0.3459909E+00
         13   -1    0    0    0    0  0.00000000000E+00  0.00000000000E+00  0.14999999963E+04  0.15000000000E+04  0.10566000000E+00 0.  1.
        994   -1    0    0    0    0 -0.00000000000E+00 -0.00000000000E+00  0.11368683772E-12  0.17120000000E+03  0.17120000000E+03 0.  0.
         13    1    1    2    0    0 -0.17931218233E+02  0.17454597049E+01  0.30080953695E+02  0.35063516027E+02  0.10566000000E+00 0.  1.
        994    1    1    2    0    0  0.52472871353E+01  0.43815877707E+01  0.53029063215E+01  0.17141847377E+03  0.17120000000E+03 0.  0.
        998    1    1    2    0    0  0.12683931098E+02 -0.61270474756E+01  0.14646161363E+04  0.14647180102E+04  0.10000000000E+02 0.  1.
</event>
<event>
 5    1  0.1675361E-008  0.4034901E+03  0.7957747E-01  0.3354849E+00
         13   -1    0    0    0    0  0.00000000000E+00  0.00000000000E+00  0.14999999963E+04  0.15000000000E+04  0.10566000000E+00 0. -1.
        994   -1    0    0    0    0 -0.00000000000E+00 -0.00000000000E+00  0.11368683772E-12  0.17120000000E+03  0.17120000000E+03 0.  0.
         13    1    1    2    0    0  0.34811560045E+02 -0.25756427955E+02  0.19295841716E+02  0.47408638087E+02  0.10566000000E+00 0. -1.
        994    1    1    2    0    0 -0.50235842976E+02  0.71390272663E+01  0.40175207334E+02  0.18302484234E+03  0.17120000000E+03 0.  0.
        998    1    1    2    0    0  0.15424282930E+02  0.18617400688E+02  0.14405289472E+04  0.14407665196E+04  0.10000000000E+02 0. -1.
</event>
<event>
 5    1  0.1675361E-008  0.3816884E+03  0.7957747E-01  0.3443840E+00
         13   -1    0    0    0    0  0.00000000000E+00  0.00000000000E+00  0.14999999963E+04  0.15000000000E+04  0.10566000000E+00 0.  1.
        994   -1    0    0    0    0 -0.00000000000E+00 -0.00000000000E+00  0.11368683772E-12  0.17120000000E+03  0.17120000000E+03 0.  0.
         13    1    1    2    0    0 -0.21134583024E+02  0.15627944303E+01  0.69877970242E+02  0.73020920395E+02  0.10566000000E+00 0.  1.
        994    1    1    2    0    0  0.59260517099E+01  0.34284445241E+01  0.34391311664E+01  0.17137135100E+03  0.17120000000E+03 0.  0.
        998    1    1    2    0    0  0.15208531314E+02 -0.49912389544E+01  0.14266828949E+04  0.14268077286E+04  0.10000000000E+02 0.  1.
</event>
<event>
 5    1  0.1675361E-008  0.3811459E+03  0.7957747E-01  0.3446184E+00
         13   -1    0    0    0    0  0.00000000000E+00  0.00000000000E+00  0.14999999963E+04  0.15000000000E+04  0.10566000000E+00 0. -1.
        994   -1    0    0    0    0 -0.00000000000E+00 -0.00000000000E+00  0.11368683772E-12  0.17120000000E+03  0.17120000000E+03 0.  0.
         13    1    1    2    0    0 -0.16277637557E+02  0.41035518845E+02  0.24026616344E+03  0.24428818176E+03  0.10566000000E+00 0. -1.
        994    1    1    2    0    0 -0.38066047446E+01 -0.45432004466E+02  0.10509210001E+02  0.17747800079E+03  0.17120000000E+03 0.  0.
        998    1    1    2    0    0  0.20084242302E+02  0.43964856211E+01  0.12492246228E+04  0.12494338174E+04  0.10000000000E+02 0. -1.
</event>
<event>
 5    1  0.1675361E-008  0.3829047E+03  0.7957747E-01  0.3438607E+00
         13   -1    0    0    0    0  0.00000000000E+00  0.00000000000E+00  0.14999999963E+04  0.15000000000E+04  0.10566000000E+00 0.  1.
        994   -1    0    0    0    0 -0.00000000000E+00 -0.00000000000E+00  0.11368683772E-12  0.17120000000E+03  0.17120000000E+03 0.  0.
         13    1    1    2    0    0 -0.91800099281E+01  0.12089992477E+02  0.44115476936E+02  0.46654334951E+02  0.10566000000E+00 0.  1.
        994    1    1    2    0    0 -0.45484271446E+01 -0.34061459963E+01  0.27809075685E+01  0.17131685109E+03  0.17120000000E+03 0.  0.
        998    1    1    2    0    0  0.13728437073E+02 -0.86838464807E+01  0.14531036118E+04  0.14532288140E+04  0.10000000000E+02 0.  1.
</event>
<event>
 5    1  0.1675361E-008  0.3829483E+03  0.7957747E-01  0.3438421E+00
         13   -1    0    0    0    0  0.00000000000E+00  0.00000000000E+00  0.14999999963E+04  0.15000000000E+04  0.10566000000E+00 0. -1.
        994   -1    0    0    0    0 -0.00000000000E+00 -0.00000000000E+00  0.11368683772E-12  0.17120000000E+03  0.17120000000E+03 0.  0.
         13    1    1    2    0    0  0.47958067553E+01 -0.15215693534E+02  0.48163622771E+02  0.50737193602E+02  0.10566000000E+00 0. -1.
        994    1    1    2    0    0  0.25872448510E+01  0.69632261487E+01  0.28349108173E+01  0.17138452986E+03  0.17120000000E+03 0.  0.
        998    1    1    2    0    0 -0.73830516063E+01  0.82524673856E+01  0.14490014627E+04  0.14490782765E+04  0.10000000000E+02 0. -1.
</event>
<event>
 5    1  0.1675361E-008  0.3748960E+03  0.7957747E-01  0.3473688E+00
         13   -1    0    0    0    0  0.00000000000E+00  0.00000000000E+00  0.14999999963E+04  0.15000000000E+04  0.10566000000E+00 0.  1.
        994   -1    0    0    0    0 -0.00000000000E+00 -0.00000000000E+00  0.11368683772E-12  0.17120000000E+03  0.17120000000E+03 0.  0.
         13    1    1    2    0    0  0.22246058992E+02  0.11060263320E+02  0.43450213265E+02  0.50051461140E+02  0.10566000000E+00 0.  1.
        994    1    1    2    0    0 -0.12589573931E+02 -0.71882944640E+01  0.74471285613E+01  0.17197403488E+03  0.17120000000E+03 0.  0.
        998    1    1    2    0    0 -0.96564850611E+01 -0.38719688558E+01  0.14491026545E+04  0.14491745040E+04  0.10000000000E+02 0.  1.
</event>
<event>
 5    1  0.1675361E-008  0.3738353E+03  0.7957747E-01  0.3478448E+00
         13   -1    0    0    0    0  0.00000000000E+00  0.00000000000E+00  0.14999999963E+04  0.15000000000E+04  0.10566000000E+00 0.  1.
        994   -1    0    0    0    0 -0.00000000000E+00 -0.00000000000E+00  0.11368683772E-12  0.17120000000E+03  0.17120000000E+03 0.  0.
         13    1    1    2    0    0  0.15260168622E+01  0.15107312028E+03  0.64464105601E+03  0.66210838890E+03  0.10566000000E+00 0.  1.
        994    1    1    2    0    0 -0.10433602562E+02 -0.16817445970E+03  0.11134644677E+03  0.26476211996E+03  0.17120000000E+03 0.  0.
        998    1    1    2    0    0  0.89075857003E+01  0.17101339424E+02  0.74401249350E+03  0.74432949114E+03  0.10000000000E+02 0.  1.
</event>
<event>
 5    1  0.1675361E-008  0.3788114E+03  0.7957747E-01  0.3456350E+00
         13   -1    0    0    0    0  0.00000000000E+00  0.00000000000E+00  0.14999999963E+04  0.15000000000E+04  0.10566000000E+00 0. -1.
        994   -1    0    0    0    0 -0.00000000000E+00 -0.00000000000E+00  0.11368683772E-12  0.17120000000E+03  0.17120000000E+03 0.  0.
         13    1    1    2    0    0 -0.64943372820E+01 -0.84924891449E+01  0.10034116151E+02  0.14662654589E+02  0.10566000000E+00 0. -1.
        994    1    1    2    0    0  0.21647491036E+01  0.38748370545E+01  0.48004839889E+01  0.17132479432E+03  0.17120000000E+03 0.  0.
        998    1    1    2    0    0  0.43295881784E+01  0.46176520904E+01  0.14851653961E+04  0.14852125511E+04  0.10000000000E+02 0. -1.
</event>
<event>
 5    1  0.2276394E-008  0.3861154E+03  0.7957747E-01  0.3424955E+00
         13   -1    0    0    0    0  0.00000000000E+00  0.00000000000E+00  0.14999999963E+04  0.15000000000E+04  0.10566000000E+00 0.  1.
        994   -1    0    0    0    0 -0.00000000000E+00 -0.00000000000E+00  0.11368683772E-12  0.17120000000E+03  0.17120000000E+03 0.  0.
         13    1    1    2    0    0 -0.10205249248E+02 -0.40140733483E+01  0.57643815794E+02  0.58677768877E+02  0.10566000000E+00 0.  1.
        994    1    1    2    0    0  0.50652258189E+01  0.29715241316E+00  0.11617135450E+01  0.17127911253E+03  0.17120000000E+03 0.  0.
        998    1    1    2    0    0  0.51400234286E+01  0.37169209352E+01  0.14411944669E+04  0.14412431186E+04  0.10000000000E+02 0.  1.
</event>
<event>
 5    1  0.1675361E-008  0.3802759E+03  0.7957747E-01  0.3449958E+00
         13   -1    0    0    0    0  0.00000000000E+00  0.00000000000E+00  0.14999999963E+04  0.15000000000E+04  0.10566000000E+00 0. -1.
        994   -1    0    0    0    0 -0.00000000000E+00 -0.00000000000E+00  0.11368683772E-12  0.17120000000E+03  0.17120000000E+03 0.  0.
         13    1    1    2    0    0 -0.84398476747E+02 -0.58878127994E+02  0.47287382139E+03  0.48394152431E+03  0.10566000000E+00 0. -1.
        994    1    1    2    0    0  0.11402765868E+03  0.10745401040E+03  0.90882822864E+02  0.24923442537E+03  0.17120000000E+03 0.  0.
        998    1    1    2    0    0 -0.29629181936E+02 -0.48575882405E+02  0.93624335202E+03  0.93802405032E+03  0.10000000000E+02 0. -1.
</event>
<event>
 5    1  0.1675361E-008  0.3850061E+03  0.7957747E-01  0.3429646E+00
         13   -1    0    0    0    0  0.00000000000E+00  0.00000000000E+00  0.14999999963E+04  0.15000000000E+04  0.10566000000E+00 0.  1.
        994   -1    0    0    0    0 -0.00000000000E+00 -0.00000000000E+00  0.11368683772E-12  0.17120000000E+03  0.17120000000E+03 0.  0.
         13    1    1    2    0    0  0.13464596308E+02 -0.68683805498E+01  0.76343980454E+02  0.77825988723E+02  0.10566000000E+00 0.  1.
        994    1    1    2    0    0  0.49700710635E+01  0.53774044303E+01  0.18034615936E+01  0.17136601343E+03  0.17120000000E+03 0.  0.
        998    1    1    2    0    0 -0.18434667371E+02  0.14909761196E+01  0.14218525542E+04  0.14220079978E+04  0.10000000000E+02 0.  1.
</event>
<event>
 5    1  0.1675361E-008  0.3772536E+03  0.7957747E-01  0.3463205E+00
         13   -1    0    0    0    0  0.00000000000E+00  0.00000000000E+00  0.14999999963E+04  0.15000000000E+04  0.10566000000E+00 0.  1.
        994   -1    0    0    0    0 -0.00000000000E+00 -0.00000000000E+00  0.11368683772E-12  0.17120000000E+03  0.17120000000E+03 0.  0.
         13    1    1    2    0    0 -0.13007868004E+02 -0.91331256166E+01  0.21560358118E+02  0.26785795111E+02  0.10566000000E+00 0.  1.
        994    1    1    2    0    0 -0.64651534069E+01 -0.56515188226E+01  0.57747926515E+01  0.17151246632E+03  0.17120000000E+03 0.  0.
        998    1    1    2    0    0  0.19473021411E+02  0.14784644439E+02  0.14726648455E+04  0.14729017386E+04  0.10000000000E+02 0.  1.
</event>
<event>
 5    1  0.1675361E-008  0.3725161E+03  0.7957747E-01  0.3484407E+00
         13   -1    0    0    0    0  0.00000000000E+00  0.00000000000E+00  0.14999999963E+04  0.15000000000E+04  0.10566000000E+00 0. -1.
        994   -1    0    0    0    0 -0.00000000000E+00 -0.00000000000E+00  0.11368683772E-12  0.17120000000E+03  0.17120000000E+03 0.  0.
         13    1    1    2    0    0  0.13362992882E+02  0.19041565324E+02  0.17589346187E+02  0.29164139830E+02  0.10566000000E+00 0. -1.
        994    1    1    2    0    0 -0.29574106294E+01  0.54691259824E+01  0.12411855854E+02  0.17176190434E+03  0.17120000000E+03 0.  0.
        998    1    1    2    0    0 -0.10405582253E+02 -0.24510691306E+02  0.14699987942E+04  0.14702739558E+04  0.10000000000E+02 0. -1.
</event>
<event>
 5    1  0.1675361E-008  0.3812475E+03  0.7957747E-01  0.3445745E+00
         13   -1    0    0    0    0  0.00000000000E+00  0.00000000000E+00  0.14999999963E+04  0.15000000000E+04  0.10566000000E+00 0. -1.
        994   -1    0    0    0    0 -0.00000000000E+00 -0.00000000000E+00  0.11368683772E-12  0.17120000000E+03  0.17120000000E+03 0.  0.
         13    1    1    2    0    0  0.29685948030E-01 -0.27806982272E+02  0.10608840210E+03  0.10967219049E+03  0.10566000000E+00 0. -1.
        994    1    1    2    0    0  0.58618116335E+01  0.21925232886E+02  0.52214180768E+01  0.17277667632E+03  0.17120000000E+03 0.  0.
        998    1    1    2    0    0 -0.58914975815E+01  0.58817493863E+01  0.13886901761E+04  0.13887511332E+04  0.10000000000E+02 0. -1.
</event>
<event>
 5    1  0.2125576E-008  0.3860857E+03  0.7957747E-01  0.3425081E+00
         13   -1    0    0    0    0  0.00000000000E+00  0.00000000000E+00  0.14999999963E+04  0.15000000000E+04  0.10566000000E+00 0.  1.
        994   -1    0    0    0    0 -0.00000000000E+00 -0.00000000000E+00  0.11368683772E-12  0.17120000000E+03  0.17120000000E+03 0.  0.
         13    1    1    2    0    0 -0.31070000815E+01 -0.11630806597E+02  0.66305303973E+02  0.67389417646E+02  0.10566000000E+00 0.  1.
        994    1    1    2    0    0  0.11832448422E+01  0.98221944921E+01  0.14128863091E+01  0.17149143367E+03  0.17120000000E+03 0.  0.
        998    1    1    2    0    0  0.19237552393E+01  0.18086121050E+01  0.14322818060E+04  0.14323191487E+04  0.10000000000E+02 0.  1.
</event>
<event>
 5    1  0.1675361E-008  0.3817671E+03  0.7957747E-01  0.3443500E+00
         13   -1    0    0    0    0  0.00000000000E+00  0.00000000000E+00  0.14999999963E+04  0.15000000000E+04  0.10566000000E+00 0.  1.
        994   -1    0    0    0    0 -0.00000000000E+00 -0.00000000000E+00  0.11368683772E-12  0.17120000000E+03  0.17120000000E+03 0.  0.
         13    1    1    2    0    0 -0.14628453018E+02 -0.77715992477E+01  0.41102277027E+02  0.44314757513E+02  0.10566000000E+00 0.  1.
        994    1    1    2    0    0  0.88032300348E+01  0.74811826873E+01  0.36874912025E+01  0.17162896767E+03  0.17120000000E+03 0.  0.
        998    1    1    2    0    0  0.58252229837E+01  0.29041656040E+00  0.14552102280E+04  0.14552562748E+04  0.10000000000E+02 0.  1.
</event>
<event>
 5    1  0.1675361E-008  0.3799681E+03  0.7957747E-01  0.3451298E+00
         13   -1    0    0    0    0  0.00000000000E+00  0.00000000000E+00  0.14999999963E+04  0.15000000000E+04  0.10566000000E+00 0. -1.
        994   -1    0    0    0    0 -0.00000000000E+00 -0.00000000000E+00  0.11368683772E-12  0.17120000000E+03  0.17120000000E+03 0.  0.
         13    1    1    2    0    0 -0.39327157709E+02 -0.98247794311E+01  0.18629248585E+03  0.19065165373E+03  0.10566000000E+00 0. -1.
        994    1    1    2    0    0  0.29579429659E+02  0.10032139860E+02  0.74177786156E+01  0.17418395428E+03  0.17120000000E+03 0.  0.
        998    1    1    2    0    0  0.97477280501E+01 -0.20736042856E+00  0.13062897318E+04  0.13063643920E+04  0.10000000000E+02 0. -1.
</event>
<event>
 5    1  0.1675361E-008  0.3778046E+03  0.7957747E-01  0.3460774E+00
         13   -1    0    0    0    0  0.00000000000E+00  0.00000000000E+00  0.14999999963E+04  0.15000000000E+04  0.10566000000E+00 0.  1.
        994   -1    0    0    0    0 -0.00000000000E+00 -0.00000000000E+00  0.11368683772E-12  0.17120000000E+03  0.17120000000E+03 0.  0.
         13    1    1    2    0    0 -0.23384828733E+02 -0.50008373183E+02  0.32518593913E+03  0.32983873905E+03  0.10566000000E+00 0.  1.
        994    1    1    2    0    0 -0.44115455962E+02  0.48660892506E+02  0.19912869738E+02  0.18444516338E+03  0.17120000000E+03 0.  0.
        998    1    1    2    0    0  0.67500284695E+02  0.13474806764E+01  0.11549011874E+04  0.11569160976E+04  0.10000000000E+02 0.  1.
</event>
<event>
 5    1  0.1711794E-008  0.3851327E+03  0.7957747E-01  0.3429110E+00
         13   -1    0    0    0    0  0.00000000000E+00  0.00000000000E+00  0.14999999963E+04  0.15000000000E+04  0.10566000000E+00 0. -1.
        994   -1    0    0    0    0 -0.00000000000E+00 -0.00000000000E+00  0.11368683772E-12  0.17120000000E+03  0.17120000000E+03 0.  0.
         13    1    1    2    0    0 -0.10338307171E+02  0.26540989233E+01  0.35919247318E+02  0.37471700364E+02  0.10566000000E+00 0. -1.
        994    1    1    2    0    0  0.87833055991E+01 -0.37673803044E+01  0.18645873722E+01  0.17147669316E+03  0.17120000000E+03 0.  0.
        998    1    1    2    0    0  0.15550015722E+01  0.11132813810E+01  0.14622161616E+04  0.14622516065E+04  0.10000000000E+02 0. -1.
</event>
<event>
 5    1  0.1675361E-008  0.3827773E+03  0.7957747E-01  0.3439154E+00
         13   -1    0    0    0    0  0.00000000000E+00  0.00000000000E+00  0.14999999963E+04  0.15000000000E+04  0.10566000000E+00 0. -1.
        994   -1    0    0    0    0 -0.00000000000E+00 -0.00000000000E+00  0.11368683772E-12  0.17120000000E+03  0.17120000000E+03 0.  0.
         13    1    1    2    0    0  0.14716381401E+02  0.22036762452E+02  0.15112004814E+03  0.15342578301E+03  0.10566000000E+00 0. -1.
        994    1    1    2    0    0  0.60263577562E+01  0.27416365123E+01  0.28829380499E+01  0.17135222464E+03  0.17120000000E+03 0.  0.
        998    1    1    2    0    0 -0.20742739157E+02 -0.24778398965E+02  0.13459970101E+04  0.13464219923E+04  0.10000000000E+02 0. -1.
</event>
<event>
 5    1  0.1675361E-008  0.3786365E+03  0.7957747E-01  0.3457117E+00
         13   -1    0    0    0    0  0.00000000000E+00  0.00000000000E+00  0.14999999963E+04  0.15000000000E+04  0.10566000000E+00 0.  1.
        994   -1    0    0    0    0 -0.00000000000E+00 -0.00000000000E+00  0.11368683772E-12  0.17120000000E+03  0.17120000000E+03 0.  0.
         13    1    1    2    0    0  0.17652580822E+02  0.12514563267E+02  0.47617436210E+02  0.52303530461E+02  0.10566000000E+00 0.  1.
        994    1    1    2    0    0  0.12161199815E+01 -0.16485781634E+02  0.57411609781E+01  0.17209201281E+03  0.17120000000E+03 0.  0.
        998    1    1    2    0    0 -0.18868700804E+02  0.39712183662E+01  0.14466413991E+04  0.14468044567E+04  0.10000000000E+02 0.  1.
</event>
<event>
 5    1  0.1675361E-008  0.2973393E+03  0.7957747E-01  0.3915199E+00
         13   -1    0    0    0    0  0.00000000000E+00  0.00000000000E+00  0.14999999963E+04  0.15000000000E+04  0.10566000000E+00 0.  1.
        994   -1    0    0    0    0 -0.00000000000E+00 -0.00000000000E+00  0.11368683772E-12  0.17120000000E+03  0.17120000000E+03 0.  0.
         13    1    1    2    0    0  0.17801146439E+02  0.15204710770E+03  0.84142210432E+03  0.85523468860E+03  0.10566000000E+00 0.  1.
        994    1    1    2    0    0 -0.32056804214E+01 -0.36434018699E+02  0.31253656664E+02  0.17783122662E+03  0.17120000000E+03 0.  0.
        998    1    1    2    0    0 -0.14595466017E+02 -0.11561308901E+03  0.62732423529E+03  0.63813408478E+03  0.10000000000E+02 0.  1.
</event>
<event>
 5    1  0.1675361E-008  0.3733715E+03  0.7957747E-01  0.3480538E+00
         13   -1    0    0    0    0  0.00000000000E+00  0.00000000000E+00  0.14999999963E+04  0.15000000000E+04  0.10566000000E+00 0. -1.
        994   -1    0    0    0    0 -0.00000000000E+00 -0.00000000000E+00  0.11368683772E-12  0.17120000000E+03  0.17120000000E+03 0.  0.
         13    1    1    2    0    0  0.36936952620E+02 -0.82373370814E+02  0.50993717794E+03  0.51786643770E+03  0.10566000000E+00 0. -1.
        994    1    1    2    0    0  0.15666990246E+02  0.61531783761E+01  0.13735683588E+02  0.17257295614E+03  0.17120000000E+03 0.  0.
        998    1    1    2    0    0 -0.52603942866E+02  0.76220192438E+02  0.97632713475E+03  0.98076060616E+03  0.10000000000E+02 0. -1.
</event>
<event>
 5    1  0.1675361E-008  0.3740203E+03  0.7957747E-01  0.3477616E+00
         13   -1    0    0    0    0  0.00000000000E+00  0.00000000000E+00  0.14999999963E+04  0.15000000000E+04  0.10566000000E+00 0.  1.
        994   -1    0    0    0    0 -0.00000000000E+00 -0.00000000000E+00  0.11368683772E-12  0.17120000000E+03  0.17120000000E+03 0.  0.
         13    1    1    2    0    0 -0.77521675693E+02  0.39570746329E+01  0.19856833084E+03  0.21320098925E+03  0.10566000000E+00 0.  1.
        994    1    1    2    0    0  0.74904663234E+02 -0.11357214720E+02  0.33723684218E+02  0.19022728978E+03  0.17120000000E+03 0.  0.
        998    1    1    2    0    0  0.26170124587E+01  0.74001400866E+01  0.12677079812E+04  0.12677717210E+04  0.10000000000E+02 0.  1.
</event>
<event>
 5    1  0.1675361E-008  0.3733422E+03  0.7957747E-01  0.3480670E+00
         13   -1    0    0    0    0  0.00000000000E+00  0.00000000000E+00  0.14999999963E+04  0.15000000000E+04  0.10566000000E+00 0.  1.
        994   -1    0    0    0    0 -0.00000000000E+00 -0.00000000000E+00  0.11368683772E-12  0.17120000000E+03  0.17120000000E+03 0.  0.
         13    1    1    2    0    0 -0.99903967640E+01  0.52916498399E+02  0.18598556995E+03  0.19362491375E+03  0.10566000000E+00 0.  1.
        994    1    1    2    0    0  0.15639992238E+02 -0.33182713447E+02  0.12146471377E+02  0.17550691894E+03  0.17120000000E+03 0.  0.
        998    1    1    2    0    0 -0.56495954737E+01 -0.19733784952E+02  0.13018679549E+04  0.13020681673E+04  0.10000000000E+02 0.  1.
</event>
<event>
 5    1  0.1675361E-008  0.3846456E+03  0.7957747E-01  0.3431177E+00
         13   -1    0    0    0    0  0.00000000000E+00  0.00000000000E+00  0.14999999963E+04  0.15000000000E+04  0.10566000000E+00 0. -1.
        994   -1    0    0    0    0 -0.00000000000E+00 -0.00000000000E+00  0.11368683772E-12  0.17120000000E+03  0.17120000000E+03 0.  0.
         13    1    1    2    0    0  0.11246035575E+01 -0.18347118565E+02  0.97822594959E+02  0.99534681099E+02  0.10566000000E+00 0. -1.
        994    1    1    2    0    0 -0.41374152955E+01  0.52903841020E+01  0.19547399726E+01  0.17134283579E+03  0.17120000000E+03 0.  0.
        998    1    1    2    0    0  0.30128117380E+01  0.13056734463E+02  0.14002226613E+04  0.14003224831E+04  0.10000000000E+02 0. -1.
</event>
<event>
 5    1  0.1675361E-008  0.3832348E+03  0.7957747E-01  0.3437193E+00
         13   -1    0    0    0    0  0.00000000000E+00  0.00000000000E+00  0.14999999963E+04  0.15000000000E+04  0.10566000000E+00 0. -1.
        994   -1    0    0    0    0 -0.00000000000E+00 -0.00000000000E+00  0.11368683772E-12  0.17120000000E+03  0.17120000000E+03 0.  0.
         13    1    1    2    0    0 -0.15178486131E+02  0.12646050227E+02  0.75209962253E+02  0.77761549712E+02  0.10566000000E+00 0. -1.
        994    1    1    2    0    0  0.98194762541E+01 -0.14898180559E+02  0.35628519619E+01  0.17216420015E+03  0.17120000000E+03 0.  0.
        998    1    1    2    0    0  0.53590098766E+01  0.22521303316E+01  0.14212271821E+04  0.14212742501E+04  0.10000000000E+02 0. -1.
</event>
<event>
 5    1  0.1675361E-008  0.3856140E+03  0.7957747E-01  0.3427073E+00
         13   -1    0    0    0    0  0.00000000000E+00  0.00000000000E+00  0.14999999963E+04  0.15000000000E+04  0.10566000000E+00 0.  1.
        994   -1    0    0    0    0 -0.00000000000E+00 -0.00000000000E+00  0.11368683772E-12  0.17120000000E+03  0.17120000000E+03 0.  0.
         13    1    1    2    0    0 -0.51349832341E+01  0.98013795425E+01  0.45436515412E+02  0.46764550576E+02  0.10566000000E+00 0.  1.
        994    1    1    2    0    0  0.36401250831E+01 -0.10705427658E+02  0.17453816042E+01  0.17158188438E+03  0.17120000000E+03 0.  0.
        998    1    1    2    0    0  0.14948581510E+01  0.90404811587E+00  0.14528180993E+04  0.14528535650E+04  0.10000000000E+02 0.  1.
</event>
<event>
 5    1  0.1675361E-008  0.3792956E+03  0.7957747E-01  0.3454231E+00
         13   -1    0    0    0    0  0.00000000000E+00  0.00000000000E+00  0.14999999963E+04  0.15000000000E+04  0.10566000000E+00 0.  1.
        994   -1    0    0    0    0 -0.00000000000E+00 -0.00000000000E+00  0.11368683772E-12  0.17120000000E+03  0.17120000000E+03 0.  0.
         13    1    1    2    0    0 -0.19592364712E+02 -0.23512430328E+02  0.10307714305E+03  0.10752489813E+03  0.10566000000E+00 0.  1.
        994    1    1    2    0    0  0.18678070863E+02  0.79011033388E+01  0.58684798716E+01  0.17249688931E+03  0.17120000000E+03 0.  0.
        998    1    1    2    0    0  0.91429384983E+00  0.15611326990E+02  0.13910543734E+04  0.13911782126E+04  0.10000000000E+02 0.  1.
</event>
<event>
 5    1  0.1675361E-008  0.3696925E+03  0.7957747E-01  0.3497306E+00
         13   -1    0    0    0    0  0.00000000000E+00  0.00000000000E+00  0.14999999963E+04  0.15000000000E+04  0.10566000000E+00 0. -1.
        994   -1    0    0    0    0 -0.00000000000E+00 -0.00000000000E+00  0.11368683772E-12  0.17120000000E+03  0.17120000000E+03 0.  0.
         13    1    1    2    0    0  0.16953361801E+01 -0.10474985080E+02  0.15105607418E+01  0.10718788877E+02  0.10566000000E+00 0. -1.
        994    1    1    2    0    0  0.17256215686E+01  0.15175399271E+02  0.10237731733E+02  0.17218455698E+03  0.17120000000E+03 0.  0.
        998    1    1    2    0    0 -0.34209577486E+01 -0.47004141911E+01  0.14882517038E+04  0.14882966541E+04  0.10000000000E+02 0. -1.
</event>
<event>
 5    1  0.1675361E-008  0.3707784E+03  0.7957747E-01  0.3492321E+00
         13   -1    0    0    0    0  0.00000000000E+00  0.00000000000E+00  0.14999999963E+04  0.15000000000E+04  0.10566000000E+00 0.  1.
        994   -1    0    0    0    0 -0.00000000000E+00 -0.00000000000E+00  0.11368683772E-12  0.17120000000E+03  0.17120000000E+03 0.  0.
         13    1    1    2    0    0  0.76587637969E+02 -0.35578590239E+02  0.35754598904E+03  0.36738351598E+03  0.10566000000E+00 0.  1.
        994    1    1    2    0    0 -0.57523549676E+01  0.64749890540E+02  0.26315013063E+02  0.18500691291E+03  0.17120000000E+03 0.  0.
        998    1    1    2    0    0 -0.70835283001E+02 -0.29171300301E+02  0.11161389942E+04  0.11188095711E+04  0.10000000000E+02 0.  1.
</event>
<event>
 5    1  0.1675361E-008  0.3761959E+03  0.7957747E-01  0.3467891E+00
         13   -1    0    0    0    0  0.00000000000E+00  0.00000000000E+00  0.14999999963E+04  0.15000000000E+04  0.10566000000E+00 0.  1.
        994   -1    0    0    0    0 -0.00000000000E+00 -0.00000000000E+00  0.11368683772E-12  0.17120000000E+03  0.17120000000E+03 0.  0.
         13    1    1    2    0    0 -0.55005241624E+02  0.22699183783E+02  0.31331774179E+03  0.31891824663E+03  0.10566000000E+00 0.  1.
        994    1    1    2    0    0  0.13460165583E+02 -0.34518544018E+02  0.10727362928E+02  0.17549137373E+03  0.17120000000E+03 0.  0.
        998    1    1    2    0    0  0.41545076041E+02  0.11819360235E+02  0.11759548916E+04  0.11767903796E+04  0.10000000000E+02 0.  1.
</event>
<event>
 5    1  0.1675361E-008  0.3793444E+03  0.7957747E-01  0.3454018E+00
         13   -1    0    0    0    0  0.00000000000E+00  0.00000000000E+00  0.14999999963E+04  0.15000000000E+04  0.10566000000E+00 0. -1.
        994   -1    0    0    0    0 -0.00000000000E+00 -0.00000000000E+00  0.11368683772E-12  0.17120000000E+03  0.17120000000E+03 0.  0.
         13    1    1    2    0    0  0.32614621005E+02  0.72523409997E+01  0.13145662699E+03  0.13563615262E+03  0.10566000000E+00 0. -1.
        994    1    1    2    0    0 -0.11922486646E+02  0.11208987181E+02  0.53621000369E+01  0.17206388116E+03  0.17120000000E+03 0.  0.
        998    1    1    2    0    0 -0.20692134359E+02 -0.18461328181E+02  0.13631812693E+04  0.13634999662E+04  0.10000000000E+02 0. -1.
</event>
<event>
 5    1  0.1675361E-008  0.3807195E+03  0.7957747E-01  0.3448032E+00
         13   -1    0    0    0    0  0.00000000000E+00  0.00000000000E+00  0.14999999963E+04  0.15000000000E+04  0.10566000000E+00 0. -1.
        994   -1    0    0    0    0 -0.00000000000E+00 -0.00000000000E+00  0.11368683772E-12  0.17120000000E+03  0.17120000000E+03 0.  0.
         13    1    1    2    0    0 -0.36012137162E+01  0.17838864242E+02  0.41657637637E+02  0.45459473768E+02  0.10566000000E+00 0. -1.
        994    1    1    2    0    0  0.56971423515E+01 -0.16934243081E+02  0.48357312348E+01  0.17219770706E+03  0.17120000000E+03 0.  0.
        998    1    1    2    0    0 -0.20959286354E+01 -0.90462116100E+00  0.14535066274E+04  0.14535428192E+04  0.10000000000E+02 0. -1.
</event>
<event>
 5    1  0.1675361E-008  0.3816805E+03  0.7957747E-01  0.3443874E+00
         13   -1    0    0    0    0  0.00000000000E+00  0.00000000000E+00  0.14999999963E+04  0.15000000000E+04  0.10566000000E+00 0. -1.
        994   -1    0    0    0    0 -0.00000000000E+00 -0.00000000000E+00  0.11368683772E-12  0.17120000000E+03  0.17120000000E+03 0.  0.
         13    1    1    2    0    0 -0.32543271713E+01  0.21277311570E+02  0.71233789033E+02  0.74414907761E+02  0.10566000000E+00 0. -1.
        994    1    1    2    0    0  0.66986390483E+01 -0.72862412569E+01  0.36129519693E+01  0.17152391815E+03  0.17120000000E+03 0.  0.
        998    1    1    2    0    0 -0.34443118770E+01 -0.13991070313E+02  0.14251532553E+04  0.14252611741E+04  0.10000000000E+02 0. -1.
</event>
<event>
 5    1  0.1675361E-008  0.3856807E+03  0.7957747E-01  0.3426790E+00
         13   -1    0    0    0    0  0.00000000000E+00  0.00000000000E+00  0.14999999963E+04  0.15000000000E+04  0.10566000000E+00 0. -1.
        994   -1    0    0    0    0 -0.00000000000E+00 -0.00000000000E+00  0.11368683772E-12  0.17120000000E+03  0.17120000000E+03 0.  0.
         13    1    1    2    0    0  0.12069757367E+02 -0.91524959611E+01  0.88862053007E+02  0.90143900814E+02  0.10566000000E+00 0. -1.
        994    1    1    2    0    0 -0.27227160446E+01  0.14097705442E+02  0.19693306940E+01  0.17181233001E+03  0.17120000000E+03 0.  0.
        998    1    1    2    0    0 -0.93470413220E+01 -0.49452094811E+01  0.14091686126E+04  0.14092437692E+04  0.10000000000E+02 0. -1.
</event>
<event>
 5    1  0.1675361E-008  0.3733828E+03  0.7957747E-01  0.3480487E+00
         13   -1    0    0    0    0  0.00000000000E+00  0.00000000000E+00  0.14999999963E+04  0.15000000000E+04  0.10566000000E+00 0.  1.
        994   -1    0    0    0    0 -0.00000000000E+00 -0.00000000000E+00  0.11368683772E-12  0.17120000000E+03  0.17120000000E+03 0.  0.
         13    1    1    2    0    0  0.46459186038E+02 -0.39989076541E+02  0.11457095308E+03  0.12993881892E+03  0.10566000000E+00 0.  1.
        994    1    1    2    0    0 -0.74161103432E+02  0.66589442840E+02  0.48772005804E+02  0.20401512618E+03  0.17120000000E+03 0.  0.
        998    1    1    2    0    0  0.27701917394E+02 -0.26600366299E+02  0.13366570374E+04  0.13372460549E+04  0.10000000000E+02 0.  1.
</event>
<event>
 5    1  0.1675361E-008  0.2881830E+03  0.7957747E-01  0.3984169E+00
         13   -1    0    0    0    0  0.00000000000E+00  0.00000000000E+00  0.14999999963E+04  0.15000000000E+04  0.10566000000E+00 0.  1.
        994   -1    0    0    0    0 -0.00000000000E+00 -0.00000000000E+00  0.11368683772E-12  0.17120000000E+03  0.17120000000E+03 0.  0.
         13    1    1    2    0    0 -0.10066557013E+03  0.18064864834E+03  0.46290663860E+03  0.50700104377E+03  0.10566000000E+00 0.  1.
        994    1    1    2    0    0  0.97544976615E+02 -0.19750881427E+03  0.24334946712E+03  0.37020691150E+03  0.17120000000E+03 0.  0.
        998    1    1    2    0    0  0.31205935138E+01  0.16860165926E+02  0.79374389056E+03  0.79399204473E+03  0.10000000000E+02 0. -1.
</event>
<event>
 5    1  0.1675361E-008  0.3799050E+03  0.7957747E-01  0.3451572E+00
         13   -1    0    0    0    0  0.00000000000E+00  0.00000000000E+00  0.14999999963E+04  0.15000000000E+04  0.10566000000E+00 0. -1.
        994   -1    0    0    0    0 -0.00000000000E+00 -0.00000000000E+00  0.11368683772E-12  0.17120000000E+03  0.17120000000E+03 0.  0.
         13    1    1    2    0    0  0.17514550438E+02  0.30413974629E+02  0.16196181239E+03  0.16572087728E+03  0.10566000000E+00 0. -1.
        994    1    1    2    0    0  0.83154534300E+01 -0.10675692961E+02  0.47936783670E+01  0.17180086303E+03  0.17120000000E+03 0.  0.
        998    1    1    2    0    0 -0.25830003868E+02 -0.19738281668E+02  0.13332445055E+04  0.13336782597E+04  0.10000000000E+02 0. -1.
</event>
<event>
 5    1  0.1675361E-008  0.3849944E+03  0.7957747E-01  0.3429696E+00
         13   -1    0    0    0    0  0.00000000000E+00  0.00000000000E+00  0.14999999963E+04  0.15000000000E+04  0.10566000000E+00 0. -1.
        994   -1    0    0    0    0 -0.00000000000E+00 -0.00000000000E+00  0.11368683772E-12  0.17120000000E+03  0.17120000000E+03 0.  0.
         13    1    1    2    0    0 -0.22819144804E+02 -0.51112887596E+01  0.13428566580E+03  0.13630660235E+03  0.10566000000E+00 0. -1.
        994    1    1    2    0    0  0.36528954533E+02  0.18826656120E+02  0.72067663754E+01  0.17621062676E+03  0.17120000000E+03 0.  0.
        998    1    1    2    0    0 -0.13709809729E+02 -0.13715367360E+02  0.13585075641E+04  0.13586827709E+04  0.10000000000E+02 0. -1.
</event>
<event>
 5    1  0.1675361E-008  0.3851814E+03  0.7957747E-01  0.3428903E+00
         13   -1    0    0    0    0  0.00000000000E+00  0.00000000000E+00  0.14999999963E+04  0.15000000000E+04  0.10566000000E+00 0. -1.
        994   -1    0    0    0    0 -0.00000000000E+00 -0.00000000000E+00  0.11368683772E-12  0.17120000000E+03  0.17120000000E+03 0.  0.
         13    1    1    2    0    0  0.88945204264E+01 -0.13135267213E+02  0.87486920258E+02  0.88913554190E+02  0.10566000000E+00 0. -1.
        994    1    1    2    0    0 -0.46371031051E+01 -0.11547503334E+01  0.16151515532E+01  0.17127429722E+03  0.17120000000E+03 0.  0.
        998    1    1    2    0    0 -0.42574173213E+01  0.14290017547E+02  0.14108979245E+04  0.14110121486E+04  0.10000000000E+02 0. -1.
</event>
<event>
 5    1  0.1675361E-008  0.3860328E+03  0.7957747E-01  0.3425304E+00
         13   -1    0    0    0    0  0.00000000000E+00  0.00000000000E+00  0.14999999963E+04  0.15000000000E+04  0.10566000000E+00 0.  1.
        994   -1    0    0    0    0 -0.00000000000E+00 -0.00000000000E+00  0.11368683772E-12  0.17120000000E+03  0.17120000000E+03 0.  0.
         13    1    1    2    0    0 -0.10850340394E+02  0.12948653319E+00  0.52351796592E+02  0.53464646486E+02  0.10566000000E+00 0.  1.
        994    1    1    2    0    0  0.99061606301E+01 -0.50997095977E+01  0.15252223116E+01  0.17156895220E+03  0.17120000000E+03 0.  0.
        998    1    1    2    0    0  0.94417976436E+00  0.49702230645E+01  0.14461229774E+04  0.14461664013E+04  0.10000000000E+02 0.  1.
</event>
<event>
 5    1  0.1675361E-008  0.3771041E+03  0.7957747E-01  0.3463866E+00
         13   -1    0    0    0    0  0.00000000000E+00  0.00000000000E+00  0.14999999963E+04  0.15000000000E+04  0.10566000000E+00 0.  1.
        994   -1    0    0    0    0 -0.00000000000E+00 -0.00000000000E+00  0.11368683772E-12  0.17120000000E+03  0.17120000000E+03 0.  0.
         13    1    1    2    0    0  0.17453230626E+02  0.12188521084E+02  0.48926947484E+02  0.53357592334E+02  0.10566000000E+00 0.  1.
        994    1    1    2    0    0  0.71388924595E+02  0.17225534963E+01  0.23012055428E+02  0.18691800459E+03  0.17120000000E+03 0.  0.
        998    1    1    2    0    0 -0.88842155221E+02 -0.13911074581E+02  0.14280609934E+04  0.14309244031E+04  0.10000000000E+02 0.  1.
</event>
<event>
 5    1  0.1675361E-008  0.3841175E+03  0.7957747E-01  0.3433424E+00
         13   -1    0    0    0    0  0.00000000000E+00  0.00000000000E+00  0.14999999963E+04  0.15000000000E+04  0.10566000000E+00 0.  1.
        994   -1    0    0    0    0 -0.00000000000E+00 -0.00000000000E+00  0.11368683772E-12  0.17120000000E+03  0.17120000000E+03 0.  0.
         13    1    1    2    0    0 -0.21218965494E+02  0.17684057984E+01  0.11608396723E+03  0.11802063535E+03  0.10566000000E+00 0.  1.
        994    1    1    2    0    0  0.49132451402E+01 -0.48016021011E+01  0.22246115540E+01  0.17135222280E+03  0.17120000000E+03 0.  0.
        998    1    1    2    0    0  0.16305720354E+02  0.30331963027E+01  0.13816914175E+04  0.13818271419E+04  0.10000000000E+02 0.  1.
</event>
<event>
 5    1  0.1675361E-008  0.3746996E+03  0.7957747E-01  0.3474567E+00
         13   -1    0    0    0    0  0.00000000000E+00  0.00000000000E+00  0.14999999963E+04  0.15000000000E+04  0.10566000000E+00 0. -1.
        994   -1    0    0    0    0 -0.00000000000E+00 -0.00000000000E+00  0.11368683772E-12  0.17120000000E+03  0.17120000000E+03 0.  0.
         13    1    1    2    0    0 -0.50159817411E+02 -0.10598213684E+03  0.38403580789E+03  0.40153671503E+03  0.10566000000E+00 0. -1.
        994    1    1    2    0    0  0.62505017298E+02  0.93710159853E+02  0.60039490447E+02  0.21354777372E+03  0.17120000000E+03 0.  0.
        998    1    1    2    0    0 -0.12345199887E+02  0.12271976989E+02  0.10559246979E+04  0.10561155112E+04  0.10000000000E+02 0. -1.
</event>
<event>
 5    1  0.1675361E-008  0.3848408E+03  0.7957747E-01  0.3430348E+00
         13   -1    0    0    0    0  0.00000000000E+00  0.00000000000E+00  0.14999999963E+04  0.15000000000E+04  0.10566000000E+00 0.  1.
        994   -1    0    0    0    0 -0.00000000000E+00 -0.00000000000E+00  0.11368683772E-12  0.17120000000E+03  0.17120000000E+03 0.  0.
         13    1    1    2    0    0 -0.62378398679E+01 -0.11501806459E+02  0.47134124688E+02  0.48916654344E+02  0.10566000000E+00 0.  1.
        994    1    1    2    0    0  0.67607350407E+01  0.18816990528E+02  0.30257627185E+01  0.17239020248E+03  0.17120000000E+03 0.  0.
        998    1    1    2    0    0 -0.52289517281E+00 -0.73151840685E+01  0.14498401089E+04  0.14498931432E+04  0.10000000000E+02 0.  1.
</event>
<event>
 5    1  0.1675361E-008  0.3787315E+03  0.7957747E-01  0.3456700E+00
         13   -1    0    0    0    0  0.00000000000E+00  0.00000000000E+00  0.14999999963E+04  0.15000000000E+04  0.10566000000E+00 0.  1.
        994   -1    0    0    0    0 -0.00000000000E+00 -0.00000000000E+00  0.11368683772E-12  0.17120000000E+03  0.17120000000E+03 0.  0.
         13    1    1    2    0    0  0.13431432375E+02 -0.43908618021E+02  0.70837743985E+02  0.84417813577E+02  0.10566000000E+00 0.  1.
        994    1    1    2    0    0 -0.28211362147E+02 -0.27272294597E+02  0.21205801132E+02  0.17691462633E+03  0.17120000000E+03 0.  0.
        998    1    1    2    0    0  0.14779929772E+02  0.71180912618E+02  0.14079564512E+04  0.14098675601E+04  0.10000000000E+02 0.  1.
</event>
<event>
 5    1  0.1675361E-008  0.3836217E+03  0.7957747E-01  0.3435539E+00
         13   -1    0    0    0    0  0.00000000000E+00  0.00000000000E+00  0.14999999963E+04  0.15000000000E+04  0.10566000000E+00 0. -1.
        994   -1    0    0    0    0 -0.00000000000E+00 -0.00000000000E+00  0.11368683772E-12  0.17120000000E+03  0.17120000000E+03 0.  0.
         13    1    1    2    0    0 -0.13012288370E+02 -0.39899585632E+01  0.39450212110E+02  0.41732119735E+02  0.10566000000E+00 0. -1.
        994    1    1    2    0    0  0.83771756124E+01  0.18161676765E+01  0.25587370624E+01  0.17143355177E+03  0.17120000000E+03 0.  0.
        998    1    1    2    0    0  0.46351127576E+01  0.21737908868E+01  0.14579910471E+04  0.14580343285E+04  0.10000000000E+02 0. -1.
</event>
<event>
 5    1  0.1675361E-008  0.3738257E+03  0.7957747E-01  0.3478491E+00
         13   -1    0    0    0    0  0.00000000000E+00  0.00000000000E+00  0.14999999963E+04  0.15000000000E+04  0.10566000000E+00 0.  1.
        994   -1    0    0    0    0 -0.00000000000E+00 -0.00000000000E+00  0.11368683772E-12  0.17120000000E+03  0.17120000000E+03 0.  0.
         13    1    1    2    0    0 -0.56963289512E+02  0.52440221946E+02  0.23857928519E+03  0.25082838698E+03  0.10566000000E+00 0.  1.
        994    1    1    2    0    0  0.85119764878E+02 -0.10447387418E+03  0.72036987708E+02  0.22947534150E+03  0.17120000000E+03 0.  0.
        998    1    1    2    0    0 -0.28156475365E+02  0.52033652236E+02  0.11893837234E+04  0.11908962715E+04  0.10000000000E+02 0.  1.
</event>
<event>
 5    1  0.1675361E-008  0.3830299E+03  0.7957747E-01  0.3438071E+00
         13   -1    0    0    0    0  0.00000000000E+00  0.00000000000E+00  0.14999999963E+04  0.15000000000E+04  0.10566000000E+00 0.  1.
        994   -1    0    0    0    0 -0.00000000000E+00 -0.00000000000E+00  0.11368683772E-12  0.17120000000E+03  0.17120000000E+03 0.  0.
         13    1    1    2    0    0 -0.15418464504E+02 -0.57210931832E+01  0.49712783361E+02  0.52362505177E+02  0.10566000000E+00 0.  1.
        994    1    1    2    0    0  0.13915191570E+02  0.10064497126E+02  0.35881858525E+01  0.17209660583E+03  0.17120000000E+03 0.  0.
        998    1    1    2    0    0  0.15032729343E+01 -0.43434039425E+01  0.14466990271E+04  0.14467408890E+04  0.10000000000E+02 0.  1.
</event>
<event>
 5    1  0.1675361E-008  0.3847079E+03  0.7957747E-01  0.3430912E+00
         13   -1    0    0    0    0  0.00000000000E+00  0.00000000000E+00  0.14999999963E+04  0.15000000000E+04  0.10566000000E+00 0. -1.
        994   -1    0    0    0    0 -0.00000000000E+00 -0.00000000000E+00  0.11368683772E-12  0.17120000000E+03  0.17120000000E+03 0.  0.
         13    1    1    2    0    0 -0.12087952801E+02  0.82165607620E+01  0.57461029971E+02  0.59290906579E+02  0.10566000000E+00 0. -1.
        994    1    1    2    0    0  0.15742975510E+02 -0.76368892719E+01  0.27837151291E+01  0.17211435857E+03  0.17120000000E+03 0.  0.
        998    1    1    2    0    0 -0.36550227090E+01 -0.57967149009E+00  0.14397552512E+04  0.14397947349E+04  0.10000000000E+02 0. -1.
</event>
<event>
 5    1  0.1675361E-008  0.3844219E+03  0.7957747E-01  0.3432128E+00
         13   -1    0    0    0    0  0.00000000000E+00  0.00000000000E+00  0.14999999963E+04  0.15000000000E+04  0.10566000000E+00 0.  1.
        994   -1    0    0    0    0 -0.00000000000E+00 -0.00000000000E+00  0.11368683772E-12  0.17120000000E+03  0.17120000000E+03 0.  0.
         13    1    1    2    0    0  0.10042235698E+02  0.14188740440E+02  0.72212487460E+02  0.74275307891E+02  0.10566000000E+00 0.  1.
        994    1    1    2    0    0 -0.15652892641E+02 -0.19593019128E+02  0.39922860363E+01  0.17307304179E+03  0.17120000000E+03 0.  0.
        998    1    1    2    0    0  0.56106569432E+01  0.54042786877E+01  0.14237952228E+04  0.14238516503E+04  0.10000000000E+02 0.  1.
</event>
<event>
 5    1  0.1675361E-008  0.3831114E+03  0.7957747E-01  0.3437722E+00
         13   -1    0    0    0    0  0.00000000000E+00  0.00000000000E+00  0.14999999963E+04  0.15000000000E+04  0.10566000000E+00 0.  1.
        994   -1    0    0    0    0 -0.00000000000E+00 -0.00000000000E+00  0.11368683772E-12  0.17120000000E+03  0.17120000000E+03 0.  0.
         13    1    1    2    0    0 -0.33680879323E+00 -0.30475077834E+02  0.16908199136E+03  0.17180679490E+03  0.10566000000E+00 0.  1.
        994    1    1    2    0    0  0.42418399400E+01  0.25468602698E+02  0.47796891872E+01  0.17320198717E+03  0.17120000000E+03 0.  0.
        998    1    1    2    0    0 -0.39050311468E+01  0.50064751360E+01  0.13261383157E+04  0.13261912179E+04  0.10000000000E+02 0.  1.
</event>
<event>
 5    1  0.1675361E-008  0.3829044E+03  0.7957747E-01  0.3438609E+00
         13   -1    0    0    0    0  0.00000000000E+00  0.00000000000E+00  0.14999999963E+04  0.15000000000E+04  0.10566000000E+00 0.  1.
        994   -1    0    0    0    0 -0.00000000000E+00 -0.00000000000E+00  0.11368683772E-12  0.17120000000E+03  0.17120000000E+03 0.  0.
         13    1    1    2    0    0  0.10125612244E+02  0.12470789752E+02  0.47066463393E+02  0.49732401518E+02  0.10566000000E+00 0.  1.
        994    1    1    2    0    0 -0.93327012441E+01 -0.83545724336E+01  0.31938112480E+01  0.17168732808E+03  0.17120000000E+03 0.  0.
        998    1    1    2    0    0 -0.79291100021E+00 -0.41162173184E+01  0.14497397216E+04  0.14497802704E+04  0.10000000000E+02 0.  1.
</event>
<event>
 5    1  0.1675361E-008  0.3825995E+03  0.7957747E-01  0.3439917E+00
         13   -1    0    0    0    0  0.00000000000E+00  0.00000000000E+00  0.14999999963E+04  0.15000000000E+04  0.10566000000E+00 0. -1.
        994   -1    0    0    0    0 -0.00000000000E+00 -0.00000000000E+00  0.11368683772E-12  0.17120000000E+03  0.17120000000E+03 0.  0.
         13    1    1    2    0    0  0.15871704927E+02 -0.17247627134E+01  0.42657555659E+02  0.45547382390E+02  0.10566000000E+00 0. -1.
        994    1    1    2    0    0 -0.25006443976E+02 -0.45161822652E+02  0.11710141628E+02  0.17919676304E+03  0.17120000000E+03 0.  0.
        998    1    1    2    0    0  0.91347390487E+01  0.46886585366E+02  0.14456322990E+04  0.14464558546E+04  0.10000000000E+02 0. -1.
</event>
<event>
 5    1  0.1675361E-008  0.3832217E+03  0.7957747E-01  0.3437249E+00
         13   -1    0    0    0    0  0.00000000000E+00  0.00000000000E+00  0.14999999963E+04  0.15000000000E+04  0.10566000000E+00 0.  1.
        994   -1    0    0    0    0 -0.00000000000E+00 -0.00000000000E+00  0.11368683772E-12  0.17120000000E+03  0.17120000000E+03 0.  0.
         13    1    1    2    0    0 -0.22227629368E+02  0.14832705678E+02  0.15596355337E+03  0.15823627210E+03  0.10566000000E+00 0.  1.
        994    1    1    2    0    0  0.35321743463E+01 -0.19022266625E+01  0.25688271652E+01  0.17126626520E+03  0.17120000000E+03 0.  0.
        998    1    1    2    0    0  0.18695455021E+02 -0.12930479015E+02  0.13414676157E+04  0.13416974627E+04  0.10000000000E+02 0.  1.
</event>
<event>
 5    1  0.1675361E-008  0.3846234E+03  0.7957747E-01  0.3431271E+00
         13   -1    0    0    0    0  0.00000000000E+00  0.00000000000E+00  0.14999999963E+04  0.15000000000E+04  0.10566000000E+00 0.  1.
        994   -1    0    0    0    0 -0.00000000000E+00 -0.00000000000E+00  0.11368683772E-12  0.17120000000E+03  0.17120000000E+03 0.  0.
         13    1    1    2    0    0  0.11790636146E+02  0.14796887199E+02  0.94720532520E+02  0.96591704698E+02  0.10566000000E+00 0.  1.
        994    1    1    2    0    0 -0.59285166662E+01 -0.17381935933E+02  0.29285870262E+01  0.17220713002E+03  0.17120000000E+03 0.  0.
        998    1    1    2    0    0 -0.58621194799E+01  0.25850487347E+01  0.14023508767E+04  0.14024011653E+04  0.10000000000E+02 0.  1.
</event>
<event>
 5    1  0.1675361E-008  0.3720542E+03  0.7957747E-01  0.3486503E+00
         13   -1    0    0    0    0  0.00000000000E+00  0.00000000000E+00  0.14999999963E+04  0.15000000000E+04  0.10566000000E+00 0. -1.
        994   -1    0    0    0    0 -0.00000000000E+00 -0.00000000000E+00  0.11368683772E-12  0.17120000000E+03  0.17120000000E+03 0.  0.
         13    1    1    2    0    0  0.43821120254E+02  0.15800232137E+02  0.82078641026E+02  0.94376121941E+02  0.10566000000E+00 0. -1.
        994    1    1    2    0    0 -0.39375892608E+02 -0.22816925541E+02  0.19357896128E+02  0.17820000323E+03  0.17120000000E+03 0.  0.
        998    1    1    2    0    0 -0.44452276463E+01  0.70166934041E+01  0.13985634591E+04  0.13986238748E+04  0.10000000000E+02 0. -1.
</event>
<event>
 5    1  0.1675361E-008  0.3820398E+03  0.7957747E-01  0.3442325E+00
         13   -1    0    0    0    0  0.00000000000E+00  0.00000000000E+00  0.14999999963E+04  0.15000000000E+04  0.10566000000E+00 0. -1.
        994   -1    0    0    0    0 -0.00000000000E+00 -0.00000000000E+00  0.11368683772E-12  0.17120000000E+03  0.17120000000E+03 0.  0.
         13    1    1    2    0    0 -0.13828560740E+02  0.19837284031E+02  0.89475947243E+02  0.92686046571E+02  0.10566000000E+00 0. -1.
        994    1    1    2    0    0  0.17796809115E+02 -0.14727451481E+02  0.48809466324E+01  0.17282039197E+03  0.17120000000E+03 0.  0.
        998    1    1    2    0    0 -0.39682483749E+01 -0.51098325507E+01  0.14056431024E+04  0.14056935615E+04  0.10000000000E+02 0. -1.
</event>
<event>
 5    1  0.1675361E-008  0.3813584E+03  0.7957747E-01  0.3445265E+00
         13   -1    0    0    0    0  0.00000000000E+00  0.00000000000E+00  0.14999999963E+04  0.15000000000E+04  0.10566000000E+00 0.  1.
        994   -1    0    0    0    0 -0.00000000000E+00 -0.00000000000E+00  0.11368683772E-12  0.17120000000E+03  0.17120000000E+03 0.  0.
         13    1    1    2    0    0  0.14144008147E+02  0.24857817630E+02  0.11253963246E+03  0.11611694149E+03  0.10566000000E+00 0.  1.
        994    1    1    2    0    0 -0.17306802317E+02 -0.18405434707E+02  0.55760935982E+01  0.17314392352E+03  0.17120000000E+03 0.  0.
        998    1    1    2    0    0  0.31627941695E+01 -0.64523829230E+01  0.13818842702E+04  0.13819391350E+04  0.10000000000E+02 0.  1.
</event>
<event>
 5    1  0.1675361E-008  0.3856139E+03  0.7957747E-01  0.3427073E+00
         13   -1    0    0    0    0  0.00000000000E+00  0.00000000000E+00  0.14999999963E+04  0.15000000000E+04  0.10566000000E+00 0.  1.
        994   -1    0    0    0    0 -0.00000000000E+00 -0.00000000000E+00  0.11368683772E-12  0.17120000000E+03  0.17120000000E+03 0.  0.
         13    1    1    2    0    0 -0.59698112549E+01  0.14389320801E+02  0.86778459692E+02  0.88165772441E+02  0.10566000000E+00 0.  1.
        994    1    1    2    0    0  0.55630805010E+01 -0.16695171529E+02  0.23426870647E+01  0.17211799673E+03  0.17120000000E+03 0.  0.
        998    1    1    2    0    0  0.40673075384E+00  0.23058507282E+01  0.14108788495E+04  0.14109162308E+04  0.10000000000E+02 0.  1.
</event>
<event>
 5    1  0.1675361E-008  0.3763326E+03  0.7957747E-01  0.3467284E+00
         13   -1    0    0    0    0  0.00000000000E+00  0.00000000000E+00  0.14999999963E+04  0.15000000000E+04  0.10566000000E+00 0. -1.
        994   -1    0    0    0    0 -0.00000000000E+00 -0.00000000000E+00  0.11368683772E-12  0.17120000000E+03  0.17120000000E+03 0.  0.
         13    1    1    2    0    0  0.41071315381E+02  0.35645691388E+01  0.14229020208E+03  0.14814206652E+03  0.10566000000E+00 0. -1.
        994    1    1    2    0    0 -0.19655642120E+02 -0.17105580888E+02  0.82969589396E+01  0.17337019551E+03  0.17120000000E+03 0.  0.
        998    1    1    2    0    0 -0.21415673261E+02  0.13541011749E+02  0.13494128353E+04  0.13496877380E+04  0.10000000000E+02 0. -1.
</event>
<event>
 5    1  0.1675361E-008  0.3795031E+03  0.7957747E-01  0.3453325E+00
         13   -1    0    0    0    0  0.00000000000E+00  0.00000000000E+00  0.14999999963E+04  0.15000000000E+04  0.10566000000E+00 0.  1.
        994   -1    0    0    0    0 -0.00000000000E+00 -0.00000000000E+00  0.11368683772E-12  0.17120000000E+03  0.17120000000E+03 0.  0.
         13    1    1    2    0    0  0.79552299430E+01 -0.19285729433E+02  0.46713551730E+02  0.51160454674E+02  0.10566000000E+00 0.  1.
        994    1    1    2    0    0 -0.99820783312E+01  0.18750083485E+02  0.58964481785E+01  0.17261348620E+03  0.17120000000E+03 0.  0.
        998    1    1    2    0    0  0.20268483882E+01  0.53564594831E+00  0.14473899964E+04  0.14474260591E+04  0.10000000000E+02 0.  1.
</event>
<event>
 5    1  0.1675361E-008  0.3764217E+03  0.7957747E-01  0.3466889E+00
         13   -1    0    0    0    0  0.00000000000E+00  0.00000000000E+00  0.14999999963E+04  0.15000000000E+04  0.10566000000E+00 0. -1.
        994   -1    0    0    0    0 -0.00000000000E+00 -0.00000000000E+00  0.11368683772E-12  0.17120000000E+03  0.17120000000E+03 0.  0.
         13    1    1    2    0    0 -0.24648851681E+02  0.31123053338E+01  0.48356352507E+02  0.54365433186E+02  0.10566000000E+00 0. -1.
        994    1    1    2    0    0  0.24808003918E+02  0.63087158920E+01  0.81702543261E+01  0.17329578763E+03  0.17120000000E+03 0.  0.
        998    1    1    2    0    0 -0.15915223658E+00 -0.94210212258E+01  0.14434733894E+04  0.14435387792E+04  0.10000000000E+02 0. -1.
</event>
<event>
 5    1  0.1675361E-008  0.3816595E+03  0.7957747E-01  0.3443964E+00
         13   -1    0    0    0    0  0.00000000000E+00  0.00000000000E+00  0.14999999963E+04  0.15000000000E+04  0.10566000000E+00 0.  1.
        994   -1    0    0    0    0 -0.00000000000E+00 -0.00000000000E+00  0.11368683772E-12  0.17120000000E+03  0.17120000000E+03 0.  0.
         13    1    1    2    0    0 -0.29561082768E+02  0.95350355537E+02  0.23742093799E+03  0.25755438431E+03  0.10566000000E+00 0.  1.
        994    1    1    2    0    0  0.31143357418E+02 -0.94558194509E+02  0.54337064225E+02  0.20536094421E+03  0.17120000000E+03 0.  0.
        998    1    1    2    0    0 -0.15822746501E+01 -0.79216102793E+00  0.12082419941E+04  0.12082846715E+04  0.10000000000E+02 0.  0.
</event>
<event>
 5    1  0.1675361E-008  0.3819361E+03  0.7957747E-01  0.3442771E+00
         13   -1    0    0    0    0  0.00000000000E+00  0.00000000000E+00  0.14999999963E+04  0.15000000000E+04  0.10566000000E+00 0.  1.
        994   -1    0    0    0    0 -0.00000000000E+00 -0.00000000000E+00  0.11368683772E-12  0.17120000000E+03  0.17120000000E+03 0.  0.
         13    1    1    2    0    0  0.71934902084E+01 -0.12109110040E+02  0.30063571752E+02  0.33199493338E+02  0.10566000000E+00 0.  1.
        994    1    1    2    0    0 -0.63734187910E+01  0.92772186142E+01  0.35799229940E+01  0.17160694363E+03  0.17120000000E+03 0.  0.
        998    1    1    2    0    0 -0.82007141736E+00  0.28318914253E+01  0.14663565015E+04  0.14663935630E+04  0.10000000000E+02 0.  1.
</event>
<event>
 5    1  0.1675361E-008  0.4190261E+03  0.7957747E-01  0.3297051E+00
         13   -1    0    0    0    0  0.00000000000E+00  0.00000000000E+00  0.14999999963E+04  0.15000000000E+04  0.10566000000E+00 0.  1.
        994   -1    0    0    0    0 -0.00000000000E+00 -0.00000000000E+00  0.11368683772E-12  0.17120000000E+03  0.17120000000E+03 0.  0.
         13    1    1    2    0    0  0.93447247028E+02 -0.82837014697E+02  0.16738721474E+03  0.20883689761E+03  0.10566000000E+00 0.  1.
        994    1    1    2    0    0 -0.89990158477E+02  0.76254220962E+02  0.10179719456E+03  0.23148443502E+03  0.17120000000E+03 0.  0.
        998    1    1    2    0    0 -0.34570885506E+01  0.65827937351E+01  0.12308155870E+04  0.12308786674E+04  0.10000000000E+02 0. -1.
</event>
<event>
 5    1  0.1675361E-008  0.3825680E+03  0.7957747E-01  0.3440053E+00
         13   -1    0    0    0    0  0.00000000000E+00  0.00000000000E+00  0.14999999963E+04  0.15000000000E+04  0.10566000000E+00 0.  1.
        994   -1    0    0    0    0 -0.00000000000E+00 -0.00000000000E+00  0.11368683772E-12  0.17120000000E+03  0.17120000000E+03 0.  0.
         13    1    1    2    0    0 -0.75307579356E+01  0.32832346211E+02  0.18097243927E+03  0.18408071656E+03  0.10566000000E+00 0.  1.
        994    1    1    2    0    0 -0.11103628731E+02 -0.35114344849E+02  0.73513513514E+01  0.17527061976E+03  0.17120000000E+03 0.  0.
        998    1    1    2    0    0  0.18634386667E+02  0.22819986383E+01  0.13116762057E+04  0.13118486637E+04  0.10000000000E+02 0.  1.
</event>
<event>
 5    1  0.1675361E-008  0.3855207E+03  0.7957747E-01  0.3427467E+00
         13   -1    0    0    0    0  0.00000000000E+00  0.00000000000E+00  0.14999999963E+04  0.15000000000E+04  0.10566000000E+00 0. -1.
        994   -1    0    0    0    0 -0.00000000000E+00 -0.00000000000E+00  0.11368683772E-12  0.17120000000E+03  0.17120000000E+03 0.  0.
         13    1    1    2    0    0 -0.66928084237E+00 -0.15814777275E+02  0.93166551405E+02  0.94501706767E+02  0.10566000000E+00 0. -1.
        994    1    1    2    0    0 -0.94042230177E+01  0.90006468805E+01  0.19283861383E+01  0.17170500787E+03  0.17120000000E+03 0.  0.
        998    1    1    2    0    0  0.10073503860E+02  0.68141303942E+01  0.14049050587E+04  0.14049932854E+04  0.10000000000E+02 0. -1.
</event>
<event>
 5    1  0.1675361E-008  0.3771720E+03  0.7957747E-01  0.3463566E+00
         13   -1    0    0    0    0  0.00000000000E+00  0.00000000000E+00  0.14999999963E+04  0.15000000000E+04  0.10566000000E+00 0. -1.
        994   -1    0    0    0    0 -0.00000000000E+00 -0.00000000000E+00  0.11368683772E-12  0.17120000000E+03  0.17120000000E+03 0.  0.
         13    1    1    2    0    0  0.43007588953E+02  0.37238860671E+01  0.18433883054E+03  0.18932600361E+03  0.10566000000E+00 0. -1.
        994    1    1    2    0    0 -0.74493545234E+01 -0.64927474595E+01  0.58971639478E+01  0.17158631995E+03  0.17120000000E+03 0.  0.
        998    1    1    2    0    0 -0.35558234429E+02  0.27688613924E+01  0.13097640018E+04  0.13102876764E+04  0.10000000000E+02 0. -1.
</event>
<event>
 5    1  0.1675361E-008  0.3834287E+03  0.7957747E-01  0.3436364E+00
         13   -1    0    0    0    0  0.00000000000E+00  0.00000000000E+00  0.14999999963E+04  0.15000000000E+04  0.10566000000E+00 0.  1.
        994   -1    0    0    0    0 -0.00000000000E+00 -0.00000000000E+00  0.11368683772E-12  0.17120000000E+03  0.17120000000E+03 0.  0.
         13    1    1    2    0    0  0.19417827745E+02  0.54925890304E+01  0.82297701258E+02  0.84735726615E+02  0.10566000000E+00 0.  1.
        994    1    1    2    0    0 -0.11915220031E+02 -0.16640799061E+02  0.37981146382E+01  0.17246087770E+03  0.17120000000E+03 0.  0.
        998    1    1    2    0    0 -0.75026077136E+01  0.11148210031E+02  0.14139041804E+04  0.14140033957E+04  0.10000000000E+02 0.  1.
</event>
<event>
 5    1  0.1675361E-008  0.3843437E+03  0.7957747E-01  0.3432460E+00
         13   -1    0    0    0    0  0.00000000000E+00  0.00000000000E+00  0.14999999963E+04  0.15000000000E+04  0.10566000000E+00 0.  1.
        994   -1    0    0    0    0 -0.00000000000E+00 -0.00000000000E+00  0.11368683772E-12  0.17120000000E+03  0.17120000000E+03 0.  0.
         13    1    1    2    0    0  0.20680138865E+02 -0.21497851215E+01  0.10819498064E+03  0.11017465552E+03  0.10566000000E+00 0.  1.
        994    1    1    2    0    0 -0.15568250873E+02 -0.17231022217E+00  0.27555838922E+01  0.17192857054E+03  0.17120000000E+03 0.  0.
        998    1    1    2    0    0 -0.51118879919E+01  0.23220953437E+01  0.13890494317E+04  0.13890967739E+04  0.10000000000E+02 0.  1.
</event>
<event>
 5    1  0.1675361E-008  0.3842508E+03  0.7957747E-01  0.3432856E+00
         13   -1    0    0    0    0  0.00000000000E+00  0.00000000000E+00  0.14999999963E+04  0.15000000000E+04  0.10566000000E+00 0.  1.
        994   -1    0    0    0    0 -0.00000000000E+00 -0.00000000000E+00  0.11368683772E-12  0.17120000000E+03  0.17120000000E+03 0.  0.
         13    1    1    2    0    0  0.63972445040E+01  0.24398933129E+02  0.14915840031E+03  0.15127614558E+03  0.10566000000E+00 0.  1.
        994    1    1    2    0    0 -0.73941647473E+01 -0.21065997701E+02  0.36474879236E+01  0.17268814117E+03  0.17120000000E+03 0.  0.
        998    1    1    2    0    0  0.99692024332E+00 -0.33329354282E+01  0.13471941080E+04  0.13472357133E+04  0.10000000000E+02 0.  1.
</event>
<event>
 5    1  0.1675361E-008  0.3839815E+03  0.7957747E-01  0.3434003E+00
         13   -1    0    0    0    0  0.00000000000E+00  0.00000000000E+00  0.14999999963E+04  0.15000000000E+04  0.10566000000E+00 0.  1.
        994   -1    0    0    0    0 -0.00000000000E+00 -0.00000000000E+00  0.11368683772E-12  0.17120000000E+03  0.17120000000E+03 0.  0.
         13    1    1    2    0    0 -0.11717440358E+02  0.62501967099E+01  0.41650953077E+02  0.43717003828E+02  0.10566000000E+00 0.  1.
        994    1    1    2    0    0 -0.20380862640E+01 -0.12802532436E+02  0.26913478948E+01  0.17171121683E+03  0.17120000000E+03 0.  0.
        998    1    1    2    0    0  0.13755526622E+02  0.65523357262E+01  0.14556576953E+04  0.14557717793E+04  0.10000000000E+02 0.  1.
</event>
<event>
 5    1  0.1675361E-008  0.3691454E+03  0.7957747E-01  0.3499828E+00
         13   -1    0    0    0    0  0.00000000000E+00  0.00000000000E+00  0.14999999963E+04  0.15000000000E+04  0.10566000000E+00 0. -1.
        994   -1    0    0    0    0 -0.00000000000E+00 -0.00000000000E+00  0.11368683772E-12  0.17120000000E+03  0.17120000000E+03 0.  0.
         13    1    1    2    0    0  0.16026016537E+02  0.34728987966E+02  0.61607979476E+02  0.72515447391E+02  0.10566000000E+00 0. -1.
        994    1    1    2    0    0 -0.12924266169E+02 -0.46179329349E+02  0.18546164971E+02  0.17875392961E+03  0.17120000000E+03 0.  0.
        998    1    1    2    0    0 -0.31017503680E+01  0.11450341383E+02  0.14198458518E+04  0.14199306230E+04  0.10000000000E+02 0. -1.
</event>
<event>
 5    1  0.1675361E-008  0.3689531E+03  0.7957747E-01  0.3500716E+00
         13   -1    0    0    0    0  0.00000000000E+00  0.00000000000E+00  0.14999999963E+04  0.15000000000E+04  0.10566000000E+00 0.  1.
        994   -1    0    0    0    0 -0.00000000000E+00 -0.00000000000E+00  0.11368683772E-12  0.17120000000E+03  0.17120000000E+03 0.  0.
         13    1    1    2    0    0 -0.98539025585E+02  0.38395477623E+02  0.36067315031E+03  0.37585806468E+03  0.10566000000E+00 0.  1.
        994    1    1    2    0    0  0.12000171869E+03 -0.21614007964E+02  0.64123835164E+02  0.21974731867E+03  0.17120000000E+03 0.  0.
        998    1    1    2    0    0 -0.21462693102E+02 -0.16781469659E+02  0.10752030108E+04  0.10755946166E+04  0.10000000000E+02 0.  1.
</event>
<event>
 5    1  0.1675361E-008  0.3857938E+03  0.7957747E-01  0.3426312E+00
         13   -1    0    0    0    0  0.00000000000E+00  0.00000000000E+00  0.14999999963E+04  0.15000000000E+04  0.10566000000E+00 0. -1.
        994   -1    0    0    0    0 -0.00000000000E+00 -0.00000000000E+00  0.11368683772E-12  0.17120000000E+03  0.17120000000E+03 0.  0.
         13    1    1    2    0    0  0.13112288380E+02 -0.20437451803E+01  0.66875732605E+02  0.68179790088E+02  0.10566000000E+00 0. -1.
        994    1    1    2    0    0 -0.17264930878E+02  0.11051112392E+02  0.26161020398E+01  0.17244271197E+03  0.17120000000E+03 0.  0.
        998    1    1    2    0    0  0.41526424984E+01 -0.90073672120E+01  0.14305081616E+04  0.14305774979E+04  0.10000000000E+02 0. -1.
</event>
<event>
 5    1  0.1675361E-008  0.3942765E+03  0.7957747E-01  0.3391257E+00
         13   -1    0    0    0    0  0.00000000000E+00  0.00000000000E+00  0.14999999963E+04  0.15000000000E+04  0.10566000000E+00 0. -1.
        994   -1    0    0    0    0 -0.00000000000E+00 -0.00000000000E+00  0.11368683772E-12  0.17120000000E+03  0.17120000000E+03 0.  0.
         13    1    1    2    0    0 -0.14188664624E+02 -0.74141716637E+01 -0.57163788286E+01  0.16999302816E+02  0.10566000000E+00 0. -1.
        994    1    1    2    0    0  0.11682634197E+02  0.81239218010E+01  0.25177244079E+02  0.17362550408E+03  0.17120000000E+03 0.  0.
        998    1    1    2    0    0  0.25060304273E+01 -0.70975013730E+00  0.14805391310E+04  0.14805751931E+04  0.10000000000E+02 0. -1.
</event>
<event>
 5    1  0.1675361E-008  0.3844380E+03  0.7957747E-01  0.3432059E+00
         13   -1    0    0    0    0  0.00000000000E+00  0.00000000000E+00  0.14999999963E+04  0.15000000000E+04  0.10566000000E+00 0. -1.
        994   -1    0    0    0    0 -0.00000000000E+00 -0.00000000000E+00  0.11368683772E-12  0.17120000000E+03  0.17120000000E+03 0.  0.
         13    1    1    2    0    0 -0.47886562249E+01 -0.10272689421E+02  0.33612455348E+02  0.35472069223E+02  0.10566000000E+00 0. -1.
        994    1    1    2    0    0 -0.16393447096E+00  0.56346105225E+01  0.20140919854E+01  0.17130461838E+03  0.17120000000E+03 0.  0.
        998    1    1    2    0    0  0.49525906959E+01  0.46380788984E+01  0.14643734489E+04  0.14644233124E+04  0.10000000000E+02 0. -1.
</event>
<event>
 5    1  0.1675361E-008  0.3737397E+03  0.7957747E-01  0.3478879E+00
         13   -1    0    0    0    0  0.00000000000E+00  0.00000000000E+00  0.14999999963E+04  0.15000000000E+04  0.10566000000E+00 0.  1.
        994   -1    0    0    0    0 -0.00000000000E+00 -0.00000000000E+00  0.11368683772E-12  0.17120000000E+03  0.17120000000E+03 0.  0.
         13    1    1    2    0    0  0.21208224532E+02 -0.22071256829E+02  0.64562703267E+02  0.71451262991E+02  0.10566000000E+00 0.  1.
        994    1    1    2    0    0 -0.71841495021E+01 -0.16620379881E+01  0.75129904813E+01  0.17152334943E+03  0.17120000000E+03 0.  0.
        998    1    1    2    0    0 -0.14024075030E+02  0.23733294817E+02  0.14279243025E+04  0.14282253876E+04  0.10000000000E+02 0.  1.
</event>
<event>
 5    1  0.1675361E-008  0.3913461E+03  0.7957747E-01  0.3403195E+00
         13   -1    0    0    0    0  0.00000000000E+00  0.00000000000E+00  0.14999999963E+04  0.15000000000E+04  0.10566000000E+00 0.  1.
        994   -1    0    0    0    0 -0.00000000000E+00 -0.00000000000E+00  0.11368683772E-12  0.17120000000E+03  0.17120000000E+03 0.  0.
         13    1    1    2    0    0  0.62190190663E+02  0.82482743039E+02  0.18781503578E+03  0.21434906471E+03  0.10566000000E+00 0.  1.
        994    1    1    2    0    0 -0.70118876702E+02 -0.92595540554E+02  0.75757411540E+02  0.22031617372E+03  0.17120000000E+03 0.  0.
        998    1    1    2    0    0  0.79286860392E+01  0.10112797515E+02  0.12364275490E+04  0.12365347616E+04  0.10000000000E+02 0.  1.
</event>
<event>
 5    1  0.2313138E-008  0.3856293E+03  0.7957747E-01  0.3427008E+00
         13   -1    0    0    0    0  0.00000000000E+00  0.00000000000E+00  0.14999999963E+04  0.15000000000E+04  0.10566000000E+00 0. -1.
        994   -1    0    0    0    0 -0.00000000000E+00 -0.00000000000E+00  0.11368683772E-12  0.17120000000E+03  0.17120000000E+03 0.  0.
         13    1    1    2    0    0  0.69239993946E+01 -0.84781972623E+01  0.45395975946E+02  0.46697188273E+02  0.10566000000E+00 0. -1.
        994    1    1    2    0    0 -0.36327796848E+01  0.80916650499E+01  0.15762571283E+01  0.17143685927E+03  0.17120000000E+03 0.  0.
        998    1    1    2    0    0 -0.32912197097E+01  0.38653221236E+00  0.14530277632E+04  0.14530659525E+04  0.10000000000E+02 0. -1.
</event>
<event>
 5    1  0.1675361E-008  0.3853381E+03  0.7957747E-01  0.3428239E+00
         13   -1    0    0    0    0  0.00000000000E+00  0.00000000000E+00  0.14999999963E+04  0.15000000000E+04  0.10566000000E+00 0. -1.
        994   -1    0    0    0    0 -0.00000000000E+00 -0.00000000000E+00  0.11368683772E-12  0.17120000000E+03  0.17120000000E+03 0.  0.
         13    1    1    2    0    0  0.36958128956E+01 -0.15381249565E+02  0.89060350878E+02  0.90454403617E+02  0.10566000000E+00 0. -1.
        994    1    1    2    0    0  0.27049714450E+01  0.64290944543E+01  0.16221987407E+01  0.17134970573E+03  0.17120000000E+03 0.  0.
        998    1    1    2    0    0 -0.64007843406E+01  0.89521551107E+01  0.14093174467E+04  0.14093958906E+04  0.10000000000E+02 0. -1.
</event>
<event>
 5    1  0.1675361E-008  0.3827086E+03  0.7957747E-01  0.3439449E+00
         13   -1    0    0    0    0  0.00000000000E+00  0.00000000000E+00  0.14999999963E+04  0.15000000000E+04  0.10566000000E+00 0.  1.
        994   -1    0    0    0    0 -0.00000000000E+00 -0.00000000000E+00  0.11368683772E-12  0.17120000000E+03  0.17120000000E+03 0.  0.
         13    1    1    2    0    0  0.55659334136E+01 -0.20726396465E+02  0.82518831320E+02  0.85263895124E+02  0.10566000000E+00 0.  1.
        994    1    1    2    0    0  0.70108656173E+01  0.15367128561E+02  0.37179138422E+01  0.17207139146E+03  0.17120000000E+03 0.  0.
        998    1    1    2    0    0 -0.12576799031E+02  0.53592679040E+01  0.14137632511E+04  0.14138647134E+04  0.10000000000E+02 0.  1.
</event>
<event>
 5    1  0.1675361E-008  0.3812741E+03  0.7957747E-01  0.3445629E+00
         13   -1    0    0    0    0  0.00000000000E+00  0.00000000000E+00  0.14999999963E+04  0.15000000000E+04  0.10566000000E+00 0. -1.
        994   -1    0    0    0    0 -0.00000000000E+00 -0.00000000000E+00  0.11368683772E-12  0.17120000000E+03  0.17120000000E+03 0.  0.
         13    1    1    2    0    0  0.11210744459E+01  0.18632204491E+02  0.46866660528E+02  0.50447109781E+02  0.10566000000E+00 0. -1.
        994    1    1    2    0    0  0.85517137794E+01 -0.22411644761E+02  0.54091965433E+01  0.17295696874E+03  0.17120000000E+03 0.  0.
        998    1    1    2    0    0 -0.96727882253E+01  0.37794402697E+01  0.14477241392E+04  0.14477959215E+04  0.10000000000E+02 0. -1.
</event>
<event>
 5    1  0.1675361E-008  0.3800396E+03  0.7957747E-01  0.3450986E+00
         13   -1    0    0    0    0  0.00000000000E+00  0.00000000000E+00  0.14999999963E+04  0.15000000000E+04  0.10566000000E+00 0. -1.
        994   -1    0    0    0    0 -0.00000000000E+00 -0.00000000000E+00  0.11368683772E-12  0.17120000000E+03  0.17120000000E+03 0.  0.
         13    1    1    2    0    0  0.56887360918E+02 -0.30171649474E+02  0.13695456866E+03  0.15133758722E+03  0.10566000000E+00 0. -1.
        994    1    1    2    0    0 -0.11515269326E+02 -0.43396133272E+01  0.16898107697E+02  0.17247150407E+03  0.17120000000E+03 0.  0.
        998    1    1    2    0    0 -0.45372091593E+02  0.34511262801E+02  0.13461473199E+04  0.13473909087E+04  0.10000000000E+02 0. -1.
</event>
<event>
 5    1  0.1675361E-008  0.3804435E+03  0.7957747E-01  0.3449230E+00
         13   -1    0    0    0    0  0.00000000000E+00  0.00000000000E+00  0.14999999963E+04  0.15000000000E+04  0.10566000000E+00 0. -1.
        994   -1    0    0    0    0 -0.00000000000E+00 -0.00000000000E+00  0.11368683772E-12  0.17120000000E+03  0.17120000000E+03 0.  0.
         13    1    1    2    0    0 -0.18771194887E+02 -0.82697187784E+00  0.46293258723E+02  0.49961170995E+02  0.10566000000E+00 0. -1.
        994    1    1    2    0    0 -0.33722662428E+01  0.54636460531E+01  0.40470677751E+01  0.17136814863E+03  0.17120000000E+03 0.  0.
        998    1    1    2    0    0  0.22143461130E+02 -0.46366741752E+01  0.14496596698E+04  0.14498706804E+04  0.10000000000E+02 0. -1.
</event>
<event>
 5    1  0.1675361E-008  0.3791971E+03  0.7957747E-01  0.3454662E+00
         13   -1    0    0    0    0  0.00000000000E+00  0.00000000000E+00  0.14999999963E+04  0.15000000000E+04  0.10566000000E+00 0.  1.
        994   -1    0    0    0    0 -0.00000000000E+00 -0.00000000000E+00  0.11368683772E-12  0.17120000000E+03  0.17120000000E+03 0.  0.
         13    1    1    2    0    0  0.16278322101E+02 -0.29837900327E+01  0.27382518043E+02  0.31995315779E+02  0.10566000000E+00 0.  1.
        994    1    1    2    0    0 -0.24847609559E+02 -0.80290512390E+01  0.68278596860E+01  0.17331453786E+03  0.17120000000E+03 0.  0.
        998    1    1    2    0    0  0.85692874576E+01  0.11012841272E+02  0.14657896185E+04  0.14658901464E+04  0.10000000000E+02 0.  1.
</event>
<event>
 5    1  0.1675361E-008  0.3687782E+03  0.7957747E-01  0.3501525E+00
         13   -1    0    0    0    0  0.00000000000E+00  0.00000000000E+00  0.14999999963E+04  0.15000000000E+04  0.10566000000E+00 0. -1.
        994   -1    0    0    0    0 -0.00000000000E+00 -0.00000000000E+00  0.11368683772E-12  0.17120000000E+03  0.17120000000E+03 0.  0.
         13    1    1    2    0    0 -0.10882896495E+03  0.14225900373E+03  0.82870286230E+03  0.84783831766E+03  0.10566000000E+00 0. -1.
        994    1    1    2    0    0  0.58369728000E+02 -0.17174113042E+03  0.13464540523E+03  0.28344464393E+03  0.17120000000E+03 0.  0.
        998    1    1    2    0    0  0.50459236946E+02  0.29482126690E+02  0.53665172876E+03  0.53991703841E+03  0.10000000000E+02 0. -1.
</event>
<event>
 5    1  0.1675361E-008  0.3985696E+03  0.7957747E-01  0.3374084E+00
         13   -1    0    0    0    0  0.00000000000E+00  0.00000000000E+00  0.14999999963E+04  0.15000000000E+04  0.10566000000E+00 0.  1.
        994   -1    0    0    0    0 -0.00000000000E+00 -0.00000000000E+00  0.11368683772E-12  0.17120000000E+03  0.17120000000E+03 0.  0.
         13    1    1    2    0    0  0.34634334387E+02 -0.72193903708E+02  0.12841566987E+03  0.15133437245E+03  0.10566000000E+00 0.  1.
        994    1    1    2    0    0 -0.15217983432E+02  0.21897492985E+01  0.27848487834E+02  0.17413029689E+03  0.17120000000E+03 0.  0.
        998    1    1    2    0    0 -0.19416350955E+02  0.70004154410E+02  0.13437358386E+04  0.13457353307E+04  0.10000000000E+02 0.  1.
</event>
<event>
 5    1  0.1675361E-008  0.3814350E+03  0.7957747E-01  0.3444934E+00
         13   -1    0    0    0    0  0.00000000000E+00  0.00000000000E+00  0.14999999963E+04  0.15000000000E+04  0.10566000000E+00 0. -1.
        994   -1    0    0    0    0 -0.00000000000E+00 -0.00000000000E+00  0.11368683772E-12  0.17120000000E+03  0.17120000000E+03 0.  0.
         13    1    1    2    0    0 -0.31725535041E+02 -0.80747146987E+01  0.18078414095E+03  0.18372432439E+03  0.10566000000E+00 0. -1.
        994    1    1    2    0    0  0.13328283676E+01 -0.37022549726E+01  0.34620403991E+01  0.17128020565E+03  0.17120000000E+03 0.  0.
        998    1    1    2    0    0  0.30392706673E+02  0.11776969671E+02  0.13157538149E+04  0.13161954700E+04  0.10000000000E+02 0. -1.
</event>
<event>
 5    1  0.1675361E-008  0.3849066E+03  0.7957747E-01  0.3430068E+00
         13   -1    0    0    0    0  0.00000000000E+00  0.00000000000E+00  0.14999999963E+04  0.15000000000E+04  0.10566000000E+00 0. -1.
        994   -1    0    0    0    0 -0.00000000000E+00 -0.00000000000E+00  0.11368683772E-12  0.17120000000E+03  0.17120000000E+03 0.  0.
         13    1    1    2    0    0 -0.56068972311E+01  0.14995287806E+02  0.78835425115E+02  0.80444585710E+02  0.10566000000E+00 0. -1.
        994    1    1    2    0    0 -0.66721216974E+01 -0.89576085261E+01  0.20870195243E+01  0.17157666394E+03  0.17120000000E+03 0.  0.
        998    1    1    2    0    0  0.12279018929E+02 -0.60376792800E+01  0.14190775516E+04  0.14191787503E+04  0.10000000000E+02 0. -1.
</event>
<event>
 5    1  0.1675361E-008  0.3852505E+03  0.7957747E-01  0.3428611E+00
         13   -1    0    0    0    0  0.00000000000E+00  0.00000000000E+00  0.14999999963E+04  0.15000000000E+04  0.10566000000E+00 0.  1.
        994   -1    0    0    0    0 -0.00000000000E+00 -0.00000000000E+00  0.11368683772E-12  0.17120000000E+03  0.17120000000E+03 0.  0.
         13    1    1    2    0    0  0.77847821856E+01  0.99426981893E+01  0.55932411793E+02  0.57340264509E+02  0.10566000000E+00 0.  1.
        994    1    1    2    0    0 -0.24252121008E+01  0.20930444695E+01  0.15395646112E+01  0.17123689073E+03  0.17120000000E+03 0.  0.
        998    1    1    2    0    0 -0.53595700849E+01 -0.12035742659E+02  0.14425280199E+04  0.14426228448E+04  0.10000000000E+02 0.  1.
</event>
<event>
 5    1  0.1675361E-008  0.3708699E+03  0.7957747E-01  0.3491903E+00
         13   -1    0    0    0    0  0.00000000000E+00  0.00000000000E+00  0.14999999963E+04  0.15000000000E+04  0.10566000000E+00 0.  1.
        994   -1    0    0    0    0 -0.00000000000E+00 -0.00000000000E+00  0.11368683772E-12  0.17120000000E+03  0.17120000000E+03 0.  0.
         13    1    1    2    0    0 -0.23755161287E+02  0.69128435590E+02  0.27529684230E+03  0.28483576117E+03  0.10566000000E+00 0.  1.
        994    1    1    2    0    0  0.49100822948E+01 -0.11826012532E+02  0.11974693216E+02  0.17209531300E+03  0.17120000000E+03 0.  0.
        998    1    1    2    0    0  0.18845078992E+02 -0.57302423058E+02  0.12127284608E+04  0.12142689258E+04  0.10000000000E+02 0.  1.
</event>
<event>
 5    1  0.1675361E-008  0.3780599E+03  0.7957747E-01  0.3459650E+00
         13   -1    0    0    0    0  0.00000000000E+00  0.00000000000E+00  0.14999999963E+04  0.15000000000E+04  0.10566000000E+00 0.  1.
        994   -1    0    0    0    0 -0.00000000000E+00 -0.00000000000E+00  0.11368683772E-12  0.17120000000E+03  0.17120000000E+03 0.  0.
         13    1    1    2    0    0 -0.24230198421E+02  0.33460292223E+02  0.14400722252E+03  0.14981583686E+03  0.10566000000E+00 0.  1.
        994    1    1    2    0    0  0.26114062114E+02 -0.41452489009E+02  0.13234211450E+02  0.17856325892E+03  0.17120000000E+03 0.  0.
        998    1    1    2    0    0 -0.18838636925E+01  0.79921967859E+01  0.13427585623E+04  0.13428209042E+04  0.10000000000E+02 0.  1.
</event>
<event>
 5    1  0.1675361E-008  0.3815524E+03  0.7957747E-01  0.3444427E+00
         13   -1    0    0    0    0  0.00000000000E+00  0.00000000000E+00  0.14999999963E+04  0.15000000000E+04  0.10566000000E+00 0.  1.
        994   -1    0    0    0    0 -0.00000000000E+00 -0.00000000000E+00  0.11368683772E-12  0.17120000000E+03  0.17120000000E+03 0.  0.
         13    1    1    2    0    0 -0.78608619777E+01 -0.12483278021E+02  0.31113522790E+02  0.34433818342E+02  0.10566000000E+00 0.  1.
        994    1    1    2    0    0  0.98935271014E+01  0.66815939022E+01  0.38257031410E+01  0.17165838628E+03  0.17120000000E+03 0.  0.
        998    1    1    2    0    0 -0.20326651237E+01  0.58016841190E+01  0.14650607703E+04  0.14651077954E+04  0.10000000000E+02 0.  1.
</event>
<event>
 5    1  0.1675361E-008  0.3809062E+03  0.7957747E-01  0.3447222E+00
         13   -1    0    0    0    0  0.00000000000E+00  0.00000000000E+00  0.14999999963E+04  0.15000000000E+04  0.10566000000E+00 0. -1.
        994   -1    0    0    0    0 -0.00000000000E+00 -0.00000000000E+00  0.11368683772E-12  0.17120000000E+03  0.17120000000E+03 0.  0.
         13    1    1    2    0    0  0.22438139064E+02 -0.10582750991E+02  0.94710606939E+02  0.97905949431E+02  0.10566000000E+00 0. -1.
        994    1    1    2    0    0  0.59333791376E+01 -0.11742414552E+02  0.42535277702E+01  0.17175745045E+03  0.17120000000E+03 0.  0.
        998    1    1    2    0    0 -0.28371518202E+02  0.22325165544E+02  0.14010358616E+04  0.14015366001E+04  0.10000000000E+02 0. -1.
</event>
<event>
 5    1  0.1675361E-008  0.3842711E+03  0.7957747E-01  0.3432769E+00
         13   -1    0    0    0    0  0.00000000000E+00  0.00000000000E+00  0.14999999963E+04  0.15000000000E+04  0.10566000000E+00 0. -1.
        994   -1    0    0    0    0 -0.00000000000E+00 -0.00000000000E+00  0.11368683772E-12  0.17120000000E+03  0.17120000000E+03 0.  0.
         13    1    1    2    0    0  0.35557987025E+01  0.15216846474E+02  0.66688802521E+02  0.68495282076E+02  0.10566000000E+00 0. -1.
        994    1    1    2    0    0  0.46463534100E+01  0.39656364937E+01  0.21154620603E+01  0.17132200691E+03  0.17120000000E+03 0.  0.
        998    1    1    2    0    0 -0.82021521125E+01 -0.19182482968E+02  0.14311957317E+04  0.14313827110E+04  0.10000000000E+02 0. -1.
</event>
<event>
 5    1  0.1675361E-008  0.3717317E+03  0.7957747E-01  0.3487970E+00
         13   -1    0    0    0    0  0.00000000000E+00  0.00000000000E+00  0.14999999963E+04  0.15000000000E+04  0.10566000000E+00 0. -1.
        994   -1    0    0    0    0 -0.00000000000E+00 -0.00000000000E+00  0.11368683772E-12  0.17120000000E+03  0.17120000000E+03 0.  0.
         13    1    1    2    0    0  0.68413294845E+01 -0.13406926278E+02  0.98186597118E+01  0.17971274410E+02  0.10566000000E+00 0. -1.
        994    1    1    2    0    0 -0.61691298249E+01  0.77893021428E+01  0.87061268995E+01  0.17170896318E+03  0.17120000000E+03 0.  0.
        998    1    1    2    0    0 -0.67219965954E+00  0.56176241355E+01  0.14814752097E+04  0.14815197624E+04  0.10000000000E+02 0. -1.
</event>
<event>
 5    1  0.1675361E-008  0.3856969E+03  0.7957747E-01  0.3426722E+00
         13   -1    0    0    0    0  0.00000000000E+00  0.00000000000E+00  0.14999999963E+04  0.15000000000E+04  0.10566000000E+00 0.  1.
        994   -1    0    0    0    0 -0.00000000000E+00 -0.00000000000E+00  0.11368683772E-12  0.17120000000E+03  0.17120000000E+03 0.  0.
         13    1    1    2    0    0 -0.11131292934E+02  0.15176078365E+01  0.52118108372E+02  0.53315262358E+02  0.10566000000E+00 0.  1.
        994    1    1    2    0    0  0.19286908488E+00  0.53240244822E+01  0.13776640229E+01  0.17128841290E+03  0.17120000000E+03 0.  0.
        998    1    1    2    0    0  0.10938423849E+02 -0.68416323187E+01  0.14465042239E+04  0.14465963247E+04  0.10000000000E+02 0.  1.
</event>
<event>
 5    1  0.1675361E-008  0.3853488E+03  0.7957747E-01  0.3428194E+00
         13   -1    0    0    0    0  0.00000000000E+00  0.00000000000E+00  0.14999999963E+04  0.15000000000E+04  0.10566000000E+00 0. -1.
        994   -1    0    0    0    0 -0.00000000000E+00 -0.00000000000E+00  0.11368683772E-12  0.17120000000E+03  0.17120000000E+03 0.  0.
         13    1    1    2    0    0  0.37537599044E+01  0.15244677529E+02  0.88110075539E+02  0.89497974737E+02  0.10566000000E+00 0. -1.
        994    1    1    2    0    0 -0.83601043169E+00 -0.53813381530E+01  0.15545035251E+01  0.17129364902E+03  0.17120000000E+03 0.  0.
        998    1    1    2    0    0 -0.29177494727E+01 -0.98633393758E+01  0.14103354172E+04  0.14104083762E+04  0.10000000000E+02 0. -1.
</event>
<event>
 5    1  0.1675361E-008  0.3858566E+03  0.7957747E-01  0.3426047E+00
         13   -1    0    0    0    0  0.00000000000E+00  0.00000000000E+00  0.14999999963E+04  0.15000000000E+04  0.10566000000E+00 0. -1.
        994   -1    0    0    0    0 -0.00000000000E+00 -0.00000000000E+00  0.11368683772E-12  0.17120000000E+03  0.17120000000E+03 0.  0.
         13    1    1    2    0    0  0.81134746119E+01 -0.11421742062E+02  0.79227401116E+02  0.80456677247E+02  0.10566000000E+00 0. -1.
        994    1    1    2    0    0 -0.21460148621E+02  0.21504639120E+01  0.27324655939E+01  0.17257482100E+03  0.17120000000E+03 0.  0.
        998    1    1    2    0    0  0.13346674009E+02  0.92712781503E+01  0.14180401296E+04  0.14181685018E+04  0.10000000000E+02 0. -1.
</event>
<event>
 5    1  0.2205043E-008  0.3861079E+03  0.7957747E-01  0.3424987E+00
         13   -1    0    0    0    0  0.00000000000E+00  0.00000000000E+00  0.14999999963E+04  0.15000000000E+04  0.10566000000E+00 0.  1.
        994   -1    0    0    0    0 -0.00000000000E+00 -0.00000000000E+00  0.11368683772E-12  0.17120000000E+03  0.17120000000E+03 0.  0.
         13    1    1    2    0    0 -0.10511338030E+02 -0.46606851805E+01  0.64060502640E+02  0.65084325118E+02  0.10566000000E+00 0.  1.
        994    1    1    2    0    0  0.44612307640E+01 -0.16364100272E+01  0.11550701446E+01  0.17126982981E+03  0.17120000000E+03 0.  0.
        998    1    1    2    0    0  0.60501072661E+01  0.62970952076E+01  0.14347844235E+04  0.14348458451E+04  0.10000000000E+02 0.  1.
</event>
<event>
 5    1  0.1675361E-008  0.3774513E+03  0.7957747E-01  0.3462332E+00
         13   -1    0    0    0    0  0.00000000000E+00  0.00000000000E+00  0.14999999963E+04  0.15000000000E+04  0.10566000000E+00 0.  1.
        994   -1    0    0    0    0 -0.00000000000E+00 -0.00000000000E+00  0.11368683772E-12  0.17120000000E+03  0.17120000000E+03 0.  0.
         13    1    1    2    0    0  0.10374604492E+03 -0.56156194233E+02  0.61368244001E+03  0.62491832133E+03  0.10566000000E+00 0.  1.
        994    1    1    2    0    0 -0.39590178183E+02  0.99182590188E+01  0.20938119050E+02  0.17723881883E+03  0.17120000000E+03 0.  0.
        998    1    1    2    0    0 -0.64155866733E+02  0.46237935214E+02  0.86537943722E+03  0.86904285984E+03  0.10000000000E+02 0.  1.
</event>
<event>
 5    1  0.1675361E-008  0.3762558E+03  0.7957747E-01  0.3467626E+00
         13   -1    0    0    0    0  0.00000000000E+00  0.00000000000E+00  0.14999999963E+04  0.15000000000E+04  0.10566000000E+00 0. -1.
        994   -1    0    0    0    0 -0.00000000000E+00 -0.00000000000E+00  0.11368683772E-12  0.17120000000E+03  0.17120000000E+03 0.  0.
         13    1    1    2    0    0  0.14290217049E+02  0.17082830533E+01  0.14361289496E+02  0.20331904346E+02  0.10566000000E+00 0. -1.
        994    1    1    2    0    0 -0.14656047706E+02 -0.17067606787E+01  0.67725444720E+01  0.17196807880E+03  0.17120000000E+03 0.  0.
        998    1    1    2    0    0  0.36583065683E+00 -0.15223745524E-02  0.14788661623E+04  0.14789000169E+04  0.10000000000E+02 0. -1.
</event>
<event>
 5    1  0.1675361E-008  0.3849121E+03  0.7957747E-01  0.3430045E+00
         13   -1    0    0    0    0  0.00000000000E+00  0.00000000000E+00  0.14999999963E+04  0.15000000000E+04  0.10566000000E+00 0.  1.
        994   -1    0    0    0    0 -0.00000000000E+00 -0.00000000000E+00  0.11368683772E-12  0.17120000000E+03  0.17120000000E+03 0.  0.
         13    1    1    2    0    0 -0.17457552634E+02  0.65167623340E+01  0.10264369995E+03  0.10432149653E+03  0.10566000000E+00 0.  1.
        994    1    1    2    0    0  0.13835606485E+02 -0.73562162326E+00  0.23055168351E+01  0.17177520355E+03  0.17120000000E+03 0.  0.
        998    1    1    2    0    0  0.36219461489E+01 -0.57811407107E+01  0.13950507795E+04  0.13951032999E+04  0.10000000000E+02 0.  1.
</event>
<event>
 5    1  0.1675361E-008  0.3836033E+03  0.7957747E-01  0.3435618E+00
         13   -1    0    0    0    0  0.00000000000E+00  0.00000000000E+00  0.14999999963E+04  0.15000000000E+04  0.10566000000E+00 0.  1.
        994   -1    0    0    0    0 -0.00000000000E+00 -0.00000000000E+00  0.11368683772E-12  0.17120000000E+03  0.17120000000E+03 0.  0.
         13    1    1    2    0    0  0.52669356791E+01  0.21252954399E+02  0.10221140773E+03  0.10453043440E+03  0.10566000000E+00 0.  1.
        994    1    1    2    0    0  0.10084999491E+02 -0.17285633017E+02  0.36493983169E+01  0.17240434574E+03  0.17120000000E+03 0.  0.
        998    1    1    2    0    0 -0.15351935171E+02 -0.39673213822E+01  0.13941391902E+04  0.13942652199E+04  0.10000000000E+02 0.  1.
</event>
<event>
 5    1  0.1675361E-008  0.3819776E+03  0.7957747E-01  0.3442593E+00
         13   -1    0    0    0    0  0.00000000000E+00  0.00000000000E+00  0.14999999963E+04  0.15000000000E+04  0.10566000000E+00 0.  1.
        994   -1    0    0    0    0 -0.00000000000E+00 -0.00000000000E+00  0.11368683772E-12  0.17120000000E+03  0.17120000000E+03 0.  0.
         13    1    1    2    0    0 -0.77799389054E+01 -0.82490901351E+01  0.19154371492E+02  0.22259291290E+02  0.10566000000E+00 0.  1.
        994    1    1    2    0    0  0.93398292328E+01  0.42000887990E+01  0.34865827878E+01  0.17154145101E+03  0.17120000000E+03 0.  0.
        998    1    1    2    0    0 -0.15598903274E+01  0.40490013361E+01  0.14773590420E+04  0.14773992577E+04  0.10000000000E+02 0.  1.
</event>
<event>
 5    1  0.1675361E-008  0.3721316E+03  0.7957747E-01  0.3486151E+00
         13   -1    0    0    0    0  0.00000000000E+00  0.00000000000E+00  0.14999999963E+04  0.15000000000E+04  0.10566000000E+00 0. -1.
        994   -1    0    0    0    0 -0.00000000000E+00 -0.00000000000E+00  0.11368683772E-12  0.17120000000E+03  0.17120000000E+03 0.  0.
         13    1    1    2    0    0  0.24555514340E+02  0.22862817247E+01  0.34207699455E+02  0.42170822078E+02  0.10566000000E+00 0. -1.
        994    1    1    2    0    0 -0.12020091712E+02 -0.21394053818E+02  0.10228856078E+02  0.17325200617E+03  0.17120000000E+03 0.  0.
        998    1    1    2    0    0 -0.12535422628E+02  0.19107772094E+02  0.14555634407E+04  0.14557771718E+04  0.10000000000E+02 0. -1.
</event>
<event>
 5    1  0.1675361E-008  0.4188175E+03  0.7957747E-01  0.3297799E+00
         13   -1    0    0    0    0  0.00000000000E+00  0.00000000000E+00  0.14999999963E+04  0.15000000000E+04  0.10566000000E+00 0.  1.
        994   -1    0    0    0    0 -0.00000000000E+00 -0.00000000000E+00  0.11368683772E-12  0.17120000000E+03  0.17120000000E+03 0.  0.
         13    1    1    2    0    0  0.47343300870E+01 -0.66284575905E+02  0.42295959651E+02  0.78771938221E+02  0.10566000000E+00 0.  1.
        994    1    1    2    0    0 -0.94988326001E+01  0.57715790127E+02  0.54209385923E+02  0.18886354273E+03  0.17120000000E+03 0.  0.
        998    1    1    2    0    0  0.47645025131E+01  0.85687857783E+01  0.14034946507E+04  0.14035645190E+04  0.10000000000E+02 0.  1.
</event>
<event>
 5    1  0.1675361E-008  0.3754662E+03  0.7957747E-01  0.3471140E+00
         13   -1    0    0    0    0  0.00000000000E+00  0.00000000000E+00  0.14999999963E+04  0.15000000000E+04  0.10566000000E+00 0. -1.
        994   -1    0    0    0    0 -0.00000000000E+00 -0.00000000000E+00  0.11368683772E-12  0.17120000000E+03  0.17120000000E+03 0.  0.
         13    1    1    2    0    0 -0.23750074249E+02  0.38669242633E+01  0.44742781320E+02  0.50803019343E+02  0.10566000000E+00 0. -1.
        994    1    1    2    0    0 -0.20067182158E+01 -0.33507257237E+01  0.64913050429E+01  0.17136753287E+03  0.17120000000E+03 0.  0.
        998    1    1    2    0    0  0.25756792465E+02 -0.51619853965E+00  0.14487659099E+04  0.14490294478E+04  0.10000000000E+02 0. -1.
</event>
<event>
 5    1  0.1675361E-008  0.3841484E+03  0.7957747E-01  0.3433292E+00
         13   -1    0    0    0    0  0.00000000000E+00  0.00000000000E+00  0.14999999963E+04  0.15000000000E+04  0.10566000000E+00 0. -1.
        994   -1    0    0    0    0 -0.00000000000E+00 -0.00000000000E+00  0.11368683772E-12  0.17120000000E+03  0.17120000000E+03 0.  0.
         13    1    1    2    0    0  0.96212226183E+01 -0.17238925459E+02  0.10405110591E+03  0.10590747037E+03  0.10566000000E+00 0. -1.
        994    1    1    2    0    0 -0.31519586731E+01 -0.24752925892E+01  0.21065086481E+01  0.17125985897E+03  0.17120000000E+03 0.  0.
        998    1    1    2    0    0 -0.64692639452E+01  0.19714218049E+02  0.13938423817E+04  0.13940326707E+04  0.10000000000E+02 0. -1.
</event>
<event>
 5    1  0.1675361E-008  0.3277873E+03  0.7957747E-01  0.3715658E+00
         13   -1    0    0    0    0  0.00000000000E+00  0.00000000000E+00  0.14999999963E+04  0.15000000000E+04  0.10566000000E+00 0. -1.
        994   -1    0    0    0    0 -0.00000000000E+00 -0.00000000000E+00  0.11368683772E-12  0.17120000000E+03  0.17120000000E+03 0.  0.
         13    1    1    2    0    0 -0.11308329681E+03 -0.11415206930E+03  0.96893672283E+03  0.98216949196E+03  0.10566000000E+00 0. -1.
        994    1    1    2    0    0  0.96553941472E+02  0.57755634602E+02  0.58957018790E+02  0.21317539025E+03  0.17120000000E+03 0.  0.
        998    1    1    2    0    0  0.16529355336E+02  0.56396434693E+02  0.47210625466E+03  0.47585511779E+03  0.10000000000E+02 0. -1.
</event>
<event>
 5    1  0.1675361E-008  0.3693098E+03  0.7957747E-01  0.3499069E+00
         13   -1    0    0    0    0  0.00000000000E+00  0.00000000000E+00  0.14999999963E+04  0.15000000000E+04  0.10566000000E+00 0. -1.
        994   -1    0    0    0    0 -0.00000000000E+00 -0.00000000000E+00  0.11368683772E-12  0.17120000000E+03  0.17120000000E+03 0.  0.
         13    1    1    2    0    0  0.38545533886E+02 -0.21152667588E+02  0.62828083401E+02  0.76684892622E+02  0.10566000000E+00 0. -1.
        994    1    1    2    0    0 -0.13364752950E+03  0.28239418603E+02  0.78798055761E+02  0.23276103732E+03  0.17120000000E+03 0.  0.
        998    1    1    2    0    0  0.95101995614E+02 -0.70867510156E+01  0.13583738571E+04  0.13617540701E+04  0.10000000000E+02 0. -1.
</event>
<event>
 5    1  0.1675361E-008  0.3735348E+03  0.7957747E-01  0.3479801E+00
         13   -1    0    0    0    0  0.00000000000E+00  0.00000000000E+00  0.14999999963E+04  0.15000000000E+04  0.10566000000E+00 0.  1.
        994   -1    0    0    0    0 -0.00000000000E+00 -0.00000000000E+00  0.11368683772E-12  0.17120000000E+03  0.17120000000E+03 0.  0.
         13    1    1    2    0    0 -0.10266884810E+02  0.17174884401E+02  0.99159355341E+01  0.22332096172E+02  0.10566000000E+00 0.  1.
        994    1    1    2    0    0  0.99829449749E+01 -0.14423759104E+02  0.13910191542E+02  0.17265757280E+03  0.17120000000E+03 0.  0.
        998    1    1    2    0    0  0.28393983550E+00 -0.27511252963E+01  0.14761738692E+04  0.14762103310E+04  0.10000000000E+02 0.  1.
</event>
<event>
 5    1  0.1675361E-008  0.3707785E+03  0.7957747E-01  0.3492321E+00
         13   -1    0    0    0    0  0.00000000000E+00  0.00000000000E+00  0.14999999963E+04  0.15000000000E+04  0.10566000000E+00 0. -1.
        994   -1    0    0    0    0 -0.00000000000E+00 -0.00000000000E+00  0.11368683772E-12  0.17120000000E+03  0.17120000000E+03 0.  0.
         13    1    1    2    0    0  0.19601047244E+02 -0.54236967590E+01  0.19592514386E+02  0.28239959695E+02  0.10566000000E+00 0. -1.
        994    1    1    2    0    0 -0.15032877895E+02 -0.40860014192E+01  0.97000351060E+01  0.17218075824E+03  0.17120000000E+03 0.  0.
        998    1    1    2    0    0 -0.45681693495E+01  0.95096981783E+01  0.14707074468E+04  0.14707792821E+04  0.10000000000E+02 0. -1.
</event>
<event>
 5    1  0.1675361E-008  0.2123947E+03  0.7957747E-01  0.4825792E+00
         13   -1    0    0    0    0  0.00000000000E+00  0.00000000000E+00  0.14999999963E+04  0.15000000000E+04  0.10566000000E+00 0. -1.
        994   -1    0    0    0    0 -0.00000000000E+00 -0.00000000000E+00  0.11368683772E-12  0.17120000000E+03  0.17120000000E+03 0.  0.
         13    1    1    2    0    0  0.10445423067E+03 -0.66901914100E+02  0.89646523569E+02  0.15304594985E+03  0.10566000000E+00 0. -1.
        994    1    1    2    0    0 -0.84665219147E+02 -0.22693388644E+02  0.12476667042E+03  0.22925826325E+03  0.17120000000E+03 0.  0.
        998    1    1    2    0    0 -0.19789011521E+02  0.89595302743E+02  0.12855868023E+04  0.12888957869E+04  0.10000000000E+02 0. -1.
</event>
<event>
 5    1  0.1675361E-008  0.3842296E+03  0.7957747E-01  0.3432946E+00
         13   -1    0    0    0    0  0.00000000000E+00  0.00000000000E+00  0.14999999963E+04  0.15000000000E+04  0.10566000000E+00 0.  1.
        994   -1    0    0    0    0 -0.00000000000E+00 -0.00000000000E+00  0.11368683772E-12  0.17120000000E+03  0.17120000000E+03 0.  0.
         13    1    1    2    0    0 -0.77930361449E+01 -0.13553416768E+02  0.63726726456E+02  0.65616563056E+02  0.10566000000E+00 0.  1.
        994    1    1    2    0    0  0.44277973361E+01 -0.16094561876E+01  0.20863122222E+01  0.17127751877E+03  0.17120000000E+03 0.  0.
        998    1    1    2    0    0  0.33652388088E+01  0.15162872955E+02  0.14341869576E+04  0.14343059182E+04  0.10000000000E+02 0.  1.
</event>
<event>
 5    1  0.1675361E-008  0.3707201E+03  0.7957747E-01  0.3492588E+00
         13   -1    0    0    0    0  0.00000000000E+00  0.00000000000E+00  0.14999999963E+04  0.15000000000E+04  0.10566000000E+00 0.  1.
        994   -1    0    0    0    0 -0.00000000000E+00 -0.00000000000E+00  0.11368683772E-12  0.17120000000E+03  0.17120000000E+03 0.  0.
         13    1    1    2    0    0  0.15028538085E+02 -0.17849014014E+02  0.26879161648E+02  0.35594167404E+02  0.10566000000E+00 0.  1.
        994    1    1    2    0    0 -0.83724856582E+01  0.15033677256E+02  0.99150955445E+01  0.17234807538E+03  0.17120000000E+03 0.  0.
        998    1    1    2    0    0 -0.66560524267E+01  0.28153367577E+01  0.14632057391E+04  0.14632577572E+04  0.10000000000E+02 0.  1.
</event>
<event>
 5    1  0.1675361E-008  0.3834258E+03  0.7957747E-01  0.3436376E+00
         13   -1    0    0    0    0  0.00000000000E+00  0.00000000000E+00  0.14999999963E+04  0.15000000000E+04  0.10566000000E+00 0. -1.
        994   -1    0    0    0    0 -0.00000000000E+00 -0.00000000000E+00  0.11368683772E-12  0.17120000000E+03  0.17120000000E+03 0.  0.
         13    1    1    2    0    0  0.37869432767E+01 -0.23872814450E+02  0.12380110887E+03  0.12613872494E+03  0.10566000000E+00 0. -1.
        994    1    1    2    0    0 -0.49287322656E+01  0.10340305776E+02  0.28475816189E+01  0.17160641901E+03  0.17120000000E+03 0.  0.
        998    1    1    2    0    0  0.11417889889E+01  0.13532508673E+02  0.13733513058E+04  0.13734548560E+04  0.10000000000E+02 0. -1.
</event>
<event>
 5    1  0.1675361E-008  0.3836421E+03  0.7957747E-01  0.3435452E+00
         13   -1    0    0    0    0  0.00000000000E+00  0.00000000000E+00  0.14999999963E+04  0.15000000000E+04  0.10566000000E+00 0.  1.
        994   -1    0    0    0    0 -0.00000000000E+00 -0.00000000000E+00  0.11368683772E-12  0.17120000000E+03  0.17120000000E+03 0.  0.
         13    1    1    2    0    0  0.10456930310E+02 -0.11922712101E+02  0.52906390644E+02  0.55232198855E+02  0.10566000000E+00 0.  1.
        994    1    1    2    0    0 -0.94043015900E+01  0.10987215652E+02  0.29970303138E+01  0.17183591588E+03  0.17120000000E+03 0.  0.
        998    1    1    2    0    0 -0.10526287199E+01  0.93549644862E+00  0.14440965753E+04  0.14441318853E+04  0.10000000000E+02 0.  0.
</event>
<event>
 5    1  0.1675361E-008  0.3852971E+03  0.7957747E-01  0.3428413E+00
         13   -1    0    0    0    0  0.00000000000E+00  0.00000000000E+00  0.14999999963E+04  0.15000000000E+04  0.10566000000E+00 0.  1.
        994   -1    0    0    0    0 -0.00000000000E+00 -0.00000000000E+00  0.11368683772E-12  0.17120000000E+03  0.17120000000E+03 0.  0.
         13    1    1    2    0    0  0.14619799639E+02  0.51166073395E+01  0.83579202229E+02  0.85002425974E+02  0.10566000000E+00 0.  1.
        994    1    1    2    0    0 -0.57917025859E+01 -0.21722016377E+01  0.16084266978E+01  0.17131926137E+03  0.17120000000E+03 0.  0.
        998    1    1    2    0    0 -0.88280970530E+01 -0.29444057018E+01  0.14148123674E+04  0.14148783127E+04  0.10000000000E+02 0.  1.
</event>
<event>
 5    1  0.1675361E-008  0.3754784E+03  0.7957747E-01  0.3471086E+00
         13   -1    0    0    0    0  0.00000000000E+00  0.00000000000E+00  0.14999999963E+04  0.15000000000E+04  0.10566000000E+00 0.  1.
        994   -1    0    0    0    0 -0.00000000000E+00 -0.00000000000E+00  0.11368683772E-12  0.17120000000E+03  0.17120000000E+03 0.  0.
         13    1    1    2    0    0  0.15873889527E+02 -0.62327301167E+01  0.19388136148E+02  0.25821275738E+02  0.10566000000E+00 0.  1.
        994    1    1    2    0    0 -0.19548398557E+02  0.91483859723E+01  0.80157691168E+01  0.17274120935E+03  0.17120000000E+03 0.  0.
        998    1    1    2    0    0  0.36745090299E+01 -0.29156558556E+01  0.14725960910E+04  0.14726375149E+04  0.10000000000E+02 0.  1.
</event>
<event>
 5    1  0.1675361E-008  0.3743614E+03  0.7957747E-01  0.3476084E+00
         13   -1    0    0    0    0  0.00000000000E+00  0.00000000000E+00  0.14999999963E+04  0.15000000000E+04  0.10566000000E+00 0.  1.
        994   -1    0    0    0    0 -0.00000000000E+00 -0.00000000000E+00  0.11368683772E-12  0.17120000000E+03  0.17120000000E+03 0.  0.
         13    1    1    2    0    0  0.21411615268E+01  0.24918009367E+02  0.36573461806E+02  0.44307121730E+02  0.10566000000E+00 0.  1.
        994    1    1    2    0    0 -0.23408200660E+02 -0.61471328985E+02  0.21891970677E+02  0.18470345564E+03  0.17120000000E+03 0.  0.
        998    1    1    2    0    0  0.21267039133E+02  0.36553319618E+02  0.14415345638E+04  0.14421894226E+04  0.10000000000E+02 0.  1.
</event>
<event>
 5    1  0.1675361E-008  0.3835255E+03  0.7957747E-01  0.3435950E+00
         13   -1    0    0    0    0  0.00000000000E+00  0.00000000000E+00  0.14999999963E+04  0.15000000000E+04  0.10566000000E+00 0.  1.
        994   -1    0    0    0    0 -0.00000000000E+00 -0.00000000000E+00  0.11368683772E-12  0.17120000000E+03  0.17120000000E+03 0.  0.
         13    1    1    2    0    0 -0.38781533849E+01 -0.20082794278E+02  0.89357486604E+02  0.91668589364E+02  0.10566000000E+00 0.  1.
        994    1    1    2    0    0  0.24240430630E+02  0.63929824647E+01  0.44434910054E+01  0.17308279324E+03  0.17120000000E+03 0.  0.
        998    1    1    2    0    0 -0.20362277245E+02  0.13689811814E+02  0.14061990187E+04  0.14064486174E+04  0.10000000000E+02 0.  1.
</event>
<event>
 5    1  0.1675361E-008  0.3764227E+03  0.7957747E-01  0.3466884E+00
         13   -1    0    0    0    0  0.00000000000E+00  0.00000000000E+00  0.14999999963E+04  0.15000000000E+04  0.10566000000E+00 0.  1.
        994   -1    0    0    0    0 -0.00000000000E+00 -0.00000000000E+00  0.11368683772E-12  0.17120000000E+03  0.17120000000E+03 0.  0.
         13    1    1    2    0    0 -0.56305760714E+02  0.29341634922E+02  0.26139206009E+03  0.26899273312E+03  0.10566000000E+00 0.  1.
        994    1    1    2    0    0  0.10055651712E+03  0.23754236148E+02  0.42965738461E+02  0.20452719025E+03  0.17120000000E+03 0.  0.
        998    1    1    2    0    0 -0.44250756405E+02 -0.53095871070E+02  0.11956421977E+04  0.11976800766E+04  0.10000000000E+02 0.  1.
</event>
<event>
 5    1  0.4683436E-008  0.3865239E+03  0.7957747E-01  0.3423235E+00
         13   -1    0    0    0    0  0.00000000000E+00  0.00000000000E+00  0.14999999963E+04  0.15000000000E+04  0.10566000000E+00 0. -1.
        994   -1    0    0    0    0 -0.00000000000E+00 -0.00000000000E+00  0.11368683772E-12  0.17120000000E+03  0.17120000000E+03 0.  0.
         13    1    1    2    0    0  0.49362202648E+01  0.94097655095E+01  0.63053216344E+02  0.63942389796E+02  0.10566000000E+00 0. -1.
        994    1    1    2    0    0 -0.70967311765E+01 -0.10339215641E+02  0.13902368034E+01  0.17166431118E+03  0.17120000000E+03 0.  0.
        998    1    1    2    0    0  0.21605109117E+01  0.92945013144E+00  0.14355565431E+04  0.14355932990E+04  0.10000000000E+02 0. -1.
</event>
<event>
 5    1  0.1675361E-008  0.3749265E+03  0.7957747E-01  0.3473552E+00
         13   -1    0    0    0    0  0.00000000000E+00  0.00000000000E+00  0.14999999963E+04  0.15000000000E+04  0.10566000000E+00 0.  1.
        994   -1    0    0    0    0 -0.00000000000E+00 -0.00000000000E+00  0.11368683772E-12  0.17120000000E+03  0.17120000000E+03 0.  0.
         13    1    1    2    0    0 -0.10494349511E+03  0.30185773946E+01  0.47082394271E+03  0.48238723571E+03  0.10566000000E+00 0.  1.
        994    1    1    2    0    0  0.12185265627E+03  0.25725143433E+02  0.61426399945E+02  0.22043705554E+03  0.17120000000E+03 0.  0.
        998    1    1    2    0    0 -0.16909161159E+02 -0.28743720828E+02  0.96774965362E+03  0.96837570875E+03  0.10000000000E+02 0.  1.
</event>
<event>
 5    1  0.1675361E-008  0.3740887E+03  0.7957747E-01  0.3477309E+00
         13   -1    0    0    0    0  0.00000000000E+00  0.00000000000E+00  0.14999999963E+04  0.15000000000E+04  0.10566000000E+00 0. -1.
        994   -1    0    0    0    0 -0.00000000000E+00 -0.00000000000E+00  0.11368683772E-12  0.17120000000E+03  0.17120000000E+03 0.  0.
         13    1    1    2    0    0 -0.35728144502E+02  0.90865540341E+02  0.27019077395E+03  0.28729098876E+03  0.10566000000E+00 0. -1.
        994    1    1    2    0    0  0.22187470525E+02 -0.11054182349E+03  0.59691464563E+02  0.21350477637E+03  0.17120000000E+03 0.  0.
        998    1    1    2    0    0  0.13540673977E+02  0.19676283153E+02  0.11701177578E+04  0.11704042349E+04  0.10000000000E+02 0. -1.
</event>
<event>
 5    1  0.1675361E-008  0.3836888E+03  0.7957747E-01  0.3435252E+00
         13   -1    0    0    0    0  0.00000000000E+00  0.00000000000E+00  0.14999999963E+04  0.15000000000E+04  0.10566000000E+00 0.  1.
        994   -1    0    0    0    0 -0.00000000000E+00 -0.00000000000E+00  0.11368683772E-12  0.17120000000E+03  0.17120000000E+03 0.  0.
         13    1    1    2    0    0  0.21564354005E+02  0.14471616181E+02  0.14564700868E+03  0.14794428458E+03  0.10566000000E+00 0.  1.
        994    1    1    2    0    0 -0.13794819002E+02 -0.98448929701E+01  0.32316836729E+01  0.17206714599E+03  0.17120000000E+03 0.  0.
        998    1    1    2    0    0 -0.77695350033E+01 -0.46267232105E+01  0.13511213039E+04  0.13511885694E+04  0.10000000000E+02 0.  1.
</event>
<event>
 5    1  0.1675361E-008  0.3850614E+03  0.7957747E-01  0.3429412E+00
         13   -1    0    0    0    0  0.00000000000E+00  0.00000000000E+00  0.14999999963E+04  0.15000000000E+04  0.10566000000E+00 0.  1.
        994   -1    0    0    0    0 -0.00000000000E+00 -0.00000000000E+00  0.11368683772E-12  0.17120000000E+03  0.17120000000E+03 0.  0.
         13    1    1    2    0    0  0.92815057357E+01  0.13335177571E+02  0.87630489946E+02  0.89123999247E+02  0.10566000000E+00 0.  1.
        994    1    1    2    0    0  0.15985131383E+01 -0.43578396689E+01  0.16705278686E+01  0.17127106199E+03  0.17120000000E+03 0.  0.
        998    1    1    2    0    0 -0.10880018874E+02 -0.89773379021E+01  0.14106989785E+04  0.14108049388E+04  0.10000000000E+02 0.  1.
</event>
<event>
 5    1  0.1675361E-008  0.3787020E+03  0.7957747E-01  0.3456830E+00
         13   -1    0    0    0    0  0.00000000000E+00  0.00000000000E+00  0.14999999963E+04  0.15000000000E+04  0.10566000000E+00 0. -1.
        994   -1    0    0    0    0 -0.00000000000E+00 -0.00000000000E+00  0.11368683772E-12  0.17120000000E+03  0.17120000000E+03 0.  0.
         13    1    1    2    0    0 -0.20759593234E+02  0.17357904071E+02  0.85119519158E+02  0.89317418517E+02  0.10566000000E+00 0. -1.
        994    1    1    2    0    0 -0.35423267393E+02 -0.25519723159E+02  0.11215872421E+02  0.17703474218E+03  0.17120000000E+03 0.  0.
        998    1    1    2    0    0  0.56182860627E+02  0.81618190878E+01  0.14036646047E+04  0.14048478393E+04  0.10000000000E+02 0. -1.
</event>
<event>
 5    1  0.1675361E-008  0.4083089E+03  0.7957747E-01  0.3336457E+00
         13   -1    0    0    0    0  0.00000000000E+00  0.00000000000E+00  0.14999999963E+04  0.15000000000E+04  0.10566000000E+00 0. -1.
        994   -1    0    0    0    0 -0.00000000000E+00 -0.00000000000E+00  0.11368683772E-12  0.17120000000E+03  0.17120000000E+03 0.  0.
         13    1    1    2    0    0 -0.40053366777E+02 -0.76436726739E+02  0.11201575246E+03  0.14140150405E+03  0.10566000000E+00 0. -1.
        994    1    1    2    0    0 -0.28473777862E+02  0.55205278021E+02  0.48649154393E+02  0.18850612449E+03  0.17120000000E+03 0.  0.
        998    1    1    2    0    0  0.68527144639E+02  0.21231448719E+02  0.13393350894E+04  0.13412923715E+04  0.10000000000E+02 0. -1.
</event>
<event>
 5    1  0.1675361E-008  0.3846315E+03  0.7957747E-01  0.3431237E+00
         13   -1    0    0    0    0  0.00000000000E+00  0.00000000000E+00  0.14999999963E+04  0.15000000000E+04  0.10566000000E+00 0.  1.
        994   -1    0    0    0    0 -0.00000000000E+00 -0.00000000000E+00  0.11368683772E-12  0.17120000000E+03  0.17120000000E+03 0.  0.
         13    1    1    2    0    0  0.11385747240E+02  0.11614651019E+02  0.71032594231E+02  0.72870954198E+02  0.10566000000E+00 0.  1.
        994    1    1    2    0    0 -0.10214186694E+02 -0.10283152210E+02  0.25052084320E+01  0.17183069836E+03  0.17120000000E+03 0.  0.
        998    1    1    2    0    0 -0.11715605461E+01 -0.13314988088E+01  0.14264621936E+04  0.14264983474E+04  0.10000000000E+02 0.  1.
</event>
<event>
 5    1  0.1675361E-008  0.3843587E+03  0.7957747E-01  0.3432397E+00
         13   -1    0    0    0    0  0.00000000000E+00  0.00000000000E+00  0.14999999963E+04  0.15000000000E+04  0.10566000000E+00 0.  1.
        994   -1    0    0    0    0 -0.00000000000E+00 -0.00000000000E+00  0.11368683772E-12  0.17120000000E+03  0.17120000000E+03 0.  0.
         13    1    1    2    0    0 -0.12355485812E+02  0.93829401806E+01  0.61974639237E+02  0.63887124436E+02  0.10566000000E+00 0.  1.
        994    1    1    2    0    0  0.82227073635E+01 -0.35884710308E+01  0.22141568351E+01  0.17144921269E+03  0.17120000000E+03 0.  0.
        998    1    1    2    0    0  0.41327784490E+01 -0.57944691498E+01  0.14358112002E+04  0.14358636629E+04  0.10000000000E+02 0.  1.
</event>
<event>
 5    1  0.1675361E-008  0.3827391E+03  0.7957747E-01  0.3439318E+00
         13   -1    0    0    0    0  0.00000000000E+00  0.00000000000E+00  0.14999999963E+04  0.15000000000E+04  0.10566000000E+00 0. -1.
        994   -1    0    0    0    0 -0.00000000000E+00 -0.00000000000E+00  0.11368683772E-12  0.17120000000E+03  0.17120000000E+03 0.  0.
         13    1    1    2    0    0 -0.31476668223E+01 -0.17443339701E+02  0.56569723972E+02  0.59281723495E+02  0.10566000000E+00 0. -1.
        994    1    1    2    0    0 -0.11762977517E+02  0.12312145088E+02  0.37179972522E+01  0.17208492107E+03  0.17120000000E+03 0.  0.
        998    1    1    2    0    0  0.14910644339E+02  0.51311946133E+01  0.14397122751E+04  0.14398333554E+04  0.10000000000E+02 0. -1.
</event>
<event>
 5    1  0.1675361E-008  0.3706451E+03  0.7957747E-01  0.3492931E+00
         13   -1    0    0    0    0  0.00000000000E+00  0.00000000000E+00  0.14999999963E+04  0.15000000000E+04  0.10566000000E+00 0. -1.
        994   -1    0    0    0    0 -0.00000000000E+00 -0.00000000000E+00  0.11368683772E-12  0.17120000000E+03  0.17120000000E+03 0.  0.
         13    1    1    2    0    0  0.47218507360E+02  0.12483068800E+03  0.47426010233E+03  0.49268138176E+03  0.10566000000E+00 0. -1.
        994    1    1    2    0    0 -0.37259690015E+02 -0.16311261164E+03  0.11272883591E+03  0.26459637001E+03  0.17120000000E+03 0.  0.
        998    1    1    2    0    0 -0.99588173444E+01  0.38281923636E+02  0.91301105804E+03  0.91392224823E+03  0.10000000000E+02 0. -1.
</event>
<event>
 5    1  0.1675361E-008  0.3792385E+03  0.7957747E-01  0.3454481E+00
         13   -1    0    0    0    0  0.00000000000E+00  0.00000000000E+00  0.14999999963E+04  0.15000000000E+04  0.10566000000E+00 0. -1.
        994   -1    0    0    0    0 -0.00000000000E+00 -0.00000000000E+00  0.11368683772E-12  0.17120000000E+03  0.17120000000E+03 0.  0.
         13    1    1    2    0    0  0.12979194526E+02 -0.74358304521E+01  0.21826557273E+02  0.26460552365E+02  0.10566000000E+00 0. -1.
        994    1    1    2    0    0 -0.26027107175E+02  0.10443125442E+02  0.71582664452E+01  0.17362934647E+03  0.17120000000E+03 0.  0.
        998    1    1    2    0    0  0.13047912649E+02 -0.30072949894E+01  0.14710151726E+04  0.14711101012E+04  0.10000000000E+02 0. -1.
</event>
<event>
 5    1  0.1675361E-008  0.3783227E+03  0.7957747E-01  0.3458495E+00
         13   -1    0    0    0    0  0.00000000000E+00  0.00000000000E+00  0.14999999963E+04  0.15000000000E+04  0.10566000000E+00 0. -1.
        994   -1    0    0    0    0 -0.00000000000E+00 -0.00000000000E+00  0.11368683772E-12  0.17120000000E+03  0.17120000000E+03 0.  0.
         13    1    1    2    0    0  0.20543463080E+02 -0.11542344682E+02  0.51849083720E+02  0.56952596453E+02  0.10566000000E+00 0. -1.
        994    1    1    2    0    0 -0.18284024346E+02  0.20223859125E+02  0.74849445219E+01  0.17351880134E+03  0.17120000000E+03 0.  0.
        998    1    1    2    0    0 -0.22594387343E+01 -0.86815144426E+01  0.14406659680E+04  0.14407286022E+04  0.10000000000E+02 0. -1.
</event>
<event>
 5    1  0.1675361E-008  0.3702193E+03  0.7957747E-01  0.3494884E+00
         13   -1    0    0    0    0  0.00000000000E+00  0.00000000000E+00  0.14999999963E+04  0.15000000000E+04  0.10566000000E+00 0. -1.
        994   -1    0    0    0    0 -0.00000000000E+00 -0.00000000000E+00  0.11368683772E-12  0.17120000000E+03  0.17120000000E+03 0.  0.
         13    1    1    2    0    0 -0.82280401174E+02  0.36287693594E+02  0.39792928407E+03  0.40796395357E+03  0.10566000000E+00 0. -1.
        994    1    1    2    0    0  0.49774619291E+02 -0.48601864442E+02  0.26066530142E+02  0.18662410870E+03  0.17120000000E+03 0.  0.
        998    1    1    2    0    0  0.32505781883E+02  0.12314170848E+02  0.10760041821E+04  0.10766119377E+04  0.10000000000E+02 0. -1.
</event>
<event>
 5    1  0.1675361E-008  0.3858665E+03  0.7957747E-01  0.3426006E+00
         13   -1    0    0    0    0  0.00000000000E+00  0.00000000000E+00  0.14999999963E+04  0.15000000000E+04  0.10566000000E+00 0. -1.
        994   -1    0    0    0    0 -0.00000000000E+00 -0.00000000000E+00  0.11368683772E-12  0.17120000000E+03  0.17120000000E+03 0.  0.
         13    1    1    2    0    0  0.66715190200E+01 -0.10997890467E+02  0.76470708278E+02  0.77545103967E+02  0.10566000000E+00 0. -1.
        994    1    1    2    0    0  0.48289271926E+01 -0.72469432982E+00  0.12787453446E+01  0.17127439654E+03  0.17120000000E+03 0.  0.
        998    1    1    2    0    0 -0.11500446213E+02  0.11722584797E+02  0.14222505427E+04  0.14223804995E+04  0.10000000000E+02 0. -1.
</event>
<event>
 5    1  0.1675361E-008  0.3862206E+03  0.7957747E-01  0.3424512E+00
         13   -1    0    0    0    0  0.00000000000E+00  0.00000000000E+00  0.14999999963E+04  0.15000000000E+04  0.10566000000E+00 0. -1.
        994   -1    0    0    0    0 -0.00000000000E+00 -0.00000000000E+00  0.11368683772E-12  0.17120000000E+03  0.17120000000E+03 0.  0.
         13    1    1    2    0    0  0.79787546383E+00  0.11122870774E+02  0.59831580602E+02  0.60862008354E+02  0.10566000000E+00 0. -1.
        994    1    1    2    0    0 -0.55469183938E+00 -0.11297440902E+02  0.14445379503E+01  0.17157933018E+03  0.17120000000E+03 0.  0.
        998    1    1    2    0    0 -0.24318362445E+00  0.17457012738E+00  0.14387238777E+04  0.14387586615E+04  0.10000000000E+02 0. -1.
</event>
<event>
 5    1  0.1675361E-008  0.3841433E+03  0.7957747E-01  0.3433314E+00
         13   -1    0    0    0    0  0.00000000000E+00  0.00000000000E+00  0.14999999963E+04  0.15000000000E+04  0.10566000000E+00 0. -1.
        994   -1    0    0    0    0 -0.00000000000E+00 -0.00000000000E+00  0.11368683772E-12  0.17120000000E+03  0.17120000000E+03 0.  0.
         13    1    1    2    0    0  0.35141511627E+02 -0.52602588452E+01  0.26823835818E+02  0.44521067985E+02  0.10566000000E+00 0. -1.
        994    1    1    2    0    0 -0.22882691644E+02 -0.49873470861E+01  0.20642656086E+02  0.17402313196E+03  0.17120000000E+03 0.  0.
        998    1    1    2    0    0 -0.12258819983E+02  0.10247605931E+02  0.14525335044E+04  0.14526558001E+04  0.10000000000E+02 0. -1.
</event>
<event>
 5    1  0.1675361E-008  0.3840413E+03  0.7957747E-01  0.3433748E+00
         13   -1    0    0    0    0  0.00000000000E+00  0.00000000000E+00  0.14999999963E+04  0.15000000000E+04  0.10566000000E+00 0.  1.
        994   -1    0    0    0    0 -0.00000000000E+00 -0.00000000000E+00  0.11368683772E-12  0.17120000000E+03  0.17120000000E+03 0.  0.
         13    1    1    2    0    0 -0.18448893849E+02 -0.76565049403E+01  0.24600795201E+01  0.20125777188E+02  0.10566000000E+00 0.  1.
        994    1    1    2    0    0  0.17699661607E+02  0.72643133298E+01  0.19912572448E+02  0.17341279887E+03  0.17120000000E+03 0.  0.
        998    1    1    2    0    0  0.74923224203E+00  0.39219161049E+00  0.14776273443E+04  0.14776614239E+04  0.10000000000E+02 0.  1.
</event>
<event>
 5    1  0.1675361E-008  0.3785642E+03  0.7957747E-01  0.3457434E+00
         13   -1    0    0    0    0  0.00000000000E+00  0.00000000000E+00  0.14999999963E+04  0.15000000000E+04  0.10566000000E+00 0. -1.
        994   -1    0    0    0    0 -0.00000000000E+00 -0.00000000000E+00  0.11368683772E-12  0.17120000000E+03  0.17120000000E+03 0.  0.
         13    1    1    2    0    0 -0.73409235205E+01  0.12977667592E+02  0.22642660868E+02  0.27111072821E+02  0.10566000000E+00 0. -1.
        994    1    1    2    0    0 -0.10945131121E+02  0.18165698087E+02  0.63719328165E+01  0.17262627265E+03  0.17120000000E+03 0.  0.
        998    1    1    2    0    0  0.18286054641E+02 -0.31143365680E+02  0.14709854026E+04  0.14714626545E+04  0.10000000000E+02 0. -1.
</event>
<event>
 5    1  0.1675361E-008  0.3752652E+03  0.7957747E-01  0.3472037E+00
         13   -1    0    0    0    0  0.00000000000E+00  0.00000000000E+00  0.14999999963E+04  0.15000000000E+04  0.10566000000E+00 0. -1.
        994   -1    0    0    0    0 -0.00000000000E+00 -0.00000000000E+00  0.11368683772E-12  0.17120000000E+03  0.17120000000E+03 0.  0.
         13    1    1    2    0    0 -0.10848861824E+02  0.60379625153E+01  0.87832227474E+01  0.15208910549E+02  0.10566000000E+00 0. -1.
        994    1    1    2    0    0  0.98192950861E+01 -0.50485335840E+01  0.69567146624E+01  0.17169665729E+03  0.17120000000E+03 0.  0.
        998    1    1    2    0    0  0.10295667380E+01 -0.98942893125E+00  0.14842600589E+04  0.14842944322E+04  0.10000000000E+02 0. -1.
</event>
<event>
 5    1  0.1675361E-008  0.3759078E+03  0.7957747E-01  0.3469173E+00
         13   -1    0    0    0    0  0.00000000000E+00  0.00000000000E+00  0.14999999963E+04  0.15000000000E+04  0.10566000000E+00 0. -1.
        994   -1    0    0    0    0 -0.00000000000E+00 -0.00000000000E+00  0.11368683772E-12  0.17120000000E+03  0.17120000000E+03 0.  0.
         13    1    1    2    0    0 -0.46328078188E+02  0.15741978690E+02  0.15745243672E+03  0.16487990088E+03  0.10566000000E+00 0. -1.
        994    1    1    2    0    0  0.63147257674E+02 -0.14597224293E+02  0.20584051931E+02  0.18421128712E+03  0.17120000000E+03 0.  0.
        998    1    1    2    0    0 -0.16819179486E+02 -0.11447543970E+01  0.13219635076E+04  0.13221088120E+04  0.10000000000E+02 0. -1.
</event>
<event>
 5    1  0.1675361E-008  0.3815439E+03  0.7957747E-01  0.3444464E+00
         13   -1    0    0    0    0  0.00000000000E+00  0.00000000000E+00  0.14999999963E+04  0.15000000000E+04  0.10566000000E+00 0.  1.
        994   -1    0    0    0    0 -0.00000000000E+00 -0.00000000000E+00  0.11368683772E-12  0.17120000000E+03  0.17120000000E+03 0.  0.
         13    1    1    2    0    0 -0.89643755296E+01  0.47563576860E+01  0.14277928831E+02  0.17517231026E+02  0.10566000000E+00 0.  1.
        994    1    1    2    0    0  0.52311213912E+00  0.57562053414E+01  0.34669648885E+01  0.17133262209E+03  0.17120000000E+03 0.  0.
        998    1    1    2    0    0  0.84412633905E+01 -0.10512563027E+02  0.14822551026E+04  0.14823501469E+04  0.10000000000E+02 0.  1.
</event>
<event>
 5    1  0.1675361E-008  0.3726519E+03  0.7957747E-01  0.3483791E+00
         13   -1    0    0    0    0  0.00000000000E+00  0.00000000000E+00  0.14999999963E+04  0.15000000000E+04  0.10566000000E+00 0. -1.
        994   -1    0    0    0    0 -0.00000000000E+00 -0.00000000000E+00  0.11368683772E-12  0.17120000000E+03  0.17120000000E+03 0.  0.
         13    1    1    2    0    0  0.31365338358E+02  0.39617735340E+01  0.34848527307E+02  0.47052216944E+02  0.10566000000E+00 0. -1.
        994    1    1    2    0    0 -0.30497829597E+02 -0.13150906830E+01  0.15643257189E+02  0.17460240138E+03  0.17120000000E+03 0.  0.
        998    1    1    2    0    0 -0.86750876102E+00 -0.26466828510E+01  0.14495082118E+04  0.14495453817E+04  0.10000000000E+02 0. -1.
</event>
<event>
 5    1  0.1675361E-008  0.3728938E+03  0.7957747E-01  0.3482696E+00
         13   -1    0    0    0    0  0.00000000000E+00  0.00000000000E+00  0.14999999963E+04  0.15000000000E+04  0.10566000000E+00 0. -1.
        994   -1    0    0    0    0 -0.00000000000E+00 -0.00000000000E+00  0.11368683772E-12  0.17120000000E+03  0.17120000000E+03 0.  0.
         13    1    1    2    0    0 -0.34555589091E+02 -0.11912666468E+00  0.60910490631E+02  0.70030007579E+02  0.10566000000E+00 0. -1.
        994    1    1    2    0    0  0.80849494292E+02 -0.73988774181E+01  0.30678332656E+02  0.19194265865E+03  0.17120000000E+03 0.  0.
        998    1    1    2    0    0 -0.46293905202E+02  0.75180040828E+01  0.14084111730E+04  0.14092273338E+04  0.10000000000E+02 0. -1.
</event>
<event>
 5    1  0.1675361E-008  0.3757835E+03  0.7957747E-01  0.3469726E+00
         13   -1    0    0    0    0  0.00000000000E+00  0.00000000000E+00  0.14999999963E+04  0.15000000000E+04  0.10566000000E+00 0.  1.
        994   -1    0    0    0    0 -0.00000000000E+00 -0.00000000000E+00  0.11368683772E-12  0.17120000000E+03  0.17120000000E+03 0.  0.
         13    1    1    2    0    0  0.11287059235E+02  0.16036240562E+02  0.29511076034E+02  0.35432661349E+02  0.10566000000E+00 0.  1.
        994    1    1    2    0    0 -0.24570359168E+01  0.86074160602E+01  0.65486446143E+01  0.17155888022E+03  0.17120000000E+03 0.  0.
        998    1    1    2    0    0 -0.88300233178E+01 -0.24643656622E+02  0.14639402756E+04  0.14642084584E+04  0.10000000000E+02 0.  1.
</event>
<event>
 5    1  0.1675361E-008  0.3793646E+03  0.7957747E-01  0.3453930E+00
         13   -1    0    0    0    0  0.00000000000E+00  0.00000000000E+00  0.14999999963E+04  0.15000000000E+04  0.10566000000E+00 0.  1.
        994   -1    0    0    0    0 -0.00000000000E+00 -0.00000000000E+00  0.11368683772E-12  0.17120000000E+03  0.17120000000E+03 0.  0.
         13    1    1    2    0    0  0.17785027105E+02 -0.73485847989E+01  0.39605975602E+02  0.44033548064E+02  0.10566000000E+00 0.  1.
        994    1    1    2    0    0 -0.14519989989E+02  0.30576494505E+01  0.51921834448E+01  0.17192026669E+03  0.17120000000E+03 0.  0.
        998    1    1    2    0    0 -0.32650371166E+01  0.42909353484E+01  0.14552018372E+04  0.14552461852E+04  0.10000000000E+02 0.  1.
</event>
<event>
 5    1  0.1675361E-008  0.3809504E+03  0.7957747E-01  0.3447031E+00
         13   -1    0    0    0    0  0.00000000000E+00  0.00000000000E+00  0.14999999963E+04  0.15000000000E+04  0.10566000000E+00 0. -1.
        994   -1    0    0    0    0 -0.00000000000E+00 -0.00000000000E+00  0.11368683772E-12  0.17120000000E+03  0.17120000000E+03 0.  0.
         13    1    1    2    0    0  0.33130834194E+02  0.12247861423E+02  0.16545718301E+03  0.16918555747E+03  0.10566000000E+00 0. -1.
        994    1    1    2    0    0 -0.25298580043E+02 -0.12619928520E+01  0.57952150722E+01  0.17316072100E+03  0.17120000000E+03 0.  0.
        998    1    1    2    0    0 -0.78322541517E+01 -0.10985868571E+02  0.13287475982E+04  0.13288537215E+04  0.10000000000E+02 0. -1.
</event>
<event>
 5    1  0.1675361E-008  0.3735016E+03  0.7957747E-01  0.3479951E+00
         13   -1    0    0    0    0  0.00000000000E+00  0.00000000000E+00  0.14999999963E+04  0.15000000000E+04  0.10566000000E+00 0. -1.
        994   -1    0    0    0    0 -0.00000000000E+00 -0.00000000000E+00  0.11368683772E-12  0.17120000000E+03  0.17120000000E+03 0.  0.
         13    1    1    2    0    0 -0.17825411775E+02  0.24835824319E+02  0.65737068445E+02  0.72497840012E+02  0.10566000000E+00 0. -1.
        994    1    1    2    0    0 -0.11544641106E+02  0.11785880351E+01  0.79104095521E+01  0.17177509245E+03  0.17120000000E+03 0.  0.
        998    1    1    2    0    0  0.29370052881E+02 -0.26014412355E+02  0.14263525183E+04  0.14269270675E+04  0.10000000000E+02 0. -1.
</event>
<event>
 5    1  0.1675361E-008  0.3815976E+03  0.7957747E-01  0.3444231E+00
         13   -1    0    0    0    0  0.00000000000E+00  0.00000000000E+00  0.14999999963E+04  0.15000000000E+04  0.10566000000E+00 0.  1.
        994   -1    0    0    0    0 -0.00000000000E+00 -0.00000000000E+00  0.11368683772E-12  0.17120000000E+03  0.17120000000E+03 0.  0.
         13    1    1    2    0    0 -0.20902846826E+01  0.14365782020E+02  0.30211967026E+02  0.33518936420E+02  0.10566000000E+00 0.  1.
        994    1    1    2    0    0 -0.57619355229E+01 -0.12729612476E+02  0.39783581482E+01  0.17181533770E+03  0.17120000000E+03 0.  0.
        998    1    1    2    0    0  0.78522202055E+01 -0.16361695436E+01  0.14658096711E+04  0.14658657259E+04  0.10000000000E+02 0.  1.
</event>
<event>
 5    1  0.1675361E-008  0.3848634E+03  0.7957747E-01  0.3430252E+00
         13   -1    0    0    0    0  0.00000000000E+00  0.00000000000E+00  0.14999999963E+04  0.15000000000E+04  0.10566000000E+00 0.  1.
        994   -1    0    0    0    0 -0.00000000000E+00 -0.00000000000E+00  0.11368683772E-12  0.17120000000E+03  0.17120000000E+03 0.  0.
         13    1    1    2    0    0 -0.26866724062E+01 -0.10203328601E+02  0.32631166276E+02  0.34294756155E+02  0.10566000000E+00 0.  1.
        994    1    1    2    0    0 -0.95160841443E-01  0.66742389669E+01  0.18445966913E+01  0.17134000426E+03  0.17120000000E+03 0.  0.
        998    1    1    2    0    0  0.27818332477E+01  0.35290896344E+01  0.14655242333E+04  0.14655652396E+04  0.10000000000E+02 0.  1.
</event>
<event>
 5    1  0.1675361E-008  0.3788323E+03  0.7957747E-01  0.3456259E+00
         13   -1    0    0    0    0  0.00000000000E+00  0.00000000000E+00  0.14999999963E+04  0.15000000000E+04  0.10566000000E+00 0. -1.
        994   -1    0    0    0    0 -0.00000000000E+00 -0.00000000000E+00  0.11368683772E-12  0.17120000000E+03  0.17120000000E+03 0.  0.
         13    1    1    2    0    0  0.52498160903E+01 -0.49826374979E+02  0.25339874855E+03  0.25830440403E+03  0.10566000000E+00 0. -1.
        994    1    1    2    0    0 -0.33061074875E+02  0.31950013125E+02  0.11850451904E+02  0.17766178886E+03  0.17120000000E+03 0.  0.
        998    1    1    2    0    0  0.27811258785E+02  0.17876361854E+02  0.12347507958E+04  0.12352338071E+04  0.10000000000E+02 0. -1.
</event>
<event>
 5    1  0.1675361E-008  0.3762551E+03  0.7957747E-01  0.3467628E+00
         13   -1    0    0    0    0  0.00000000000E+00  0.00000000000E+00  0.14999999963E+04  0.15000000000E+04  0.10566000000E+00 0. -1.
        994   -1    0    0    0    0 -0.00000000000E+00 -0.00000000000E+00  0.11368683772E-12  0.17120000000E+03  0.17120000000E+03 0.  0.
         13    1    1    2    0    0 -0.27735848103E+02  0.69575079743E+02  0.30169553217E+03  0.31085394366E+03  0.10566000000E+00 0. -1.
        994    1    1    2    0    0 -0.50255758746E+02  0.13041113092E+02  0.23984412189E+02  0.18050042644E+03  0.17120000000E+03 0.  0.
        998    1    1    2    0    0  0.77991606849E+02 -0.82616192835E+02  0.11743200519E+04  0.11798456299E+04  0.10000000000E+02 0. -1.
</event>
<event>
 5    1  0.1675361E-008  0.3845817E+03  0.7957747E-01  0.3431448E+00
         13   -1    0    0    0    0  0.00000000000E+00  0.00000000000E+00  0.14999999963E+04  0.15000000000E+04  0.10566000000E+00 0. -1.
        994   -1    0    0    0    0 -0.00000000000E+00 -0.00000000000E+00  0.11368683772E-12  0.17120000000E+03  0.17120000000E+03 0.  0.
         13    1    1    2    0    0 -0.13939255927E+02  0.52264754665E+01  0.57965807834E+02  0.59847012820E+02  0.10566000000E+00 0. -1.
        994    1    1    2    0    0  0.16842906654E+02 -0.12458184193E+01  0.27778311451E+01  0.17205345656E+03  0.17120000000E+03 0.  0.
        998    1    1    2    0    0 -0.29036507268E+01 -0.39806570471E+01  0.14392563573E+04  0.14392995306E+04  0.10000000000E+02 0. -1.
</event>
<event>
 5    1  0.1675361E-008  0.3848653E+03  0.7957747E-01  0.3430244E+00
         13   -1    0    0    0    0  0.00000000000E+00  0.00000000000E+00  0.14999999963E+04  0.15000000000E+04  0.10566000000E+00 0.  1.
        994   -1    0    0    0    0 -0.00000000000E+00 -0.00000000000E+00  0.11368683772E-12  0.17120000000E+03  0.17120000000E+03 0.  0.
         13    1    1    2    0    0 -0.15553534456E+02 -0.38322531612E+01  0.81750956865E+02  0.83305634328E+02  0.10566000000E+00 0.  1.
        994    1    1    2    0    0  0.17786176583E+01 -0.96337616387E+01  0.20128573488E+01  0.17149187864E+03  0.17120000000E+03 0.  0.
        998    1    1    2    0    0  0.13774916798E+02  0.13466014800E+02  0.14162361821E+04  0.14164024870E+04  0.10000000000E+02 0.  1.
</event>
<event>
 5    1  0.1675361E-008  0.3863063E+03  0.7957747E-01  0.3424151E+00
         13   -1    0    0    0    0  0.00000000000E+00  0.00000000000E+00  0.14999999963E+04  0.15000000000E+04  0.10566000000E+00 0.  1.
        994   -1    0    0    0    0 -0.00000000000E+00 -0.00000000000E+00  0.11368683772E-12  0.17120000000E+03  0.17120000000E+03 0.  0.
         13    1    1    2    0    0 -0.45517299552E+01  0.94180388918E+01  0.55340972309E+02  0.56320973733E+02  0.10566000000E+00 0.  1.
        994    1    1    2    0    0 -0.64987783073E+00 -0.11634382416E+02  0.14277556087E+01  0.17160203869E+03  0.17120000000E+03 0.  0.
        998    1    1    2    0    0  0.52016077859E+01  0.22163435244E+01  0.14432312684E+04  0.14432769876E+04  0.10000000000E+02 0.  1.
</event>
<event>
 5    1  0.1675361E-008  0.3759558E+03  0.7957747E-01  0.3468959E+00
         13   -1    0    0    0    0  0.00000000000E+00  0.00000000000E+00  0.14999999963E+04  0.15000000000E+04  0.10566000000E+00 0. -1.
        994   -1    0    0    0    0 -0.00000000000E+00 -0.00000000000E+00  0.11368683772E-12  0.17120000000E+03  0.17120000000E+03 0.  0.
         13    1    1    2    0    0 -0.10763157232E+02 -0.23008666610E+02  0.46814933300E+02  0.53262495592E+02  0.10566000000E+00 0. -1.
        994    1    1    2    0    0  0.19820289033E+02  0.30040692289E+02  0.10590096813E+02  0.17526230970E+03  0.17120000000E+03 0.  0.
        998    1    1    2    0    0 -0.90571318008E+01 -0.70320256791E+01  0.14425949662E+04  0.14426751947E+04  0.10000000000E+02 0. -1.
</event>
<event>
 5    1  0.1675361E-008  0.3850430E+03  0.7957747E-01  0.3429490E+00
         13   -1    0    0    0    0  0.00000000000E+00  0.00000000000E+00  0.14999999963E+04  0.15000000000E+04  0.10566000000E+00 0.  1.
        994   -1    0    0    0    0 -0.00000000000E+00 -0.00000000000E+00  0.11368683772E-12  0.17120000000E+03  0.17120000000E+03 0.  0.
         13    1    1    2    0    0  0.63585027885E+01 -0.10795478278E+02  0.50299428031E+02  0.51836440206E+02  0.10566000000E+00 0.  1.
        994    1    1    2    0    0  0.11573229468E+01  0.39900973370E+01  0.16655343126E+01  0.17125850133E+03  0.17120000000E+03 0.  0.
        998    1    1    2    0    0 -0.75158257353E+01  0.68053809410E+01  0.14480350339E+04  0.14481050585E+04  0.10000000000E+02 0.  1.
</event>
<event>
 5    1  0.1675361E-008  0.3868850E+03  0.7957747E-01  0.3421717E+00
         13   -1    0    0    0    0  0.00000000000E+00  0.00000000000E+00  0.14999999963E+04  0.15000000000E+04  0.10566000000E+00 0.  1.
        994   -1    0    0    0    0 -0.00000000000E+00 -0.00000000000E+00  0.11368683772E-12  0.17120000000E+03  0.17120000000E+03 0.  0.
         13    1    1    2    0    0 -0.36079787103E+02  0.32611242488E+02  0.51464374849E+02  0.70808454414E+02  0.10566000000E+00 0.  1.
        994    1    1    2    0    0  0.32316939599E+02 -0.16220195355E+02  0.25037712092E+02  0.17675917614E+03  0.17120000000E+03 0.  0.
        998    1    1    2    0    0  0.37628475040E+01 -0.16391047132E+02  0.14234979093E+04  0.14236323694E+04  0.10000000000E+02 0. -1.
</event>
<event>
 5    1  0.1675361E-008  0.3850754E+03  0.7957747E-01  0.3429353E+00
         13   -1    0    0    0    0  0.00000000000E+00  0.00000000000E+00  0.14999999963E+04  0.15000000000E+04  0.10566000000E+00 0. -1.
        994   -1    0    0    0    0 -0.00000000000E+00 -0.00000000000E+00  0.11368683772E-12  0.17120000000E+03  0.17120000000E+03 0.  0.
         13    1    1    2    0    0  0.81411078834E+01 -0.15445552314E+02  0.10010508986E+03  0.10161635156E+03  0.10566000000E+00 0. -1.
        994    1    1    2    0    0  0.20494542103E+01  0.75976454147E+01  0.17963555966E+01  0.17139017292E+03  0.17120000000E+03 0.  0.
        998    1    1    2    0    0 -0.10190562094E+02  0.78479068990E+01  0.13980985508E+04  0.13981934755E+04  0.10000000000E+02 0. -1.
</event>
<event>
 5    1  0.1675361E-008  0.3797509E+03  0.7957747E-01  0.3452244E+00
         13   -1    0    0    0    0  0.00000000000E+00  0.00000000000E+00  0.14999999963E+04  0.15000000000E+04  0.10566000000E+00 0. -1.
        994   -1    0    0    0    0 -0.00000000000E+00 -0.00000000000E+00  0.11368683772E-12  0.17120000000E+03  0.17120000000E+03 0.  0.
         13    1    1    2    0    0 -0.58630552475E+02 -0.25706474407E+02  0.35667481609E+03  0.36237453016E+03  0.10566000000E+00 0. -1.
        994    1    1    2    0    0  0.64207581791E+02  0.20049644428E+02  0.19548447483E+02  0.18497617036E+03  0.17120000000E+03 0.  0.
        998    1    1    2    0    0 -0.55770293160E+01  0.56568299793E+01  0.11237767327E+04  0.11238492995E+04  0.10000000000E+02 0. -1.
</event>
<event>
 5    1  0.1675361E-008  0.3844689E+03  0.7957747E-01  0.3431928E+00
         13   -1    0    0    0    0  0.00000000000E+00  0.00000000000E+00  0.14999999963E+04  0.15000000000E+04  0.10566000000E+00 0.  1.
        994   -1    0    0    0    0 -0.00000000000E+00 -0.00000000000E+00  0.11368683772E-12  0.17120000000E+03  0.17120000000E+03 0.  0.
         13    1    1    2    0    0  0.11877262091E+02 -0.11547177323E+02  0.68649987055E+02  0.70620383357E+02  0.10566000000E+00 0.  1.
        994    1    1    2    0    0 -0.16081788477E+02  0.10990466789E+02  0.31449363248E+01  0.17233323796E+03  0.17120000000E+03 0.  0.
        998    1    1    2    0    0  0.42045263860E+01  0.55671053373E+00  0.14282050729E+04  0.14282463787E+04  0.10000000000E+02 0.  1.
</event>
<event>
 5    1  0.1675361E-008  0.3844775E+03  0.7957747E-01  0.3431891E+00
         13   -1    0    0    0    0  0.00000000000E+00  0.00000000000E+00  0.14999999963E+04  0.15000000000E+04  0.10566000000E+00 0.  1.
        994   -1    0    0    0    0 -0.00000000000E+00 -0.00000000000E+00  0.11368683772E-12  0.17120000000E+03  0.17120000000E+03 0.  0.
         13    1    1    2    0    0 -0.14769266045E+02 -0.72078672293E+01  0.74912732277E+02  0.76694283951E+02  0.10566000000E+00 0.  1.
        994    1    1    2    0    0  0.30119508588E+01  0.21814374013E+00  0.19198015740E+01  0.17123739391E+03  0.17120000000E+03 0.  0.
        998    1    1    2    0    0  0.11757315186E+02  0.69897234892E+01  0.14231674624E+04  0.14232683221E+04  0.10000000000E+02 0.  1.
</event>
<event>
 5    1  0.1675361E-008  0.3809149E+03  0.7957747E-01  0.3447185E+00
         13   -1    0    0    0    0  0.00000000000E+00  0.00000000000E+00  0.14999999963E+04  0.15000000000E+04  0.10566000000E+00 0. -1.
        994   -1    0    0    0    0 -0.00000000000E+00 -0.00000000000E+00  0.11368683772E-12  0.17120000000E+03  0.17120000000E+03 0.  0.
         13    1    1    2    0    0 -0.26543279087E+02 -0.22725390831E+02  0.18056359689E+03  0.18391360129E+03  0.10566000000E+00 0. -1.
        994    1    1    2    0    0 -0.68396540671E+01  0.21879792925E+02  0.54254363389E+01  0.17281314060E+03  0.17120000000E+03 0.  0.
        998    1    1    2    0    0  0.33382933155E+02  0.84559790626E+00  0.13140109631E+04  0.13144732581E+04  0.10000000000E+02 0. -1.
</event>
<event>
 5    1  0.1675361E-008  0.3801367E+03  0.7957747E-01  0.3450563E+00
         13   -1    0    0    0    0  0.00000000000E+00  0.00000000000E+00  0.14999999963E+04  0.15000000000E+04  0.10566000000E+00 0.  1.
        994   -1    0    0    0    0 -0.00000000000E+00 -0.00000000000E+00  0.11368683772E-12  0.17120000000E+03  0.17120000000E+03 0.  0.
         13    1    1    2    0    0  0.24946506068E+02  0.18233724115E+02  0.10528264095E+03  0.10972348203E+03  0.10566000000E+00 0.  1.
        994    1    1    2    0    0 -0.29963400022E+02 -0.22063672499E+02  0.87045672671E+01  0.17541328478E+03  0.17120000000E+03 0.  0.
        998    1    1    2    0    0  0.50168939541E+01  0.38299483838E+01  0.13860127881E+04  0.13860632332E+04  0.10000000000E+02 0.  1.
</event>
<event>
 5    1  0.1675361E-008  0.3679333E+03  0.7957747E-01  0.3505443E+00
         13   -1    0    0    0    0  0.00000000000E+00  0.00000000000E+00  0.14999999963E+04  0.15000000000E+04  0.10566000000E+00 0. -1.
        994   -1    0    0    0    0 -0.00000000000E+00 -0.00000000000E+00  0.11368683772E-12  0.17120000000E+03  0.17120000000E+03 0.  0.
         13    1    1    2    0    0 -0.20638505659E+03 -0.66498908068E+02  0.11873135099E+04  0.12069508185E+04  0.10566000000E+00 0. -1.
        994    1    1    2    0    0  0.18657164457E+03  0.56097309858E+02  0.14975835376E+03  0.29948771469E+03  0.17120000000E+03 0.  0.
        998    1    1    2    0    0  0.19813412023E+02  0.10401598210E+02  0.16292813262E+03  0.16476146679E+03  0.10000000000E+02 0. -1.
</event>
<event>
 5    1  0.1675361E-008  0.3825219E+03  0.7957747E-01  0.3440251E+00
         13   -1    0    0    0    0  0.00000000000E+00  0.00000000000E+00  0.14999999963E+04  0.15000000000E+04  0.10566000000E+00 0. -1.
        994   -1    0    0    0    0 -0.00000000000E+00 -0.00000000000E+00  0.11368683772E-12  0.17120000000E+03  0.17120000000E+03 0.  0.
         13    1    1    2    0    0  0.15656297133E+02  0.56244087136E+01  0.52745237932E+02  0.55306644283E+02  0.10566000000E+00 0. -1.
        994    1    1    2    0    0  0.15989230538E+02 -0.66083462292E+01  0.38584650080E+01  0.17211523316E+03  0.17120000000E+03 0.  0.
        998    1    1    2    0    0 -0.31645527671E+02  0.98393751566E+00  0.14433962933E+04  0.14437781226E+04  0.10000000000E+02 0. -1.
</event>
<event>
 5    1  0.1675361E-008  0.3854948E+03  0.7957747E-01  0.3427576E+00
         13   -1    0    0    0    0  0.00000000000E+00  0.00000000000E+00  0.14999999963E+04  0.15000000000E+04  0.10566000000E+00 0. -1.
        994   -1    0    0    0    0 -0.00000000000E+00 -0.00000000000E+00  0.11368683772E-12  0.17120000000E+03  0.17120000000E+03 0.  0.
         13    1    1    2    0    0  0.31289458773E+01  0.14321498018E+02  0.83021007295E+02  0.84305364148E+02  0.10566000000E+00 0. -1.
        994    1    1    2    0    0  0.32088557948E+01 -0.23597928893E+01  0.14367562539E+01  0.17125235662E+03  0.17120000000E+03 0.  0.
        998    1    1    2    0    0 -0.63378016721E+01 -0.11961705128E+02  0.14155422327E+04  0.14156422792E+04  0.10000000000E+02 0. -1.
</event>
<event>
 5    1  0.1675361E-008  0.3821433E+03  0.7957747E-01  0.3441879E+00
         13   -1    0    0    0    0  0.00000000000E+00  0.00000000000E+00  0.14999999963E+04  0.15000000000E+04  0.10566000000E+00 0.  1.
        994   -1    0    0    0    0 -0.00000000000E+00 -0.00000000000E+00  0.11368683772E-12  0.17120000000E+03  0.17120000000E+03 0.  0.
         13    1    1    2    0    0  0.86102683887E+01  0.75569661611E+01  0.19817394103E+02  0.22890712797E+02  0.10566000000E+00 0.  1.
        994    1    1    2    0    0 -0.99819295386E+01 -0.12722932149E+02  0.39236829022E+01  0.17200682314E+03  0.17120000000E+03 0.  0.
        998    1    1    2    0    0  0.13716611500E+01  0.51659659883E+01  0.14762589193E+04  0.14763024641E+04  0.10000000000E+02 0.  1.
</event>
<event>
 5    1  0.1675361E-008  0.3791804E+03  0.7957747E-01  0.3454735E+00
         13   -1    0    0    0    0  0.00000000000E+00  0.00000000000E+00  0.14999999963E+04  0.15000000000E+04  0.10566000000E+00 0. -1.
        994   -1    0    0    0    0 -0.00000000000E+00 -0.00000000000E+00  0.11368683772E-12  0.17120000000E+03  0.17120000000E+03 0.  0.
         13    1    1    2    0    0 -0.19026286746E+02  0.10628371279E+02  0.48850738161E+02  0.53491753068E+02  0.10566000000E+00 0. -1.
        994    1    1    2    0    0  0.18466488999E+02 -0.15091385642E+02  0.64562751307E+01  0.17297365298E+03  0.17120000000E+03 0.  0.
        998    1    1    2    0    0  0.55979774654E+00  0.44630143623E+01  0.14446929830E+04  0.14447345940E+04  0.10000000000E+02 0. -1.
</event>
<event>
 5    1  0.1675361E-008  0.3828103E+03  0.7957747E-01  0.3439013E+00
         13   -1    0    0    0    0  0.00000000000E+00  0.00000000000E+00  0.14999999963E+04  0.15000000000E+04  0.10566000000E+00 0.  1.
        994   -1    0    0    0    0 -0.00000000000E+00 -0.00000000000E+00  0.11368683772E-12  0.17120000000E+03  0.17120000000E+03 0.  0.
         13    1    1    2    0    0 -0.31929806949E+02  0.24493651187E+01  0.17154589027E+03  0.17450935675E+03  0.10566000000E+00 0.  1.
        994    1    1    2    0    0  0.30541454890E+02  0.60001346157E+01  0.59366143916E+01  0.17410762612E+03  0.17120000000E+03 0.  0.
        998    1    1    2    0    0  0.13883520589E+01 -0.84494997344E+01  0.13225174916E+04  0.13225830171E+04  0.10000000000E+02 0.  1.
</event>
<event>
 5    1  0.1675361E-008  0.3803975E+03  0.7957747E-01  0.3449430E+00
         13   -1    0    0    0    0  0.00000000000E+00  0.00000000000E+00  0.14999999963E+04  0.15000000000E+04  0.10566000000E+00 0.  1.
        994   -1    0    0    0    0 -0.00000000000E+00 -0.00000000000E+00  0.11368683772E-12  0.17120000000E+03  0.17120000000E+03 0.  0.
         13    1    1    2    0    0  0.32373723674E+02  0.39718424549E+02  0.72435754909E+02  0.88727453398E+02  0.10566000000E+00 0.  1.
        994    1    1    2    0    0 -0.37597451987E+02 -0.21719436660E+02  0.23418496338E+02  0.17816612556E+03  0.17120000000E+03 0.  0.
        998    1    1    2    0    0  0.52237283128E+01 -0.17998987889E+02  0.14041457450E+04  0.14043064210E+04  0.10000000000E+02 0.  1.
</event>
<event>
 5    1  0.1675361E-008  0.3716599E+03  0.7957747E-01  0.3488297E+00
         13   -1    0    0    0    0  0.00000000000E+00  0.00000000000E+00  0.14999999963E+04  0.15000000000E+04  0.10566000000E+00 0.  1.
        994   -1    0    0    0    0 -0.00000000000E+00 -0.00000000000E+00  0.11368683772E-12  0.17120000000E+03  0.17120000000E+03 0.  0.
         13    1    1    2    0    0  0.11088983172E+03  0.11625441655E+03  0.87099719875E+03  0.88569056421E+03  0.10566000000E+00 0.  1.
        994    1    1    2    0    0 -0.83000987628E+02 -0.11338360209E+03  0.79677578471E+02  0.23537833732E+03  0.17120000000E+03 0.  0.
        998    1    1    2    0    0 -0.27888844096E+02 -0.28708144548E+01  0.54932521906E+03  0.55013109847E+03  0.10000000000E+02 0. -1.
</event>
<event>
 5    1  0.1675361E-008  0.3858470E+03  0.7957747E-01  0.3426088E+00
         13   -1    0    0    0    0  0.00000000000E+00  0.00000000000E+00  0.14999999963E+04  0.15000000000E+04  0.10566000000E+00 0. -1.
        994   -1    0    0    0    0 -0.00000000000E+00 -0.00000000000E+00  0.11368683772E-12  0.17120000000E+03  0.17120000000E+03 0.  0.
         13    1    1    2    0    0 -0.52475248588E+01  0.91057430144E+01  0.48452251344E+02  0.49579057044E+02  0.10566000000E+00 0. -1.
        994    1    1    2    0    0 -0.32636497174E+01 -0.84969519255E+00  0.12475064868E+01  0.17123775770E+03  0.17120000000E+03 0.  0.
        998    1    1    2    0    0  0.85111745762E+01 -0.82560478219E+01  0.14503002384E+04  0.14503831853E+04  0.10000000000E+02 0. -1.
</event>
<event>
 5    1  0.1675361E-008  0.3801207E+03  0.7957747E-01  0.3450633E+00
         13   -1    0    0    0    0  0.00000000000E+00  0.00000000000E+00  0.14999999963E+04  0.15000000000E+04  0.10566000000E+00 0. -1.
        994   -1    0    0    0    0 -0.00000000000E+00 -0.00000000000E+00  0.11368683772E-12  0.17120000000E+03  0.17120000000E+03 0.  0.
         13    1    1    2    0    0 -0.13044207135E+02  0.57785987209E+02  0.11064264201E+03  0.12550369338E+03  0.10566000000E+00 0. -1.
        994    1    1    2    0    0  0.27893455983E+02 -0.70130577224E+01  0.19398047573E+02  0.17467956983E+03  0.17120000000E+03 0.  0.
        998    1    1    2    0    0 -0.14849248848E+02 -0.50772929486E+02  0.13699593067E+04  0.13710167368E+04  0.10000000000E+02 0. -1.
</event>
<event>
 5    1  0.1675361E-008  0.3833175E+03  0.7957747E-01  0.3436839E+00
         13   -1    0    0    0    0  0.00000000000E+00  0.00000000000E+00  0.14999999963E+04  0.15000000000E+04  0.10566000000E+00 0.  1.
        994   -1    0    0    0    0 -0.00000000000E+00 -0.00000000000E+00  0.11368683772E-12  0.17120000000E+03  0.17120000000E+03 0.  0.
         13    1    1    2    0    0 -0.18025447706E+02  0.16725430544E+02  0.12492136127E+03  0.12731855504E+03  0.10566000000E+00 0.  1.
        994    1    1    2    0    0  0.73743380592E+01 -0.90733545511E+01  0.29199371685E+01  0.17162363665E+03  0.17120000000E+03 0.  0.
        998    1    1    2    0    0  0.10651109647E+02 -0.76520759928E+01  0.13721586978E+04  0.13722578083E+04  0.10000000000E+02 0.  1.
</event>
<event>
 5    1  0.1675361E-008  0.3846432E+03  0.7957747E-01  0.3431187E+00
         13   -1    0    0    0    0  0.00000000000E+00  0.00000000000E+00  0.14999999963E+04  0.15000000000E+04  0.10566000000E+00 0. -1.
        994   -1    0    0    0    0 -0.00000000000E+00 -0.00000000000E+00  0.11368683772E-12  0.17120000000E+03  0.17120000000E+03 0.  0.
         13    1    1    2    0    0  0.19233165807E+02 -0.28044498050E+01  0.11200806398E+03  0.11368200018E+03  0.10566000000E+00 0. -1.
        994    1    1    2    0    0 -0.41676262950E+01 -0.42349289434E+01  0.19236259445E+01  0.17131387588E+03  0.17120000000E+03 0.  0.
        998    1    1    2    0    0 -0.15065539512E+02  0.70393787484E+01  0.13860683064E+04  0.13862041239E+04  0.10000000000E+02 0. -1.
</event>
<event>
 5    1  0.1675361E-008  0.3768896E+03  0.7957747E-01  0.3464815E+00
         13   -1    0    0    0    0  0.00000000000E+00  0.00000000000E+00  0.14999999963E+04  0.15000000000E+04  0.10566000000E+00 0. -1.
        994   -1    0    0    0    0 -0.00000000000E+00 -0.00000000000E+00  0.11368683772E-12  0.17120000000E+03  0.17120000000E+03 0.  0.
         13    1    1    2    0    0  0.54170204313E+02  0.40868509780E+02  0.14405808782E+03  0.15924003881E+03  0.10566000000E+00 0. -1.
        994    1    1    2    0    0 -0.45695081379E+02 -0.35927470887E+02  0.26835429228E+02  0.18277965939E+03  0.17120000000E+03 0.  0.
        998    1    1    2    0    0 -0.84751229344E+01 -0.49410388931E+01  0.13291064792E+04  0.13291803018E+04  0.10000000000E+02 0. -1.
</event>
<event>
 5    1  0.1675361E-008  0.3828454E+03  0.7957747E-01  0.3438862E+00
         13   -1    0    0    0    0  0.00000000000E+00  0.00000000000E+00  0.14999999963E+04  0.15000000000E+04  0.10566000000E+00 0.  1.
        994   -1    0    0    0    0 -0.00000000000E+00 -0.00000000000E+00  0.11368683772E-12  0.17120000000E+03  0.17120000000E+03 0.  0.
         13    1    1    2    0    0 -0.21320179341E+02  0.82915730742E+01  0.91473136835E+02  0.94290223022E+02  0.10566000000E+00 0.  1.
        994    1    1    2    0    0  0.21128457971E+02 -0.74809600727E+01  0.43691973757E+01  0.17271625976E+03  0.17120000000E+03 0.  0.
        998    1    1    2    0    0  0.19172136968E+00 -0.81061300146E+00  0.14041576621E+04  0.14041935172E+04  0.10000000000E+02 0.  1.
</event>
<event>
 5    1  0.1675361E-008  0.3728798E+03  0.7957747E-01  0.3482760E+00
         13   -1    0    0    0    0  0.00000000000E+00  0.00000000000E+00  0.14999999963E+04  0.15000000000E+04  0.10566000000E+00 0.  1.
        994   -1    0    0    0    0 -0.00000000000E+00 -0.00000000000E+00  0.11368683772E-12  0.17120000000E+03  0.17120000000E+03 0.  0.
         13    1    1    2    0    0  0.36800269573E+02  0.91335186488E+01  0.92584391407E+02  0.10004779708E+03  0.10566000000E+00 0.  1.
        994    1    1    2    0    0 -0.14094292821E+02 -0.74516777713E+01  0.86422215031E+01  0.17215778979E+03  0.17120000000E+03 0.  0.
        998    1    1    2    0    0 -0.22705976752E+02 -0.16818408775E+01  0.13987733834E+04  0.13989944131E+04  0.10000000000E+02 0.  1.
</event>
<event>
 5    1  0.1675361E-008  0.3833542E+03  0.7957747E-01  0.3436682E+00
         13   -1    0    0    0    0  0.00000000000E+00  0.00000000000E+00  0.14999999963E+04  0.15000000000E+04  0.10566000000E+00 0.  1.
        994   -1    0    0    0    0 -0.00000000000E+00 -0.00000000000E+00  0.11368683772E-12  0.17120000000E+03  0.17120000000E+03 0.  0.
         13    1    1    2    0    0  0.17522655493E+01  0.13952950319E+02  0.40987546500E+02  0.43332959618E+02  0.10566000000E+00 0.  1.
        994    1    1    2    0    0  0.48906135044E+01 -0.22660601539E+01  0.25455176321E+01  0.17130374424E+03  0.17120000000E+03 0.  0.
        998    1    1    2    0    0 -0.66428790537E+01 -0.11686890165E+02  0.14564669321E+04  0.14565632961E+04  0.10000000000E+02 0.  1.
</event>
<event>
 5    1  0.1675361E-008  0.3739485E+03  0.7957747E-01  0.3477939E+00
         13   -1    0    0    0    0  0.00000000000E+00  0.00000000000E+00  0.14999999963E+04  0.15000000000E+04  0.10566000000E+00 0. -1.
        994   -1    0    0    0    0 -0.00000000000E+00 -0.00000000000E+00  0.11368683772E-12  0.17120000000E+03  0.17120000000E+03 0.  0.
         13    1    1    2    0    0  0.26187374616E+02 -0.79861654942E+00  0.46127962597E+02  0.53049189203E+02  0.10566000000E+00 0. -1.
        994    1    1    2    0    0 -0.72055733713E+01 -0.99392962082E+01  0.77339747537E+01  0.17181374876E+03  0.17120000000E+03 0.  0.
        998    1    1    2    0    0 -0.18981801245E+02  0.10737912758E+02  0.14461380589E+04  0.14463370620E+04  0.10000000000E+02 0. -1.
</event>
<event>
 5    1  0.1926514E-008  0.3855001E+03  0.7957747E-01  0.3427554E+00
         13   -1    0    0    0    0  0.00000000000E+00  0.00000000000E+00  0.14999999963E+04  0.15000000000E+04  0.10566000000E+00 0.  1.
        994   -1    0    0    0    0 -0.00000000000E+00 -0.00000000000E+00  0.11368683772E-12  0.17120000000E+03  0.17120000000E+03 0.  0.
         13    1    1    2    0    0  0.10923029613E+02 -0.32421288950E+00  0.41555332977E+02  0.42968297067E+02  0.10566000000E+00 0.  1.
        994    1    1    2    0    0 -0.15100302236E+02  0.44489150582E+00  0.21317385038E+01  0.17187844939E+03  0.17120000000E+03 0.  0.
        998    1    1    2    0    0  0.41772726229E+01 -0.12067861632E+00  0.14563129248E+04  0.14563532535E+04  0.10000000000E+02 0.  1.
</event>
<event>
 5    1  0.1675361E-008  0.3728887E+03  0.7957747E-01  0.3482719E+00
         13   -1    0    0    0    0  0.00000000000E+00  0.00000000000E+00  0.14999999963E+04  0.15000000000E+04  0.10566000000E+00 0.  1.
        994   -1    0    0    0    0 -0.00000000000E+00 -0.00000000000E+00  0.11368683772E-12  0.17120000000E+03  0.17120000000E+03 0.  0.
         13    1    1    2    0    0 -0.43642742943E+02 -0.44519227148E+01  0.69033736989E+02  0.81793499951E+02  0.10566000000E+00 0.  1.
        994    1    1    2    0    0  0.47494291080E+02 -0.11096638732E+02  0.20923710135E+02  0.17923750925E+03  0.17120000000E+03 0.  0.
        998    1    1    2    0    0 -0.38515481362E+01  0.15548561447E+02  0.14100425492E+04  0.14101689908E+04  0.10000000000E+02 0.  1.
</event>
<event>
 5    1  0.1675361E-008  0.3848109E+03  0.7957747E-01  0.3430475E+00
         13   -1    0    0    0    0  0.00000000000E+00  0.00000000000E+00  0.14999999963E+04  0.15000000000E+04  0.10566000000E+00 0. -1.
        994   -1    0    0    0    0 -0.00000000000E+00 -0.00000000000E+00  0.11368683772E-12  0.17120000000E+03  0.17120000000E+03 0.  0.
         13    1    1    2    0    0  0.25405963400E+01 -0.12059304291E+02  0.46123583094E+02  0.47741779724E+02  0.10566000000E+00 0. -1.
        994    1    1    2    0    0  0.95790497349E+01  0.84083099172E+00  0.20283891216E+01  0.17148183447E+03  0.17120000000E+03 0.  0.
        998    1    1    2    0    0 -0.12119646075E+02  0.11218473299E+02  0.14518480241E+04  0.14519763858E+04  0.10000000000E+02 0. -1.
</event>
<event>
 5    1  0.1675361E-008  0.3700399E+03  0.7957747E-01  0.3495708E+00
         13   -1    0    0    0    0  0.00000000000E+00  0.00000000000E+00  0.14999999963E+04  0.15000000000E+04  0.10566000000E+00 0.  1.
        994   -1    0    0    0    0 -0.00000000000E+00 -0.00000000000E+00  0.11368683772E-12  0.17120000000E+03  0.17120000000E+03 0.  0.
         13    1    1    2    0    0 -0.36014912594E+02  0.33458255051E+01  0.57560574275E+02  0.67981610399E+02  0.10566000000E+00 0.  1.
        994    1    1    2    0    0  0.11603546933E+02 -0.43607695659E+01  0.11497348003E+02  0.17203280973E+03  0.17120000000E+03 0.  0.
        998    1    1    2    0    0  0.24411365662E+02  0.10149440609E+01  0.14309420740E+04  0.14311855799E+04  0.10000000000E+02 0.  1.
</event>
<event>
 5    1  0.2664029E-008  0.3865492E+03  0.7957747E-01  0.3423128E+00
         13   -1    0    0    0    0  0.00000000000E+00  0.00000000000E+00  0.14999999963E+04  0.15000000000E+04  0.10566000000E+00 0. -1.
        994   -1    0    0    0    0 -0.00000000000E+00 -0.00000000000E+00  0.11368683772E-12  0.17120000000E+03  0.17120000000E+03 0.  0.
         13    1    1    2    0    0 -0.83783309609E+00 -0.10282255844E+02  0.61326090150E+02  0.62187838415E+02  0.10566000000E+00 0. -1.
        994    1    1    2    0    0 -0.66308003952E+01  0.11006541265E+02  0.14033958893E+01  0.17168727671E+03  0.17120000000E+03 0.  0.
        998    1    1    2    0    0  0.74686334912E+01 -0.72428542103E+00  0.14372705102E+04  0.14373248849E+04  0.10000000000E+02 0. -1.
</event>
<event>
 5    1  0.1675361E-008  0.3835615E+03  0.7957747E-01  0.3435796E+00
         13   -1    0    0    0    0  0.00000000000E+00  0.00000000000E+00  0.14999999963E+04  0.15000000000E+04  0.10566000000E+00 0. -1.
        994   -1    0    0    0    0 -0.00000000000E+00 -0.00000000000E+00  0.11368683772E-12  0.17120000000E+03  0.17120000000E+03 0.  0.
         13    1    1    2    0    0  0.14138533366E+02 -0.17867628754E+02  0.10594074729E+03  0.10836329352E+03  0.10566000000E+00 0. -1.
        994    1    1    2    0    0 -0.12973773461E+02  0.14898266609E+02  0.36365842976E+01  0.17237442354E+03  0.17120000000E+03 0.  0.
        998    1    1    2    0    0 -0.11647599054E+01  0.29693621449E+01  0.13904226647E+04  0.13904622829E+04  0.10000000000E+02 0. -1.
</event>
<event>
 5    1  0.1675361E-008  0.3787852E+03  0.7957747E-01  0.3456465E+00
         13   -1    0    0    0    0  0.00000000000E+00  0.00000000000E+00  0.14999999963E+04  0.15000000000E+04  0.10566000000E+00 0. -1.
        994   -1    0    0    0    0 -0.00000000000E+00 -0.00000000000E+00  0.11368683772E-12  0.17120000000E+03  0.17120000000E+03 0.  0.
         13    1    1    2    0    0  0.95471168273E+01  0.34711406516E+01  0.86286684621E+01  0.13328966224E+02  0.10566000000E+00 0. -1.
        994    1    1    2    0    0 -0.12012700702E+02 -0.36379416028E+01  0.52765585331E+01  0.17174056500E+03  0.17120000000E+03 0.  0.
        998    1    1    2    0    0  0.24655838749E+01  0.16680095122E+00  0.14860947693E+04  0.14861304688E+04  0.10000000000E+02 0. -1.
</event>
<event>
 5    1  0.1675361E-008  0.3684609E+03  0.7957747E-01  0.3502994E+00
         13   -1    0    0    0    0  0.00000000000E+00  0.00000000000E+00  0.14999999963E+04  0.15000000000E+04  0.10566000000E+00 0. -1.
        994   -1    0    0    0    0 -0.00000000000E+00 -0.00000000000E+00  0.11368683772E-12  0.17120000000E+03  0.17120000000E+03 0.  0.
         13    1    1    2    0    0  0.26949323415E+02 -0.15456392632E+00  0.32569502533E+02  0.42273793085E+02  0.10566000000E+00 0. -1.
        994    1    1    2    0    0 -0.11177337605E+02 -0.71695200309E+01  0.10688986553E+02  0.17204659057E+03  0.17120000000E+03 0.  0.
        998    1    1    2    0    0 -0.15771985810E+02  0.73240839572E+01  0.14567415072E+04  0.14568796163E+04  0.10000000000E+02 0. -1.
</event>
<event>
 5    1  0.1675361E-008  0.3857643E+03  0.7957747E-01  0.3426437E+00
         13   -1    0    0    0    0  0.00000000000E+00  0.00000000000E+00  0.14999999963E+04  0.15000000000E+04  0.10566000000E+00 0. -1.
        994   -1    0    0    0    0 -0.00000000000E+00 -0.00000000000E+00  0.11368683772E-12  0.17120000000E+03  0.17120000000E+03 0.  0.
         13    1    1    2    0    0  0.46935779647E+01 -0.11430131497E+02  0.61398095997E+02  0.62629185978E+02  0.10566000000E+00 0. -1.
        994    1    1    2    0    0  0.98518159302E+01  0.13566753082E+02  0.21739140209E+01  0.17203279039E+03  0.17120000000E+03 0.  0.
        998    1    1    2    0    0 -0.14545393895E+02 -0.21366215856E+01  0.14364279863E+04  0.14365380236E+04  0.10000000000E+02 0. -1.
</event>
<event>
 5    1  0.1675361E-008  0.3782236E+03  0.7957747E-01  0.3458930E+00
         13   -1    0    0    0    0  0.00000000000E+00  0.00000000000E+00  0.14999999963E+04  0.15000000000E+04  0.10566000000E+00 0. -1.
        994   -1    0    0    0    0 -0.00000000000E+00 -0.00000000000E+00  0.11368683772E-12  0.17120000000E+03  0.17120000000E+03 0.  0.
         13    1    1    2    0    0  0.46175192801E+02  0.16466980872E+01  0.21156326315E+03  0.21654996080E+03  0.10566000000E+00 0. -1.
        994    1    1    2    0    0 -0.26735122080E+02  0.15541844822E+02  0.82550125930E+01  0.17416630250E+03  0.17120000000E+03 0.  0.
        998    1    1    2    0    0 -0.19440070721E+02 -0.17188542910E+02  0.12801817205E+04  0.12804837367E+04  0.10000000000E+02 0. -1.
</event>
<event>
 5    1  0.1675361E-008  0.3837405E+03  0.7957747E-01  0.3435032E+00
         13   -1    0    0    0    0  0.00000000000E+00  0.00000000000E+00  0.14999999963E+04  0.15000000000E+04  0.10566000000E+00 0.  1.
        994   -1    0    0    0    0 -0.00000000000E+00 -0.00000000000E+00  0.11368683772E-12  0.17120000000E+03  0.17120000000E+03 0.  0.
         13    1    1    2    0    0 -0.15334070583E+02  0.86121794258E+01  0.70429752113E+02  0.72592454855E+02  0.10566000000E+00 0.  1.
        994    1    1    2    0    0  0.32536466369E+01 -0.49159355157E+01  0.23715253426E+01  0.17131788223E+03  0.17120000000E+03 0.  0.
        998    1    1    2    0    0  0.12080423946E+02 -0.36962439102E+01  0.14271987188E+04  0.14272896629E+04  0.10000000000E+02 0.  1.
</event>
<event>
 5    1  0.1675361E-008  0.3814397E+03  0.7957747E-01  0.3444913E+00
         13   -1    0    0    0    0  0.00000000000E+00  0.00000000000E+00  0.14999999963E+04  0.15000000000E+04  0.10566000000E+00 0. -1.
        994   -1    0    0    0    0 -0.00000000000E+00 -0.00000000000E+00  0.11368683772E-12  0.17120000000E+03  0.17120000000E+03 0.  0.
         13    1    1    2    0    0 -0.33476113555E+01 -0.12717905352E+02  0.24405515328E+02  0.27723491137E+02  0.10566000000E+00 0. -1.
        994    1    1    2    0    0  0.31288026110E+01  0.33923617275E+01  0.34790113919E+01  0.17129752200E+03  0.17120000000E+03 0.  0.
        998    1    1    2    0    0  0.21880874449E+00  0.93255436249E+01  0.14721154696E+04  0.14721789869E+04  0.10000000000E+02 0. -1.
</event>
<event>
 5    1  0.1675361E-008  0.3815052E+03  0.7957747E-01  0.3444630E+00
         13   -1    0    0    0    0  0.00000000000E+00  0.00000000000E+00  0.14999999963E+04  0.15000000000E+04  0.10566000000E+00 0.  1.
        994   -1    0    0    0    0 -0.00000000000E+00 -0.00000000000E+00  0.11368683772E-12  0.17120000000E+03  0.17120000000E+03 0.  0.
         13    1    1    2    0    0 -0.10326454221E+02 -0.11666918896E+02  0.36804379156E+02  0.39966562805E+02  0.10566000000E+00 0.  1.
        994    1    1    2    0    0 -0.30973168909E+01 -0.50579840172E+01  0.34922579528E+01  0.17133829823E+03  0.17120000000E+03 0.  0.
        998    1    1    2    0    0  0.13423771112E+02  0.16724902913E+02  0.14597033592E+04  0.14598951390E+04  0.10000000000E+02 0.  1.
</event>
<event>
 5    1  0.1675361E-008  0.3822133E+03  0.7957747E-01  0.3441578E+00
         13   -1    0    0    0    0  0.00000000000E+00  0.00000000000E+00  0.14999999963E+04  0.15000000000E+04  0.10566000000E+00 0. -1.
        994   -1    0    0    0    0 -0.00000000000E+00 -0.00000000000E+00  0.11368683772E-12  0.17120000000E+03  0.17120000000E+03 0.  0.
         13    1    1    2    0    0  0.10087258724E+01 -0.25499417854E+02  0.10200263435E+03  0.10514649979E+03  0.10566000000E+00 0. -1.
        994    1    1    2    0    0 -0.31028031368E+02  0.23228424186E+02  0.80217309754E+01  0.17571592583E+03  0.17120000000E+03 0.  0.
        998    1    1    2    0    0  0.30019305496E+02  0.22709936676E+01  0.13899756309E+04  0.13903375744E+04  0.10000000000E+02 0. -1.
</event>
<event>
 5    1  0.1675361E-008  0.3721141E+03  0.7957747E-01  0.3486231E+00
         13   -1    0    0    0    0  0.00000000000E+00  0.00000000000E+00  0.14999999963E+04  0.15000000000E+04  0.10566000000E+00 0. -1.
        994   -1    0    0    0    0 -0.00000000000E+00 -0.00000000000E+00  0.11368683772E-12  0.17120000000E+03  0.17120000000E+03 0.  0.
         13    1    1    2    0    0 -0.12035296572E+02 -0.20579958097E+02  0.32400651136E+02  0.40226811916E+02  0.10566000000E+00 0. -1.
        994    1    1    2    0    0  0.51888377422E+01  0.27345155632E+01  0.82863272135E+01  0.17150074295E+03  0.17120000000E+03 0.  0.
        998    1    1    2    0    0  0.68464588302E+01  0.17845442534E+02  0.14593130179E+04  0.14594724451E+04  0.10000000000E+02 0. -1.
</event>
<event>
 5    1  0.1675361E-008  0.3801576E+03  0.7957747E-01  0.3450473E+00
         13   -1    0    0    0    0  0.00000000000E+00  0.00000000000E+00  0.14999999963E+04  0.15000000000E+04  0.10566000000E+00 0.  1.
        994   -1    0    0    0    0 -0.00000000000E+00 -0.00000000000E+00  0.11368683772E-12  0.17120000000E+03  0.17120000000E+03 0.  0.
         13    1    1    2    0    0  0.10591655055E+01  0.13829124551E+02  0.21637097202E+02  0.25701004977E+02  0.10566000000E+00 0.  1.
        994    1    1    2    0    0 -0.37075892769E+01 -0.16400516994E+02  0.49988065840E+01  0.17209634291E+03  0.17120000000E+03 0.  0.
        998    1    1    2    0    0  0.26484237714E+01  0.25713924426E+01  0.14733640925E+04  0.14734026521E+04  0.10000000000E+02 0.  1.
</event>
<event>
 5    1  0.1675361E-008  0.3823144E+03  0.7957747E-01  0.3441142E+00
         13   -1    0    0    0    0  0.00000000000E+00  0.00000000000E+00  0.14999999963E+04  0.15000000000E+04  0.10566000000E+00 0.  1.
        994   -1    0    0    0    0 -0.00000000000E+00 -0.00000000000E+00  0.11368683772E-12  0.17120000000E+03  0.17120000000E+03 0.  0.
         13    1    1    2    0    0 -0.67918384206E+01  0.85714302400E+01  0.19032871977E+02  0.21951306686E+02  0.10566000000E+00 0.  1.
        994    1    1    2    0    0 -0.30330849946E+00 -0.86869903694E+01  0.32200674351E+01  0.17145076445E+03  0.17120000000E+03 0.  0.
        998    1    1    2    0    0  0.70951469201E+01  0.11556012937E+00  0.14777470569E+04  0.14777979289E+04  0.10000000000E+02 0.  1.
</event>
<event>
 5    1  0.1675361E-008  0.3709965E+03  0.7957747E-01  0.3491324E+00
         13   -1    0    0    0    0  0.00000000000E+00  0.00000000000E+00  0.14999999963E+04  0.15000000000E+04  0.10566000000E+00 0.  1.
        994   -1    0    0    0    0 -0.00000000000E+00 -0.00000000000E+00  0.11368683772E-12  0.17120000000E+03  0.17120000000E+03 0.  0.
         13    1    1    2    0    0  0.25269589435E+02 -0.41538980559E+02  0.10079421335E+03  0.11190855046E+03  0.10566000000E+00 0.  1.
        994    1    1    2    0    0 -0.20329537527E+02  0.18355706888E+02  0.14103114250E+02  0.17394987756E+03  0.17120000000E+03 0.  0.
        998    1    1    2    0    0 -0.49400519081E+01  0.23183273672E+02  0.13851026687E+04  0.13853415720E+04  0.10000000000E+02 0.  1.
</event>
<event>
 5    1  0.1675361E-008  0.4055964E+03  0.7957747E-01  0.3346757E+00
         13   -1    0    0    0    0  0.00000000000E+00  0.00000000000E+00  0.14999999963E+04  0.15000000000E+04  0.10566000000E+00 0.  1.
        994   -1    0    0    0    0 -0.00000000000E+00 -0.00000000000E+00  0.11368683772E-12  0.17120000000E+03  0.17120000000E+03 0.  0.
         13    1    1    2    0    0  0.11925351859E+03  0.34673791201E+02  0.20505209613E+03  0.23972911126E+03  0.10566000000E+00 0.  1.
        994    1    1    2    0    0 -0.11351140703E+03 -0.44952315272E+02  0.93838471131E+02  0.23026213071E+03  0.17120000000E+03 0.  0.
        998    1    1    2    0    0 -0.57421115681E+01  0.10278524072E+02  0.12011094290E+04  0.12012087580E+04  0.10000000000E+02 0.  1.
</event>
<event>
 5    1  0.1675361E-008  0.3782295E+03  0.7957747E-01  0.3458904E+00
         13   -1    0    0    0    0  0.00000000000E+00  0.00000000000E+00  0.14999999963E+04  0.15000000000E+04  0.10566000000E+00 0. -1.
        994   -1    0    0    0    0 -0.00000000000E+00 -0.00000000000E+00  0.11368683772E-12  0.17120000000E+03  0.17120000000E+03 0.  0.
         13    1    1    2    0    0 -0.11075060019E+02  0.16402275247E+02  0.36746702854E+02  0.41737548111E+02  0.10566000000E+00 0. -1.
        994    1    1    2    0    0  0.80044787943E+01 -0.12676350745E+02  0.57856831141E+01  0.17195253903E+03  0.17120000000E+03 0.  0.
        998    1    1    2    0    0  0.30705812247E+01 -0.37259245015E+01  0.14574676103E+04  0.14575099129E+04  0.10000000000E+02 0. -1.
</event>
<event>
 5    1  0.1675361E-008  0.3912766E+03  0.7957747E-01  0.3403481E+00
         13   -1    0    0    0    0  0.00000000000E+00  0.00000000000E+00  0.14999999963E+04  0.15000000000E+04  0.10566000000E+00 0.  1.
        994   -1    0    0    0    0 -0.00000000000E+00 -0.00000000000E+00  0.11368683772E-12  0.17120000000E+03  0.17120000000E+03 0.  0.
         13    1    1    2    0    0 -0.44862973297E+02 -0.11597210740E+03  0.57224138462E+03  0.58559579020E+03  0.10566000000E+00 0.  1.
        994    1    1    2    0    0 -0.50555649602E+02  0.30750896168E+02  0.36026167159E+02  0.18468572236E+03  0.17120000000E+03 0.  0.
        998    1    1    2    0    0  0.95418622899E+02  0.85221211232E+02  0.89173244450E+03  0.90091848744E+03  0.10000000000E+02 0.  1.
</event>
<event>
 5    1  0.1675361E-008  0.3836814E+03  0.7957747E-01  0.3435284E+00
         13   -1    0    0    0    0  0.00000000000E+00  0.00000000000E+00  0.14999999963E+04  0.15000000000E+04  0.10566000000E+00 0.  1.
        994   -1    0    0    0    0 -0.00000000000E+00 -0.00000000000E+00  0.11368683772E-12  0.17120000000E+03  0.17120000000E+03 0.  0.
         13    1    1    2    0    0 -0.16366980757E+02  0.34404705596E+01  0.57250301269E+02  0.59643298502E+02  0.10566000000E+00 0.  1.
        994    1    1    2    0    0  0.23692236357E+02  0.43516154947E+01  0.42050082179E+01  0.17293750523E+03  0.17120000000E+03 0.  0.
        998    1    1    2    0    0 -0.73252556002E+01 -0.77920860543E+01  0.14385446868E+04  0.14386191963E+04  0.10000000000E+02 0.  1.
</event>
<event>
 5    1  0.1675361E-008  0.3818536E+03  0.7957747E-01  0.3443127E+00
         13   -1    0    0    0    0  0.00000000000E+00  0.00000000000E+00  0.14999999963E+04  0.15000000000E+04  0.10566000000E+00 0. -1.
        994   -1    0    0    0    0 -0.00000000000E+00 -0.00000000000E+00  0.11368683772E-12  0.17120000000E+03  0.17120000000E+03 0.  0.
         13    1    1    2    0    0 -0.10087706428E+02 -0.71853795428E+01  0.23329143595E+02  0.26413095333E+02  0.10566000000E+00 0. -1.
        994    1    1    2    0    0  0.51571721292E+01 -0.73616075068E+01  0.34688349309E+01  0.17147087947E+03  0.17120000000E+03 0.  0.
        998    1    1    2    0    0  0.49305342986E+01  0.14546987050E+02  0.14732020178E+04  0.14733160252E+04  0.10000000000E+02 0. -1.
</event>
<event>
 5    1  0.1675361E-008  0.3801025E+03  0.7957747E-01  0.3450712E+00
         13   -1    0    0    0    0  0.00000000000E+00  0.00000000000E+00  0.14999999963E+04  0.15000000000E+04  0.10566000000E+00 0. -1.
        994   -1    0    0    0    0 -0.00000000000E+00 -0.00000000000E+00  0.11368683772E-12  0.17120000000E+03  0.17120000000E+03 0.  0.
         13    1    1    2    0    0 -0.57713615097E+01 -0.27245533862E+02  0.10120510119E+03  0.10496719201E+03  0.10566000000E+00 0. -1.
        994    1    1    2    0    0  0.12722652606E+02 -0.34448271235E+00  0.46229056897E+01  0.17173466690E+03  0.17120000000E+03 0.  0.
        998    1    1    2    0    0 -0.69512910965E+01  0.27590016574E+02  0.13941719894E+04  0.13944981411E+04  0.10000000000E+02 0. -1.
</event>
<event>
 5    1  0.1675361E-008  0.3787656E+03  0.7957747E-01  0.3456551E+00
         13   -1    0    0    0    0  0.00000000000E+00  0.00000000000E+00  0.14999999963E+04  0.15000000000E+04  0.10566000000E+00 0.  1.
        994   -1    0    0    0    0 -0.00000000000E+00 -0.00000000000E+00  0.11368683772E-12  0.17120000000E+03  0.17120000000E+03 0.  0.
         13    1    1    2    0    0  0.14546378976E+02 -0.13106333283E+02  0.38101134371E+02  0.42837842124E+02  0.10566000000E+00 0.  1.
        994    1    1    2    0    0 -0.74012494159E+01  0.15231652391E+02  0.57207349878E+01  0.17213061476E+03  0.17120000000E+03 0.  0.
        998    1    1    2    0    0 -0.71451295606E+01 -0.21253191080E+01  0.14561781269E+04  0.14562315431E+04  0.10000000000E+02 0.  1.
</event>
<event>
 5    1  0.1675361E-008  0.3853912E+03  0.7957747E-01  0.3428015E+00
         13   -1    0    0    0    0  0.00000000000E+00  0.00000000000E+00  0.14999999963E+04  0.15000000000E+04  0.10566000000E+00 0. -1.
        994   -1    0    0    0    0 -0.00000000000E+00 -0.00000000000E+00  0.11368683772E-12  0.17120000000E+03  0.17120000000E+03 0.  0.
         13    1    1    2    0    0 -0.37923065287E+01  0.93584522713E+01  0.35620999935E+02  0.37024708211E+02  0.10566000000E+00 0. -1.
        994    1    1    2    0    0  0.49741471245E+01 -0.47030582501E+01  0.15899530731E+01  0.17134418241E+03  0.17120000000E+03 0.  0.
        998    1    1    2    0    0 -0.11818405958E+01 -0.46553940212E+01  0.14627890433E+04  0.14628311094E+04  0.10000000000E+02 0. -1.
</event>
<event>
 5    1  0.1675361E-008  0.3717042E+03  0.7957747E-01  0.3488095E+00
         13   -1    0    0    0    0  0.00000000000E+00  0.00000000000E+00  0.14999999963E+04  0.15000000000E+04  0.10566000000E+00 0. -1.
        994   -1    0    0    0    0 -0.00000000000E+00 -0.00000000000E+00  0.11368683772E-12  0.17120000000E+03  0.17120000000E+03 0.  0.
         13    1    1    2    0    0  0.30974620369E+02 -0.28038333535E+00  0.59330555857E+02  0.66930051129E+02  0.10566000000E+00 0. -1.
        994    1    1    2    0    0  0.95683633394E+01  0.11256895980E+00  0.86958032242E+01  0.17168757451E+03  0.17120000000E+03 0.  0.
        998    1    1    2    0    0 -0.40542983708E+02  0.16781437556E+00  0.14319736372E+04  0.14325823744E+04  0.10000000000E+02 0. -1.
</event>
<event>
 5    1  0.1675361E-008  0.3802478E+03  0.7957747E-01  0.3450080E+00
         13   -1    0    0    0    0  0.00000000000E+00  0.00000000000E+00  0.14999999963E+04  0.15000000000E+04  0.10566000000E+00 0. -1.
        994   -1    0    0    0    0 -0.00000000000E+00 -0.00000000000E+00  0.11368683772E-12  0.17120000000E+03  0.17120000000E+03 0.  0.
         13    1    1    2    0    0  0.27818681391E+02 -0.24390022497E+02  0.17277736638E+03  0.17669403422E+03  0.10566000000E+00 0. -1.
        994    1    1    2    0    0 -0.18408296593E+02  0.74647156451E+01  0.53272005911E+01  0.17243087435E+03  0.17120000000E+03 0.  0.
        998    1    1    2    0    0 -0.94103847979E+01  0.16925306852E+02  0.13218954293E+04  0.13220750914E+04  0.10000000000E+02 0. -1.
</event>
<event>
 5    1  0.1675361E-008  0.3796397E+03  0.7957747E-01  0.3452729E+00
         13   -1    0    0    0    0  0.00000000000E+00  0.00000000000E+00  0.14999999963E+04  0.15000000000E+04  0.10566000000E+00 0. -1.
        994   -1    0    0    0    0 -0.00000000000E+00 -0.00000000000E+00  0.11368683772E-12  0.17120000000E+03  0.17120000000E+03 0.  0.
         13    1    1    2    0    0 -0.41771234824E+01 -0.91598997193E+01  0.10147268742E+02  0.14294416757E+02  0.10566000000E+00 0. -1.
        994    1    1    2    0    0 -0.64791573307E+01 -0.45455211046E+01  0.45248296108E+01  0.17144257151E+03  0.17120000000E+03 0.  0.
        998    1    1    2    0    0  0.10656280813E+02  0.13705420824E+02  0.14853278979E+04  0.14854630117E+04  0.10000000000E+02 0. -1.
</event>
<event>
 5    1  0.1675361E-008  0.3788681E+03  0.7957747E-01  0.3456102E+00
         13   -1    0    0    0    0  0.00000000000E+00  0.00000000000E+00  0.14999999963E+04  0.15000000000E+04  0.10566000000E+00 0.  1.
        994   -1    0    0    0    0 -0.00000000000E+00 -0.00000000000E+00  0.11368683772E-12  0.17120000000E+03  0.17120000000E+03 0.  0.
         13    1    1    2    0    0 -0.53885720111E+02 -0.27099957114E+02  0.35066112259E+03  0.35581078197E+03  0.10566000000E+00 0.  1.
        994    1    1    2    0    0  0.37263553439E+02  0.24000771235E+02  0.11326227500E+02  0.17720703390E+03  0.17120000000E+03 0.  0.
        998    1    1    2    0    0  0.16622166673E+02  0.30991858799E+01  0.11380126462E+04  0.11381821841E+04  0.10000000000E+02 0.  1.
</event>
<event>
 5    1  0.1675361E-008  0.3799461E+03  0.7957747E-01  0.3451393E+00
         13   -1    0    0    0    0  0.00000000000E+00  0.00000000000E+00  0.14999999963E+04  0.15000000000E+04  0.10566000000E+00 0.  1.
        994   -1    0    0    0    0 -0.00000000000E+00 -0.00000000000E+00  0.11368683772E-12  0.17120000000E+03  0.17120000000E+03 0.  0.
         13    1    1    2    0    0  0.22055958439E+02 -0.14678040555E+02  0.93285887910E+02  0.96975142302E+02  0.10566000000E+00 0.  1.
        994    1    1    2    0    0  0.14187955881E+02  0.88399841100E+01  0.50952375289E+01  0.17208964192E+03  0.17120000000E+03 0.  0.
        998    1    1    2    0    0 -0.36243914320E+02  0.58380564454E+01  0.14016188708E+04  0.14021352158E+04  0.10000000000E+02 0.  1.
</event>
<event>
 5    1  0.1675361E-008  0.3769051E+03  0.7957747E-01  0.3464746E+00
         13   -1    0    0    0    0  0.00000000000E+00  0.00000000000E+00  0.14999999963E+04  0.15000000000E+04  0.10566000000E+00 0.  1.
        994   -1    0    0    0    0 -0.00000000000E+00 -0.00000000000E+00  0.11368683772E-12  0.17120000000E+03  0.17120000000E+03 0.  0.
         13    1    1    2    0    0 -0.33268255568E+02 -0.20933588881E+02  0.15279466297E+03  0.15776949061E+03  0.10566000000E+00 0.  1.
        994    1    1    2    0    0  0.57964504945E+00 -0.22485419865E+01  0.57218494183E+01  0.17131132914E+03  0.17120000000E+03 0.  0.
        998    1    1    2    0    0  0.32688610519E+02  0.23182130867E+02  0.13414834839E+04  0.13421191803E+04  0.10000000000E+02 0.  1.
</event>
<event>
 5    1  0.1675361E-008  0.3818740E+03  0.7957747E-01  0.3443039E+00
         13   -1    0    0    0    0  0.00000000000E+00  0.00000000000E+00  0.14999999963E+04  0.15000000000E+04  0.10566000000E+00 0. -1.
        994   -1    0    0    0    0 -0.00000000000E+00 -0.00000000000E+00  0.11368683772E-12  0.17120000000E+03  0.17120000000E+03 0.  0.
         13    1    1    2    0    0  0.10295593577E+02 -0.67547138475E+01  0.23899104900E+02  0.26885010421E+02  0.10566000000E+00 0. -1.
        994    1    1    2    0    0  0.85840781459E+01 -0.63575430981E+01  0.35693090625E+01  0.17157005776E+03  0.17120000000E+03 0.  0.
        998    1    1    2    0    0 -0.18879671723E+02  0.13112256946E+02  0.14725315823E+04  0.14727449318E+04  0.10000000000E+02 0. -1.
</event>
<event>
 5    1  0.1675361E-008  0.3844411E+03  0.7957747E-01  0.3432046E+00
         13   -1    0    0    0    0  0.00000000000E+00  0.00000000000E+00  0.14999999963E+04  0.15000000000E+04  0.10566000000E+00 0. -1.
        994   -1    0    0    0    0 -0.00000000000E+00 -0.00000000000E+00  0.11368683772E-12  0.17120000000E+03  0.17120000000E+03 0.  0.
         13    1    1    2    0    0  0.17760654266E+02  0.85504297331E+01  0.11049029207E+03  0.11223487200E+03  0.10566000000E+00 0. -1.
        994    1    1    2    0    0 -0.53044518502E+01  0.69418633379E+01  0.21593950088E+01  0.17143637205E+03  0.17120000000E+03 0.  0.
        998    1    1    2    0    0 -0.12456202416E+02 -0.15492293071E+02  0.13873503092E+04  0.13875287559E+04  0.10000000000E+02 0. -1.
</event>
<event>
 5    1  0.1675361E-008  0.3757957E+03  0.7957747E-01  0.3469672E+00
         13   -1    0    0    0    0  0.00000000000E+00  0.00000000000E+00  0.14999999963E+04  0.15000000000E+04  0.10566000000E+00 0.  1.
        994   -1    0    0    0    0 -0.00000000000E+00 -0.00000000000E+00  0.11368683772E-12  0.17120000000E+03  0.17120000000E+03 0.  0.
         13    1    1    2    0    0  0.67470941485E+02 -0.21045720825E+02  0.32799614130E+03  0.33552455973E+03  0.10566000000E+00 0.  1.
        994    1    1    2    0    0 -0.58208176767E+02  0.28842219997E+02  0.20714029906E+02  0.18427852976E+03  0.17120000000E+03 0.  0.
        998    1    1    2    0    0 -0.92627647181E+01 -0.77964991719E+01  0.11512898251E+04  0.11513969105E+04  0.10000000000E+02 0.  1.
</event>
<event>
 5    1  0.1675361E-008  0.3850774E+03  0.7957747E-01  0.3429344E+00
         13   -1    0    0    0    0  0.00000000000E+00  0.00000000000E+00  0.14999999963E+04  0.15000000000E+04  0.10566000000E+00 0. -1.
        994   -1    0    0    0    0 -0.00000000000E+00 -0.00000000000E+00  0.11368683772E-12  0.17120000000E+03  0.17120000000E+03 0.  0.
         13    1    1    2    0    0  0.56019722852E+01 -0.12070429786E+02  0.54781956630E+02  0.56375094723E+02  0.10566000000E+00 0. -1.
        994    1    1    2    0    0 -0.10245491452E+02  0.79681896638E+01  0.21457910304E+01  0.17170470745E+03  0.17120000000E+03 0.  0.
        998    1    1    2    0    0  0.46435191664E+01  0.41022401218E+01  0.14430722486E+04  0.14431201978E+04  0.10000000000E+02 0. -1.
</event>
<event>
 5    1  0.1675361E-008  0.3851127E+03  0.7957747E-01  0.3429194E+00
         13   -1    0    0    0    0  0.00000000000E+00  0.00000000000E+00  0.14999999963E+04  0.15000000000E+04  0.10566000000E+00 0. -1.
        994   -1    0    0    0    0 -0.00000000000E+00 -0.00000000000E+00  0.11368683772E-12  0.17120000000E+03  0.17120000000E+03 0.  0.
         13    1    1    2    0    0  0.13156441439E+02  0.11600542172E+01  0.60309448054E+02  0.61738791418E+02  0.10566000000E+00 0. -1.
        994    1    1    2    0    0  0.44484678754E+01  0.15452690498E+01  0.16470846653E+01  0.17127267619E+03  0.17120000000E+03 0.  0.
        998    1    1    2    0    0 -0.17604909314E+02 -0.27053232670E+01  0.14380434636E+04  0.14381885324E+04  0.10000000000E+02 0. -1.
</event>
